   This run of MOLCAS is using the pymolcas driver

                             OPE
                             OPE          NMOL  CASOP  ENMOLC A   SO
                 OPE        NMOLC        AS  OP EN  MO LC     AS  OP
                OPENM       OL CA        SO  PE NM  OL CA     SOP EN
                OP EN      MO   LC       AS  OP ENMOL  CASO   PENMOL
                OP  EN     MO   LC       AS  OP EN     MO     LC ASO
               OP   E  NMOL  C  AS       OP  EN MO     LC     AS  OP
               OP  E   NMO   LC AS        OPEN  MO     LCASOP EN   M
               O  PEN   MO  LCA  SO
            OPE   NMO   L   CAS    OP
        OPENMOL  CASOP     ENMOL   CASOPE
     OPENMOLCA   SOPENMOLCASOPEN   MOLCASOPE
    OPENMOLCAS   OP           EN   MOL    CAS
    OPENMOLCAS       OP  ENM        O     LCA
    OPENMOLCAS    OPEN  MOLCASO     P  E  NMO
    OPENMOLCAS     OP               E  N  MOL
    OPENMOLCA   SO           PENM   O  L  CAS    OPEN    MO    LCAS
    OPENMOLCA   SOP           ENM   O  L  CAS   OP  EN  MOLC  AS   O
    OPENMOLCA   SOPE           NM      O  LCA   S      OP  EN MO
    OPENMOLC                AS         O  PEN   M      OL  CA  SOPE
    OPENMO        LCASOPE  NMOL        C  ASO   P      ENMOLC     AS
    OPE     NMO      LCA  SO     P     E   NM   OL  CA SO  PE N   MO
          OPENMOLCA            SOPE   NMO        LCAS  O    P  ENMO
     OPENMOLCASOPENMOLCASOPENMOLCASOPENMOLCA
        OPENMOLCASOPENMOLCASOPENMOLCASOPE
            OPENMOLCASOPENMOLCASOPENM
               OPENMOLCASOPENMOLCA        version: o91e1abe7de707b ?
                   OPENMOLCASO
                       OPE                tag:

 OpenMolcas is free software; you can redistribute it and/or modify it
 under the terms of the GNU Lesser General Public License version 2.1.
 OpenMolcas is distributed in the hope that it will be useful, but it
 is provided "as is" and without any express or implied warranties.
 For more details see the full text of the license in the file
 LICENSE or in <http://www.gnu.org/licenses/>.

                 Copyright (C) The OpenMolcas Authors
           For the author list and the recommended citation,
                   consult the file CONTRIBUTORS.md

           *************************************************
           * pymolcas version py2.10                       *
           *   build 3068ae8b88c9345ec6cfef6fef7f1169      *
           *   (after the EMIL interpreter by V. Veryazov) *
           *************************************************

configuration info
------------------
Host name: login1 (Linux)
C Compiler ID: GNU
C flags: -std=gnu99
Fortran Compiler ID: GNU
Fortran flags: -fno-aggressive-loop-optimizations -cpp -fdefault-integer-8 -fmax-stack-var-size=1048576
Definitions: _MOLCAS_;_I8_;_LINUX_;_MKL_
Parallel: OFF (GA=OFF)


   -----------------------------------------------------------------------------------------------------------------------------------
  |
  |           Project: chromium_so_cf
  |    Submitted from: /home4/s4752295/Internship/Initial_simulations/Point_charge_model/1_electron/Madelung_charges_9_active_space/Cr
  |      Scratch area: /tmp/chromium_so_cf
  |   Save outputs to: /home4/s4752295/Internship/Initial_simulations/Point_charge_model/1_electron/Madelung_charges_9_active_space/Cr
  |            Molcas: /home4/s4752295/Internship/Molcas/recomp_try/OpenMolcas-master/build
  |
  | Scratch area is empty
  |
  |    MOLCAS_DRIVER = /home4/s4752295/Internship/Molcas/bin/pymolcas
  |    MOLCAS_NPROCS = 1
  |    MOLCAS_SOURCE = /home4/s4752295/Internship/Molcas/recomp_try/OpenMolcas-master
  | MOLCAS_STRUCTURE = 0
  |
   -----------------------------------------------------------------------------------------------------------------------------------

++ ---------   Input file   ---------

&SEWARD
AMFi

CLIG
$R

Basis Set
Cr.ANO-rcc.Roos.21s15p10d6f4g2h.10s10p8d6f4g2h.
Spherical d
Cr            -1.0658140267135469e-14   -3.5527134223784897e-15 0.008753588724385739
End of Basis

Xfield

414
-6.8037418359999995,-2.618,1.5115022999999999   -0.625931
-6.8037418359999995,-0.0,-3.0230062999999996    -0.625931
-6.8037418359999995,2.618,1.5115022999999999    -0.625931
-6.792088319,0.0,0.0    1.892092
4.520605473,-2.618,-1.5115022999999999  2.515516
4.520605473,0.0,3.0230062999999996      2.515516
4.520605473,2.618,-1.5115022999999999   2.515516
6.057080076,-5.236,0.0  0.004632
6.057080076,-2.618,-4.5345086   0.004632
6.057080076,-2.618,4.5345086    0.004632
6.057080076,2.618,-4.5345086    0.004632
6.057080076,2.618,4.5345086     0.004632
6.057080076,5.236,0.0   0.004632
7.019555663,-2.618,1.5115022999999999   -2.519484
7.019555663,-0.0,-3.0230062999999996    -2.519484
7.019555663,2.618,1.5115022999999999    -2.519484
-4.986279299,-0.0,-0.0  -3.142907
-8.457666022,-5.236,-3.0230062999999996 -0.625931
-8.457666022,0.0,6.0460109      -0.625931
-8.457666022,5.236,-3.0230062999999996  -0.625931
-11.2359375,-5.236,0.0  1.892092
-11.2359375,-2.618,-4.5345086   1.892092
-11.2359375,-2.618,4.5345086    1.892092
-11.2359375,2.618,-4.5345086    1.892092
-11.2359375,2.618,4.5345086     1.892092
-11.2359375,5.236,0.0   1.892092
42.7921875,-5.236,3.0230062999999996    2.515516
42.7921875,-0.0,-6.0460109      2.515516
42.7921875,5.236,3.0230062999999996     2.515516
6.185742196,-5.236,-3.0230062999999996  -2.519484
6.185742196,0.0,6.0460109       -2.519484
6.185742196,5.236,-3.0230062999999996   -2.519484
-5.495117196,-5.236,-0.0        -3.142907
-5.495117196,-2.618,-4.5345086  -3.142907
-5.495117196,-2.618,4.5345086   -3.142907
-5.495117196,2.618,-4.5345086   -3.142907
-5.495117196,2.618,4.5345086    -3.142907
-5.495117196,5.236,-0.0 -3.142907
-16.189843749999998,-5.236,6.0460109    -0.625931
-16.189843749999998,5.236,6.0460109     -0.625931
-16.189843749999998,-7.854,1.5115022999999999   -0.625931
-16.189843749999998,7.854,1.5115022999999999    -0.625931
-16.189843749999998,-2.618,-7.5575149   -0.625931
-16.189843749999998,2.618,-7.5575149    -0.625931
10.21328125,-2.618,-1.5115022999999999  4.409069
10.21328125,2.618,-1.5115022999999999   4.409069
10.21328125,0.0,3.0230062999999996      4.409069
-297.925,-0.0,-0.0      -5.030367
-297.925,0.0,0.0        5.039632
22.979882804,-5.236,-6.0460109  2.515516
22.979882804,5.236,-6.0460109   2.515516
22.979882804,-7.854,-1.5115022999999999 2.515516
22.979882804,7.854,-1.5115022999999999  2.515516
22.979882804,-2.618,7.5575149   2.515516
22.979882804,2.618,7.5575149    2.515516
32.36640625,-7.854,-4.5345086   0.004632
32.36640625,-7.854,4.5345086    0.004632
32.36640625,7.854,-4.5345086    0.004632
32.36640625,7.854,4.5345086     0.004632
32.36640625,-0.0,-9.0690172     0.004632
32.36640625,0.0,9.0690172       0.004632
81.7328125,-5.236,6.0460109     -2.519484
81.7328125,5.236,6.0460109      -2.519484
81.7328125,-7.854,1.5115022999999999    -2.519484
81.7328125,7.854,1.5115022999999999     -2.519484
81.7328125,-2.618,-7.5575149    -2.519484
81.7328125,2.618,-7.5575149     -2.519484
-247.98749999999998,-7.854,-4.5345086   1.892092
-247.98749999999998,-7.854,4.5345086    1.892092
-247.98749999999998,7.854,-4.5345086    1.892092
-247.98749999999998,7.854,4.5345086     1.892092
-247.98749999999998,-0.0,-9.0690172     1.892092
-247.98749999999998,0.0,9.0690172       1.892092
-200.17499999999998,-5.236,3.0230062999999996   4.409069
-200.17499999999998,-0.0,-6.0460109     4.409069
-200.17499999999998,5.236,3.0230062999999996    4.409069
-151.29999999999998,-5.236,-0.0 -5.030367
-151.29999999999998,-2.618,-4.5345086   -5.030367
-151.29999999999998,-2.618,4.5345086    -5.030367
-151.29999999999998,2.618,-4.5345086    -5.030367
-151.29999999999998,-5.236,0.0  5.039632
-151.29999999999998,5.236,-0.0  -5.030367
-151.29999999999998,2.618,4.5345086     -5.030367
-151.29999999999998,-2.618,-4.5345086   5.039632
-151.29999999999998,-2.618,4.5345086    5.039632
-151.29999999999998,2.618,-4.5345086    5.039632
-151.29999999999998,5.236,0.0   5.039632
-151.29999999999998,2.618,4.5345086     5.039632
-79.2625,-2.618,-1.5115022999999999     -5.660931
-79.2625,0.0,3.0230062999999996 -5.660931
-79.2625,2.618,-1.5115022999999999      -5.660931
1.50078125,-10.4719983,0.0      0.004632
1.50078125,-5.236,-9.0690172    0.004632
1.50078125,-5.236,9.0690172     0.004632
1.50078125,5.236,-9.0690172     0.004632
1.50078125,10.4719983,0.0       0.004632
1.50078125,5.236,9.0690172      0.004632
115.49374999999999,-7.854,4.5345086     -3.142907
115.49374999999999,-7.854,-4.5345086    -3.142907
115.49374999999999,7.854,-4.5345086     -3.142907
115.49374999999999,7.854,4.5345086      -3.142907
115.49374999999999,-0.0,-9.0690172      -3.142907
115.49374999999999,0.0,9.0690172        -3.142907
146.8375,-10.4719983,-3.0230062999999996        -0.625931
146.8375,-7.854,-7.5575149      -0.625931
146.8375,-2.618,10.5805195      -0.625931
146.8375,7.854,-7.5575149       -0.625931
146.8375,10.4719983,-3.0230062999999996 -0.625931
146.8375,2.618,10.5805195       -0.625931
2.035351554,-10.4719983,0.0     1.892092
2.035351554,-5.236,-9.0690172   1.892092
2.035351554,-5.236,9.0690172    1.892092
2.035351554,5.236,-9.0690172    1.892092
2.035351554,10.4719983,0.0      1.892092
2.035351554,5.236,9.0690172     1.892092
57.534375,-5.236,-6.0460109     4.409069
57.534375,5.236,-6.0460109      4.409069
57.534375,-7.854,-1.5115022999999999    4.409069
57.534375,7.854,-1.5115022999999999     4.409069
57.534375,-2.618,7.5575149      4.409069
57.534375,2.618,7.5575149       4.409069
276.090625,-5.236,3.0230062999999996    -5.660931
276.090625,-0.0,-6.0460109      -5.660931
276.090625,5.236,3.0230062999999996     -5.660931
0.584375,-10.4719983,3.0230062999999996 2.515516
0.584375,-2.618,-10.5805195     2.515516
0.584375,-7.854,7.5575149       2.515516
0.584375,2.618,-10.5805195      2.515516
0.584375,10.4719983,3.0230062999999996  2.515516
0.584375,7.854,7.5575149        2.515516
-160.11875,-10.4719983,-3.0230062999999996      -2.519484
-160.11875,-7.854,-7.5575149    -2.519484
-160.11875,-2.618,10.5805195    -2.519484
-160.11875,7.854,-7.5575149     -2.519484
-160.11875,2.618,10.5805195     -2.519484
-160.11875,10.4719983,-3.0230062999999996       -2.519484
-37.51953125,-10.4719983,-0.0   -3.142907
-37.51953125,-5.236,-9.0690172  -3.142907
-37.51953125,-5.236,9.0690172   -3.142907
-37.51953125,5.236,-9.0690172   -3.142907
-37.51953125,5.236,9.0690172    -3.142907
-37.51953125,10.4719983,-0.0    -3.142907
1031.05,0.0,0.0 6.927092
549.525,-10.4719983,6.0460109   -0.625931
549.525,10.4719983,6.0460109    -0.625931
549.525,-0.0,-12.0920235        -0.625931
-9.2171875,-7.854,4.5345086     -5.030367
-9.2171875,-7.854,-4.5345086    -5.030367
-9.2171875,-7.854,4.5345086     5.039632
-9.2171875,-7.854,-4.5345086    5.039632
-9.2171875,7.854,-4.5345086     -5.030367
-9.2171875,7.854,4.5345086      -5.030367
-9.2171875,7.854,-4.5345086     5.039632
-9.2171875,7.854,4.5345086      5.039632
-9.2171875,-0.0,-9.0690172      -5.030367
-9.2171875,0.0,9.0690172        -5.030367
-9.2171875,-0.0,-9.0690172      5.039632
-9.2171875,0.0,9.0690172        5.039632
156.08124999999998,-5.236,-6.0460109    -5.660931
156.08124999999998,5.236,-6.0460109     -5.660931
156.08124999999998,-7.854,-1.5115022999999999   -5.660931
156.08124999999998,7.854,-1.5115022999999999    -5.660931
156.08124999999998,-2.618,7.5575149     -5.660931
156.08124999999998,2.618,7.5575149      -5.660931
510.84999999999997,-10.4719983,-6.0460109       2.515516
510.84999999999997,10.4719983,-6.0460109        2.515516
510.84999999999997,0.0,12.0920235       2.515516
-879.3249999999999,-10.4719983,6.0460109        -2.519484
-879.3249999999999,10.4719983,6.0460109 -2.519484
-879.3249999999999,-0.0,-12.0920235     -2.519484
91.05624999999999,-5.236,0.0    6.927092
91.05624999999999,-2.618,-4.5345086     6.927092
91.05624999999999,-2.618,4.5345086      6.927092
91.05624999999999,2.618,-4.5345086      6.927092
91.05624999999999,2.618,4.5345086       6.927092
91.05624999999999,5.236,0.0     6.927092
-93.925,-2.618,1.5115022999999999       7.550516
-93.925,0.0,-3.0230062999999996 7.550516
-93.925,2.618,1.5115022999999999        7.550516
26.403125,-2.618,-1.5115022999999999    -7.554483
26.403125,2.618,-1.5115022999999999     -7.554483
26.403125,-0.0,3.0230062999999996       -7.554483
-212.2875,-13.0899983,1.5115022999999999        -0.625931
-212.2875,-7.854,10.5805195     -0.625931
-212.2875,-5.236,-12.0920235    -0.625931
-212.2875,5.236,-12.0920235     -0.625931
-212.2875,13.0899983,1.5115022999999999 -0.625931
-212.2875,7.854,10.5805195      -0.625931
-114.64375,-10.4719983,3.0230062999999996       4.409069
-114.64375,-7.854,7.5575149     4.409069
-114.64375,-2.618,-10.5805195   4.409069
-114.64375,2.618,-10.5805195    4.409069
-114.64375,7.854,7.5575149      4.409069
-114.64375,10.4719983,3.0230062999999996        4.409069
83.565625,-10.4719983,-0.0      -5.030367
83.565625,-5.236,-9.0690172     -5.030367
83.565625,-5.236,9.0690172      -5.030367
83.565625,-10.4719983,0.0       5.039632
83.565625,-5.236,-9.0690172     5.039632
83.565625,5.236,-9.0690172      -5.030367
83.565625,5.236,9.0690172       -5.030367
83.565625,10.4719983,-0.0       -5.030367
83.565625,-5.236,9.0690172      5.039632
83.565625,5.236,-9.0690172      5.039632
83.565625,10.4719983,0.0        5.039632
83.565625,5.236,9.0690172       5.039632
307.275,-13.0899983,-1.5115022999999999 2.515516
307.275,-7.854,-10.5805195      2.515516
307.275,-5.236,12.0920235       2.515516
307.275,7.854,-10.5805195       2.515516
307.275,13.0899983,-1.5115022999999999  2.515516
307.275,5.236,12.0920235        2.515516
-39.684374999999996,-13.0899983,-4.5345086      0.004632
-39.684374999999996,-13.0899983,4.5345086       0.004632
-39.684374999999996,-10.4719983,-9.0690172      0.004632
-39.684374999999996,-10.4719983,9.0690172       0.004632
-39.684374999999996,-2.618,-13.6035258  0.004632
-39.684374999999996,2.618,-13.6035258   0.004632
-39.684374999999996,-2.618,13.6035258   0.004632
-39.684374999999996,10.4719983,-9.0690172       0.004632
-39.684374999999996,2.618,13.6035258    0.004632
-39.684374999999996,13.0899983,-4.5345086       0.004632
-39.684374999999996,13.0899983,4.5345086        0.004632
-39.684374999999996,10.4719983,9.0690172        0.004632
-243.3125,-13.0899983,1.5115022999999999        -2.519484
-243.3125,-7.854,10.5805195     -2.519484
-243.3125,-5.236,-12.0920235    -2.519484
-243.3125,5.236,-12.0920235     -2.519484
-243.3125,13.0899983,1.5115022999999999 -2.519484
-243.3125,7.854,10.5805195      -2.519484
5154.4,-0.0,-0.0        -8.177907
-197.2,-5.236,-3.0230062999999996       7.550516
-197.2,0.0,6.0460109    7.550516
-197.2,5.236,-3.0230062999999996        7.550516
-1025.95,-5.236,3.0230062999999996      -7.554483
-1025.95,-0.0,-6.0460109        -7.554483
-1025.95,5.236,3.0230062999999996       -7.554483
83.140625,-13.0899983,4.5345086 1.892092
83.140625,-13.0899983,-4.5345086        1.892092
83.140625,-10.4719983,-9.0690172        1.892092
83.140625,-10.4719983,9.0690172 1.892092
83.140625,-2.618,-13.6035258    1.892092
83.140625,2.618,-13.6035258     1.892092
83.140625,-2.618,13.6035258     1.892092
83.140625,10.4719983,-9.0690172 1.892092
83.140625,2.618,13.6035258      1.892092
83.140625,13.0899983,-4.5345086 1.892092
83.140625,13.0899983,4.5345086  1.892092
83.140625,10.4719983,9.0690172  1.892092
-858.5,-10.4719983,-6.0460109   4.409069
-858.5,10.4719983,-6.0460109    4.409069
-858.5,0.0,12.0920235   4.409069
43.89453125,-10.4719983,3.0230062999999996      -5.660931
43.89453125,-2.618,-10.5805195  -5.660931
43.89453125,-7.854,7.5575149    -5.660931
43.89453125,2.618,-10.5805195   -5.660931
43.89453125,7.854,7.5575149     -5.660931
43.89453125,10.4719983,3.0230062999999996       -5.660931
-98.91875,-10.4719983,-9.0690172        -3.142907
-98.91875,-13.0899983,4.5345086 -3.142907
-98.91875,-13.0899983,-4.5345086        -3.142907
-98.91875,-10.4719983,9.0690172 -3.142907
-98.91875,-2.618,-13.6035258    -3.142907
-98.91875,2.618,-13.6035258     -3.142907
-98.91875,-2.618,13.6035258     -3.142907
-98.91875,13.0899983,-4.5345086 -3.142907
-98.91875,10.4719983,-9.0690172 -3.142907
-98.91875,2.618,13.6035258      -3.142907
-98.91875,13.0899983,4.5345086  -3.142907
-98.91875,10.4719983,9.0690172  -3.142907
111.190625,-7.854,-4.5345086    6.927092
111.190625,-7.854,4.5345086     6.927092
111.190625,7.854,-4.5345086     6.927092
111.190625,7.854,4.5345086      6.927092
111.190625,-0.0,-9.0690172      6.927092
111.190625,0.0,9.0690172        6.927092
-141.525,-5.236,-0.0    -8.177907
-141.525,-2.618,4.5345086       -8.177907
-141.525,-2.618,-4.5345086      -8.177907
-141.525,2.618,-4.5345086       -8.177907
-141.525,5.236,-0.0     -8.177907
-141.525,2.618,4.5345086        -8.177907
-154.540625,-5.236,6.0460109    7.550516
-154.540625,5.236,6.0460109     7.550516
-154.540625,-7.854,1.5115022999999999   7.550516
-154.540625,7.854,1.5115022999999999    7.550516
-154.540625,-2.618,-7.5575149   7.550516
-154.540625,2.618,-7.5575149    7.550516
-77.66875,-5.236,-6.0460109     -7.554483
-77.66875,5.236,-6.0460109      -7.554483
-77.66875,-7.854,-1.5115022999999999    -7.554483
-77.66875,7.854,-1.5115022999999999     -7.554483
-77.66875,-2.618,7.5575149      -7.554483
-77.66875,2.618,7.5575149       -7.554483
-850.425,0.0,15.115028099999998 -0.625931
-850.425,-13.0899983,-7.5575149 -0.625931
-850.425,13.0899983,-7.5575149  -0.625931
-458.575,-13.0899983,-1.5115022999999999        4.409069
-458.575,-7.854,-10.5805195     4.409069
-458.575,-5.236,12.0920235      4.409069
-458.575,7.854,-10.5805195      4.409069
-458.575,13.0899983,-1.5115022999999999 4.409069
-458.575,5.236,12.0920235       4.409069
527.6374999999999,-10.4719983,-6.0460109        -5.660931
527.6374999999999,10.4719983,-6.0460109 -5.660931
527.6374999999999,0.0,12.0920235        -5.660931
997.9,-0.0,-15.115028099999998  2.515516
997.9,-13.0899983,7.5575149     2.515516
997.9,13.0899983,7.5575149      2.515516
-159.5875,-15.707998299999998,-0.0      0.004632
-159.5875,7.854,-13.6035258     0.004632
-159.5875,-7.854,13.6035258     0.004632
-159.5875,15.707998299999998,-0.0       0.004632
-159.5875,-7.854,-13.6035258    0.004632
-159.5875,7.854,13.6035258      0.004632
-655.775,0.0,15.115028099999998 -2.519484
-655.775,-13.0899983,-7.5575149 -2.519484
-655.775,13.0899983,-7.5575149  -2.519484
387.59999999999997,-10.4719983,0.0      6.927092
387.59999999999997,-5.236,-9.0690172    6.927092
387.59999999999997,-5.236,9.0690172     6.927092
387.59999999999997,5.236,-9.0690172     6.927092
387.59999999999997,10.4719983,0.0       6.927092
387.59999999999997,5.236,9.0690172      6.927092
360.1875,-15.707998299999998,-3.0230062999999996        -0.625931
360.1875,-5.236,15.115028099999998      -0.625931
360.1875,-10.4719983,-12.0920235        -0.625931
360.1875,10.4719983,-12.0920235 -0.625931
360.1875,5.236,15.115028099999998       -0.625931
360.1875,15.707998299999998,-3.0230062999999996 -0.625931
190.29375,-15.707998299999998,0.0       1.892092
190.29375,-7.854,-13.6035258    1.892092
190.29375,-7.854,13.6035258     1.892092
190.29375,7.854,-13.6035258     1.892092
190.29375,15.707998299999998,0.0        1.892092
190.29375,7.854,13.6035258      1.892092
-7.34453125,-13.0899983,4.5345086       -5.030367
-7.34453125,-13.0899983,-4.5345086      -5.030367
-7.34453125,-10.4719983,-9.0690172      -5.030367
-7.34453125,-10.4719983,9.0690172       -5.030367
-7.34453125,-13.0899983,4.5345086       5.039632
-7.34453125,2.618,-13.6035258   -5.030367
-7.34453125,-2.618,-13.6035258  -5.030367
-7.34453125,-13.0899983,-4.5345086      5.039632
-7.34453125,-10.4719983,-9.0690172      5.039632
-7.34453125,-2.618,13.6035258   -5.030367
-7.34453125,2.618,-13.6035258   5.039632
-7.34453125,-10.4719983,9.0690172       5.039632
-7.34453125,-2.618,-13.6035258  5.039632
-7.34453125,10.4719983,-9.0690172       -5.030367
-7.34453125,2.618,13.6035258    -5.030367
-7.34453125,13.0899983,-4.5345086       -5.030367
-7.34453125,13.0899983,4.5345086        -5.030367
-7.34453125,10.4719983,9.0690172        -5.030367
-7.34453125,-2.618,13.6035258   5.039632
-7.34453125,10.4719983,-9.0690172       5.039632
-7.34453125,13.0899983,-4.5345086       5.039632
-7.34453125,2.618,13.6035258    5.039632
-7.34453125,13.0899983,4.5345086        5.039632
-7.34453125,10.4719983,9.0690172        5.039632
-1.16875,-13.0899983,-1.5115022999999999        -5.660931
-1.16875,-7.854,-10.5805195     -5.660931
-1.16875,-5.236,12.0920235      -5.660931
-1.16875,7.854,-10.5805195      -5.660931
-1.16875,5.236,12.0920235       -5.660931
-1.16875,13.0899983,-1.5115022999999999 -5.660931
197.2,-2.618,1.5115022999999999 9.444068
197.2,0.0,-3.0230062999999996   9.444068
197.2,2.618,1.5115022999999999  9.444068
87.23125,-15.707998299999998,3.0230062999999996 2.515516
87.23125,-5.236,-15.115028099999998     2.515516
87.23125,5.236,-15.115028099999998      2.515516
87.23125,-10.4719983,12.0920235 2.515516
87.23125,15.707998299999998,3.0230062999999996  2.515516
87.23125,10.4719983,12.0920235  2.515516
266.6875,-15.707998299999998,-3.0230062999999996        -2.519484
266.6875,-5.236,15.115028099999998      -2.519484
266.6875,-10.4719983,-12.0920235        -2.519484
266.6875,10.4719983,-12.0920235 -2.519484
266.6875,15.707998299999998,-3.0230062999999996 -2.519484
266.6875,5.236,15.115028099999998       -2.519484
373.3625,-15.707998299999998,-0.0       -3.142907
373.3625,-7.854,-13.6035258     -3.142907
373.3625,-7.854,13.6035258      -3.142907
373.3625,7.854,-13.6035258      -3.142907
373.3625,15.707998299999998,-0.0        -3.142907
373.3625,7.854,13.6035258       -3.142907
14.697363277,-7.854,-4.5345086  -8.177907
14.697363277,-7.854,4.5345086   -8.177907
14.697363277,7.854,4.5345086    -8.177907
14.697363277,7.854,-4.5345086   -8.177907
14.697363277,-0.0,-9.0690172    -8.177907
14.697363277,0.0,9.0690172      -8.177907
428.1875,-7.854,-7.5575149      7.550516
428.1875,-10.4719983,-3.0230062999999996        7.550516
428.1875,-2.618,10.5805195      7.550516
428.1875,7.854,-7.5575149       7.550516
428.1875,2.618,10.5805195       7.550516
428.1875,10.4719983,-3.0230062999999996 7.550516
-591.6,-7.854,7.5575149 -7.554483
-591.6,-10.4719983,3.0230062999999996   -7.554483
-591.6,-2.618,-10.5805195       -7.554483
-591.6,2.618,-10.5805195        -7.554483
-591.6,10.4719983,3.0230062999999996    -7.554483
-591.6,7.854,7.5575149  -7.554483
121.1515625,-13.0899983,10.5805195      -0.625931
121.1515625,-15.707998299999998,6.0460109       -0.625931
121.1515625,-2.618,-16.6265321  -0.625931
121.1515625,2.618,-16.6265321   -0.625931
121.1515625,15.707998299999998,6.0460109        -0.625931
121.1515625,13.0899983,10.5805195       -0.625931
-822.375,-0.0,-15.115028099999998       4.409069
-822.375,-13.0899983,7.5575149  4.409069
-822.375,13.0899983,7.5575149   4.409069

End of input

&SCF
Occupied
9
Iterations
   50  100
End of Input

&RASSCF
LumOrb
Symmetry
1
Spin
2
Nactel
1 0 0
CIRoot
9 9 1
inactive
9
ras2
9
End of Input

>>> COPY chromium_so_cf.JobIph $SLURM_SUBMIT_DIR/chromium_so_cf.doublet.JobIph

>>> COPY $SLURM_SUBMIT_DIR/chromium_so_cf.doublet.JobIph ./JOB002

&RASSI
NROFJobIph
1 All
SpinOrbit
End of Input

EOF

-- ----------------------------------

--- Start Module: seward at Wed Mar 26 16:36:06 2025 ---

()()()()()()()()()()()()()()()()()()()()()()()()()()()()()()()()()()()()()()()()()()()()()()()()()()

                                              &SEWARD

                                   only a single process is used
                       available to each process: 4.1 GB of memory, 1 thread?
                                            pid: 1913439
()()()()()()()()()()()()()()()()()()()()()()()()()()()()()()()()()()()()()()()()()()()()()()()()()()

 The speed of LIGHT in this CALCULATION =   137.03599917700001     
               SEWARD will generate:
                  Multipole Moment integrals up to order  2
                  Kinetic Energy integrals
                  Nuclear Attraction integrals (point charge)
                  One-Electron Hamiltonian integrals
                  Velocity integrals
                  Relativistic Douglas-Kroll-Hess integrals:
                    - Parametrization         : EXP
                    - DKH order of Hamiltonian: 2
                    - DKH order of Properties : 0
                         - multipole moment operators
                         - electric potential operators
                         - contact operators
                  External field from   414 point(s) added to the one-electron Hamiltonian
                  Orbital angular momentum around (-0.0000 -0.0000  0.0088 )
                  Velocity quadrupole around (-0.0000 -0.0000  0.0088 )
                  Atomic mean-field integrals
                  Two-Electron Repulsion integrals

                   Integrals are discarded if absolute value <: 0.10E-13
                   Integral cutoff threshold is set to       <: 0.10E-15

++    Symmetry information:
      ---------------------

                    Character Table for C1 

                             E  
                    a        1  x, y, xy, Rz, z, xz, Ry, yz, Rx, I
--


++    Basis set information:
      ----------------------


      Basis set label: CR.ANO-RCC.ROOS.21S15P10D6F4G2H.10S10P8D6F4G2H......

      Electronic valence basis set:
      ------------------
      Associated Effective Charge  24.000000 au
      Associated Actual Charge     24.000000 au
      Nuclear Model: Point charge

      Shell  nPrim  nBasis  Cartesian Spherical Contaminant
         s      21      10        X                  
         p      15      10        X                  
         d      10       8                 X         
         f       6       6                 X         
         g       4       4                 X         
         h       2       2                 X         
--


++    Molecular structure info:
      -------------------------

                    ************************************************ 
                    **** Cartesian Coordinates / Bohr, Angstrom **** 
                    ************************************************ 

     Center  Label                x              y              z                     x              y              z
        1      CR              -0.000000      -0.000000       0.008754             -0.000000      -0.000000       0.004632
--


++    Operator info:
      --------------


  Net charge from external field:   -39.268449999999902     
--


            Nuclear Potential Energy              0.00000000 au

                    Nuclear-External Field Potential Energy    -129.16192490 au
                    External Field Potential Energy             944.49229493 au 


            Total Nuclear Potential Energy           -129.16192490 au


      Basis set specifications :
      Symmetry species         a  
      Basis functions          180

 Sorry, Molden does not know how to handle
 functions with angular momentum larger than g
Note: The following floating-point exceptions are signalling: IEEE_UNDERFLOW_FLAG IEEE_DENORMAL
--- Stop Module: seward at Wed Mar 26 16:36:17 2025 /rc=_RC_ALL_IS_WELL_ ---
*** files: chromium_so_cf.GssOrb xmldump
    saved to directory /home4/s4752295/Internship/Initial_simulations/Point_charge_model/1_electron/Madelung_charges_9_active_space/Cr
--- Module seward spent 10 seconds ---

*** symbolic link created: INPORB -> chromium_so_cf.GssOrb
--- Start Module: scf at Wed Mar 26 16:36:17 2025 ---

()()()()()()()()()()()()()()()()()()()()()()()()()()()()()()()()()()()()()()()()()()()()()()()()()()

                                                &SCF

                                   only a single process is used
                       available to each process: 4.1 GB of memory, 1 thread?
                                            pid: 1913444
()()()()()()()()()()()()()()()()()()()()()()()()()()()()()()()()()()()()()()()()()()()()()()()()()()

++    Input section:
      --------------

      Header of the integral files:
      
       Integrals generated by seward 4.2.0  , Wed Mar 26 16:36:07 2025


      Cartesian coordinates in Angstrom:
      -----------------------------------------------------
      No.  Label        X            Y            Z        
      -----------------------------------------------------
       1   CR        -0.00000000  -0.00000000   0.00463220
      -----------------------------------------------------
      Nuclear repulsion energy = -129.16192490
--

++    Orbital specifications:
      -----------------------

      Symmetry species               1
                                     a
      Frozen orbitals                0
      Occupied orbitals              9
      Secondary orbitals           171
      Deleted orbitals               0
      Total number of orbitals     180
      Number of basis functions    180
--

      Molecular charge                           6.000

++    Optimization specifications:
      ----------------------------

      SCF Algorithm: Conventional
      Minimized density differences are used
      Number of density matrices in core                5
      Maximum number of NDDO SCF iterations            50
      Maximum number of HF SCF iterations             100
      Threshold for SCF energy change            0.10E-08
      Threshold for density matrix               0.10E-03
      Threshold for Fock matrix                  0.15E-03
      Threshold for linear dependence            0.10E-08
      Threshold at which DIIS is turned on       0.15E+00
      Threshold at which QNR/C2DIIS is turned on 0.75E-01
      Threshold for Norm(delta) (QNR/C2DIIS)     0.20E-04
      DIIS extrapolation of the SCF procedure
      All orbitals punched on: SCFORB
--

      Detected guessorb starting orbitals                                             


++ Convergence information
                                   SCF        iterations: Energy and convergence statistics

Iter     Tot. SCF        One-elec.       Two-elec.     Energy      Max Dij or  Max Fij      DNorm      TNorm      AccCon     Time
         Energy          Energy          Energy        Change      Delta Norm                                                in Sec.

 The total and one-electron energies are shifted by a value of      1000. a.u.

   1   -71.897784449  -248.112522629   305.376663078   0.00E+00    0.17E+00*   0.40E+00*    0.60E+01   0.25E+03   None         1.
   2   -72.537681796  -260.578823286   317.203066387  -0.64E+00*   0.17E-01*   0.77E-01*    0.11E+01   0.25E+03   EDIIS        1.
   3   -72.548133449  -259.128533596   315.742325045  -0.10E-01*   0.53E-02*   0.11E-01*    0.93E-01   0.25E+03   EDIIS        1.
   4   -72.548429291  -259.366583204   315.980078811  -0.30E-03*   0.31E-03*   0.17E-02*    0.97E-02   0.25E+03   c2DIIS       1.
   5   -72.548441029  -259.336871507   315.950355376  -0.12E-04*   0.72E-04*   0.13E-03     0.84E-03   0.25E+03   QNRc2DIIS    1.
   6   -72.548441072  -259.335961103   315.949444928  -0.43E-07*   0.15E-04    0.26E-04     0.11E-03   0.25E+03   QNRc2DIIS    1.
   7   -72.548441074  -259.336107340   315.949591164  -0.20E-08*   0.29E-05    0.46E-05     0.15E-04   0.25E+03   QNRc2DIIS    1.
   8   -72.548441074  -259.336134740   315.949618564  -0.55E-10    0.12E-05    0.16E-05     0.24E-03   0.25E+03   QNRc2DIIS    1.

       Convergence after  8 Macro Iterations
--

 *****************************************************************************************************************************
 *                                                                                                                           *
 *                                             SCF/KS-DFT Program, Final results                                             *
 *                                                                                                                           *
 *                                                                                                                           *
 *                                                                                                                           *
 *                                                       Final Results                                                       *
 *                                                                                                                           *
 *****************************************************************************************************************************

::    Total SCF energy                              -1072.5484410745
      One-electron energy                           -1259.3361347400
      Two-electron energy                             315.9496185637
      Nuclear repulsion energy                       -129.1619248982
      Kinetic energy (interpolated)                  1078.3732682781
      Virial theorem                                    0.9945985056
      Total spin, S(S+1)                                0.0000000000
      Total spin, S                                     0.0000000000
      Max non-diagonal density matrix element           0.0000018088
      Max non-diagonal Fock matrix element              0.0000007622


      All orbitals with orbital energies smaller than  E(LUMO)+0.5 are printed

++    Molecular orbitals:
      -------------------

      Title: SCF orbitals

      Molecular orbitals for symmetry species 1: a  

          Orbital            1         2         3         4         5         6         7         8         9        10    
          Energy         -220.9277  -25.6072  -21.2311  -21.2311  -21.2306   -1.9152   -0.5310   -0.5310   -0.5136    2.1163
          Occ. No.          2.0000    2.0000    2.0000    2.0000    2.0000    2.0000    2.0000    2.0000    2.0000    0.0000

        1 CR     1s         1.0000   -0.0001    0.0000   -0.0000   -0.0000    0.0001   -0.0000    0.0000    0.0000   -0.0000
        2 CR     2s         0.0001    1.0000    0.0000   -0.0000   -0.0024    0.0021    0.0000   -0.0000   -0.0007   -0.0000
        3 CR     3s        -0.0001   -0.0021   -0.0000    0.0000    0.0007    0.9923    0.0001   -0.0000   -0.0778   -0.0000
        4 CR     4s         0.0000    0.0001    0.0000   -0.0000   -0.0001   -0.0495   -0.0000    0.0000    0.0166   -0.0000
        5 CR     5s        -0.0000   -0.0004   -0.0000    0.0000    0.0002    0.0725    0.0000   -0.0000   -0.0252    0.0000
        6 CR     6s         0.0000    0.0003    0.0000   -0.0000   -0.0001   -0.0296   -0.0000    0.0000    0.0099    0.0000
        7 CR     7s        -0.0000   -0.0001   -0.0000    0.0000    0.0000   -0.0088   -0.0000    0.0000    0.0036   -0.0000
        8 CR     8s         0.0000   -0.0000    0.0000   -0.0000   -0.0000    0.0064    0.0000   -0.0000   -0.0025   -0.0000
        9 CR     9s        -0.0001    0.0002    0.0000   -0.0000   -0.0000    0.0021    0.0000   -0.0000   -0.0009   -0.0000
       10 CR    10s         0.0001   -0.0003   -0.0000    0.0000    0.0000    0.0004    0.0000   -0.0000   -0.0001   -0.0000
       11 CR     2px        0.0000    0.0024   -0.0016    0.0000    1.0000   -0.0004   -0.0000    0.0000    0.0033    0.0000
       12 CR     3px       -0.0000    0.0005    0.0000   -0.0000   -0.0032    0.0814   -0.0012    0.0000    0.9858    0.0000
       13 CR     4px        0.0000   -0.0001   -0.0000    0.0000    0.0005   -0.0013    0.0001   -0.0000   -0.0898   -0.0000
       14 CR     5px       -0.0000    0.0002    0.0000   -0.0000   -0.0008   -0.0021   -0.0001    0.0000    0.0974    0.0000
       15 CR     6px        0.0000   -0.0001   -0.0000    0.0000    0.0002    0.0022    0.0000   -0.0000   -0.0025    0.0000
       16 CR     7px       -0.0000    0.0000    0.0000   -0.0000   -0.0000   -0.0015    0.0000   -0.0000   -0.0149   -0.0000
       17 CR     8px        0.0000   -0.0000    0.0000   -0.0000   -0.0002   -0.0005   -0.0000    0.0000    0.0025   -0.0000
       18 CR     9px       -0.0000    0.0000   -0.0000    0.0000    0.0003    0.0005   -0.0000    0.0000    0.0036    0.0000
       19 CR    10px        0.0000   -0.0000    0.0000   -0.0000   -0.0003    0.0003   -0.0000   -0.0000   -0.0000    0.0000
       20 CR    11px       -0.0000    0.0000   -0.0000    0.0000    0.0002    0.0000    0.0000   -0.0000   -0.0005    0.0000
       21 CR     2py       -0.0000   -0.0000    0.0000    1.0000   -0.0000   -0.0000    0.0000    0.0032    0.0000    0.0000
       22 CR     3py        0.0000    0.0000   -0.0000   -0.0031    0.0000   -0.0000    0.0000    0.9899   -0.0000    0.0020
       23 CR     4py       -0.0000   -0.0000    0.0000    0.0005   -0.0000    0.0000   -0.0000   -0.0899    0.0000   -0.0031
       24 CR     5py        0.0000    0.0000   -0.0000   -0.0008    0.0000   -0.0000    0.0000    0.0966   -0.0000    0.0021
       25 CR     6py       -0.0000   -0.0000    0.0000    0.0002   -0.0000    0.0000   -0.0000   -0.0018    0.0000    0.0005
       26 CR     7py        0.0000    0.0000   -0.0000   -0.0000    0.0000   -0.0000   -0.0000   -0.0153    0.0000   -0.0006
       27 CR     8py       -0.0000   -0.0000   -0.0000   -0.0002    0.0000    0.0000    0.0000    0.0024   -0.0000   -0.0001
       28 CR     9py        0.0000    0.0000    0.0000    0.0003   -0.0000   -0.0000    0.0000    0.0038   -0.0000    0.0002
       29 CR    10py       -0.0000   -0.0000   -0.0000   -0.0003    0.0000    0.0000    0.0000    0.0001   -0.0000    0.0001
       30 CR    11py        0.0000    0.0000    0.0000    0.0002   -0.0000   -0.0000   -0.0000   -0.0004    0.0000    0.0000
       31 CR     2pz        0.0000    0.0000    1.0000   -0.0000    0.0016   -0.0000    0.0032   -0.0000    0.0000    0.0000
       32 CR     3pz       -0.0000    0.0000   -0.0031    0.0000   -0.0000    0.0000    0.9899   -0.0000    0.0012    0.0000
       33 CR     4pz        0.0000   -0.0000    0.0005   -0.0000    0.0000   -0.0000   -0.0899    0.0000   -0.0001   -0.0000
       34 CR     5pz       -0.0000    0.0000   -0.0008    0.0000   -0.0000   -0.0000    0.0966   -0.0000    0.0001    0.0000
       35 CR     6pz        0.0000   -0.0000    0.0002   -0.0000    0.0000    0.0000   -0.0018    0.0000   -0.0000    0.0000
       36 CR     7pz       -0.0000    0.0000   -0.0000    0.0000   -0.0000   -0.0000   -0.0153    0.0000   -0.0000   -0.0000
       37 CR     8pz        0.0000   -0.0000   -0.0002    0.0000   -0.0000   -0.0000    0.0024   -0.0000    0.0000   -0.0000
       38 CR     9pz       -0.0000    0.0000    0.0003   -0.0000    0.0000    0.0000    0.0038   -0.0000    0.0000    0.0000
       39 CR    10pz        0.0000   -0.0000   -0.0003    0.0000   -0.0000    0.0000    0.0001   -0.0000    0.0000    0.0000
       40 CR    11pz       -0.0000    0.0000    0.0002   -0.0000    0.0000    0.0000   -0.0004    0.0000   -0.0000    0.0000
       41 CR     3d2-      -0.0000    0.0000    0.0000    0.0002   -0.0000   -0.0000    0.0000    0.0467   -0.0000   -0.0493
       42 CR     4d2-      -0.0000   -0.0000   -0.0000   -0.0002    0.0000    0.0000   -0.0000   -0.0105    0.0000    0.0156
       43 CR     5d2-       0.0000    0.0000    0.0000    0.0001   -0.0000   -0.0000   -0.0000   -0.0061    0.0000   -0.0002
       44 CR     6d2-      -0.0000   -0.0000   -0.0000   -0.0001    0.0000    0.0000    0.0000    0.0031   -0.0000   -0.0009
       45 CR     7d2-       0.0000    0.0000    0.0000    0.0000   -0.0000   -0.0000    0.0000    0.0018   -0.0000   -0.0007
       46 CR     8d2-      -0.0000   -0.0000   -0.0000   -0.0000    0.0000    0.0000   -0.0000   -0.0006    0.0000    0.0003
       47 CR     9d2-       0.0000    0.0000    0.0000    0.0000   -0.0000   -0.0000   -0.0000   -0.0009    0.0000    0.0002
       48 CR    10d2-      -0.0000    0.0000   -0.0000   -0.0000    0.0000   -0.0000   -0.0000   -0.0002   -0.0000    0.0000
       49 CR     3d1-      -0.0000    0.0000    0.0000    0.0000    0.0000   -0.0000    0.0000    0.0000   -0.0000    0.9447
       50 CR     4d1-       0.0000   -0.0000   -0.0000   -0.0000   -0.0000    0.0000   -0.0000   -0.0000    0.0000   -0.3197
       51 CR     5d1-      -0.0000    0.0000    0.0000    0.0000    0.0000   -0.0000   -0.0000   -0.0000   -0.0000   -0.0017
       52 CR     6d1-      -0.0000   -0.0000   -0.0000   -0.0000   -0.0000    0.0000    0.0000    0.0000    0.0000    0.0187
       53 CR     7d1-       0.0000    0.0000    0.0000    0.0000    0.0000   -0.0000    0.0000    0.0000   -0.0000    0.0158
       54 CR     8d1-      -0.0000   -0.0000   -0.0000   -0.0000   -0.0000   -0.0000   -0.0000   -0.0000    0.0000   -0.0050
       55 CR     9d1-       0.0000    0.0000    0.0000    0.0000    0.0000   -0.0000    0.0000    0.0000   -0.0000   -0.0045
       56 CR    10d1-       0.0000   -0.0000   -0.0000   -0.0000   -0.0000    0.0000    0.0000    0.0000    0.0000   -0.0004
       57 CR     3d0        0.0000    0.0000    0.0000   -0.0000   -0.0001   -0.0002    0.0001   -0.0000   -0.0279   -0.0000
       58 CR     4d0       -0.0000   -0.0000   -0.0000    0.0000    0.0001   -0.0002   -0.0000    0.0000    0.0063    0.0000
       59 CR     5d0        0.0000    0.0000    0.0000   -0.0000   -0.0001    0.0001   -0.0000    0.0000    0.0036    0.0000
       60 CR     6d0       -0.0000   -0.0000   -0.0000    0.0000    0.0000    0.0000    0.0000   -0.0000   -0.0018   -0.0000
       61 CR     7d0        0.0000   -0.0000    0.0000   -0.0000   -0.0000   -0.0000    0.0000   -0.0000   -0.0010   -0.0000
       62 CR     8d0       -0.0000    0.0000   -0.0000    0.0000    0.0000   -0.0000   -0.0000    0.0000    0.0003    0.0000
       63 CR     9d0        0.0000   -0.0000    0.0000   -0.0000   -0.0000    0.0000   -0.0000    0.0000    0.0006    0.0000
       64 CR    10d0       -0.0000    0.0000   -0.0000    0.0000    0.0000    0.0000   -0.0000    0.0000    0.0001    0.0000
       65 CR     3d1+      -0.0000   -0.0000    0.0002   -0.0000    0.0000   -0.0000    0.0467   -0.0000    0.0001   -0.0000
       66 CR     4d1+       0.0000    0.0000   -0.0002    0.0000   -0.0000    0.0000   -0.0105    0.0000   -0.0000    0.0000
       67 CR     5d1+      -0.0000   -0.0000    0.0001   -0.0000    0.0000    0.0000   -0.0061    0.0000   -0.0000   -0.0000
       68 CR     6d1+       0.0000    0.0000   -0.0001    0.0000   -0.0000   -0.0000    0.0031   -0.0000    0.0000   -0.0000
       69 CR     7d1+      -0.0000   -0.0000    0.0000   -0.0000    0.0000   -0.0000    0.0018   -0.0000    0.0000   -0.0000
       70 CR     8d1+       0.0000   -0.0000   -0.0000    0.0000   -0.0000    0.0000   -0.0006    0.0000   -0.0000    0.0000
       71 CR     9d1+      -0.0000    0.0000    0.0000   -0.0000    0.0000    0.0000   -0.0009    0.0000   -0.0000    0.0000
       72 CR    10d1+       0.0000   -0.0000   -0.0000    0.0000   -0.0000    0.0000   -0.0002    0.0000   -0.0000    0.0000
       73 CR     3d2+      -0.0000   -0.0000   -0.0000    0.0000    0.0002    0.0003   -0.0000    0.0000    0.0484   -0.0000
       74 CR     4d2+       0.0000    0.0000    0.0000   -0.0000   -0.0002    0.0003    0.0000   -0.0000   -0.0109    0.0000
       75 CR     5d2+      -0.0000   -0.0000   -0.0000    0.0000    0.0001   -0.0002    0.0000   -0.0000   -0.0062    0.0000
       76 CR     6d2+       0.0000    0.0000    0.0000   -0.0000   -0.0001   -0.0001   -0.0000    0.0000    0.0032   -0.0000
       77 CR     7d2+      -0.0000    0.0000   -0.0000    0.0000    0.0000    0.0001   -0.0000    0.0000    0.0018   -0.0000
       78 CR     8d2+       0.0000   -0.0000    0.0000   -0.0000   -0.0000    0.0000    0.0000   -0.0000   -0.0006    0.0000
       79 CR     9d2+      -0.0000    0.0000   -0.0000    0.0000    0.0000   -0.0000    0.0000   -0.0000   -0.0010    0.0000
       80 CR    10d2+       0.0000   -0.0000    0.0000   -0.0000   -0.0000   -0.0000   -0.0000    0.0000   -0.0002    0.0000
       81 CR     4f3-      -0.0000   -0.0000   -0.0000   -0.0000    0.0000    0.0000    0.0000    0.0001   -0.0000   -0.0028
       82 CR     5f3-       0.0000    0.0000    0.0000    0.0000   -0.0000   -0.0000    0.0000    0.0004   -0.0000   -0.0015
       83 CR     6f3-      -0.0000   -0.0000   -0.0000   -0.0000    0.0000    0.0000    0.0000    0.0000   -0.0000    0.0000
       84 CR     7f3-       0.0000    0.0000    0.0000    0.0000   -0.0000   -0.0000   -0.0000   -0.0001    0.0000    0.0002
       85 CR     8f3-      -0.0000   -0.0000   -0.0000   -0.0000    0.0000    0.0000   -0.0000   -0.0000   -0.0000    0.0001
       86 CR     9f3-       0.0000    0.0000    0.0000    0.0000   -0.0000   -0.0000    0.0000    0.0001   -0.0000   -0.0000
       87 CR     4f2-      -0.0000   -0.0000   -0.0000   -0.0000    0.0000   -0.0000   -0.0000   -0.0001   -0.0000    0.0398
       88 CR     5f2-       0.0000    0.0000    0.0000    0.0000    0.0000    0.0000   -0.0000   -0.0000    0.0000    0.0176
       89 CR     6f2-      -0.0000   -0.0000   -0.0000   -0.0000   -0.0000   -0.0000    0.0000    0.0000   -0.0000   -0.0045
       90 CR     7f2-       0.0000   -0.0000   -0.0000   -0.0000    0.0000   -0.0000    0.0000    0.0000    0.0000   -0.0045
       91 CR     8f2-      -0.0000    0.0000   -0.0000   -0.0000   -0.0000    0.0000    0.0000    0.0000   -0.0000   -0.0008
       92 CR     9f2-       0.0000   -0.0000    0.0000    0.0000    0.0000   -0.0000   -0.0000   -0.0000    0.0000    0.0012
       93 CR     4f1-      -0.0000   -0.0000    0.0000    0.0000   -0.0000    0.0000   -0.0000   -0.0000   -0.0000    0.0007
       94 CR     5f1-       0.0000    0.0000   -0.0000   -0.0000    0.0000   -0.0000   -0.0000   -0.0001    0.0000    0.0004
       95 CR     6f1-      -0.0000   -0.0000    0.0000    0.0000   -0.0000    0.0000   -0.0000   -0.0000   -0.0000   -0.0000
       96 CR     7f1-       0.0000    0.0000   -0.0000   -0.0000    0.0000   -0.0000    0.0000    0.0000    0.0000   -0.0001
       97 CR     8f1-      -0.0000   -0.0000    0.0000    0.0000   -0.0000    0.0000    0.0000    0.0000   -0.0000   -0.0000
       98 CR     9f1-      -0.0000    0.0000   -0.0000   -0.0000    0.0000   -0.0000   -0.0000   -0.0000    0.0000    0.0000
       99 CR     4f0       -0.0000    0.0000    0.0000   -0.0000    0.0000    0.0000   -0.0001    0.0000    0.0000    0.0000
      100 CR     5f0        0.0000   -0.0000   -0.0000    0.0000   -0.0000    0.0000   -0.0002    0.0000    0.0000    0.0000
      101 CR     6f0        0.0000   -0.0000    0.0000   -0.0000    0.0000   -0.0000   -0.0000    0.0000   -0.0000    0.0000
      102 CR     7f0        0.0000   -0.0000   -0.0000    0.0000    0.0000   -0.0000    0.0001   -0.0000   -0.0000   -0.0000
      103 CR     8f0        0.0000   -0.0000    0.0000   -0.0000    0.0000   -0.0000    0.0000   -0.0000   -0.0000   -0.0000
      104 CR     9f0        0.0000   -0.0000   -0.0000    0.0000   -0.0000   -0.0000   -0.0000    0.0000    0.0000   -0.0000
      105 CR     4f1+       0.0000   -0.0000    0.0000   -0.0000    0.0000   -0.0001    0.0000   -0.0000   -0.0000   -0.0000
      106 CR     5f1+      -0.0000    0.0000   -0.0000    0.0000   -0.0000   -0.0000    0.0000   -0.0000   -0.0003   -0.0000
      107 CR     6f1+       0.0000   -0.0000    0.0000    0.0000    0.0000    0.0000    0.0000   -0.0000   -0.0000    0.0000
      108 CR     7f1+      -0.0000   -0.0000    0.0000   -0.0000   -0.0000    0.0000   -0.0000    0.0000    0.0001    0.0000
      109 CR     8f1+       0.0000    0.0000   -0.0000    0.0000    0.0000   -0.0000   -0.0000    0.0000    0.0000    0.0000
      110 CR     9f1+      -0.0000   -0.0000    0.0000   -0.0000   -0.0000   -0.0000    0.0000   -0.0000   -0.0000   -0.0000
      111 CR     4f2+      -0.0000    0.0000   -0.0000    0.0000    0.0000    0.0000    0.0001   -0.0000    0.0000   -0.0000
      112 CR     5f2+       0.0000   -0.0000    0.0000   -0.0000    0.0000    0.0000    0.0003   -0.0000    0.0000   -0.0000
      113 CR     6f2+      -0.0000   -0.0000   -0.0000    0.0000   -0.0000   -0.0000    0.0000   -0.0000    0.0000   -0.0000
      114 CR     7f2+       0.0000   -0.0000    0.0000   -0.0000    0.0000   -0.0000   -0.0001    0.0000   -0.0000    0.0000
      115 CR     8f2+      -0.0000   -0.0000   -0.0000    0.0000   -0.0000   -0.0000   -0.0000    0.0000   -0.0000    0.0000
      116 CR     9f2+       0.0000   -0.0000    0.0000   -0.0000    0.0000   -0.0000    0.0001   -0.0000    0.0000    0.0000
      117 CR     4f3+      -0.0000    0.0000    0.0000   -0.0000   -0.0000    0.0002    0.0000   -0.0000    0.0000   -0.0000
      118 CR     5f3+       0.0000   -0.0000   -0.0000    0.0000    0.0000    0.0000    0.0000   -0.0000    0.0003   -0.0000
      119 CR     6f3+      -0.0000    0.0000    0.0000   -0.0000   -0.0000   -0.0000    0.0000   -0.0000    0.0000    0.0000
      120 CR     7f3+       0.0000    0.0000    0.0000   -0.0000    0.0000   -0.0000   -0.0000    0.0000   -0.0001    0.0000
      121 CR     8f3+      -0.0000   -0.0000    0.0000   -0.0000   -0.0000    0.0000   -0.0000    0.0000   -0.0000    0.0000
      122 CR     9f3+       0.0000    0.0000   -0.0000    0.0000    0.0000    0.0000    0.0000   -0.0000    0.0001   -0.0000
      123 CR     5g4-      -0.0000   -0.0000    0.0000    0.0000   -0.0000    0.0000    0.0000    0.0001   -0.0000   -0.0000
      124 CR     6g4-       0.0000    0.0000   -0.0000   -0.0000    0.0000    0.0000    0.0000    0.0001   -0.0000   -0.0001
      125 CR     7g4-      -0.0000   -0.0000    0.0000    0.0000   -0.0000   -0.0000    0.0000    0.0000    0.0000   -0.0002
      126 CR     8g4-       0.0000    0.0000    0.0000    0.0000    0.0000    0.0000   -0.0000   -0.0000   -0.0000   -0.0001
      127 CR     5g3-       0.0000    0.0000   -0.0000   -0.0000   -0.0000    0.0000   -0.0000   -0.0000   -0.0000    0.0005
      128 CR     6g3-      -0.0000   -0.0000    0.0000    0.0000    0.0000   -0.0000   -0.0000   -0.0000    0.0000    0.0015
      129 CR     7g3-       0.0000    0.0000   -0.0000   -0.0000   -0.0000    0.0000   -0.0000   -0.0000   -0.0000    0.0012
      130 CR     8g3-      -0.0000   -0.0000   -0.0000   -0.0000    0.0000   -0.0000   -0.0000   -0.0000   -0.0000    0.0006
      131 CR     5g2-      -0.0000   -0.0000   -0.0000   -0.0000    0.0000   -0.0000   -0.0000   -0.0001   -0.0000    0.0000
      132 CR     6g2-       0.0000    0.0000    0.0000    0.0000   -0.0000   -0.0000   -0.0000   -0.0000    0.0000    0.0000
      133 CR     7g2-      -0.0000   -0.0000   -0.0000   -0.0000   -0.0000    0.0000   -0.0000   -0.0000   -0.0000    0.0001
      134 CR     8g2-       0.0000    0.0000   -0.0000   -0.0000    0.0000   -0.0000    0.0000    0.0000   -0.0000    0.0000
      135 CR     5g1-      -0.0000   -0.0000    0.0000    0.0000   -0.0000    0.0000    0.0000    0.0000    0.0000   -0.0002
      136 CR     6g1-       0.0000    0.0000    0.0000    0.0000   -0.0000   -0.0000    0.0000    0.0000   -0.0000   -0.0006
      137 CR     7g1-      -0.0000   -0.0000   -0.0000   -0.0000    0.0000    0.0000    0.0000    0.0000    0.0000   -0.0005
      138 CR     8g1-       0.0000    0.0000    0.0000    0.0000    0.0000   -0.0000    0.0000    0.0000   -0.0000   -0.0002
      139 CR     5g0        0.0000   -0.0000   -0.0000    0.0000    0.0000   -0.0000   -0.0000    0.0000    0.0001    0.0000
      140 CR     6g0       -0.0000    0.0000    0.0000   -0.0000   -0.0000   -0.0000   -0.0000    0.0000    0.0001    0.0000
      141 CR     7g0       -0.0000   -0.0000   -0.0000    0.0000    0.0000    0.0000   -0.0000    0.0000    0.0000    0.0000
      142 CR     8g0       -0.0000    0.0000   -0.0000    0.0000    0.0000    0.0000   -0.0000    0.0000   -0.0000    0.0000
      143 CR     5g1+      -0.0000    0.0000   -0.0000    0.0000    0.0000    0.0000   -0.0001    0.0000    0.0000    0.0000
      144 CR     6g1+      -0.0000   -0.0000    0.0000   -0.0000    0.0000    0.0000   -0.0001    0.0000    0.0000    0.0000
      145 CR     7g1+       0.0000    0.0000   -0.0000    0.0000    0.0000    0.0000   -0.0000    0.0000    0.0000    0.0000
      146 CR     8g1+       0.0000   -0.0000   -0.0000    0.0000    0.0000   -0.0000    0.0000   -0.0000    0.0000    0.0000
      147 CR     5g2+      -0.0000    0.0000    0.0000   -0.0000   -0.0000    0.0000    0.0000   -0.0000   -0.0001   -0.0000
      148 CR     6g2+       0.0000   -0.0000   -0.0000    0.0000    0.0000    0.0000    0.0000   -0.0000   -0.0001   -0.0000
      149 CR     7g2+       0.0000    0.0000    0.0000   -0.0000   -0.0000   -0.0000    0.0000   -0.0000   -0.0000   -0.0000
      150 CR     8g2+       0.0000   -0.0000    0.0000   -0.0000   -0.0000   -0.0000    0.0000   -0.0000    0.0000   -0.0000
      151 CR     5g3+      -0.0000    0.0000    0.0000   -0.0000    0.0000    0.0000    0.0001   -0.0000    0.0000   -0.0000
      152 CR     6g3+      -0.0000   -0.0000   -0.0000    0.0000   -0.0000    0.0000    0.0001   -0.0000    0.0000   -0.0000
      153 CR     7g3+       0.0000    0.0000    0.0000   -0.0000    0.0000    0.0000    0.0000   -0.0000    0.0000   -0.0000
      154 CR     8g3+       0.0000   -0.0000    0.0000   -0.0000    0.0000   -0.0000   -0.0000    0.0000    0.0000   -0.0000
      155 CR     5g4+       0.0000   -0.0000    0.0000   -0.0000    0.0000   -0.0000    0.0000   -0.0000    0.0001   -0.0000
      156 CR     6g4+      -0.0000    0.0000   -0.0000    0.0000   -0.0000   -0.0000    0.0000   -0.0000    0.0001   -0.0000
      157 CR     7g4+      -0.0000   -0.0000    0.0000   -0.0000    0.0000    0.0000    0.0000   -0.0000    0.0000   -0.0000
      158 CR     8g4+      -0.0000    0.0000    0.0000   -0.0000    0.0000    0.0000    0.0000   -0.0000   -0.0000   -0.0000
      159 CR     6h5-      -0.0000   -0.0000   -0.0000   -0.0000   -0.0000    0.0000   -0.0000   -0.0000   -0.0000    0.0000
      160 CR     7h5-       0.0000    0.0000    0.0000    0.0000    0.0000   -0.0000   -0.0000   -0.0000   -0.0000    0.0000
      161 CR     6h4-      -0.0000   -0.0000    0.0000    0.0000   -0.0000    0.0000    0.0000    0.0000   -0.0000    0.0002
      162 CR     7h4-      -0.0000    0.0000   -0.0000   -0.0000    0.0000    0.0000    0.0000    0.0000   -0.0000    0.0002
      163 CR     6h3-      -0.0000   -0.0000    0.0000    0.0000   -0.0000    0.0000    0.0000    0.0000    0.0000   -0.0000
      164 CR     7h3-       0.0000    0.0000   -0.0000   -0.0000    0.0000   -0.0000    0.0000    0.0000   -0.0000   -0.0000
      165 CR     6h2-      -0.0000    0.0000    0.0000    0.0000   -0.0000    0.0000    0.0000    0.0000   -0.0000   -0.0001
      166 CR     7h2-       0.0000   -0.0000   -0.0000   -0.0000    0.0000    0.0000    0.0000    0.0000   -0.0000   -0.0001
      167 CR     6h1-      -0.0000   -0.0000   -0.0000   -0.0000   -0.0000    0.0000   -0.0000   -0.0000    0.0000   -0.0000
      168 CR     7h1-       0.0000    0.0000    0.0000    0.0000    0.0000   -0.0000   -0.0000   -0.0000   -0.0000   -0.0000
      169 CR     6h0        0.0000   -0.0000   -0.0000    0.0000   -0.0000   -0.0000   -0.0000    0.0000   -0.0000    0.0000
      170 CR     7h0        0.0000   -0.0000    0.0000   -0.0000    0.0000   -0.0000   -0.0000    0.0000   -0.0000    0.0000
      171 CR     6h1+       0.0000    0.0000    0.0000   -0.0000   -0.0000   -0.0000    0.0000   -0.0000   -0.0000    0.0000
      172 CR     7h1+       0.0000   -0.0000   -0.0000    0.0000    0.0000   -0.0000    0.0000   -0.0000   -0.0000    0.0000
      173 CR     6h2+      -0.0000    0.0000    0.0000   -0.0000    0.0000    0.0000    0.0000   -0.0000    0.0000   -0.0000
      174 CR     7h2+      -0.0000    0.0000   -0.0000    0.0000   -0.0000    0.0000    0.0000   -0.0000    0.0000   -0.0000
      175 CR     6h3+      -0.0000   -0.0000    0.0000   -0.0000    0.0000    0.0000    0.0000   -0.0000    0.0000   -0.0000
      176 CR     7h3+      -0.0000    0.0000   -0.0000    0.0000   -0.0000    0.0000    0.0000   -0.0000    0.0000   -0.0000
      177 CR     6h4+      -0.0000    0.0000   -0.0000    0.0000    0.0000    0.0000   -0.0000    0.0000    0.0000    0.0000
      178 CR     7h4+      -0.0000    0.0000    0.0000   -0.0000   -0.0000    0.0000   -0.0000    0.0000    0.0000    0.0000
      179 CR     6h5+       0.0000    0.0000    0.0000   -0.0000   -0.0000   -0.0000    0.0000   -0.0000   -0.0000   -0.0000
      180 CR     7h5+       0.0000   -0.0000   -0.0000    0.0000    0.0000   -0.0000    0.0000   -0.0000   -0.0000   -0.0000

          Orbital           11        12        13        14    
          Energy            2.1163    2.1218    2.1218    2.1240
          Occ. No.          0.0000    0.0000    0.0000    0.0000

        1 CR     1s        -0.0000    0.0000    0.0000   -0.0000
        2 CR     2s         0.0000   -0.0000    0.0000    0.0001
        3 CR     3s         0.0000   -0.0000    0.0000    0.0045
        4 CR     4s         0.0000   -0.0001    0.0000    0.0154
        5 CR     5s        -0.0000    0.0000   -0.0000   -0.0049
        6 CR     6s        -0.0000    0.0000   -0.0000   -0.0042
        7 CR     7s         0.0000   -0.0000    0.0000    0.0012
        8 CR     8s         0.0000   -0.0000    0.0000    0.0013
        9 CR     9s         0.0000    0.0000   -0.0000    0.0001
       10 CR    10s         0.0000    0.0000   -0.0000   -0.0000
       11 CR     2px       -0.0000    0.0000   -0.0000   -0.0005
       12 CR     3px       -0.0000    0.0001   -0.0000   -0.0458
       13 CR     4px        0.0000   -0.0002    0.0000    0.0719
       14 CR     5px       -0.0000    0.0002   -0.0000   -0.0499
       15 CR     6px       -0.0000    0.0000   -0.0000   -0.0112
       16 CR     7px        0.0000   -0.0000    0.0000    0.0144
       17 CR     8px        0.0000   -0.0000    0.0000    0.0031
       18 CR     9px       -0.0000    0.0000   -0.0000   -0.0035
       19 CR    10px       -0.0000    0.0000   -0.0000   -0.0015
       20 CR    11px       -0.0000    0.0000    0.0000   -0.0002
       21 CR     2py        0.0000   -0.0000   -0.0005   -0.0000
       22 CR     3py        0.0000   -0.0000   -0.0387   -0.0000
       23 CR     4py       -0.0000    0.0000    0.0550    0.0000
       24 CR     5py        0.0000   -0.0000   -0.0415   -0.0000
       25 CR     6py        0.0000   -0.0000   -0.0080   -0.0000
       26 CR     7py       -0.0000    0.0000    0.0121    0.0000
       27 CR     8py       -0.0000    0.0000    0.0022    0.0000
       28 CR     9py        0.0000   -0.0000   -0.0033   -0.0000
       29 CR    10py        0.0000   -0.0000   -0.0014   -0.0000
       30 CR    11py        0.0000   -0.0000   -0.0002   -0.0000
       31 CR     2pz       -0.0000   -0.0005    0.0000   -0.0000
       32 CR     3pz       -0.0018   -0.0387    0.0000   -0.0001
       33 CR     4pz        0.0029    0.0550   -0.0000    0.0002
       34 CR     5pz       -0.0019   -0.0415    0.0000   -0.0001
       35 CR     6pz       -0.0004   -0.0081    0.0000   -0.0000
       36 CR     7pz        0.0006    0.0122   -0.0000    0.0000
       37 CR     8pz        0.0001    0.0022   -0.0000    0.0000
       38 CR     9pz       -0.0001   -0.0033    0.0000   -0.0000
       39 CR    10pz       -0.0001   -0.0014    0.0000   -0.0000
       40 CR    11pz       -0.0000   -0.0002    0.0000   -0.0000
       41 CR     3d2-      -0.0000    0.0000    0.9439    0.0000
       42 CR     4d2-       0.0000   -0.0000   -0.3099   -0.0000
       43 CR     5d2-      -0.0000   -0.0000   -0.0001   -0.0000
       44 CR     6d2-      -0.0000    0.0000    0.0166    0.0000
       45 CR     7d2-      -0.0000    0.0000    0.0143    0.0000
       46 CR     8d2-       0.0000   -0.0000   -0.0044   -0.0000
       47 CR     9d2-       0.0000   -0.0000   -0.0036   -0.0000
       48 CR    10d2-       0.0000   -0.0000   -0.0002    0.0000
       49 CR     3d1-       0.0000    0.0000    0.0490    0.0000
       50 CR     4d1-      -0.0000   -0.0000   -0.0172   -0.0000
       51 CR     5d1-      -0.0000   -0.0000   -0.0003   -0.0000
       52 CR     6d1-       0.0000    0.0000    0.0010    0.0000
       53 CR     7d1-       0.0000    0.0000    0.0009    0.0000
       54 CR     8d1-      -0.0000   -0.0000   -0.0002   -0.0000
       55 CR     9d1-      -0.0000   -0.0000   -0.0002   -0.0000
       56 CR    10d1-      -0.0000   -0.0000   -0.0000   -0.0000
       57 CR     3d0        0.8182   -0.0366    0.0000   -0.4725
       58 CR     4d0       -0.2769    0.0130   -0.0000    0.1530
       59 CR     5d0       -0.0014    0.0002   -0.0000   -0.0005
       60 CR     6d0        0.0162   -0.0007    0.0000   -0.0079
       61 CR     7d0        0.0137   -0.0007    0.0000   -0.0068
       62 CR     8d0       -0.0043    0.0001   -0.0000    0.0022
       63 CR     9d0       -0.0039    0.0002   -0.0000    0.0016
       64 CR    10d0       -0.0003    0.0000   -0.0000    0.0000
       65 CR     3d1+       0.0445    0.9441   -0.0000    0.0033
       66 CR     4d1+      -0.0140   -0.3100    0.0000   -0.0011
       67 CR     5d1+       0.0002   -0.0001    0.0000    0.0000
       68 CR     6d1+       0.0008    0.0166   -0.0000    0.0001
       69 CR     7d1+       0.0006    0.0143   -0.0000    0.0000
       70 CR     8d1+      -0.0003   -0.0044    0.0000   -0.0000
       71 CR     9d1+      -0.0002   -0.0036    0.0000   -0.0000
       72 CR    10d1+      -0.0000   -0.0002    0.0000   -0.0000
       73 CR     3d2+       0.4727   -0.0250    0.0000    0.8176
       74 CR     4d2+      -0.1600    0.0087   -0.0000   -0.2646
       75 CR     5d2+      -0.0008    0.0001   -0.0000    0.0008
       76 CR     6d2+       0.0094   -0.0005    0.0000    0.0136
       77 CR     7d2+       0.0079   -0.0004    0.0000    0.0117
       78 CR     8d2+      -0.0025    0.0001   -0.0000   -0.0037
       79 CR     9d2+      -0.0022    0.0001   -0.0000   -0.0027
       80 CR    10d2+      -0.0002    0.0000   -0.0000   -0.0000
       81 CR     4f3-      -0.0000    0.0000    0.0505    0.0000
       82 CR     5f3-      -0.0000    0.0000    0.0235    0.0000
       83 CR     6f3-       0.0000   -0.0000   -0.0046   -0.0000
       84 CR     7f3-       0.0000   -0.0000   -0.0054   -0.0000
       85 CR     8f3-       0.0000   -0.0000   -0.0012   -0.0000
       86 CR     9f3-      -0.0000    0.0000    0.0012    0.0000
       87 CR     4f2-       0.0000    0.0000    0.0018    0.0000
       88 CR     5f2-       0.0000    0.0000    0.0003    0.0000
       89 CR     6f2-      -0.0000   -0.0000   -0.0007   -0.0000
       90 CR     7f2-      -0.0000   -0.0000   -0.0004   -0.0000
       91 CR     8f2-      -0.0000    0.0000    0.0000   -0.0000
       92 CR     9f2-       0.0000    0.0000    0.0002    0.0000
       93 CR     4f1-       0.0000   -0.0000   -0.0130   -0.0000
       94 CR     5f1-       0.0000   -0.0000   -0.0061   -0.0000
       95 CR     6f1-      -0.0000    0.0000    0.0012    0.0000
       96 CR     7f1-      -0.0000    0.0000    0.0014    0.0000
       97 CR     8f1-      -0.0000    0.0000    0.0003    0.0000
       98 CR     9f1-       0.0000   -0.0000   -0.0003   -0.0000
       99 CR     4f0       -0.0016   -0.0319    0.0000   -0.0000
      100 CR     5f0       -0.0009   -0.0149    0.0000    0.0001
      101 CR     6f0       -0.0000    0.0029   -0.0000    0.0002
      102 CR     7f0        0.0001    0.0034   -0.0000    0.0001
      103 CR     8f0        0.0000    0.0008   -0.0000    0.0000
      104 CR     9f0        0.0000   -0.0007    0.0000   -0.0000
      105 CR     4f1+       0.0314   -0.0011    0.0000   -0.0342
      106 CR     5f1+       0.0139   -0.0001    0.0000   -0.0160
      107 CR     6f1+      -0.0036    0.0005   -0.0000    0.0031
      108 CR     7f1+      -0.0036    0.0003   -0.0000    0.0037
      109 CR     8f1+      -0.0006   -0.0000    0.0000    0.0009
      110 CR     9f1+       0.0010   -0.0001    0.0000   -0.0008
      111 CR     4f2+       0.0021    0.0412   -0.0000    0.0003
      112 CR     5f2+       0.0011    0.0192   -0.0000    0.0002
      113 CR     6f2+       0.0000   -0.0038    0.0000    0.0001
      114 CR     7f2+      -0.0001   -0.0044    0.0000    0.0001
      115 CR     8f2+      -0.0001   -0.0010    0.0000    0.0000
      116 CR     9f2+      -0.0000    0.0010   -0.0000   -0.0000
      117 CR     4f3+       0.0244   -0.0011    0.0000    0.0441
      118 CR     5f3+       0.0108   -0.0002    0.0000    0.0207
      119 CR     6f3+      -0.0028    0.0004   -0.0000   -0.0040
      120 CR     7f3+      -0.0028    0.0003   -0.0000   -0.0048
      121 CR     8f3+      -0.0005   -0.0000    0.0000   -0.0011
      122 CR     9f3+       0.0008   -0.0001    0.0000    0.0010
      123 CR     5g4-      -0.0000    0.0000    0.0008    0.0000
      124 CR     6g4-      -0.0000    0.0000    0.0023    0.0000
      125 CR     7g4-      -0.0000    0.0000    0.0021    0.0000
      126 CR     8g4-      -0.0000    0.0000    0.0011    0.0000
      127 CR     5g3-       0.0000   -0.0000   -0.0001    0.0000
      128 CR     6g3-       0.0000   -0.0000   -0.0002    0.0000
      129 CR     7g3-       0.0000   -0.0000   -0.0003    0.0000
      130 CR     8g3-       0.0000   -0.0000   -0.0003    0.0000
      131 CR     5g2-       0.0000   -0.0000   -0.0003   -0.0000
      132 CR     6g2-       0.0000   -0.0000   -0.0009   -0.0000
      133 CR     7g2-       0.0000   -0.0000   -0.0008   -0.0000
      134 CR     8g2-       0.0000   -0.0000   -0.0004   -0.0000
      135 CR     5g1-      -0.0000    0.0000    0.0001    0.0000
      136 CR     6g1-      -0.0000    0.0000    0.0002   -0.0000
      137 CR     7g1-      -0.0000    0.0000    0.0002    0.0000
      138 CR     8g1-      -0.0000    0.0000    0.0002   -0.0000
      139 CR     5g0       -0.0003   -0.0000    0.0000    0.0003
      140 CR     6g0       -0.0009   -0.0001    0.0000    0.0009
      141 CR     7g0       -0.0007   -0.0001    0.0000    0.0007
      142 CR     8g0       -0.0003   -0.0001    0.0000    0.0003
      143 CR     5g1+      -0.0000   -0.0006    0.0000    0.0000
      144 CR     6g1+      -0.0001   -0.0018    0.0000    0.0001
      145 CR     7g1+      -0.0001   -0.0017    0.0000    0.0001
      146 CR     8g1+      -0.0001   -0.0009    0.0000    0.0001
      147 CR     5g2+       0.0003    0.0001   -0.0000   -0.0004
      148 CR     6g2+       0.0008    0.0003   -0.0000   -0.0013
      149 CR     7g2+       0.0007    0.0003   -0.0000   -0.0011
      150 CR     8g2+       0.0003    0.0002   -0.0000   -0.0005
      151 CR     5g3+       0.0000    0.0006   -0.0000    0.0000
      152 CR     6g3+       0.0001    0.0016   -0.0000    0.0001
      153 CR     7g3+       0.0001    0.0015   -0.0000    0.0002
      154 CR     8g3+       0.0001    0.0008   -0.0000    0.0002
      155 CR     5g4+       0.0004    0.0001   -0.0000    0.0006
      156 CR     6g4+       0.0010    0.0002   -0.0000    0.0017
      157 CR     7g4+       0.0009    0.0003   -0.0000    0.0015
      158 CR     8g4+       0.0004    0.0002   -0.0000    0.0007
      159 CR     6h5-       0.0000    0.0000    0.0002   -0.0000
      160 CR     7h5-       0.0000    0.0000    0.0003   -0.0000
      161 CR     6h4-       0.0000   -0.0000   -0.0000    0.0000
      162 CR     7h4-       0.0000   -0.0000   -0.0000    0.0000
      163 CR     6h3-      -0.0000   -0.0000   -0.0001   -0.0000
      164 CR     7h3-      -0.0000   -0.0000   -0.0001   -0.0000
      165 CR     6h2-      -0.0000    0.0000    0.0000    0.0000
      166 CR     7h2-      -0.0000    0.0000    0.0001    0.0000
      167 CR     6h1-      -0.0000    0.0000    0.0000   -0.0000
      168 CR     7h1-      -0.0000    0.0000    0.0000   -0.0000
      169 CR     6h0       -0.0000    0.0001   -0.0000   -0.0000
      170 CR     7h0       -0.0000    0.0002   -0.0000   -0.0000
      171 CR     6h1+      -0.0001   -0.0000    0.0000    0.0001
      172 CR     7h1+      -0.0002   -0.0000    0.0000    0.0002
      173 CR     6h2+       0.0000   -0.0002    0.0000    0.0000
      174 CR     7h2+       0.0000   -0.0002    0.0000    0.0000
      175 CR     6h3+       0.0001    0.0000   -0.0000   -0.0001
      176 CR     7h3+       0.0001    0.0001   -0.0000   -0.0002
      177 CR     6h4+      -0.0000    0.0002   -0.0000    0.0000
      178 CR     7h4+      -0.0000    0.0002   -0.0000    0.0000
      179 CR     6h5+       0.0001    0.0000   -0.0000    0.0002
      180 CR     7h5+       0.0002    0.0001   -0.0000    0.0002
--


++    Molecular charges:
      ------------------

      Mulliken charges per centre and basis function type
      ---------------------------------------------------

                CR    
      1s       2.0000
      2s       2.0000
      2px      2.0000
      2pz      2.0000
      2py      2.0000
      3s       1.9814
      3px      1.9568
      3pz      1.9600
      3py      1.9600
      4s       0.0054
      3d2+     0.0047
      3d1+     0.0044
      3d0      0.0016
      3d1-     0.0000
      3d2-     0.0044
      4px      0.0161
      4pz      0.0162
      4py      0.0162
      5s       0.0118
      4d2+     0.0002
      4d1+     0.0002
      4d0      0.0001
      4d1-     0.0000
      4d2-     0.0002
      5px      0.0190
      5pz      0.0187
      5py      0.0187
      6s       0.0019
      4f3+     0.0000
      4f2+     0.0000
      4f1+     0.0000
      4f0      0.0000
      4f1-     0.0000
      4f2-     0.0000
      4f3-     0.0000
      5d2+     0.0001
      5d1+     0.0001
      5d0      0.0000
      5d1-     0.0000
      5d2-     0.0001
      6px      0.0000
      6pz      0.0000
      6py      0.0000
      7s       0.0002
      5f3+     0.0000
      5f2+     0.0000
      5f1+     0.0000
      5f0      0.0000
      5f1-     0.0000
      5f2-     0.0000
      5f3-     0.0000
      6d2+     0.0000
      6d1+     0.0000
      6d0      0.0000
      6d1-     0.0000
      6d2-     0.0000
      7px      0.0005
      7pz      0.0005
      7py      0.0005
      5g4+     0.0000
      5g3+     0.0000
      5g2+     0.0000
      5g1+     0.0000
      5g0      0.0000
      5g1-     0.0000
      5g2-     0.0000
      5g3-     0.0000
      5g4-     0.0000
      6f3+     0.0000
      6f2+     0.0000
      6f1+     0.0000
      6f0      0.0000
      6f1-     0.0000
      6f2-     0.0000
      6f3-     0.0000
      6g4+     0.0000
      6g3+     0.0000
      6g2+     0.0000
      6g1+     0.0000
      6g0      0.0000
      6g1-     0.0000
      6g2-     0.0000
      6g3-     0.0000
      6g4-     0.0000
      6h5+     0.0000
      6h4+     0.0000
      6h3+     0.0000
      6h2+     0.0000
      6h1+     0.0000
      6h0      0.0000
      6h1-     0.0000
      6h2-     0.0000
      6h3-     0.0000
      6h4-     0.0000
      6h5-     0.0000
      7d2+     0.0000
      7d1+     0.0000
      7d0      0.0000
      7d1-     0.0000
      7d2-     0.0000
      7f3+     0.0000
      7f2+     0.0000
      7f1+     0.0000
      7f0      0.0000
      7f1-     0.0000
      7f2-     0.0000
      7f3-     0.0000
      7g4+     0.0000
      7g3+     0.0000
      7g2+     0.0000
      7g1+     0.0000
      7g0      0.0000
      7g1-     0.0000
      7g2-     0.0000
      7g3-     0.0000
      7g4-     0.0000
      7h5+     0.0000
      7h4+     0.0000
      7h3+     0.0000
      7h2+     0.0000
      7h1+     0.0000
      7h0      0.0000
      7h1-     0.0000
      7h2-     0.0000
      7h3-     0.0000
      7h4-     0.0000
      7h5-     0.0000
      8s       0.0001
      8px      0.0000
      8pz      0.0000
      8py      0.0000
      8d2+     0.0000
      8d1+     0.0000
      8d0      0.0000
      8d1-     0.0000
      8d2-     0.0000
      8f3+     0.0000
      8f2+     0.0000
      8f1+     0.0000
      8f0      0.0000
      8f1-     0.0000
      8f2-     0.0000
      8f3-     0.0000
      8g4+     0.0000
      8g3+     0.0000
      8g2+     0.0000
      8g1+     0.0000
      8g0      0.0000
      8g1-     0.0000
      8g2-     0.0000
      8g3-     0.0000
      8g4-     0.0000
      9s       0.0000
      9px      0.0000
      9pz      0.0000
      9py      0.0000
      9d2+     0.0000
      9d1+     0.0000
      9d0      0.0000
      9d1-     0.0000
      9d2-     0.0000
      9f3+     0.0000
      9f2+     0.0000
      9f1+     0.0000
      9f0      0.0000
      9f1-     0.0000
      9f2-     0.0000
      9f3-     0.0000
     10s       0.0000
     10px      0.0000
     10pz      0.0000
     10py      0.0000
     10d2+     0.0000
     10d1+     0.0000
     10d0      0.0000
     10d1-     0.0000
     10d2-     0.0000
     11px      0.0000
     11pz      0.0000
     11py      0.0000
      Total   18.0000

      N-E      6.0000

      Total electronic charge=   18.000000

      Total            charge=    6.000000
--

 Sorry, Molden does not know how to handle
 functions with angular momentum larger than g

++    Static properties:
      ------------------


      LoProp Charges per center


                   CR    
      Nuclear     24.0000
      Electronic -18.0000

      Total        6.0000
--


++    Molecular properties:
      ---------------------

      Charge (e):
                      =    6.0000
      Dipole Moment (Debye):
      Origin of the operator (Ang)=    0.0000    0.0000    0.0000
                   X= -7.5175E-01               Y= -3.7192E-14               Z=  1.3310E-01           Total=  7.6345E-01
      Center of Charge (Ang)
                     X=   -0.02608517               Y=   -0.00000000               Z=    0.00461851
      Quadrupole Moment (Debye*Ang):
      Origin of the operator (Ang)=   -0.0000   -0.0000    0.0046
                  XX= -3.4466E+00              XY= -7.0486E-15              XZ=  2.2753E-05              YY= -3.4456E+00
                  YZ=  6.3273E-15              ZZ= -3.4456E+00
      In traceless form (Debye*Ang)
                  XX= -9.9556E-04              XY= -1.0573E-14              XZ=  3.4129E-05              YY=  4.9978E-04
                  YZ=  9.4909E-15              ZZ=  4.9577E-04
--

 Sorry, Molden does not know how to handle
 functions with angular momentum larger than g
 ###############################################################################
 ###############################################################################
 ###                                                                         ###
 ###                                                                         ###
 ###    WARNING: RunFile label nBas                                          ###
 ###    was used       62 times                                              ###
 ###                                                                         ###
 ###                                                                         ###
 ###############################################################################
 ###############################################################################
Note: The following floating-point exceptions are signalling: IEEE_UNDERFLOW_FLAG IEEE_DENORMAL
--- Stop Module: scf at Wed Mar 26 16:36:32 2025 /rc=_RC_ALL_IS_WELL_ ---
*** files: chromium_so_cf.LprOrb chromium_so_cf.ScfOrb xmldump
    saved to directory /home4/s4752295/Internship/Initial_simulations/Point_charge_model/1_electron/Madelung_charges_9_active_space/Cr
--- Module scf spent 15 seconds ---

*** symbolic link created: INPORB -> chromium_so_cf.ScfOrb
--- Start Module: rasscf at Wed Mar 26 16:36:32 2025 ---

()()()()()()()()()()()()()()()()()()()()()()()()()()()()()()()()()()()()()()()()()()()()()()()()()()

                                              &RASSCF

                                   only a single process is used
                       available to each process: 4.1 GB of memory, 1 thread?
                                            pid: 1913450
()()()()()()()()()()()()()()()()()()()()()()()()()()()()()()()()()()()()()()()()()()()()()()()()()()


      Header of the ONEINT file:
      --------------------------
      
      Integrals generated by seward 4.2.0  , Wed Mar 26 16:36:07 2025


      OrdInt status: non-squared


      Cartesian coordinates in Angstrom:
      -----------------------------------------------------
      No.  Label        X            Y            Z        
      -----------------------------------------------------
       1   CR        -0.00000000  -0.00000000   0.00463220
      -----------------------------------------------------
      Nuclear repulsion energy = -129.16192490

++    Wave function specifications:
      -----------------------------

      Number of closed shell electrons          18
      Number of electrons in active shells       1
      Max number of holes in RAS1 space          0
      Max nr of electrons in RAS3 space          0
      Number of inactive orbitals                9
      Number of active orbitals                  9
      Number of secondary orbitals             162
      Spin quantum number                      0.5
      State symmetry                             1
--

++    Orbital specifications:
      -----------------------

      Symmetry species                           1
                                                 a
      Frozen orbitals                            0
      Inactive orbitals                          9
      Active orbitals                            9
      RAS1 orbitals                              0
      RAS2 orbitals                              9
      RAS3 orbitals                              0
      Secondary orbitals                       162
      Deleted orbitals                           0
      Number of basis functions                180
--

++    CI expansion specifications:
      ----------------------------

      Number of CSFs                             9
      Number of determinants                     9
      Number of root(s) required                 9
      Root chosen for geometry opt.              9
      CI roots used                              1     2     3     4     5     6     7     8     9
      weights                                0.111 0.111 0.111 0.111 0.111 0.111 0.111 0.111 0.111
      highest root included in the CI            9
      max. size of the explicit Hamiltonian      9
--

++    Optimization specifications:
      ----------------------------

      RASSCF algorithm: Conventional
      Maximum number of macro iterations       200
      Maximum number of SX iterations          100
      Threshold for RASSCF energy            0.100E-07
      Threshold for max MO rotation          0.100E+00
      Threshold for max BLB element          0.100E-03
      Level shift parameter                  0.500E+00
      Make Quasi-Newton update
--

      The MO-coefficients are taken from the file:
      INPORB                                                                                                                          
      Title: SCF orbitals                                                                  

      Total molecular charge    5.00

      ************************************************************************************************************************
      *                                                                                                                      *
      *                                            Wave function control section                                             *
      *                                                                                                                      *
      ************************************************************************************************************************


                                         RASSCF iterations: Energy and convergence statistics
                                         ----------------------------------------------------

      Iter CI   SX   CI       RASSCF       Energy    max ROT     max BLB   max BLB  Level Ln srch  Step   QN   Walltime
          iter iter root      energy       change     param      element    value   shift minimum  type update hh:mm:ss
 Nr of preliminary CI iterations:   1
      Total energies have been shifted. Add                -1000.00 au
[...]
   11         0.718612       6 0.5  1.0000    9 0.5  0.0000    8 0.5  0.0000    7 0.5  0.0000    5 0.5  0.0000
   12         0.718612       6 0.5  1.0000    9 0.5  0.0000    8 0.5  0.0000    7 0.5  0.0000    5 0.5  0.0000
   13         1.099684       7 0.5  1.0000    9 0.5  0.0000    8 0.5  0.0000    6 0.5  0.0000    5 0.5  0.0000
   14         1.099684       7 0.5  1.0000    9 0.5  0.0000    8 0.5  0.0000    6 0.5  0.0000    5 0.5  0.0000
   15         1.100256       8 0.5  1.0000    9 0.5  0.0000    7 0.5  0.0000    6 0.5  0.0000    5 0.5  0.0000
   16         1.100256       8 0.5  1.0000    9 0.5  0.0000    7 0.5  0.0000    6 0.5  0.0000    5 0.5  0.0000
   17         1.219288       9 0.5  1.0000    8 0.5  0.0000    7 0.5  0.0000    6 0.5  0.0000    5 0.5  0.0000
   18         1.219288       9 0.5  1.0000    8 0.5  0.0000    7 0.5  0.0000    6 0.5  0.0000    5 0.5  0.0000
 -------------------------------------------------------------------------------------------------------


      ****************************************************************************************************
      *                                                                                                  *
      *                                    Special properties section                                    *
      *                                                                                                  *
      ****************************************************************************************************


++ Dipole transition strengths (SO states):
   ----------------------------------------
    for osc. strength at least    1.0000000000000001E-005

      From   To        Osc. strength     Einstein coefficients Ax, Ay, Az (sec-1)    Total A (sec-1)
     -----------------------------------------------------------------------------------------------
         1   11       4.21507026E-05  1.67567309E-15  6.99363615E+05  4.24405172E-12  6.99363615E+05
         1   13       1.65005158E-02  3.96545295E-11  6.41124697E+08  7.39086110E-09  6.41124697E+08
         1   15       1.68919562E-02  1.24844622E+07  7.41225278E-09  6.44533370E+08  6.57017832E+08
         2   12       4.21507026E-05  1.67567309E-15  6.99363615E+05  4.24405172E-12  6.99363615E+05
         2   14       1.65005158E-02  3.96545295E-11  6.41124697E+08  7.39086110E-09  6.41124697E+08
         2   16       1.68919562E-02  1.24844622E+07  7.41225278E-09  6.44533370E+08  6.57017832E+08
         3   11       3.65496033E-05  1.58914972E+02  7.81333043E-12  6.06264796E+05  6.06423711E+05
         3   13       1.67827549E-02  1.10269126E+07  7.39181248E-09  6.41059519E+08  6.52086432E+08
         3   15       1.65550891E-02  7.73280906E-11  6.43910726E+08  7.42063776E-09  6.43910726E+08
         4   12       3.65496033E-05  1.58914972E+02  7.81333043E-12  6.06264796E+05  6.06423711E+05
         4   14       1.67827549E-02  1.10269126E+07  7.39181248E-09  6.41059519E+08  6.52086432E+08
         4   16       1.65550891E-02  7.73280906E-11  6.43910726E+08  7.42063776E-09  6.43910726E+08
         5   11       1.24383858E-02  4.38284983E+03  4.09808282E-07  2.02989858E+08  2.02994241E+08
         5   13       5.10477426E-02  1.96190925E+09  3.88835882E-10  2.63736673E+05  1.96217299E+09
         5   17       1.73371001E-03  1.11351348E+04  1.67700371E-07  8.20003866E+07  8.20115217E+07
         6   12       1.24383858E-02  4.38284983E+03  4.09808282E-07  2.02989858E+08  2.02994241E+08
         6   14       5.10477426E-02  1.96190925E+09  3.88835882E-10  2.63736673E+05  1.96217299E+09
         6   18       1.73371001E-03  1.11351348E+04  1.67700371E-07  8.20003866E+07  8.20115217E+07
         7   11       1.24128861E-02  1.26066427E-11  2.02571700E+08  4.10612462E-07  2.02571700E+08
         7   15       5.10492633E-02  1.96408066E+09  6.20112500E-10  1.65816243E+05  1.96424648E+09
         7   17       1.75247961E-03  2.75756282E-11  8.28978650E+07  1.65853942E-07  8.28978650E+07
         8   12       1.24128861E-02  1.26066427E-11  2.02571700E+08  4.10612462E-07  2.02571700E+08
         8   16       5.10492633E-02  1.96408066E+09  6.20112500E-10  1.65816243E+05  1.96424648E+09
         8   18       1.75247961E-03  2.75756282E-11  8.28978650E+07  1.65853942E-07  8.28978650E+07
         9   11       3.39339637E-02  5.49995987E+08  1.06763676E-13  2.26794322E+03  5.49998255E+08
         9   17       1.12195553E-02  5.28587968E+08  4.94047245E-14  6.76976650E+01  5.28588036E+08
        10   12       3.39339637E-02  5.49995987E+08  1.06763676E-13  2.26794322E+03  5.49998255E+08
        10   18       1.12195553E-02  5.28587968E+08  4.94047245E-14  6.76976650E+01  5.28588036E+08
        11   13       3.38463691E-01  3.40762078E+02  8.09149237E-10  1.57919238E+09  1.57919272E+09
        11   15       3.38403885E-01  1.45762677E-15  1.58366295E+09  8.14131348E-10  1.58366295E+09
        11   17       3.61207715E-01  2.90924382E+09  6.97051314E-15  7.05773571E+02  2.90924452E+09
        12   14       3.38463691E-01  3.40762078E+02  8.09149237E-10  1.57919238E+09  1.57919272E+09
        12   16       3.38403885E-01  1.45762677E-15  1.58366295E+09  8.14131348E-10  1.58366295E+09
        12   18       3.61207715E-01  2.90924382E+09  6.97051314E-15  7.05773571E+02  2.90924452E+09
        13   15       1.15688119E-05  3.46035568E-23  1.21909476E-01  2.46242781E-19  1.21909476E-01
        13   17       8.45169409E-04  4.41437657E+01  2.17575457E-13  3.88416514E+05  3.88460658E+05
        14   16       1.15688119E-05  3.46035568E-23  1.21909476E-01  2.46242781E-19  1.21909476E-01
        14   18       8.45169409E-04  4.41437657E+01  2.17575457E-13  3.88416514E+05  3.88460658E+05
        15   17       9.20342620E-04  1.92157258E-18  4.18970877E+05  1.98674399E-13  4.18970877E+05
        16   18       9.20342620E-04  1.92157258E-18  4.18970877E+05  1.98674399E-13  4.18970877E+05
     -----------------------------------------------------------------------------------------------
--

++ Velocity transition strengths (SO states):
   ------------------------------------------
    for osc. strength at least    1.0000000000000001E-005

      From   To        Osc. strength     Einstein coefficients Ax, Ay, Az (sec-1)    Total A (sec-1)
     -----------------------------------------------------------------------------------------------
         1    3       9.21155193E-05  4.01189569E-22  4.49163722E-05  7.37033694E-22  4.49163722E-05
         1    5       4.40507961E-03  2.38313357E-18  4.95117265E+03  1.12379605E-11  4.95117265E+03
         1    7       4.39480561E-03  1.28234346E-03  1.12705419E-11  4.95840725E+03  4.95840853E+03
         1    9       1.91247938E-05  4.60589987E-20  4.30087343E+01  1.80276545E-16  4.30087343E+01
         1   11       3.58235581E-05  1.62241449E-15  5.94385826E+05  3.61588695E-12  5.94385826E+05
         1   13       1.44174331E-02  3.56918558E-11  5.60188828E+08  6.45571008E-09  5.60188828E+08
         1   15       1.47684897E-02  1.12567433E+07  6.47228502E-09  5.63170204E+08  5.74426947E+08
         2    4       9.21155193E-05  4.01189569E-22  4.49163722E-05  7.37033694E-22  4.49163722E-05
         2    6       4.40507961E-03  2.38313357E-18  4.95117265E+03  1.12379605E-11  4.95117265E+03
         2    8       4.39480561E-03  1.28234346E-03  1.12705419E-11  4.95840725E+03  4.95840853E+03
         2   10       1.91247938E-05  4.60589987E-20  4.30087343E+01  1.80276545E-16  4.30087343E+01
         2   12       3.58235581E-05  1.62241449E-15  5.94385826E+05  3.61588695E-12  5.94385826E+05
         2   14       1.44174331E-02  3.56918558E-11  5.60188828E+08  6.45571008E-09  5.60188828E+08
         2   16       1.47684897E-02  1.12567433E+07  6.47228502E-09  5.63170204E+08  5.74426947E+08
         3    5       4.40014640E-03  1.21243648E-02  1.12439729E-11  4.93910296E+03  4.93911509E+03
         3    7       4.40231277E-03  5.17477152E-17  4.96035005E+03  1.12424022E-11  4.96035005E+03
         3    9       1.82656626E-05  9.78025539E-06  7.45569616E-16  4.10384246E+01  4.10384344E+01
         3   11       3.10809540E-05  1.39365177E+02  6.70350419E-12  5.15551403E+05  5.15690768E+05
         3   13       1.46719796E-02  9.95018579E+06  6.45808479E-09  5.60124999E+08  5.70075185E+08
         3   15       1.44644374E-02  6.95258384E-11  5.62596714E+08  6.47992107E-09  5.62596714E+08
         4    6       4.40014640E-03  1.21243648E-02  1.12439729E-11  4.93910296E+03  4.93911509E+03
         4    8       4.40231277E-03  5.17477152E-17  4.96035005E+03  1.12424022E-11  4.96035005E+03
         4   10       1.82656626E-05  9.78025539E-06  7.45569616E-16  4.10384246E+01  4.10384344E+01
         4   12       3.10809540E-05  1.39365177E+02  6.70350419E-12  5.15551403E+05  5.15690768E+05
         4   14       1.46719796E-02  9.95018579E+06  6.45808479E-09  5.60124999E+08  5.70075185E+08
         4   16       1.44644374E-02  6.95258384E-11  5.62596714E+08  6.47992107E-09  5.62596714E+08
         5    9       3.27570745E-02  1.70028408E-03  1.27844832E-11  6.32568131E+03  6.32568301E+03
         5   11       1.05132981E-02  3.77415025E+03  3.46324649E-07  1.71573666E+08  1.71577440E+08
         5   13       4.55626985E-02  1.75105169E+09  4.53506911E-10  2.93287929E+05  1.75134497E+09
         5   17       1.37971308E-03  1.02480697E+04  1.33565043E-07  6.52560089E+07  6.52662570E+07
         6   10       3.27570745E-02  1.70028408E-03  1.27844832E-11  6.32568131E+03  6.32568301E+03
         6   12       1.05132981E-02  3.77415025E+03  3.46324649E-07  1.71573666E+08  1.71577440E+08
         6   14       4.55626985E-02  1.75105169E+09  4.53506911E-10  2.93287929E+05  1.75134497E+09
         6   18       1.37971308E-03  1.02480697E+04  1.33565043E-07  6.52560089E+07  6.52662570E+07
         7    9       3.28731758E-02  7.53398341E-19  6.29005419E+03  1.27419813E-11  6.29005419E+03
         7   11       1.04912432E-02  1.08229748E-11  1.71212105E+08  3.47102888E-07  1.71212105E+08
         7   15       4.55600058E-02  1.75284339E+09  6.88682553E-10  1.96437731E+05  1.75303983E+09
         7   17       1.39584840E-03  2.53258543E-11  6.60283030E+07  1.32004964E-07  6.60283030E+07
         8   10       3.28731758E-02  7.53398341E-19  6.29005419E+03  1.27419813E-11  6.29005419E+03
         8   12       1.04912432E-02  1.08229748E-11  1.71212105E+08  3.47102888E-07  1.71212105E+08
         8   16       4.55600058E-02  1.75284339E+09  6.88682553E-10  1.96437731E+05  1.75303983E+09
         8   18       1.39584840E-03  2.53258543E-11  6.60283030E+07  1.32004964E-07  6.60283030E+07
         9   11       2.93266895E-02  4.75323742E+08  1.14347149E-13  1.93066890E+03  4.75325673E+08
         9   17       1.08420599E-02  5.10804748E+08  4.48680472E-14  8.64360198E+01  5.10804834E+08
        10   12       2.93266895E-02  4.75323742E+08  1.14347149E-13  1.93066890E+03  4.75325673E+08
        10   18       1.08420599E-02  5.10804748E+08  4.48680472E-14  8.64360198E+01  5.10804834E+08
        11   13       3.18170812E-01  3.09021633E+02  7.62461948E-10  1.48451573E+09  1.48451604E+09
        11   15       3.18023389E-01  2.31822742E-15  1.48829145E+09  7.62782871E-10  1.48829145E+09
        11   17       2.84391028E-01  2.29055371E+09  3.80754211E-15  6.76514440E+02  2.29055439E+09
        12   14       3.18170812E-01  3.09021633E+02  7.62461948E-10  1.48451573E+09  1.48451604E+09
        12   16       3.18023389E-01  2.31822742E-15  1.48829145E+09  7.62782871E-10  1.48829145E+09
        12   18       2.84391028E-01  2.29055371E+09  3.80754211E-15  6.76514440E+02  2.29055439E+09
        13   17       1.22720546E-03  2.32243744E+01  2.79588642E-13  5.64032567E+05  5.64055791E+05
        14   18       1.22720546E-03  2.32243744E+01  2.79588642E-13  5.64032567E+05  5.64055791E+05
        15   17       1.18977530E-03  1.93927805E-17  5.41627568E+05  2.91654072E-13  5.41627568E+05
        16   18       1.18977530E-03  1.93927805E-17  5.41627568E+05  2.91654072E-13  5.41627568E+05
     -----------------------------------------------------------------------------------------------
--

++ Length and velocity gauge comparison (SO states):

 --------------------------------------------------
 A comparison between the dipole oscillator strengths in 
 length and velocity gauge will be performed

 All dipole oscillator differences above the tolerance of   0.10000000000000001       will be printed 

 Due to basis set deficiency these oscillator may be problematic 

 The tolerance is defined as ABS(1-O_l/O_v) 
 O_l : dipole oscillator strength in length gauge
 O_p : dipole oscillator strength in velocity gauge
 --------------------------------------------------

  Problematic transitions have been found

      From   To       Difference (%) Osc. st. (len.) Osc. st. (vel.)
     ---------------------------------------------------------------
         1    3      --------------- below threshold  9.21155193E-05
         1    5      --------------- below threshold  4.40507961E-03
         1    7      --------------- below threshold  4.39480561E-03
         1    9      --------------- below threshold  1.91247938E-05
         1   11            17.661966  4.21507026E-05  3.58235581E-05
         1   13            14.448360  1.65005158E-02  1.44174331E-02
         1   15            14.378359  1.68919562E-02  1.47684897E-02
         2    4      --------------- below threshold  9.21155193E-05
         2    6      --------------- below threshold  4.40507961E-03
         2    8      --------------- below threshold  4.39480561E-03
         2   10      --------------- below threshold  1.91247938E-05
         2   12            17.661966  4.21507026E-05  3.58235581E-05
         2   14            14.448360  1.65005158E-02  1.44174331E-02
         2   16            14.378359  1.68919562E-02  1.47684897E-02
         3    5      --------------- below threshold  4.40014640E-03
         3    7      --------------- below threshold  4.40231277E-03
         3    9      --------------- below threshold  1.82656626E-05
         3   11            17.594857  3.65496033E-05  3.10809540E-05
         3   13            14.386438  1.67827549E-02  1.46719796E-02
         3   15            14.453737  1.65550891E-02  1.44644374E-02
         4    6      --------------- below threshold  4.40014640E-03
         4    8      --------------- below threshold  4.40231277E-03
         4   10      --------------- below threshold  1.82656626E-05
         4   12            17.594857  3.65496033E-05  3.10809540E-05
         4   14            14.386438  1.67827549E-02  1.46719796E-02
         4   16            14.453737  1.65550891E-02  1.44644374E-02
         5    9      --------------- below threshold  3.27570745E-02
         5   11            18.310978  1.24383858E-02  1.05132981E-02
         5   13            12.038453  5.10477426E-02  4.55626985E-02
         5   17            25.657286  1.73371001E-03  1.37971308E-03
         6   10      --------------- below threshold  3.27570745E-02
         6   12            18.310978  1.24383858E-02  1.05132981E-02
         6   14            12.038453  5.10477426E-02  4.55626985E-02
         6   18            25.657286  1.73371001E-03  1.37971308E-03
         7    9      --------------- below threshold  3.28731758E-02
         7   11            18.316637  1.24128861E-02  1.04912432E-02
         7   15            12.048413  5.10492633E-02  4.55600058E-02
         7   17            25.549423  1.75247961E-03  1.39584840E-03
         8   10      --------------- below threshold  3.28731758E-02
         8   12            18.316637  1.24128861E-02  1.04912432E-02
         8   16            12.048413  5.10492633E-02  4.55600058E-02
         8   18            25.549423  1.75247961E-03  1.39584840E-03
         9   11            15.710175  3.39339637E-02  2.93266895E-02
        10   12            15.710175  3.39339637E-02  2.93266895E-02
        11   17            27.010939  3.61207715E-01  2.84391028E-01
        12   18            27.010939  3.61207715E-01  2.84391028E-01
        13   15      ---------------  1.15688119E-05 below threshold
        13   17            31.130570  8.45169409E-04  1.22720546E-03
        14   16      ---------------  1.15688119E-05 below threshold
        14   18            31.130570  8.45169409E-04  1.22720546E-03
        15   17            22.645678  9.20342620E-04  1.18977530E-03
        16   18            22.645678  9.20342620E-04  1.18977530E-03
     ---------------------------------------------------------------

 Number of problematic transitions =                    52

--

 Electric-dipole - electric-octupole not included
++ I/O STATISTICS
 
  I. General I/O information
  - - - - - - - - - - - - - - - - - - - - - - - - - - - - - - - - - - - - - - - - - - -
  Unit  Name          Flsize      Write/Read            MBytes           Write/Read
                      (MBytes)       Calls              In/Out           Time, sec.
  - - - - - - - - - - - - - - - - - - - - - - - - - - - - - - - - - - - - - - - - - - -
   1  SCRATCH           0.00 .       9/      45 .      0.0/      0.0 .       0/       0
   2  ANNI              0.00 .       0/       0 .      0.0/      0.0 .       0/       0
   3  RUNFILE          14.88 .     322/   10733 .      2.3/     77.8 .       0/       0
   4  ONEINT            5.58 .       0/   23543 .      0.0/   3739.9 .       0/       0
   5  JOBIPH            6.48 .       0/      92 .      0.0/      0.8 .       0/       0
   6  ORDINT          506.53 .       1/    4053 .      0.0/   1013.0 .       0/       0
  - - - - - - - - - - - - - - - - - - - - - - - - - - - - - - - - - - - - - - - - - - -
   *  TOTAL           533.47 .     332/   38466 .      2.3/   4831.6 .       0/       0
  - - - - - - - - - - - - - - - - - - - - - - - - - - - - - - - - - - - - - - - - - - -
 
  II. I/O Access Patterns
  - - - - - - - - - - - - - - - - - - - -
  Unit  Name               % of random
                         Write/Read calls
  - - - - - - - - - - - - - - - - - - - -
   1  SCRATCH             88.9/ 100.0
   2  ANNI                 0.0/   0.0
   3  RUNFILE             28.6/  10.8
   4  ONEINT               0.0/  16.4
   5  JOBIPH               0.0/  76.1
   6  ORDINT             100.0/   0.0
  - - - - - - - - - - - - - - - - - - - -
--
--- Stop Module: rassi at Wed Mar 26 16:37:20 2025 /rc=_RC_ALL_IS_WELL_ ---
*** files: xmldump
    saved to directory /home4/s4752295/Internship/Initial_simulations/Point_charge_model/1_electron/Madelung_charges_9_active_space/Cr
--- Module rassi spent 3 seconds ---

.##################.
.# Happy landing! #.
.##################.

    Timing: Wall=73.58 User=46.62 System=25.75

###############################################################################
Hbrk Cluster
Job 15910609 for user s4752295
Finished at: Wed Mar 26 16:37:24 CET 2025

Job details:
============

Job ID                         : 15910609
Name                           : Cr_no_SO
User                           : s4752295
Partition                      : regularmedium
Nodes                          : node101
Number of Nodes                : 1
Cores                          : 1
Number of Tasks                : 1
State                          : COMPLETED  
Submit                         : 2025-03-26T16:35:37
Start                          : 2025-03-26T16:36:02
End                            : 2025-03-26T16:37:20
Reserved walltime              : 15:00:00
Used walltime                  : 00:01:18
Used CPU time                  : 00:01:14 (Efficiency: 94.42%)
% User (Computation)           : 64.72%
% System (I/O)                 : 35.28%
Total memory reserved          : 25000M
Maximum memory used            : 2.02G

Acknowledgements:
=================

Please see this page for information about acknowledging Hbrk in your publications:

https://wiki.hpc.rug.nl/habrok/introduction/scientific_output

################################################################################
