   This run of MOLCAS is using the pymolcas driver

                             OPE
                             OPE          NMOL  CASOP  ENMOLC A   SO
                 OPE        NMOLC        AS  OP EN  MO LC     AS  OP
                OPENM       OL CA        SO  PE NM  OL CA     SOP EN
                OP EN      MO   LC       AS  OP ENMOL  CASO   PENMOL
                OP  EN     MO   LC       AS  OP EN     MO     LC ASO
               OP   E  NMOL  C  AS       OP  EN MO     LC     AS  OP
               OP  E   NMO   LC AS        OPEN  MO     LCASOP EN   M
               O  PEN   MO  LCA  SO
            OPE   NMO   L   CAS    OP
        OPENMOL  CASOP     ENMOL   CASOPE
     OPENMOLCA   SOPENMOLCASOPEN   MOLCASOPE
    OPENMOLCAS   OP           EN   MOL    CAS
    OPENMOLCAS       OP  ENM        O     LCA
    OPENMOLCAS    OPEN  MOLCASO     P  E  NMO
    OPENMOLCAS     OP               E  N  MOL
    OPENMOLCA   SO           PENM   O  L  CAS    OPEN    MO    LCAS
    OPENMOLCA   SOP           ENM   O  L  CAS   OP  EN  MOLC  AS   O
    OPENMOLCA   SOPE           NM      O  LCA   S      OP  EN MO
    OPENMOLC                AS         O  PEN   M      OL  CA  SOPE
    OPENMO        LCASOPE  NMOL        C  ASO   P      ENMOLC     AS
    OPE     NMO      LCA  SO     P     E   NM   OL  CA SO  PE N   MO
          OPENMOLCA            SOPE   NMO        LCAS  O    P  ENMO
     OPENMOLCASOPENMOLCASOPENMOLCASOPENMOLCA
        OPENMOLCASOPENMOLCASOPENMOLCASOPE
            OPENMOLCASOPENMOLCASOPENM
               OPENMOLCASOPENMOLCA        version: o91e1abe7de707b ?
                   OPENMOLCASO
                       OPE                tag:

 OpenMolcas is free software; you can redistribute it and/or modify it
 under the terms of the GNU Lesser General Public License version 2.1.
 OpenMolcas is distributed in the hope that it will be useful, but it
 is provided "as is" and without any express or implied warranties.
 For more details see the full text of the license in the file
 LICENSE or in <http://www.gnu.org/licenses/>.

                 Copyright (C) The OpenMolcas Authors
           For the author list and the recommended citation,
                   consult the file CONTRIBUTORS.md

           *************************************************
           * pymolcas version py2.10                       *
           *   build 3068ae8b88c9345ec6cfef6fef7f1169      *
           *   (after the EMIL interpreter by V. Veryazov) *
           *************************************************

configuration info
------------------
Host name: login1 (Linux)
C Compiler ID: GNU
C flags: -std=gnu99
Fortran Compiler ID: GNU
Fortran flags: -fno-aggressive-loop-optimizations -cpp -fdefault-integer-8 -fmax-stack-var-size=1048576
Definitions: _MOLCAS_;_I8_;_LINUX_;_MKL_
Parallel: OFF (GA=OFF)


   -----------------------------------------------------------------------------------------------------------------------------------
  |
  |           Project: chromium_so_cf
  |    Submitted from: /home4/s4752295/Internship/Initial_simulations/Point_charge_model/1_electron/Madelung_charges_9_active_space/Cr
  |      Scratch area: /tmp/chromium_so_cf
  |   Save outputs to: /home4/s4752295/Internship/Initial_simulations/Point_charge_model/1_electron/Madelung_charges_9_active_space/Cr
  |            Molcas: /home4/s4752295/Internship/Molcas/recomp_try/OpenMolcas-master/build
  |
  | Scratch area is empty
  |
  |    MOLCAS_DRIVER = /home4/s4752295/Internship/Molcas/bin/pymolcas
  |    MOLCAS_NPROCS = 1
  |    MOLCAS_SOURCE = /home4/s4752295/Internship/Molcas/recomp_try/OpenMolcas-master
  | MOLCAS_STRUCTURE = 0
  |
   -----------------------------------------------------------------------------------------------------------------------------------

++ ---------   Input file   ---------

&SEWARD
AMFi

CLIG
$R

Basis Set
Cr.ANO-rcc.Roos.21s15p10d6f4g2h.10s10p8d6f4g2h.
Spherical d
Cr            -1.0658140267135469e-14   -3.5527134223784897e-15 0.008753588724385739
End of Basis

Xfield

414
-0.400220108,-0.15400000000000003,0.0889119     -0.625931
-0.400220108,-0.0,-0.1778239    -0.625931
-0.400220108,0.15400000000000003,0.0889119      -0.625931
-0.39953460700000004,0.0,0.0    1.892092
0.26591796900000003,-0.15400000000000003,-0.0889119     2.515516
0.26591796900000003,0.0,0.1778239       2.515516
0.26591796900000003,0.15400000000000003,-0.0889119      2.515516
0.356298828,-0.30800000000000005,0.0    0.004632
0.356298828,-0.15400000000000003,-0.2667358     0.004632
0.356298828,-0.15400000000000003,0.2667358      0.004632
0.356298828,0.15400000000000003,-0.2667358      0.004632
0.356298828,0.15400000000000003,0.2667358       0.004632
0.356298828,0.30800000000000005,0.0     0.004632
0.41291503900000004,-0.15400000000000003,0.0889119      -2.519484
0.41291503900000004,-0.0,-0.1778239     -2.519484
0.41291503900000004,0.15400000000000003,0.0889119       -2.519484
-0.29331054700000003,-0.0,-0.0  -3.142907
-0.4975097660000001,-0.30800000000000005,-0.1778239     -0.625931
-0.4975097660000001,0.0,0.3556477       -0.625931
-0.4975097660000001,0.30800000000000005,-0.1778239      -0.625931
-0.6609375000000001,-0.30800000000000005,0.0    1.892092
-0.6609375000000001,-0.15400000000000003,-0.2667358     1.892092
-0.6609375000000001,-0.15400000000000003,0.2667358      1.892092
-0.6609375000000001,0.15400000000000003,-0.2667358      1.892092
-0.6609375000000001,0.15400000000000003,0.2667358       1.892092
-0.6609375000000001,0.30800000000000005,0.0     1.892092
2.5171875000000004,-0.30800000000000005,0.1778239       2.515516
2.5171875000000004,-0.0,-0.3556477      2.515516
2.5171875000000004,0.30800000000000005,0.1778239        2.515516
0.363867188,-0.30800000000000005,-0.1778239     -2.519484
0.363867188,0.0,0.3556477       -2.519484
0.363867188,0.30800000000000005,-0.1778239      -2.519484
-0.32324218800000004,-0.30800000000000005,-0.0  -3.142907
-0.32324218800000004,-0.15400000000000003,-0.2667358    -3.142907
-0.32324218800000004,-0.15400000000000003,0.2667358     -3.142907
-0.32324218800000004,0.15400000000000003,-0.2667358     -3.142907
-0.32324218800000004,0.15400000000000003,0.2667358      -3.142907
-0.32324218800000004,0.30800000000000005,-0.0   -3.142907
-0.95234375,-0.30800000000000005,0.3556477      -0.625931
-0.95234375,0.30800000000000005,0.3556477       -0.625931
-0.95234375,-0.462,0.0889119    -0.625931
-0.95234375,0.462,0.0889119     -0.625931
-0.95234375,-0.15400000000000003,-0.44455970000000006   -0.625931
-0.95234375,0.15400000000000003,-0.44455970000000006    -0.625931
0.60078125,-0.15400000000000003,-0.0889119      4.409069
0.60078125,0.15400000000000003,-0.0889119       4.409069
0.60078125,0.0,0.1778239        4.409069
-17.525000000000002,-0.0,-0.0   -5.030367
-17.525000000000002,0.0,0.0     5.039632
1.351757812,-0.30800000000000005,-0.3556477     2.515516
1.351757812,0.30800000000000005,-0.3556477      2.515516
1.351757812,-0.462,-0.0889119   2.515516
1.351757812,0.462,-0.0889119    2.515516
1.351757812,-0.15400000000000003,0.44455970000000006    2.515516
1.351757812,0.15400000000000003,0.44455970000000006     2.515516
1.9039062500000001,-0.462,-0.2667358    0.004632
1.9039062500000001,-0.462,0.2667358     0.004632
1.9039062500000001,0.462,-0.2667358     0.004632
1.9039062500000001,0.462,0.2667358      0.004632
1.9039062500000001,-0.0,-0.5334716      0.004632
1.9039062500000001,0.0,0.5334716        0.004632
4.807812500000001,-0.30800000000000005,0.3556477        -2.519484
4.807812500000001,0.30800000000000005,0.3556477 -2.519484
4.807812500000001,-0.462,0.0889119      -2.519484
4.807812500000001,0.462,0.0889119       -2.519484
4.807812500000001,-0.15400000000000003,-0.44455970000000006     -2.519484
4.807812500000001,0.15400000000000003,-0.44455970000000006      -2.519484
-14.5875,-0.462,-0.2667358      1.892092
-14.5875,-0.462,0.2667358       1.892092
-14.5875,0.462,-0.2667358       1.892092
-14.5875,0.462,0.2667358        1.892092
-14.5875,-0.0,-0.5334716        1.892092
-14.5875,0.0,0.5334716  1.892092
-11.775,-0.30800000000000005,0.1778239  4.409069
-11.775,-0.0,-0.3556477 4.409069
-11.775,0.30800000000000005,0.1778239   4.409069
-8.9,-0.30800000000000005,-0.0  -5.030367
-8.9,-0.15400000000000003,-0.2667358    -5.030367
-8.9,-0.15400000000000003,0.2667358     -5.030367
-8.9,0.15400000000000003,-0.2667358     -5.030367
-8.9,-0.30800000000000005,0.0   5.039632
-8.9,0.30800000000000005,-0.0   -5.030367
-8.9,0.15400000000000003,0.2667358      -5.030367
-8.9,-0.15400000000000003,-0.2667358    5.039632
-8.9,-0.15400000000000003,0.2667358     5.039632
-8.9,0.15400000000000003,-0.2667358     5.039632
-8.9,0.30800000000000005,0.0    5.039632
-8.9,0.15400000000000003,0.2667358      5.039632
-4.6625000000000005,-0.15400000000000003,-0.0889119     -5.660931
-4.6625000000000005,0.0,0.1778239       -5.660931
-4.6625000000000005,0.15400000000000003,-0.0889119      -5.660931
0.08828125,-0.6159999,0.0       0.004632
0.08828125,-0.30800000000000005,-0.5334716      0.004632
0.08828125,-0.30800000000000005,0.5334716       0.004632
0.08828125,0.30800000000000005,-0.5334716       0.004632
0.08828125,0.6159999,0.0        0.004632
0.08828125,0.30800000000000005,0.5334716        0.004632
6.79375,-0.462,0.2667358        -3.142907
6.79375,-0.462,-0.2667358       -3.142907
6.79375,0.462,-0.2667358        -3.142907
6.79375,0.462,0.2667358 -3.142907
6.79375,-0.0,-0.5334716 -3.142907
6.79375,0.0,0.5334716   -3.142907
8.637500000000001,-0.6159999,-0.1778239 -0.625931
8.637500000000001,-0.462,-0.44455970000000006   -0.625931
8.637500000000001,-0.15400000000000003,0.6223835000000001       -0.625931
8.637500000000001,0.462,-0.44455970000000006    -0.625931
8.637500000000001,0.6159999,-0.1778239  -0.625931
8.637500000000001,0.15400000000000003,0.6223835000000001        -0.625931
0.11972656200000001,-0.6159999,0.0      1.892092
0.11972656200000001,-0.30800000000000005,-0.5334716     1.892092
0.11972656200000001,-0.30800000000000005,0.5334716      1.892092
0.11972656200000001,0.30800000000000005,-0.5334716      1.892092
0.11972656200000001,0.6159999,0.0       1.892092
0.11972656200000001,0.30800000000000005,0.5334716       1.892092
3.3843750000000004,-0.30800000000000005,-0.3556477      4.409069
3.3843750000000004,0.30800000000000005,-0.3556477       4.409069
3.3843750000000004,-0.462,-0.0889119    4.409069
3.3843750000000004,0.462,-0.0889119     4.409069
3.3843750000000004,-0.15400000000000003,0.44455970000000006     4.409069
3.3843750000000004,0.15400000000000003,0.44455970000000006      4.409069
16.240625,-0.30800000000000005,0.1778239        -5.660931
16.240625,-0.0,-0.3556477       -5.660931
16.240625,0.30800000000000005,0.1778239 -5.660931
0.034375,-0.6159999,0.1778239   2.515516
0.034375,-0.15400000000000003,-0.6223835000000001       2.515516
0.034375,-0.462,0.44455970000000006     2.515516
0.034375,0.15400000000000003,-0.6223835000000001        2.515516
0.034375,0.6159999,0.1778239    2.515516
0.034375,0.462,0.44455970000000006      2.515516
-9.418750000000001,-0.6159999,-0.1778239        -2.519484
-9.418750000000001,-0.462,-0.44455970000000006  -2.519484
-9.418750000000001,-0.15400000000000003,0.6223835000000001      -2.519484
-9.418750000000001,0.462,-0.44455970000000006   -2.519484
-9.418750000000001,0.15400000000000003,0.6223835000000001       -2.519484
-9.418750000000001,0.6159999,-0.1778239 -2.519484
-2.20703125,-0.6159999,-0.0     -3.142907
-2.20703125,-0.30800000000000005,-0.5334716     -3.142907
-2.20703125,-0.30800000000000005,0.5334716      -3.142907
-2.20703125,0.30800000000000005,-0.5334716      -3.142907
-2.20703125,0.30800000000000005,0.5334716       -3.142907
-2.20703125,0.6159999,-0.0      -3.142907
60.650000000000006,0.0,0.0      6.927092
32.325,-0.6159999,0.3556477     -0.625931
32.325,0.6159999,0.3556477      -0.625931
32.325,-0.0,-0.7112955000000001 -0.625931
-0.5421875,-0.462,0.2667358     -5.030367
-0.5421875,-0.462,-0.2667358    -5.030367
-0.5421875,-0.462,0.2667358     5.039632
-0.5421875,-0.462,-0.2667358    5.039632
-0.5421875,0.462,-0.2667358     -5.030367
-0.5421875,0.462,0.2667358      -5.030367
-0.5421875,0.462,-0.2667358     5.039632
-0.5421875,0.462,0.2667358      5.039632
-0.5421875,-0.0,-0.5334716      -5.030367
-0.5421875,0.0,0.5334716        -5.030367
-0.5421875,-0.0,-0.5334716      5.039632
-0.5421875,0.0,0.5334716        5.039632
9.18125,-0.30800000000000005,-0.3556477 -5.660931
9.18125,0.30800000000000005,-0.3556477  -5.660931
9.18125,-0.462,-0.0889119       -5.660931
9.18125,0.462,-0.0889119        -5.660931
9.18125,-0.15400000000000003,0.44455970000000006        -5.660931
9.18125,0.15400000000000003,0.44455970000000006 -5.660931
30.05,-0.6159999,-0.3556477     2.515516
30.05,0.6159999,-0.3556477      2.515516
30.05,0.0,0.7112955000000001    2.515516
-51.725,-0.6159999,0.3556477    -2.519484
-51.725,0.6159999,0.3556477     -2.519484
-51.725,-0.0,-0.7112955000000001        -2.519484
5.35625,-0.30800000000000005,0.0        6.927092
5.35625,-0.15400000000000003,-0.2667358 6.927092
5.35625,-0.15400000000000003,0.2667358  6.927092
5.35625,0.15400000000000003,-0.2667358  6.927092
5.35625,0.15400000000000003,0.2667358   6.927092
5.35625,0.30800000000000005,0.0 6.927092
-5.525,-0.15400000000000003,0.0889119   7.550516
-5.525,0.0,-0.1778239   7.550516
-5.525,0.15400000000000003,0.0889119    7.550516
1.553125,-0.15400000000000003,-0.0889119        -7.554483
1.553125,0.15400000000000003,-0.0889119 -7.554483
1.553125,-0.0,0.1778239 -7.554483
-12.4875,-0.7699999000000001,0.0889119  -0.625931
-12.4875,-0.462,0.6223835000000001      -0.625931
-12.4875,-0.30800000000000005,-0.7112955000000001       -0.625931
-12.4875,0.30800000000000005,-0.7112955000000001        -0.625931
-12.4875,0.7699999000000001,0.0889119   -0.625931
-12.4875,0.462,0.6223835000000001       -0.625931
-6.74375,-0.6159999,0.1778239   4.409069
-6.74375,-0.462,0.44455970000000006     4.409069
-6.74375,-0.15400000000000003,-0.6223835000000001       4.409069
-6.74375,0.15400000000000003,-0.6223835000000001        4.409069
-6.74375,0.462,0.44455970000000006      4.409069
-6.74375,0.6159999,0.1778239    4.409069
4.915625,-0.6159999,-0.0        -5.030367
4.915625,-0.30800000000000005,-0.5334716        -5.030367
4.915625,-0.30800000000000005,0.5334716 -5.030367
4.915625,-0.6159999,0.0 5.039632
4.915625,-0.30800000000000005,-0.5334716        5.039632
4.915625,0.30800000000000005,-0.5334716 -5.030367
4.915625,0.30800000000000005,0.5334716  -5.030367
4.915625,0.6159999,-0.0 -5.030367
4.915625,-0.30800000000000005,0.5334716 5.039632
4.915625,0.30800000000000005,-0.5334716 5.039632
4.915625,0.6159999,0.0  5.039632
4.915625,0.30800000000000005,0.5334716  5.039632
18.075,-0.7699999000000001,-0.0889119   2.515516
18.075,-0.462,-0.6223835000000001       2.515516
18.075,-0.30800000000000005,0.7112955000000001  2.515516
18.075,0.462,-0.6223835000000001        2.515516
18.075,0.7699999000000001,-0.0889119    2.515516
18.075,0.30800000000000005,0.7112955000000001   2.515516
-2.334375,-0.7699999000000001,-0.2667358        0.004632
-2.334375,-0.7699999000000001,0.2667358 0.004632
-2.334375,-0.6159999,-0.5334716 0.004632
-2.334375,-0.6159999,0.5334716  0.004632
-2.334375,-0.15400000000000003,-0.8002074000000001      0.004632
-2.334375,0.15400000000000003,-0.8002074000000001       0.004632
-2.334375,-0.15400000000000003,0.8002074000000001       0.004632
-2.334375,0.6159999,-0.5334716  0.004632
-2.334375,0.15400000000000003,0.8002074000000001        0.004632
-2.334375,0.7699999000000001,-0.2667358 0.004632
-2.334375,0.7699999000000001,0.2667358  0.004632
-2.334375,0.6159999,0.5334716   0.004632
-14.3125,-0.7699999000000001,0.0889119  -2.519484
-14.3125,-0.462,0.6223835000000001      -2.519484
-14.3125,-0.30800000000000005,-0.7112955000000001       -2.519484
-14.3125,0.30800000000000005,-0.7112955000000001        -2.519484
-14.3125,0.7699999000000001,0.0889119   -2.519484
-14.3125,0.462,0.6223835000000001       -2.519484
303.2,-0.0,-0.0 -8.177907
-11.600000000000001,-0.30800000000000005,-0.1778239     7.550516
-11.600000000000001,0.0,0.3556477       7.550516
-11.600000000000001,0.30800000000000005,-0.1778239      7.550516
-60.35,-0.30800000000000005,0.1778239   -7.554483
-60.35,-0.0,-0.3556477  -7.554483
-60.35,0.30800000000000005,0.1778239    -7.554483
4.890625,-0.7699999000000001,0.2667358  1.892092
4.890625,-0.7699999000000001,-0.2667358 1.892092
4.890625,-0.6159999,-0.5334716  1.892092
4.890625,-0.6159999,0.5334716   1.892092
4.890625,-0.15400000000000003,-0.8002074000000001       1.892092
4.890625,0.15400000000000003,-0.8002074000000001        1.892092
4.890625,-0.15400000000000003,0.8002074000000001        1.892092
4.890625,0.6159999,-0.5334716   1.892092
4.890625,0.15400000000000003,0.8002074000000001 1.892092
4.890625,0.7699999000000001,-0.2667358  1.892092
4.890625,0.7699999000000001,0.2667358   1.892092
4.890625,0.6159999,0.5334716    1.892092
-50.5,-0.6159999,-0.3556477     4.409069
-50.5,0.6159999,-0.3556477      4.409069
-50.5,0.0,0.7112955000000001    4.409069
2.58203125,-0.6159999,0.1778239 -5.660931
2.58203125,-0.15400000000000003,-0.6223835000000001     -5.660931
2.58203125,-0.462,0.44455970000000006   -5.660931
2.58203125,0.15400000000000003,-0.6223835000000001      -5.660931
2.58203125,0.462,0.44455970000000006    -5.660931
2.58203125,0.6159999,0.1778239  -5.660931
-5.8187500000000005,-0.6159999,-0.5334716       -3.142907
-5.8187500000000005,-0.7699999000000001,0.2667358       -3.142907
-5.8187500000000005,-0.7699999000000001,-0.2667358      -3.142907
-5.8187500000000005,-0.6159999,0.5334716        -3.142907
-5.8187500000000005,-0.15400000000000003,-0.8002074000000001    -3.142907
-5.8187500000000005,0.15400000000000003,-0.8002074000000001     -3.142907
-5.8187500000000005,-0.15400000000000003,0.8002074000000001     -3.142907
-5.8187500000000005,0.7699999000000001,-0.2667358       -3.142907
-5.8187500000000005,0.6159999,-0.5334716        -3.142907
-5.8187500000000005,0.15400000000000003,0.8002074000000001      -3.142907
-5.8187500000000005,0.7699999000000001,0.2667358        -3.142907
-5.8187500000000005,0.6159999,0.5334716 -3.142907
6.540625,-0.462,-0.2667358      6.927092
6.540625,-0.462,0.2667358       6.927092
6.540625,0.462,-0.2667358       6.927092
6.540625,0.462,0.2667358        6.927092
6.540625,-0.0,-0.5334716        6.927092
6.540625,0.0,0.5334716  6.927092
-8.325000000000001,-0.30800000000000005,-0.0    -8.177907
-8.325000000000001,-0.15400000000000003,0.2667358       -8.177907
-8.325000000000001,-0.15400000000000003,-0.2667358      -8.177907
-8.325000000000001,0.15400000000000003,-0.2667358       -8.177907
-8.325000000000001,0.30800000000000005,-0.0     -8.177907
-8.325000000000001,0.15400000000000003,0.2667358        -8.177907
-9.090625000000001,-0.30800000000000005,0.3556477       7.550516
-9.090625000000001,0.30800000000000005,0.3556477        7.550516
-9.090625000000001,-0.462,0.0889119     7.550516
-9.090625000000001,0.462,0.0889119      7.550516
-9.090625000000001,-0.15400000000000003,-0.44455970000000006    7.550516
-9.090625000000001,0.15400000000000003,-0.44455970000000006     7.550516
-4.5687500000000005,-0.30800000000000005,-0.3556477     -7.554483
-4.5687500000000005,0.30800000000000005,-0.3556477      -7.554483
-4.5687500000000005,-0.462,-0.0889119   -7.554483
-4.5687500000000005,0.462,-0.0889119    -7.554483
-4.5687500000000005,-0.15400000000000003,0.44455970000000006    -7.554483
-4.5687500000000005,0.15400000000000003,0.44455970000000006     -7.554483
-50.025000000000006,0.0,0.8891193       -0.625931
-50.025000000000006,-0.7699999000000001,-0.44455970000000006    -0.625931
-50.025000000000006,0.7699999000000001,-0.44455970000000006     -0.625931
-26.975,-0.7699999000000001,-0.0889119  4.409069
-26.975,-0.462,-0.6223835000000001      4.409069
-26.975,-0.30800000000000005,0.7112955000000001 4.409069
-26.975,0.462,-0.6223835000000001       4.409069
-26.975,0.7699999000000001,-0.0889119   4.409069
-26.975,0.30800000000000005,0.7112955000000001  4.409069
31.0375,-0.6159999,-0.3556477   -5.660931
31.0375,0.6159999,-0.3556477    -5.660931
31.0375,0.0,0.7112955000000001  -5.660931
58.7,-0.0,-0.8891193    2.515516
58.7,-0.7699999000000001,0.44455970000000006    2.515516
58.7,0.7699999000000001,0.44455970000000006     2.515516
-9.387500000000001,-0.9239999,-0.0      0.004632
-9.387500000000001,0.462,-0.8002074000000001    0.004632
-9.387500000000001,-0.462,0.8002074000000001    0.004632
-9.387500000000001,0.9239999,-0.0       0.004632
-9.387500000000001,-0.462,-0.8002074000000001   0.004632
-9.387500000000001,0.462,0.8002074000000001     0.004632
-38.575,0.0,0.8891193   -2.519484
-38.575,-0.7699999000000001,-0.44455970000000006        -2.519484
-38.575,0.7699999000000001,-0.44455970000000006 -2.519484
22.8,-0.6159999,0.0     6.927092
22.8,-0.30800000000000005,-0.5334716    6.927092
22.8,-0.30800000000000005,0.5334716     6.927092
22.8,0.30800000000000005,-0.5334716     6.927092
22.8,0.6159999,0.0      6.927092
22.8,0.30800000000000005,0.5334716      6.927092
21.1875,-0.9239999,-0.1778239   -0.625931
21.1875,-0.30800000000000005,0.8891193  -0.625931
21.1875,-0.6159999,-0.7112955000000001  -0.625931
21.1875,0.6159999,-0.7112955000000001   -0.625931
21.1875,0.30800000000000005,0.8891193   -0.625931
21.1875,0.9239999,-0.1778239    -0.625931
11.193750000000001,-0.9239999,0.0       1.892092
11.193750000000001,-0.462,-0.8002074000000001   1.892092
11.193750000000001,-0.462,0.8002074000000001    1.892092
11.193750000000001,0.462,-0.8002074000000001    1.892092
11.193750000000001,0.9239999,0.0        1.892092
11.193750000000001,0.462,0.8002074000000001     1.892092
-0.43203125000000003,-0.7699999000000001,0.2667358      -5.030367
-0.43203125000000003,-0.7699999000000001,-0.2667358     -5.030367
-0.43203125000000003,-0.6159999,-0.5334716      -5.030367
-0.43203125000000003,-0.6159999,0.5334716       -5.030367
-0.43203125000000003,-0.7699999000000001,0.2667358      5.039632
-0.43203125000000003,0.15400000000000003,-0.8002074000000001    -5.030367
-0.43203125000000003,-0.15400000000000003,-0.8002074000000001   -5.030367
-0.43203125000000003,-0.7699999000000001,-0.2667358     5.039632
-0.43203125000000003,-0.6159999,-0.5334716      5.039632
-0.43203125000000003,-0.15400000000000003,0.8002074000000001    -5.030367
-0.43203125000000003,0.15400000000000003,-0.8002074000000001    5.039632
-0.43203125000000003,-0.6159999,0.5334716       5.039632
-0.43203125000000003,-0.15400000000000003,-0.8002074000000001   5.039632
-0.43203125000000003,0.6159999,-0.5334716       -5.030367
-0.43203125000000003,0.15400000000000003,0.8002074000000001     -5.030367
-0.43203125000000003,0.7699999000000001,-0.2667358      -5.030367
-0.43203125000000003,0.7699999000000001,0.2667358       -5.030367
-0.43203125000000003,0.6159999,0.5334716        -5.030367
-0.43203125000000003,-0.15400000000000003,0.8002074000000001    5.039632
-0.43203125000000003,0.6159999,-0.5334716       5.039632
-0.43203125000000003,0.7699999000000001,-0.2667358      5.039632
-0.43203125000000003,0.15400000000000003,0.8002074000000001     5.039632
-0.43203125000000003,0.7699999000000001,0.2667358       5.039632
-0.43203125000000003,0.6159999,0.5334716        5.039632
-0.06875,-0.7699999000000001,-0.0889119 -5.660931
-0.06875,-0.462,-0.6223835000000001     -5.660931
-0.06875,-0.30800000000000005,0.7112955000000001        -5.660931
-0.06875,0.462,-0.6223835000000001      -5.660931
-0.06875,0.30800000000000005,0.7112955000000001 -5.660931
-0.06875,0.7699999000000001,-0.0889119  -5.660931
11.600000000000001,-0.15400000000000003,0.0889119       9.444068
11.600000000000001,0.0,-0.1778239       9.444068
11.600000000000001,0.15400000000000003,0.0889119        9.444068
5.1312500000000005,-0.9239999,0.1778239 2.515516
5.1312500000000005,-0.30800000000000005,-0.8891193      2.515516
5.1312500000000005,0.30800000000000005,-0.8891193       2.515516
5.1312500000000005,-0.6159999,0.7112955000000001        2.515516
5.1312500000000005,0.9239999,0.1778239  2.515516
5.1312500000000005,0.6159999,0.7112955000000001 2.515516
15.6875,-0.9239999,-0.1778239   -2.519484
15.6875,-0.30800000000000005,0.8891193  -2.519484
15.6875,-0.6159999,-0.7112955000000001  -2.519484
15.6875,0.6159999,-0.7112955000000001   -2.519484
15.6875,0.9239999,-0.1778239    -2.519484
15.6875,0.30800000000000005,0.8891193   -2.519484
21.962500000000002,-0.9239999,-0.0      -3.142907
21.962500000000002,-0.462,-0.8002074000000001   -3.142907
21.962500000000002,-0.462,0.8002074000000001    -3.142907
21.962500000000002,0.462,-0.8002074000000001    -3.142907
21.962500000000002,0.9239999,-0.0       -3.142907
21.962500000000002,0.462,0.8002074000000001     -3.142907
0.864550781,-0.462,-0.2667358   -8.177907
0.864550781,-0.462,0.2667358    -8.177907
0.864550781,0.462,0.2667358     -8.177907
0.864550781,0.462,-0.2667358    -8.177907
0.864550781,-0.0,-0.5334716     -8.177907
0.864550781,0.0,0.5334716       -8.177907
25.1875,-0.462,-0.44455970000000006     7.550516
25.1875,-0.6159999,-0.1778239   7.550516
25.1875,-0.15400000000000003,0.6223835000000001 7.550516
25.1875,0.462,-0.44455970000000006      7.550516
25.1875,0.15400000000000003,0.6223835000000001  7.550516
25.1875,0.6159999,-0.1778239    7.550516
-34.800000000000004,-0.462,0.44455970000000006  -7.554483
-34.800000000000004,-0.6159999,0.1778239        -7.554483
-34.800000000000004,-0.15400000000000003,-0.6223835000000001    -7.554483
-34.800000000000004,0.15400000000000003,-0.6223835000000001     -7.554483
-34.800000000000004,0.6159999,0.1778239 -7.554483
-34.800000000000004,0.462,0.44455970000000006   -7.554483
7.1265625,-0.7699999000000001,0.6223835000000001        -0.625931
7.1265625,-0.9239999,0.3556477  -0.625931
7.1265625,-0.15400000000000003,-0.9780313       -0.625931
7.1265625,0.15400000000000003,-0.9780313        -0.625931
7.1265625,0.9239999,0.3556477   -0.625931
7.1265625,0.7699999000000001,0.6223835000000001 -0.625931
-48.375,-0.0,-0.8891193 4.409069
-48.375,-0.7699999000000001,0.44455970000000006 4.409069
-48.375,0.7699999000000001,0.44455970000000006  4.409069

End of input

&SCF
Occupied
9
Iterations
   50  100
End of Input

&RASSCF
LumOrb
Symmetry
1
Spin
2
Nactel
1 0 0
CIRoot
9 9 1
inactive
9
ras2
9
End of Input

>>> COPY chromium_so_cf.JobIph $SLURM_SUBMIT_DIR/chromium_so_cf.doublet.JobIph

>>> COPY $SLURM_SUBMIT_DIR/chromium_so_cf.doublet.JobIph ./JOB002

&RASSI
NROFJobIph
1 All
SpinOrbit
End of Input

EOF

-- ----------------------------------

--- Start Module: seward at Tue Mar 25 14:15:37 2025 ---

()()()()()()()()()()()()()()()()()()()()()()()()()()()()()()()()()()()()()()()()()()()()()()()()()()

                                              &SEWARD

                                   only a single process is used
                       available to each process: 4.1 GB of memory, 1 thread?
                                            pid: 1836553
()()()()()()()()()()()()()()()()()()()()()()()()()()()()()()()()()()()()()()()()()()()()()()()()()()

 The speed of LIGHT in this CALCULATION =   137.03599917700001     
               SEWARD will generate:
                  Multipole Moment integrals up to order  2
                  Kinetic Energy integrals
                  Nuclear Attraction integrals (point charge)
                  One-Electron Hamiltonian integrals
                  Velocity integrals
                  Relativistic Douglas-Kroll-Hess integrals:
                    - Parametrization         : EXP
                    - DKH order of Hamiltonian: 2
                    - DKH order of Properties : 0
                         - multipole moment operators
                         - electric potential operators
                         - contact operators
                  External field from   414 point(s) added to the one-electron Hamiltonian
                  Orbital angular momentum around (-0.0000 -0.0000  0.0088 )
                  Velocity quadrupole around (-0.0000 -0.0000  0.0088 )
                  Atomic mean-field integrals
                  Two-Electron Repulsion integrals

                   Integrals are discarded if absolute value <: 0.10E-13
                   Integral cutoff threshold is set to       <: 0.10E-15

++    Symmetry information:
      ---------------------

                    Character Table for C1 

                             E  
                    a        1  x, y, xy, Rz, z, xz, Ry, yz, Rx, I
--


++    Basis set information:
      ----------------------


      Basis set label: CR.ANO-RCC.ROOS.21S15P10D6F4G2H.10S10P8D6F4G2H......

      Electronic valence basis set:
      ------------------
      Associated Effective Charge  24.000000 au
      Associated Actual Charge     24.000000 au
      Nuclear Model: Point charge

      Shell  nPrim  nBasis  Cartesian Spherical Contaminant
         s      21      10        X                  
         p      15      10        X                  
         d      10       8                 X         
         f       6       6                 X         
         g       4       4                 X         
         h       2       2                 X         
--


++    Molecular structure info:
      -------------------------

                    ************************************************ 
                    **** Cartesian Coordinates / Bohr, Angstrom **** 
                    ************************************************ 

     Center  Label                x              y              z                     x              y              z
        1      CR              -0.000000      -0.000000       0.008754             -0.000000      -0.000000       0.004632
--


++    Operator info:
      --------------


  Net charge from external field:   -39.268449999999902     
--


            Nuclear Potential Energy              0.00000000 au

                    Nuclear-External Field Potential Energy   -2195.65222663 au
                    External Field Potential Energy           16056.36901386 au 


            Total Nuclear Potential Energy          -2195.65222663 au


      Basis set specifications :
      Symmetry species         a  
      Basis functions          180

 Sorry, Molden does not know how to handle
 functions with angular momentum larger than g
Note: The following floating-point exceptions are signalling: IEEE_UNDERFLOW_FLAG IEEE_DENORMAL
--- Stop Module: seward at Tue Mar 25 14:15:46 2025 /rc=_RC_ALL_IS_WELL_ ---
*** files: chromium_so_cf.GssOrb xmldump
    saved to directory /home4/s4752295/Internship/Initial_simulations/Point_charge_model/1_electron/Madelung_charges_9_active_space/Cr
--- Module seward spent 9 seconds ---

*** symbolic link created: INPORB -> chromium_so_cf.GssOrb
--- Start Module: scf at Tue Mar 25 14:15:46 2025 ---

()()()()()()()()()()()()()()()()()()()()()()()()()()()()()()()()()()()()()()()()()()()()()()()()()()

                                                &SCF

                                   only a single process is used
                       available to each process: 4.1 GB of memory, 1 thread?
                                            pid: 1836559
()()()()()()()()()()()()()()()()()()()()()()()()()()()()()()()()()()()()()()()()()()()()()()()()()()

++    Input section:
      --------------

      Header of the integral files:
      
       Integrals generated by seward 4.2.0  , Tue Mar 25 14:15:37 2025


      Cartesian coordinates in Angstrom:
      -----------------------------------------------------
      No.  Label        X            Y            Z        
      -----------------------------------------------------
       1   CR        -0.00000000  -0.00000000   0.00463220
      -----------------------------------------------------
      Nuclear repulsion energy =-2195.65222663
--

++    Orbital specifications:
      -----------------------

      Symmetry species               1
                                     a
      Frozen orbitals                0
      Occupied orbitals              9
      Secondary orbitals           171
      Deleted orbitals               0
      Total number of orbitals     180
      Number of basis functions    180
--

      Molecular charge                           6.000

++    Optimization specifications:
      ----------------------------

      SCF Algorithm: Conventional
      Minimized density differences are used
      Number of density matrices in core                5
      Maximum number of NDDO SCF iterations            50
      Maximum number of HF SCF iterations             100
      Threshold for SCF energy change            0.10E-08
      Threshold for density matrix               0.10E-03
      Threshold for Fock matrix                  0.15E-03
      Threshold for linear dependence            0.10E-08
      Threshold at which DIIS is turned on       0.15E+00
      Threshold at which QNR/C2DIIS is turned on 0.75E-01
      Threshold for Norm(delta) (QNR/C2DIIS)     0.20E-04
      DIIS extrapolation of the SCF procedure
      All orbitals punched on: SCFORB
--

      Detected guessorb starting orbitals                                             


++ Convergence information
                                   SCF        iterations: Energy and convergence statistics

Iter     Tot. SCF        One-elec.       Two-elec.     Energy      Max Dij or  Max Fij      DNorm      TNorm      AccCon     Time
         Energy          Energy          Energy        Change      Delta Norm                                                in Sec.

 The total and one-electron energies are shifted by a value of      1000. a.u.

   1  -728.411165085  1161.864398462   305.376663078   0.00E+00    0.13E-01*   0.78E+01*    0.60E+01   0.25E+03   None         1.
   2 -1605.615112650   552.081765339    37.955348636  -0.88E+03*   0.95E-01*   0.13E+01*    0.79E+01   0.71E+02   EDIIS        1.
   3 -1605.766917307   551.368776663    38.516532655  -0.15E+00*   0.37E-02*   0.25E-01*    0.36E+00   0.71E+02   EDIIS        1.
   4 -1605.767038118   551.382785519    38.502402989  -0.12E-03*   0.13E-03*   0.44E-03*    0.56E-02   0.71E+02   EDIIS        1.
   5 -1605.767038248   551.382216095    38.502972283  -0.13E-06*   0.19E-04    0.85E-05     0.57E-04   0.71E+02   c2DIIS       1.
   6 -1605.767038248   551.382233902    38.502954475  -0.20E-09    0.97E-05    0.12E-05     0.52E-04   0.71E+02   QNRc2DIIS    1.

       Convergence after  6 Macro Iterations
--

 *****************************************************************************************************************************
 *                                                                                                                           *
 *                                             SCF/KS-DFT Program, Final results                                             *
 *                                                                                                                           *
 *                                                                                                                           *
 *                                                                                                                           *
 *                                                       Final Results                                                       *
 *                                                                                                                           *
 *****************************************************************************************************************************

::    Total SCF energy                              -2605.7670382480
      One-electron energy                            -448.6177660980
      Two-electron energy                              38.5029544752
      Nuclear repulsion energy                      -2195.6522266252
      Kinetic energy (interpolated)                   599.0880972399
      Virial theorem                                    4.3495556835
      Total spin, S(S+1)                                0.0000000000
      Total spin, S                                     0.0000000000
      Max non-diagonal density matrix element           0.0000194081
      Max non-diagonal Fock matrix element              0.0000000000


      All orbitals with orbital energies smaller than  E(LUMO)+0.5 are printed

++    Molecular orbitals:
      -------------------

      Title: SCF orbitals

      Molecular orbitals for symmetry species 1: a  

          Orbital            1         2         3         4         5         6         7         8         9        10    
          Energy         -181.1882  -16.3976   -3.3249    0.3163    0.3163    1.6290    3.5490    3.5490    5.7452    5.8652
          Occ. No.          2.0000    2.0000    2.0000    2.0000    2.0000    2.0000    2.0000    2.0000    2.0000    0.0000

        1 CR     1s         0.9998   -0.0000   -0.0000    0.0000    0.0000    0.0000   -0.0000   -0.0000    0.0000   -0.0000
        2 CR     2s        -0.0078    0.0001    0.0005   -0.0000    0.0000   -0.0010   -0.0000   -0.0000   -0.0000    0.0000
        3 CR     3s         0.0021    0.0013   -0.0014   -0.0000    0.0000    0.0013   -0.0000   -0.0000    0.0000   -0.0000
        4 CR     4s        -0.0004    0.1979   -0.0504   -0.0000    0.0006    0.0852   -0.0005   -0.0000    0.0000   -0.0000
        5 CR     5s         0.0015    0.1839    0.0944   -0.0000    0.0006    0.0695   -0.0001   -0.0000    0.0000   -0.0000
        6 CR     6s        -0.0016    0.1393    0.2212   -0.0000    0.0007    0.1005    0.0002    0.0000    0.0000   -0.0000
        7 CR     7s         0.0017   -0.0490    0.2226   -0.0000    0.0006    0.3247    0.0003    0.0000    0.0000   -0.0000
        8 CR     8s        -0.0017   -0.1128    0.1067   -0.0000    0.0006    0.4600   -0.0001    0.0000    0.0000   -0.0000
        9 CR     9s         0.0024   -0.0355   -0.0115   -0.0000    0.0002    0.1417   -0.0001    0.0000    0.0000   -0.0000
       10 CR    10s        -0.0026   -0.0049   -0.0067    0.0000    0.0000    0.0219   -0.0000   -0.0000    0.0000   -0.0000
       11 CR     2px        0.0135    0.0003   -0.0000   -0.0000    0.0000   -0.0004   -0.0000   -0.0000   -0.0000    0.0000
       12 CR     3px       -0.0037    0.0033   -0.0065   -0.0000    0.0000    0.0065   -0.0000   -0.0000   -0.0000    0.0000
       13 CR     4px        0.0014    0.2950   -0.1055   -0.0000    0.0009    0.1411   -0.0008   -0.0000    0.0000   -0.0000
       14 CR     5px       -0.0038    0.2453    0.0178   -0.0000    0.0008    0.0940   -0.0005   -0.0000    0.0000   -0.0000
       15 CR     6px        0.0024    0.2326    0.4123   -0.0000    0.0014    0.1884   -0.0000    0.0000   -0.0000    0.0000
       16 CR     7px       -0.0042   -0.1027    0.3388   -0.0000    0.0006    0.2323    0.0001    0.0000   -0.0000    0.0000
       17 CR     8px        0.0041   -0.2094    0.1378   -0.0000    0.0006    0.4039   -0.0005   -0.0000   -0.0000    0.0000
       18 CR     9px       -0.0045   -0.1105   -0.0937   -0.0000    0.0005    0.3565   -0.0008   -0.0000    0.0000   -0.0000
       19 CR    10px        0.0046   -0.0222   -0.1027   -0.0000    0.0003    0.1758   -0.0005   -0.0000   -0.0000    0.0000
       20 CR    11px       -0.0052   -0.0002   -0.0256   -0.0000    0.0001    0.0339   -0.0001   -0.0000   -0.0000    0.0000
       21 CR     2py       -0.0000    0.0000   -0.0000    0.0002    0.0000    0.0000    0.0000   -0.0002    0.0000    0.0000
       22 CR     3py        0.0000    0.0000   -0.0000    0.0012    0.0000    0.0000    0.0000   -0.0018   -0.0000   -0.0000
       23 CR     4py       -0.0000   -0.0000    0.0000    0.1860    0.0003   -0.0000    0.0001   -0.0605    0.0001    0.0006
       24 CR     5py        0.0000   -0.0000   -0.0000    0.1830    0.0003   -0.0000   -0.0000    0.0212    0.0001    0.0005
       25 CR     6py       -0.0000   -0.0000   -0.0000    0.3077    0.0005   -0.0000   -0.0004    0.4108    0.0002    0.0007
       26 CR     7py        0.0000    0.0000   -0.0000    0.0662    0.0001   -0.0000   -0.0004    0.4590   -0.0000   -0.0000
       27 CR     8py       -0.0000    0.0000   -0.0000   -0.0491   -0.0001   -0.0000   -0.0004    0.4466   -0.0001   -0.0002
       28 CR     9py        0.0000    0.0000    0.0000   -0.0640   -0.0001   -0.0000   -0.0002    0.2109   -0.0000   -0.0001
       29 CR    10py       -0.0000    0.0000    0.0000   -0.0287   -0.0000   -0.0000   -0.0001    0.0542   -0.0000   -0.0000
       30 CR    11py        0.0000    0.0000    0.0000   -0.0048   -0.0000   -0.0000   -0.0000    0.0057    0.0000    0.0000
       31 CR     2pz        0.0001    0.0000   -0.0000   -0.0000    0.0002    0.0000   -0.0002   -0.0000   -0.0000    0.0000
       32 CR     3pz       -0.0000    0.0000   -0.0000   -0.0000    0.0012    0.0000   -0.0018   -0.0000    0.0000   -0.0000
       33 CR     4pz        0.0000   -0.0004    0.0000   -0.0003    0.1860   -0.0006   -0.0605   -0.0001    0.0007   -0.0002
       34 CR     5pz       -0.0000   -0.0003   -0.0001   -0.0003    0.1830   -0.0005    0.0212    0.0000    0.0006   -0.0001
       35 CR     6pz        0.0000   -0.0003   -0.0006   -0.0005    0.3077   -0.0003    0.4108    0.0004    0.0007   -0.0002
       36 CR     7pz       -0.0000    0.0001   -0.0005   -0.0001    0.0662    0.0005    0.4590    0.0004   -0.0001    0.0000
       37 CR     8pz        0.0000    0.0003   -0.0002    0.0001   -0.0491    0.0006    0.4466    0.0004   -0.0004    0.0001
       38 CR     9pz       -0.0000    0.0002    0.0002    0.0001   -0.0640    0.0001    0.2109    0.0002   -0.0002    0.0001
       39 CR    10pz        0.0000    0.0000    0.0003    0.0000   -0.0287   -0.0002    0.0542    0.0001   -0.0000    0.0000
       40 CR    11pz       -0.0000   -0.0000    0.0001    0.0000   -0.0048   -0.0001    0.0057    0.0000   -0.0000    0.0000
       41 CR     3d2-      -0.0000   -0.0000    0.0000    0.0546    0.0001   -0.0000    0.0000   -0.0483    0.0000    0.0002
       42 CR     4d2-      -0.0000   -0.0000    0.0000    0.1927    0.0003   -0.0000    0.0001   -0.1287    0.0001    0.0004
       43 CR     5d2-      -0.0000   -0.0000   -0.0000    0.3758    0.0006    0.0000    0.0001   -0.1359    0.0001    0.0006
       44 CR     6d2-      -0.0000   -0.0000   -0.0000    0.3681    0.0006    0.0000   -0.0000    0.0003    0.0000    0.0001
       45 CR     7d2-      -0.0000   -0.0000   -0.0000    0.4024    0.0007   -0.0000   -0.0002    0.1964   -0.0001   -0.0003
       46 CR     8d2-      -0.0000    0.0000   -0.0000    0.1241    0.0002   -0.0000   -0.0003    0.3440   -0.0002   -0.0007
       47 CR     9d2-       0.0000    0.0000   -0.0000   -0.0438   -0.0001   -0.0000   -0.0003    0.2594   -0.0002   -0.0007
       48 CR    10d2-       0.0000    0.0000   -0.0000   -0.0259   -0.0000   -0.0000   -0.0001    0.0782   -0.0001   -0.0003
       49 CR     3d1-      -0.0000   -0.0000    0.0000   -0.0001   -0.0000   -0.0000   -0.0000    0.0001    0.0073    0.0309
       50 CR     4d1-       0.0000    0.0000   -0.0000   -0.0003   -0.0000   -0.0000   -0.0000    0.0007    0.0305    0.1297
       51 CR     5d1-      -0.0000    0.0000   -0.0000   -0.0003    0.0000   -0.0000   -0.0000    0.0006    0.0734    0.3129
       52 CR     6d1-       0.0000   -0.0000    0.0000   -0.0002    0.0000   -0.0000   -0.0000    0.0004    0.0893    0.3815
       53 CR     7d1-       0.0000    0.0000   -0.0000   -0.0001    0.0000   -0.0000   -0.0000    0.0000    0.1254    0.5364
       54 CR     8d1-       0.0000    0.0000   -0.0000    0.0000    0.0000   -0.0000   -0.0000   -0.0003    0.0813    0.3488
       55 CR     9d1-       0.0000   -0.0000    0.0000    0.0001   -0.0000   -0.0000   -0.0000    0.0001    0.0303    0.1310
       56 CR    10d1-       0.0000   -0.0000    0.0000    0.0000   -0.0000   -0.0000   -0.0000    0.0001    0.0065    0.0282
       57 CR     3d0        0.0000   -0.0344    0.0289    0.0000   -0.0001   -0.0260    0.0001    0.0000    0.0269   -0.0063
       58 CR     4d0       -0.0000   -0.1088    0.0628    0.0000   -0.0003   -0.0602   -0.0002   -0.0000    0.1128   -0.0263
       59 CR     5d0        0.0000   -0.1811    0.0218    0.0000   -0.0006   -0.0381    0.0002   -0.0000    0.2714   -0.0634
       60 CR     6d0       -0.0001   -0.1419   -0.0730    0.0000   -0.0007    0.0238    0.0002   -0.0000    0.3304   -0.0773
       61 CR     7d0        0.0001   -0.1043   -0.1935    0.0000   -0.0008    0.0823    0.0005   -0.0000    0.4637   -0.1088
       62 CR     8d0       -0.0001    0.0414   -0.1929    0.0000   -0.0003    0.0665    0.0006   -0.0000    0.3005   -0.0707
       63 CR     9d0        0.0001    0.0865   -0.0860   -0.0000   -0.0000   -0.0009    0.0001   -0.0000    0.1121   -0.0266
       64 CR    10d0       -0.0002    0.0322   -0.0170   -0.0000    0.0000   -0.0096   -0.0000   -0.0000    0.0240   -0.0057
       65 CR     3d1+      -0.0000   -0.0002    0.0001   -0.0001    0.0546   -0.0002   -0.0483   -0.0000    0.0001   -0.0000
       66 CR     4d1+       0.0000   -0.0005    0.0001   -0.0003    0.1928   -0.0007   -0.1287   -0.0001    0.0005   -0.0001
       67 CR     5d1+      -0.0000   -0.0009   -0.0001   -0.0006    0.3758   -0.0011   -0.1359   -0.0001    0.0006   -0.0001
       68 CR     6d1+       0.0000   -0.0007   -0.0004   -0.0006    0.3681   -0.0007    0.0003    0.0000    0.0003   -0.0001
       69 CR     7d1+      -0.0000   -0.0005   -0.0009   -0.0007    0.4024   -0.0004    0.1964    0.0002   -0.0001    0.0000
       70 CR     8d1+       0.0000    0.0002   -0.0008   -0.0002    0.1241    0.0005    0.3440    0.0003   -0.0007    0.0002
       71 CR     9d1+      -0.0000    0.0004   -0.0004    0.0001   -0.0438    0.0006    0.2594    0.0003   -0.0006    0.0001
       72 CR    10d1+       0.0000    0.0002   -0.0001    0.0000   -0.0259    0.0002    0.0782    0.0001   -0.0001    0.0000
       73 CR     3d2+      -0.0001    0.0595   -0.0500   -0.0000    0.0002    0.0451   -0.0003   -0.0000    0.0155   -0.0036
       74 CR     4d2+       0.0001    0.1884   -0.1088   -0.0000    0.0006    0.1043   -0.0009   -0.0000    0.0651   -0.0152
       75 CR     5d2+      -0.0001    0.3137   -0.0378   -0.0000    0.0009    0.0660   -0.0007   -0.0000    0.1567   -0.0366
       76 CR     6d2+       0.0002    0.2458    0.1264   -0.0000    0.0006   -0.0412   -0.0000   -0.0000    0.1907   -0.0447
       77 CR     7d2+      -0.0002    0.1806    0.3351   -0.0000    0.0004   -0.1426    0.0007    0.0000    0.2677   -0.0628
       78 CR     8d2+       0.0002   -0.0717    0.3342    0.0000   -0.0000   -0.1151    0.0009    0.0000    0.1735   -0.0408
       79 CR     9d2+      -0.0002   -0.1498    0.1490   -0.0000   -0.0001    0.0015    0.0000   -0.0000    0.0647   -0.0153
       80 CR    10d2+       0.0003   -0.0558    0.0294   -0.0000   -0.0000    0.0167   -0.0001   -0.0000    0.0139   -0.0033
       81 CR     4f3-       0.0000   -0.0000    0.0000    0.0314    0.0001    0.0000    0.0000   -0.0338    0.0000    0.0001
       82 CR     5f3-      -0.0000   -0.0000   -0.0000    0.1341    0.0002    0.0000    0.0001   -0.1204    0.0001    0.0003
       83 CR     6f3-       0.0000   -0.0000   -0.0000    0.2544    0.0005    0.0000    0.0002   -0.1869    0.0001    0.0003
       84 CR     7f3-       0.0000   -0.0000   -0.0000    0.3140    0.0006    0.0000    0.0002   -0.1660    0.0000    0.0001
       85 CR     8f3-       0.0000   -0.0000   -0.0000    0.2530    0.0005   -0.0000    0.0001   -0.0453   -0.0001   -0.0003
       86 CR     9f3-      -0.0000   -0.0000   -0.0000    0.2325    0.0004   -0.0000    0.0000    0.0232   -0.0001   -0.0005
       87 CR     4f2-      -0.0000   -0.0000   -0.0000   -0.0001   -0.0000    0.0000   -0.0000    0.0003    0.0043    0.0181
       88 CR     5f2-       0.0000    0.0000   -0.0000   -0.0004   -0.0000    0.0000   -0.0000    0.0011    0.0210    0.0890
       89 CR     6f2-      -0.0000   -0.0000   -0.0000   -0.0005   -0.0000   -0.0000   -0.0000    0.0012    0.0444    0.1887
       90 CR     7f2-       0.0000    0.0000   -0.0000   -0.0005   -0.0000    0.0000   -0.0000    0.0008    0.0627    0.2665
       91 CR     8f2-       0.0000   -0.0000   -0.0000   -0.0000    0.0000   -0.0000   -0.0000   -0.0003    0.0615    0.2617
       92 CR     9f2-       0.0000    0.0000   -0.0000    0.0001    0.0000   -0.0000   -0.0000   -0.0006    0.0645    0.2745
       93 CR     4f1-      -0.0000    0.0000   -0.0000   -0.0081   -0.0000   -0.0000    0.0000    0.0087   -0.0000   -0.0000
       94 CR     5f1-       0.0000    0.0000   -0.0000   -0.0347   -0.0000   -0.0000    0.0000    0.0310    0.0000    0.0000
       95 CR     6f1-       0.0000    0.0000   -0.0000   -0.0659   -0.0000   -0.0000    0.0000    0.0481    0.0000    0.0001
       96 CR     7f1-       0.0000    0.0000   -0.0000   -0.0814    0.0000   -0.0000    0.0001    0.0426    0.0001    0.0003
       97 CR     8f1-      -0.0000   -0.0000   -0.0000   -0.0657    0.0000   -0.0000    0.0001    0.0115    0.0001    0.0004
       98 CR     9f1-      -0.0000   -0.0000   -0.0000   -0.0604    0.0001   -0.0000    0.0001   -0.0062    0.0001    0.0005
       99 CR     4f0       -0.0000    0.0001   -0.0001    0.0000   -0.0198    0.0002    0.0214    0.0000   -0.0000    0.0000
      100 CR     5f0        0.0000    0.0002   -0.0003    0.0002   -0.0847    0.0007    0.0762    0.0001   -0.0001    0.0000
      101 CR     6f0       -0.0000    0.0008   -0.0004    0.0004   -0.1608    0.0010    0.1183    0.0002   -0.0000    0.0000
      102 CR     7f0        0.0000    0.0004    0.0001    0.0005   -0.1984    0.0005    0.1051    0.0002    0.0002   -0.0000
      103 CR     8f0       -0.0000    0.0005    0.0003    0.0004   -0.1598    0.0001    0.0288    0.0001    0.0004   -0.0001
      104 CR     9f0        0.0000    0.0003    0.0007    0.0004   -0.1468   -0.0003   -0.0145    0.0001    0.0005   -0.0001
      105 CR     4f1+      -0.0000   -0.0241    0.0278    0.0000   -0.0000   -0.0268   -0.0002   -0.0000    0.0144   -0.0033
      106 CR     5f1+       0.0000   -0.0954    0.0814    0.0000   -0.0001   -0.0776   -0.0005   -0.0000    0.0709   -0.0165
      107 CR     6f1+      -0.0000   -0.1684    0.0920    0.0000   -0.0004   -0.0854   -0.0005   -0.0000    0.1501   -0.0349
      108 CR     7f1+       0.0000   -0.1873    0.0276    0.0000   -0.0004   -0.0264   -0.0003   -0.0000    0.2117   -0.0493
      109 CR     8f1+      -0.0000   -0.1204   -0.0837    0.0000   -0.0005    0.0643    0.0004   -0.0000    0.2077   -0.0484
      110 CR     9f1+       0.0000   -0.0872   -0.1547    0.0000   -0.0005    0.1193    0.0007    0.0000    0.2176   -0.0508
      111 CR     4f2+      -0.0000   -0.0001   -0.0000   -0.0000    0.0256   -0.0000   -0.0276   -0.0000    0.0001   -0.0000
      112 CR     5f2+       0.0000   -0.0005   -0.0000   -0.0002    0.1096   -0.0002   -0.0983   -0.0001    0.0002   -0.0001
      113 CR     6f2+      -0.0000   -0.0006   -0.0001   -0.0003    0.2079   -0.0004   -0.1525   -0.0001    0.0004   -0.0001
      114 CR     7f2+       0.0000   -0.0009    0.0000   -0.0003    0.2567   -0.0008   -0.1353   -0.0001    0.0003   -0.0001
      115 CR     8f2+      -0.0000   -0.0004   -0.0004   -0.0003    0.2068   -0.0003   -0.0368    0.0000    0.0000   -0.0000
      116 CR     9f2+       0.0000   -0.0004   -0.0006   -0.0002    0.1901   -0.0001    0.0192    0.0001   -0.0001    0.0000
      117 CR     4f3+       0.0000    0.0312   -0.0359   -0.0000    0.0001    0.0346   -0.0003   -0.0000    0.0112   -0.0026
      118 CR     5f3+      -0.0000    0.1231   -0.1051   -0.0000    0.0004    0.1002   -0.0010   -0.0000    0.0549   -0.0128
      119 CR     6f3+       0.0000    0.2174   -0.1188   -0.0000    0.0005    0.1102   -0.0011   -0.0000    0.1163   -0.0271
      120 CR     7f3+      -0.0000    0.2418   -0.0356   -0.0000    0.0004    0.0341   -0.0005   -0.0000    0.1640   -0.0382
      121 CR     8f3+       0.0000    0.1555    0.1080    0.0000   -0.0002   -0.0830    0.0007    0.0000    0.1608   -0.0375
      122 CR     9f3+      -0.0000    0.1125    0.1998    0.0000   -0.0004   -0.1540    0.0011    0.0000    0.1686   -0.0394
      123 CR     5g4-      -0.0000   -0.0000    0.0000    0.0052    0.0000    0.0000    0.0000   -0.0078    0.0000    0.0000
      124 CR     6g4-       0.0000   -0.0000   -0.0000    0.0238    0.0000    0.0000    0.0000   -0.0364    0.0000    0.0001
      125 CR     7g4-      -0.0000   -0.0000   -0.0000    0.0482    0.0001    0.0000    0.0001   -0.0698    0.0000    0.0002
      126 CR     8g4-      -0.0000   -0.0000   -0.0000    0.0645    0.0001    0.0000    0.0001   -0.0866    0.0001    0.0003
      127 CR     5g3-       0.0000    0.0000   -0.0000   -0.0000   -0.0000    0.0000   -0.0000    0.0002    0.0004    0.0015
      128 CR     6g3-       0.0000    0.0000   -0.0000   -0.0002   -0.0000    0.0000   -0.0000    0.0006    0.0016    0.0066
      129 CR     7g3-       0.0000    0.0000   -0.0000   -0.0003   -0.0000    0.0000   -0.0000    0.0012    0.0034    0.0142
      130 CR     8g3-       0.0000    0.0000   -0.0000   -0.0005   -0.0000    0.0000   -0.0000    0.0010    0.0050    0.0210
      131 CR     5g2-      -0.0000    0.0000   -0.0000   -0.0020   -0.0000    0.0000   -0.0000    0.0029   -0.0000   -0.0000
      132 CR     6g2-      -0.0000    0.0000   -0.0000   -0.0090   -0.0000    0.0000   -0.0000    0.0137   -0.0000   -0.0000
      133 CR     7g2-       0.0000    0.0000   -0.0000   -0.0182   -0.0000    0.0000   -0.0000    0.0264   -0.0000   -0.0001
      134 CR     8g2-       0.0000    0.0000   -0.0000   -0.0244   -0.0000    0.0000   -0.0000    0.0327   -0.0000   -0.0002
      135 CR     5g1-       0.0000    0.0000   -0.0000    0.0000    0.0000    0.0000    0.0000   -0.0000   -0.0001   -0.0006
      136 CR     6g1-       0.0000    0.0000   -0.0000    0.0001    0.0000    0.0000    0.0000   -0.0004   -0.0006   -0.0025
      137 CR     7g1-       0.0000    0.0000   -0.0000    0.0002    0.0000    0.0000    0.0000   -0.0004   -0.0013   -0.0054
      138 CR     8g1-       0.0000    0.0000   -0.0000    0.0002    0.0000    0.0000    0.0000   -0.0007   -0.0019   -0.0080
      139 CR     5g0       -0.0000    0.0031   -0.0054   -0.0000   -0.0000    0.0054    0.0002    0.0000   -0.0009    0.0002
      140 CR     6g0        0.0000    0.0148   -0.0242    0.0000   -0.0001    0.0235    0.0002    0.0000   -0.0040    0.0009
      141 CR     7g0       -0.0000    0.0306   -0.0462   -0.0000   -0.0000    0.0439    0.0007    0.0000   -0.0086    0.0020
      142 CR     8g0       -0.0000    0.0414   -0.0592    0.0000   -0.0001    0.0568    0.0004    0.0000   -0.0127    0.0029
      143 CR     5g1+       0.0000    0.0000   -0.0001    0.0000   -0.0042    0.0001    0.0062    0.0000   -0.0000    0.0000
      144 CR     6g1+      -0.0000    0.0002   -0.0005    0.0000   -0.0191    0.0007    0.0292    0.0000   -0.0000    0.0000
      145 CR     7g1+       0.0000    0.0003   -0.0005    0.0001   -0.0386    0.0007    0.0560    0.0001   -0.0001    0.0000
      146 CR     8g1+      -0.0000    0.0005   -0.0008    0.0001   -0.0517    0.0010    0.0695    0.0001   -0.0001    0.0000
      147 CR     5g2+      -0.0000   -0.0046    0.0081    0.0000   -0.0000   -0.0081   -0.0001   -0.0000    0.0008   -0.0002
      148 CR     6g2+      -0.0000   -0.0220    0.0361   -0.0000    0.0000   -0.0350   -0.0004   -0.0000    0.0036   -0.0008
      149 CR     7g2+       0.0000   -0.0455    0.0688    0.0000    0.0000   -0.0655   -0.0005   -0.0000    0.0077   -0.0018
      150 CR     8g2+       0.0000   -0.0617    0.0883    0.0000    0.0000   -0.0847   -0.0007   -0.0000    0.0114   -0.0026
      151 CR     5g3+       0.0000    0.0000   -0.0001   -0.0000    0.0037    0.0001   -0.0055   -0.0000   -0.0000    0.0000
      152 CR     6g3+      -0.0000   -0.0001   -0.0003   -0.0000    0.0169    0.0004   -0.0257   -0.0000    0.0000   -0.0000
      153 CR     7g3+       0.0000   -0.0002   -0.0002   -0.0001    0.0341    0.0003   -0.0494   -0.0000    0.0001   -0.0000
      154 CR     8g3+      -0.0000   -0.0001   -0.0006   -0.0001    0.0457    0.0006   -0.0612   -0.0000    0.0000   -0.0000
      155 CR     5g4+       0.0000    0.0061   -0.0107   -0.0000    0.0000    0.0107   -0.0002   -0.0000    0.0011   -0.0003
      156 CR     6g4+      -0.0000    0.0291   -0.0478   -0.0000    0.0002    0.0463   -0.0006   -0.0000    0.0047   -0.0011
      157 CR     7g4+      -0.0000    0.0602   -0.0910   -0.0000    0.0004    0.0867   -0.0011   -0.0000    0.0102   -0.0024
      158 CR     8g4+      -0.0000    0.0817   -0.1168   -0.0000    0.0005    0.1121   -0.0012   -0.0000    0.0151   -0.0035
      159 CR     6h5-       0.0000   -0.0000    0.0000    0.0002    0.0000   -0.0000    0.0000   -0.0006   -0.0000   -0.0000
      160 CR     7h5-      -0.0000    0.0000    0.0000    0.0014    0.0000    0.0000    0.0000   -0.0046    0.0000    0.0000
      161 CR     6h4-      -0.0000    0.0000   -0.0000    0.0000    0.0000    0.0000    0.0000   -0.0000   -0.0000   -0.0000
      162 CR     7h4-      -0.0000    0.0000   -0.0000   -0.0001   -0.0000    0.0000   -0.0000    0.0003   -0.0001   -0.0003
      163 CR     6h3-      -0.0000    0.0000   -0.0000   -0.0001   -0.0000   -0.0000   -0.0000    0.0003    0.0000    0.0000
      164 CR     7h3-      -0.0000    0.0000   -0.0000   -0.0006   -0.0000    0.0000   -0.0000    0.0020   -0.0000   -0.0000
      165 CR     6h2-      -0.0000    0.0000   -0.0000    0.0000    0.0000    0.0000    0.0000   -0.0000    0.0000    0.0000
      166 CR     7h2-      -0.0000    0.0000   -0.0000   -0.0000   -0.0000    0.0000    0.0000   -0.0001    0.0000    0.0002
      167 CR     6h1-       0.0000   -0.0000    0.0000    0.0000    0.0000   -0.0000    0.0000   -0.0001   -0.0000   -0.0000
      168 CR     7h1-      -0.0000   -0.0000    0.0000    0.0002    0.0000   -0.0000    0.0000   -0.0006    0.0000    0.0000
      169 CR     6h0       -0.0000   -0.0000    0.0001   -0.0000    0.0001   -0.0001   -0.0003   -0.0000    0.0000   -0.0000
      170 CR     7h0        0.0000    0.0000    0.0002   -0.0000    0.0007   -0.0002   -0.0024   -0.0000   -0.0000    0.0000
      171 CR     6h1+       0.0000    0.0001   -0.0012   -0.0000    0.0000    0.0014   -0.0000   -0.0000    0.0000   -0.0000
      172 CR     7h1+       0.0000    0.0022   -0.0064    0.0000   -0.0001    0.0058    0.0002    0.0000    0.0002   -0.0001
      173 CR     6h2+       0.0000    0.0000   -0.0001    0.0000   -0.0001    0.0001    0.0005    0.0000   -0.0000    0.0000
      174 CR     7h2+      -0.0000    0.0000   -0.0001    0.0000   -0.0010    0.0002    0.0034    0.0000    0.0000   -0.0000
      175 CR     6h3+      -0.0000   -0.0001    0.0013   -0.0000    0.0000   -0.0015   -0.0000   -0.0000   -0.0000    0.0000
      176 CR     7h3+      -0.0000   -0.0024    0.0069    0.0000   -0.0000   -0.0063    0.0000   -0.0000   -0.0001    0.0000
      177 CR     6h4+       0.0000    0.0000   -0.0001   -0.0000    0.0001    0.0002   -0.0004   -0.0000    0.0000   -0.0000
      178 CR     7h4+      -0.0000   -0.0001   -0.0001   -0.0000    0.0009    0.0002   -0.0029   -0.0000   -0.0000    0.0000
      179 CR     6h5+       0.0000    0.0001   -0.0017   -0.0000   -0.0000    0.0020   -0.0000   -0.0000   -0.0000    0.0000
      180 CR     7h5+       0.0000    0.0032   -0.0092   -0.0000    0.0001    0.0084   -0.0002   -0.0000   -0.0002    0.0001

          Orbital           11    
          Energy            6.2929
          Occ. No.          0.0000

        1 CR     1s         0.0000
        2 CR     2s        -0.0006
        3 CR     3s        -0.0003
        4 CR     4s        -0.2035
        5 CR     5s        -0.3416
        6 CR     6s        -0.4422
        7 CR     7s        -0.3284
        8 CR     8s        -0.1909
        9 CR     9s        -0.0112
       10 CR    10s         0.0023
       11 CR     2px       -0.0002
       12 CR     3px        0.0019
       13 CR     4px       -0.0752
       14 CR     5px       -0.0729
       15 CR     6px       -0.0110
       16 CR     7px        0.1886
       17 CR     8px        0.3542
       18 CR     9px        0.2795
       19 CR    10px        0.1218
       20 CR    11px        0.0213
       21 CR     2py       -0.0000
       22 CR     3py       -0.0000
       23 CR     4py       -0.0000
       24 CR     5py       -0.0000
       25 CR     6py       -0.0000
       26 CR     7py       -0.0000
       27 CR     8py       -0.0000
       28 CR     9py       -0.0000
       29 CR    10py       -0.0000
       30 CR    11py       -0.0000
       31 CR     2pz       -0.0000
       32 CR     3pz       -0.0000
       33 CR     4pz       -0.0010
       34 CR     5pz       -0.0009
       35 CR     6pz       -0.0014
       36 CR     7pz       -0.0005
       37 CR     8pz       -0.0006
       38 CR     9pz       -0.0008
       39 CR    10pz       -0.0005
       40 CR    11pz       -0.0001
       41 CR     3d2-      -0.0000
       42 CR     4d2-      -0.0000
       43 CR     5d2-      -0.0000
       44 CR     6d2-      -0.0000
       45 CR     7d2-       0.0000
       46 CR     8d2-       0.0000
       47 CR     9d2-       0.0000
       48 CR    10d2-       0.0000
       49 CR     3d1-      -0.0000
       50 CR     4d1-      -0.0000
       51 CR     5d1-      -0.0000
       52 CR     6d1-      -0.0000
       53 CR     7d1-      -0.0000
       54 CR     8d1-      -0.0000
       55 CR     9d1-      -0.0000
       56 CR    10d1-      -0.0000
       57 CR     3d0       -0.0135
       58 CR     4d0       -0.0425
       59 CR     5d0       -0.0732
       60 CR     6d0       -0.0750
       61 CR     7d0       -0.1021
       62 CR     8d0       -0.0789
       63 CR     9d0       -0.0503
       64 CR    10d0       -0.0163
       65 CR     3d1+      -0.0003
       66 CR     4d1+      -0.0007
       67 CR     5d1+      -0.0006
       68 CR     6d1+       0.0003
       69 CR     7d1+       0.0014
       70 CR     8d1+       0.0019
       71 CR     9d1+       0.0012
       72 CR    10d1+       0.0003
       73 CR     3d2+       0.0234
       74 CR     4d2+       0.0737
       75 CR     5d2+       0.1268
       76 CR     6d2+       0.1299
       77 CR     7d2+       0.1769
       78 CR     8d2+       0.1366
       79 CR     9d2+       0.0871
       80 CR    10d2+       0.0283
       81 CR     4f3-      -0.0000
       82 CR     5f3-      -0.0000
       83 CR     6f3-      -0.0000
       84 CR     7f3-      -0.0000
       85 CR     8f3-      -0.0000
       86 CR     9f3-      -0.0000
       87 CR     4f2-      -0.0000
       88 CR     5f2-      -0.0000
       89 CR     6f2-      -0.0000
       90 CR     7f2-      -0.0000
       91 CR     8f2-      -0.0000
       92 CR     9f2-      -0.0000
       93 CR     4f1-      -0.0000
       94 CR     5f1-      -0.0000
       95 CR     6f1-      -0.0000
       96 CR     7f1-      -0.0000
       97 CR     8f1-      -0.0000
       98 CR     9f1-      -0.0000
       99 CR     4f0        0.0002
      100 CR     5f0        0.0005
      101 CR     6f0        0.0006
      102 CR     7f0        0.0001
      103 CR     8f0       -0.0005
      104 CR     9f0       -0.0008
      105 CR     4f1+      -0.0168
      106 CR     5f1+      -0.0617
      107 CR     6f1+      -0.1005
      108 CR     7f1+      -0.1074
      109 CR     8f1+      -0.0774
      110 CR     9f1+      -0.0664
      111 CR     4f2+      -0.0001
      112 CR     5f2+      -0.0003
      113 CR     6f2+      -0.0004
      114 CR     7f2+      -0.0002
      115 CR     8f2+       0.0005
      116 CR     9f2+       0.0009
      117 CR     4f3+       0.0217
      118 CR     5f3+       0.0797
      119 CR     6f3+       0.1297
      120 CR     7f3+       0.1387
      121 CR     8f3+       0.1000
      122 CR     9f3+       0.0858
      123 CR     5g4-      -0.0000
      124 CR     6g4-      -0.0000
      125 CR     7g4-      -0.0000
      126 CR     8g4-      -0.0000
      127 CR     5g3-       0.0000
      128 CR     6g3-       0.0000
      129 CR     7g3-      -0.0000
      130 CR     8g3-      -0.0000
      131 CR     5g2-      -0.0000
      132 CR     6g2-      -0.0000
      133 CR     7g2-      -0.0000
      134 CR     8g2-      -0.0000
      135 CR     5g1-       0.0000
      136 CR     6g1-       0.0000
      137 CR     7g1-      -0.0000
      138 CR     8g1-      -0.0000
      139 CR     5g0        0.0027
      140 CR     6g0        0.0114
      141 CR     7g0        0.0217
      142 CR     8g0        0.0290
      143 CR     5g1+       0.0001
      144 CR     6g1+       0.0004
      145 CR     7g1+       0.0006
      146 CR     8g1+       0.0006
      147 CR     5g2+      -0.0040
      148 CR     6g2+      -0.0169
      149 CR     7g2+      -0.0323
      150 CR     8g2+      -0.0432
      151 CR     5g3+       0.0000
      152 CR     6g3+       0.0001
      153 CR     7g3+       0.0000
      154 CR     8g3+      -0.0001
      155 CR     5g4+       0.0053
      156 CR     6g4+       0.0224
      157 CR     7g4+       0.0427
      158 CR     8g4+       0.0572
      159 CR     6h5-      -0.0000
      160 CR     7h5-      -0.0000
      161 CR     6h4-       0.0000
      162 CR     7h4-       0.0000
      163 CR     6h3-       0.0000
      164 CR     7h3-       0.0000
      165 CR     6h2-       0.0000
      166 CR     7h2-       0.0000
      167 CR     6h1-      -0.0000
      168 CR     7h1-      -0.0000
      169 CR     6h0       -0.0001
      170 CR     7h0       -0.0001
      171 CR     6h1+       0.0005
      172 CR     7h1+       0.0018
      173 CR     6h2+       0.0000
      174 CR     7h2+       0.0001
      175 CR     6h3+      -0.0005
      176 CR     7h3+      -0.0020
      177 CR     6h4+       0.0001
      178 CR     7h4+       0.0001
      179 CR     6h5+       0.0007
      180 CR     7h5+       0.0026
--


++    Molecular charges:
      ------------------

      Mulliken charges per centre and basis function type
      ---------------------------------------------------

                CR    
      1s       1.9992
      2s       0.0001
      2px      0.0004
      2pz      0.0000
      2py      0.0000
      3s       0.0000
      3px      0.0002
      3pz      0.0000
      3py      0.0000
      4s       0.0979
      3d2+     0.0166
      3d1+     0.0106
      3d0      0.0068
      3d1-     0.0001
      3d2-     0.0106
      4px      0.2362
      4pz      0.0765
      4py      0.0765
      5s       0.0952
      4d2+     0.1249
      4d1+     0.1074
      4d0      0.0642
      4d1-     0.0019
      4d2-     0.1074
      5px      0.1387
      5pz      0.0679
      5py      0.0679
      6s       0.1569
      4f3+     0.0072
      4f2+     0.0028
      4f1+     0.0046
      4f0      0.0017
      4f1-     0.0003
      4f2-     0.0000
      4f3-     0.0043
      5d2+     0.2575
      5d1+     0.3194
      5d0      0.2168
      5d1-     0.0108
      5d2-     0.3194
      6px      0.5192
      6pz      0.5269
      6py      0.5270
      7s       0.3148
      5f3+     0.0785
      5f2+     0.0433
      5f1+     0.0535
      5f0      0.0260
      5f1-     0.0043
      5f2-     0.0009
      5f3-     0.0650
      6d2+     0.2290
      6d1+     0.2710
      6d0      0.2704
      6d1-     0.0160
      6d2-     0.2710
      7px      0.3586
      7pz      0.4302
      7py      0.4302
      5g4+     0.0005
      5g3+     0.0001
      5g2+     0.0003
      5g1+     0.0001
      5g0      0.0001
      5g1-     0.0000
      5g2-     0.0000
      5g3-     0.0000
      5g4-     0.0002
      6f3+     0.1741
      6f2+     0.1330
      6f1+     0.1333
      6f0      0.0797
      6f1-     0.0133
      6f2-     0.0040
      6f3-     0.1993
      6g4+     0.0106
      6g3+     0.0019
      6g2+     0.0061
      6g1+     0.0024
      6g0      0.0027
      6g1-     0.0000
      6g2-     0.0005
      6g3-     0.0000
      6g4-     0.0038
      6h5+     0.0000
      6h4+     0.0000
      6h3+     0.0000
      6h2+     0.0000
      6h1+     0.0000
      6h0      0.0000
      6h1-     0.0000
      6h2-     0.0000
      6h3-     0.0000
      6h4-     0.0000
      6h5-     0.0000
      7d2+     0.4739
      7d1+     0.4009
      7d0      0.5402
      7d1-     0.0314
      7d2-     0.4009
      7f3+     0.1755
      7f2+     0.1684
      7f1+     0.1627
      7f0      0.1008
      7f1-     0.0169
      7f2-     0.0079
      7f3-     0.2523
      7g4+     0.0391
      7g3+     0.0072
      7g2+     0.0223
      7g1+     0.0093
      7g0      0.0101
      7g1-     0.0000
      7g2-     0.0021
      7g3-     0.0000
      7g4-     0.0144
      7h5+     0.0003
      7h4+     0.0000
      7h3+     0.0002
      7h2+     0.0000
      7h1+     0.0002
      7h0      0.0000
      7h1-     0.0000
      7h2-     0.0000
      7h3-     0.0000
      7h4-     0.0000
      7h5-     0.0000
      8s       0.4715
      8px      0.4520
      8pz      0.4037
      8py      0.4037
      8d2+     0.3204
      8d1+     0.2675
      8d0      0.2674
      8d1-     0.0132
      8d2-     0.2675
      8f3+     0.1372
      8f2+     0.0883
      8f1+     0.1375
      8f0      0.0527
      8f1-     0.0089
      8f2-     0.0076
      8f3-     0.1321
      8g4+     0.0662
      8g3+     0.0117
      8g2+     0.0378
      8g1+     0.0150
      8g0      0.0172
      8g1-     0.0000
      8g2-     0.0033
      8g3-     0.0001
      8g4-     0.0233
      9s       0.0429
      9px      0.2962
      9pz      0.0971
      9py      0.0971
      9d2+     0.0977
      9d1+     0.1384
      9d0      0.0549
      9d1-     0.0018
      9d2-     0.1384
      9f3+     0.2094
      9f2+     0.0730
      9f1+     0.1863
      9f0      0.0435
      9f1-     0.0074
      9f2-     0.0083
      9f3-     0.1092
     10s       0.0011
     10px      0.0840
     10pz      0.0075
     10py      0.0075
     10d2+     0.0089
     10d1+     0.0136
     10d0      0.0040
     10d1-     0.0001
     10d2-     0.0136
     11px      0.0037
     11pz      0.0001
     11py      0.0001
      Total   18.0000

      N-E      6.0000

      Total electronic charge=   18.000000

      Total            charge=    6.000000
--

 Sorry, Molden does not know how to handle
 functions with angular momentum larger than g

++    Static properties:
      ------------------


      LoProp Charges per center


                   CR    
      Nuclear     24.0000
      Electronic -18.0000

      Total        6.0000
--


++    Molecular properties:
      ---------------------

      Charge (e):
                      =    6.0000
      Dipole Moment (Debye):
      Origin of the operator (Ang)=    0.0000    0.0000    0.0000
                   X= -1.5046E+02               Y=  2.2033E-04               Z=  7.0006E-02           Total=  1.5046E+02
      Center of Charge (Ang)
                     X=   -5.22078799               Y=    0.00000765               Z=    0.00242916
      Quadrupole Moment (Debye*Ang):
      Origin of the operator (Ang)=   -0.0000   -0.0000    0.0046
                  XX= -5.2457E+02              XY= -3.6073E-03              XZ=  5.4349E-02              YY= -3.8642E+02
                  YZ= -2.5404E-04              ZZ= -3.8642E+02
      In traceless form (Debye*Ang)
                  XX= -1.3814E+02              XY= -5.4110E-03              XZ=  8.1523E-02              YY=  6.9069E+01
                  YZ= -3.8105E-04              ZZ=  6.9073E+01
--

 Sorry, Molden does not know how to handle
 functions with angular momentum larger than g
 ###############################################################################
 ###############################################################################
 ###                                                                         ###
 ###                                                                         ###
 ###    WARNING: RunFile label nBas                                          ###
 ###    was used       62 times                                              ###
 ###                                                                         ###
 ###                                                                         ###
 ###############################################################################
 ###############################################################################
Note: The following floating-point exceptions are signalling: IEEE_UNDERFLOW_FLAG IEEE_DENORMAL
--- Stop Module: scf at Tue Mar 25 14:15:54 2025 /rc=_RC_ALL_IS_WELL_ ---
*** files: chromium_so_cf.LprOrb chromium_so_cf.ScfOrb xmldump
    saved to directory /home4/s4752295/Internship/Initial_simulations/Point_charge_model/1_electron/Madelung_charges_9_active_space/Cr
--- Module scf spent 7 seconds ---

*** symbolic link created: INPORB -> chromium_so_cf.ScfOrb
--- Start Module: rasscf at Tue Mar 25 14:15:54 2025 ---

()()()()()()()()()()()()()()()()()()()()()()()()()()()()()()()()()()()()()()()()()()()()()()()()()()

                                              &RASSCF

                                   only a single process is used
                       available to each process: 4.1 GB of memory, 1 thread?
                                            pid: 1836564
()()()()()()()()()()()()()()()()()()()()()()()()()()()()()()()()()()()()()()()()()()()()()()()()()()


      Header of the ONEINT file:
      --------------------------
      
      Integrals generated by seward 4.2.0  , Tue Mar 25 14:15:37 2025


      OrdInt status: non-squared


      Cartesian coordinates in Angstrom:
      -----------------------------------------------------
      No.  Label        X            Y            Z        
      -----------------------------------------------------
       1   CR        -0.00000000  -0.00000000   0.00463220
      -----------------------------------------------------
      Nuclear repulsion energy =-2195.65222663

++    Wave function specifications:
      -----------------------------

      Number of closed shell electrons          18
      Number of electrons in active shells       1
      Max number of holes in RAS1 space          0
      Max nr of electrons in RAS3 space          0
      Number of inactive orbitals                9
      Number of active orbitals                  9
      Number of secondary orbitals             162
      Spin quantum number                      0.5
      State symmetry                             1
--

++    Orbital specifications:
      -----------------------

      Symmetry species                           1
                                                 a
      Frozen orbitals                            0
      Inactive orbitals                          9
      Active orbitals                            9
      RAS1 orbitals                              0
      RAS2 orbitals                              9
      RAS3 orbitals                              0
      Secondary orbitals                       162
      Deleted orbitals                           0
      Number of basis functions                180
--

++    CI expansion specifications:
      ----------------------------

      Number of CSFs                             9
      Number of determinants                     9
      Number of root(s) required                 9
      Root chosen for geometry opt.              9
      CI roots used                              1     2     3     4     5     6     7     8     9
      weights                                0.111 0.111 0.111 0.111 0.111 0.111 0.111 0.111 0.111
      highest root included in the CI            9
      max. size of the explicit Hamiltonian      9
--

++    Optimization specifications:
      ----------------------------

      RASSCF algorithm: Conventional
      Maximum number of macro iterations       200
      Maximum number of SX iterations          100
      Threshold for RASSCF energy            0.100E-07
      Threshold for max MO rotation          0.100E+00
      Threshold for max BLB element          0.100E-03
      Level shift parameter                  0.500E+00
      Make Quasi-Newton update
--

      The MO-coefficients are taken from the file:
      INPORB                                                                                                                          
      Title: SCF orbitals                                                                  

      Total molecular charge    5.00

      ************************************************************************************************************************
      *                                                                                                                      *
      *                                            Wave function control section                                             *
      *                                                                                                                      *
      ************************************************************************************************************************


                                         RASSCF iterations: Energy and convergence statistics
                                         ----------------------------------------------------

      Iter CI   SX   CI       RASSCF       Energy    max ROT     max BLB   max BLB  Level Ln srch  Step   QN   Walltime
          iter iter root      energy       change     param      element    value   shift minimum  type update hh:mm:ss
 Nr of preliminary CI iterations:   1
      Total energies have been shifted. Add                -2000.00 au
        1   1    4    0  -597.56709546    0.00E+00   0.52E-02    7  13 1 -0.41E-01*  0.25   0.00    SX    NO    0:00:04
        2   1    3    0  -597.56775296   -0.66E-03*  0.25E-03    7  13 1 -0.20E-02*  0.25   0.00    SX    NO    0:00:02
        3   1    3    0  -597.56775437   -0.14E-05* -0.38E-04    7  13 1 -0.14E-03*  0.25   0.00    SX    NO    0:00:02
        4   1    2    0  -597.56775438   -0.95E-08  -0.91E-05    7  13 1 -0.10E-04   0.25   0.00    SX    NO    0:00:02
      Convergence after  4 iterations
        5   1    2    0  -597.56775438   -0.25E-09  -0.91E-05    9  10 1  0.21E-05   0.25   0.00    SX    NO    0:00:02

      ************************************************************************************************************************
                                                      Wave function printout:
                       occupation of active orbitals, and spin coupling of open shells (u,d: Spin up or down)
      ************************************************************************************************************************

      Note: transformation to natural orbitals
      has been made, which may change the order of the CSFs.

      printout of CI-coefficients larger than  0.05 for root  1
      energy=   -2599.902419
      conf/sym  111111111     Coeff  Weight
             1  u00000000   0.66154 0.43763
             2  0u0000000  -0.64755 0.41932
             3  00u000000  -0.11664 0.01360
             4  000u00000   0.10082 0.01016
             5  0000u0000  -0.30371 0.09224
             8  0000000u0   0.16400 0.02690

      printout of CI-coefficients larger than  0.05 for root  2
      energy=   -2599.474473
      conf/sym  111111111     Coeff  Weight
             1  u00000000   0.61018 0.37232
             2  0u0000000   0.72433 0.52465
             3  00u000000  -0.21877 0.04786
             4  000u00000   0.19746 0.03899
             5  0000u0000  -0.10205 0.01041
             8  0000000u0  -0.06949 0.00483

      printout of CI-coefficients larger than  0.05 for root  3
      energy=   -2598.544569
      conf/sym  111111111     Coeff  Weight
             1  u00000000   0.28233 0.07971
             2  0u0000000   0.06879 0.00473
             3  00u000000   0.94320 0.88962
             5  0000u0000   0.14084 0.01984
             7  000000u00   0.05004 0.00250
             8  0000000u0   0.05521 0.00305

      printout of CI-coefficients larger than  0.05 for root  4
      energy=   -2598.327211
      conf/sym  111111111     Coeff  Weight
             1  u00000000  -0.19716 0.03887
[...]
         7   15       8.19715238E-04  4.27963085E+07  1.75088504E+08  2.28777457E+05  2.18113590E+08
         7   17       1.50025614E-01  3.97094879E+10  1.85843831E+05  2.09928878E+08  3.99196026E+10
         8   12       1.90520031E+00  7.25591043E+06  2.34502097E+11  1.24859551E+10  2.46995308E+11
         8   14       1.90670663E+00  1.36057275E+08  1.25496432E+10  2.34882289E+11  2.47567989E+11
         8   16       8.19715238E-04  4.27963085E+07  1.75088504E+08  2.28777457E+05  2.18113590E+08
         8   18       1.50025614E-01  3.97094879E+10  1.85843831E+05  2.09928878E+08  3.99196026E+10
         9   11       1.90453200E+00  9.24912647E+07  1.24952618E+10  2.34213733E+11  2.46801486E+11
         9   13       1.90774580E+00  4.92795815E+06  2.35056332E+11  1.25342129E+10  2.47595472E+11
         9   15       1.49130677E-01  3.96663605E+10  1.32541330E+04  2.97692178E+06  3.96693507E+10
         9   17       1.99718925E-04  4.27500795E+07  1.03732416E+07  2.83597663E+03  5.31261570E+07
        10   12       1.90453200E+00  9.24912647E+07  1.24952618E+10  2.34213733E+11  2.46801486E+11
        10   14       1.90774580E+00  4.92795815E+06  2.35056332E+11  1.25342129E+10  2.47595472E+11
        10   16       1.49130677E-01  3.96663605E+10  1.32541330E+04  2.97692178E+06  3.96693507E+10
        10   18       1.99718925E-04  4.27500795E+07  1.03732416E+07  2.83597663E+03  5.31261570E+07
        11   15       1.66779167E-02  4.31972568E+03  1.50518644E+07  3.89645456E+08  4.04701640E+08
        11   17       1.66818033E-02  7.88001845E+03  3.89722242E+08  1.50691579E+07  4.04799280E+08
        12   16       1.66779167E-02  4.31972568E+03  1.50518644E+07  3.89645456E+08  4.04701640E+08
        12   18       1.66818033E-02  7.88001845E+03  3.89722242E+08  1.50691579E+07  4.04799280E+08
        13   15       1.75752261E-02  7.16038750E+02  4.09142341E+08  1.58293329E+07  4.24972390E+08
        13   17       1.75947892E-02  1.44161221E+05  1.58330965E+07  4.09471675E+08  4.25448933E+08
        14   16       1.75752261E-02  7.16038750E+02  4.09142341E+08  1.58293329E+07  4.24972390E+08
        14   18       1.75947892E-02  1.44161221E+05  1.58330965E+07  4.09471675E+08  4.25448933E+08
     -----------------------------------------------------------------------------------------------
--

++ Velocity transition strengths (SO states):
   ------------------------------------------
    for osc. strength at least    1.0000000000000001E-005

      From   To        Osc. strength     Einstein coefficients Ax, Ay, Az (sec-1)    Total A (sec-1)
     -----------------------------------------------------------------------------------------------
         1    7       2.50890815E-04  3.81901501E+03  1.89589067E+07  1.03918134E+06  2.00019071E+07
         1    9       2.51507698E-04  2.69329596E+04  1.04063762E+06  1.89946188E+07  2.00621894E+07
         1   11       1.38375168E-03  5.70994728E+08  5.31006537E+03  6.75391352E+04  5.71067577E+08
         1   15       3.74055147E-03  8.75206703E+03  9.14200559E+07  2.29169400E+09  2.38312281E+09
         1   17       3.74037159E-03  7.94825472E+01  2.29159153E+09  9.14204162E+07  2.38301203E+09
         2    8       2.50890815E-04  3.81901501E+03  1.89589067E+07  1.03918134E+06  2.00019071E+07
         2   10       2.51507698E-04  2.69329596E+04  1.04063762E+06  1.89946188E+07  2.00621894E+07
         2   12       1.38375168E-03  5.70994728E+08  5.31006537E+03  6.75391352E+04  5.71067577E+08
         2   16       3.74055147E-03  8.75206703E+03  9.14200559E+07  2.29169400E+09  2.38312281E+09
         2   18       3.74037159E-03  7.94825472E+01  2.29159153E+09  9.14204162E+07  2.38301203E+09
         3    5       7.90543465E-05  2.15345663E+06  7.30347817E-03  4.29484302E+04  2.19640507E+06
         3    7       3.82117591E-03  5.18624888E+03  1.20865435E-01  1.61591517E+08  1.61596703E+08
         3    9       3.82240858E-03  1.68784260E-04  1.61771729E+08  1.21713826E-01  1.61771729E+08
         3   15       8.09708009E-04  8.40708064E+00  4.21025149E+08  4.54397848E+05  4.21479555E+08
         3   17       8.09609320E-04  7.71251413E+03  4.54502489E+05  4.20966718E+08  4.21428933E+08
         4    6       7.90543465E-05  2.15345663E+06  7.30347817E-03  4.29484302E+04  2.19640507E+06
         4    8       3.82117591E-03  5.18624888E+03  1.20865435E-01  1.61591517E+08  1.61596703E+08
         4   10       3.82240858E-03  1.68784260E-04  1.61771729E+08  1.21713826E-01  1.61771729E+08
         4   16       8.09708009E-04  8.40708064E+00  4.21025149E+08  4.54397848E+05  4.21479555E+08
         4   18       8.09609320E-04  7.71251413E+03  4.54502489E+05  4.20966718E+08  4.21428933E+08
         5    7       1.04670181E-02  1.86644728E+00  1.15757817E-02  1.58885240E+07  1.58885259E+07
         5    9       1.04531414E-02  2.37403531E-06  1.59311871E+07  1.17072568E-02  1.59311871E+07
         5   15       3.38853108E-03  2.74969423E+02  1.04185954E+09  1.12452568E+06  1.04298434E+09
         5   17       3.38881300E-03  2.49829942E+05  1.12458289E+06  1.04169911E+09  1.04307353E+09
         6    8       1.04670181E-02  1.86644728E+00  1.15757817E-02  1.58885240E+07  1.58885259E+07
         6   10       1.04531414E-02  2.37403531E-06  1.59311871E+07  1.17072568E-02  1.59311871E+07
         6   16       3.38853108E-03  2.74969423E+02  1.04185954E+09  1.12452568E+06  1.04298434E+09
         6   18       3.38881300E-03  2.49829942E+05  1.12458289E+06  1.04169911E+09  1.04307353E+09
         7    9       1.02363962E-04  1.44918236E-10  6.25271437E-01  3.06045735E-05  6.25302042E-01
         7   11       1.03459425E-02  3.71787760E+02  1.27334933E+09  6.79308531E+07  1.34128056E+09
         7   13       1.03168041E-02  6.94388810E+03  6.78158695E+07  1.27172219E+09  1.33954500E+09
         7   17       8.77785005E-04  2.33285913E+08  1.55750571E+02  2.80383434E+05  2.33566452E+08
         8   10       1.02363962E-04  1.44918236E-10  6.25271437E-01  3.06045735E-05  6.25302042E-01
         8   12       1.03459425E-02  3.71787760E+02  1.27334933E+09  6.79308531E+07  1.34128056E+09
         8   14       1.03168041E-02  6.94388810E+03  6.78158695E+07  1.27172219E+09  1.33954500E+09
         8   18       8.77785005E-04  2.33285913E+08  1.55750571E+02  2.80383434E+05  2.33566452E+08
         9   11       1.03526484E-02  8.82408219E+02  6.79194592E+07  1.27364698E+09  1.34156732E+09
         9   13       1.03197107E-02  4.76941645E+01  1.27150949E+09  6.78316540E+07  1.33934119E+09
         9   15       8.78190601E-04  2.33556495E+08  8.90553357E+01  4.64058170E+04  2.33602990E+08
        10   12       1.03526484E-02  8.82408219E+02  6.79194592E+07  1.27364698E+09  1.34156732E+09
        10   14       1.03197107E-02  4.76941645E+01  1.27150949E+09  6.78316540E+07  1.33934119E+09
        10   16       8.78190601E-04  2.33556495E+08  8.90553357E+01  4.64058170E+04  2.33602990E+08
        11   13       1.55992185E-04  1.06395199E-09  1.17759394E+01  1.20371848E-06  1.17759406E+01
        11   15       1.87119023E-02  6.46203788E+00  1.68878316E+07  4.37171503E+08  4.54059341E+08
        11   17       1.87122621E-02  1.59003197E+03  4.37177488E+08  1.68927271E+07  4.54071805E+08
        12   14       1.55992185E-04  1.06395199E-09  1.17759394E+01  1.20371848E-06  1.17759406E+01
        12   16       1.87119023E-02  6.46203788E+00  1.68878316E+07  4.37171503E+08  4.54059341E+08
        12   18       1.87122621E-02  1.59003197E+03  4.37177488E+08  1.68927271E+07  4.54071805E+08
        13   15       1.98790378E-02  3.84888870E+01  4.62773782E+08  1.79068573E+07  4.80680678E+08
        13   17       1.98833935E-02  3.00581951E+04  1.79062667E+07  4.62853635E+08  4.80789960E+08
        14   16       1.98790378E-02  3.84888870E+01  4.62773782E+08  1.79068573E+07  4.80680678E+08
        14   18       1.98833935E-02  3.00581951E+04  1.79062667E+07  4.62853635E+08  4.80789960E+08
        15   17       1.24549028E-02  2.59637254E-11  5.10533957E-03  3.52935931E-07  5.10569254E-03
        16   18       1.24549028E-02  2.59637254E-11  5.10533957E-03  3.52935931E-07  5.10569254E-03
     -----------------------------------------------------------------------------------------------
--

++ Length and velocity gauge comparison (SO states):

 --------------------------------------------------
 A comparison between the dipole oscillator strengths in 
 length and velocity gauge will be performed

 All dipole oscillator differences above the tolerance of   0.10000000000000001       will be printed 

 Due to basis set deficiency these oscillator may be problematic 

 The tolerance is defined as ABS(1-O_l/O_v) 
 O_l : dipole oscillator strength in length gauge
 O_p : dipole oscillator strength in velocity gauge
 --------------------------------------------------

  Problematic transitions have been found

      From   To       Difference (%) Osc. st. (len.) Osc. st. (vel.)
     ---------------------------------------------------------------
         1    3      ---------------  2.92433464E-05 below threshold
         1    5      ---------------  1.01618100E-04 below threshold
         1    7        306168.913274  7.68400572E-01  2.50890815E-04
         1    9        305491.596055  7.68586390E-01  2.51507698E-04
         1   11        140528.177543  1.94594476E+00  1.38375168E-03
         1   13      ---------------  2.47766483E-05 below threshold
         1   15        255638.455632  9.56602857E+00  3.74055147E-03
         1   17        255647.973114  9.56592453E+00  3.74037159E-03
         2    4      ---------------  2.92433464E-05 below threshold
         2    6      ---------------  1.01618100E-04 below threshold
         2    8        306168.913274  7.68400572E-01  2.50890815E-04
         2   10        305491.596055  7.68586390E-01  2.51507698E-04
         2   12        140528.177543  1.94594476E+00  1.38375168E-03
         2   14      ---------------  2.47766483E-05 below threshold
         2   16        255638.455632  9.56602857E+00  3.74055147E-03
         2   18        255647.973114  9.56592453E+00  3.74037159E-03
         3    5       8643344.646676  6.83301868E+00  7.90543465E-05
         3    7        126856.767662  4.85124142E+00  3.82117591E-03
         3    9        126854.150631  4.85270635E+00  3.82240858E-03
         3   11      ---------------  8.75511312E-04 below threshold
         3   13      ---------------  6.22132092E-04 below threshold
         3   15       1496351.196087  1.21168852E+01  8.09708009E-04
         3   17       1496416.165732  1.21159344E+01  8.09609320E-04
         4    6       8643344.646676  6.83301868E+00  7.90543465E-05
         4    8        126856.767662  4.85124142E+00  3.82117591E-03
         4   10        126854.150631  4.85270635E+00  3.82240858E-03
         4   12      ---------------  8.75511312E-04 below threshold
         4   14      ---------------  6.22132092E-04 below threshold
         4   16       1496351.196087  1.21168852E+01  8.09708009E-04
         4   18       1496416.165732  1.21159344E+01  8.09609320E-04
         5    7         12238.686073  1.29149251E+00  1.04670181E-02
         5    9         12291.186408  1.29526824E+00  1.04531414E-02
         5   11      ---------------  2.36556734E-04 below threshold
         5   13      ---------------  3.68241205E-03 below threshold
         5   15        146559.049547  4.96958747E+00  3.38853108E-03
         5   17        146538.628220  4.96930889E+00  3.38881300E-03
         6    8         12238.686073  1.29149251E+00  1.04670181E-02
         6   10         12291.186408  1.29526824E+00  1.04531414E-02
         6   12      ---------------  2.36556734E-04 below threshold
         6   14      ---------------  3.68241205E-03 below threshold
         6   16        146559.049547  4.96958747E+00  3.38853108E-03
         6   18        146538.628220  4.96930889E+00  3.38881300E-03
         7    9      --------------- below threshold  1.02363962E-04
         7   11         18314.951732  1.90520031E+00  1.03459425E-02
         7   13         18381.562743  1.90670663E+00  1.03168041E-02
         7   15      ---------------  8.19715238E-04 below threshold
         7   17         16991.384907  1.50025614E-01  8.77785005E-04
         8   10      --------------- below threshold  1.02363962E-04
         8   12         18314.951732  1.90520031E+00  1.03459425E-02
         8   14         18381.562743  1.90670663E+00  1.03168041E-02
         8   16      ---------------  8.19715238E-04 below threshold
         8   18         16991.384907  1.50025614E-01  8.77785005E-04
         9   11         18296.567941  1.90453200E+00  1.03526484E-02
         9   13         18386.427189  1.90774580E+00  1.03197107E-02
         9   15         16881.584252  1.49130677E-01  8.78190601E-04
         9   17      ---------------  1.99718925E-04 below threshold
        10   12         18296.567941  1.90453200E+00  1.03526484E-02
        10   14         18386.427189  1.90774580E+00  1.03197107E-02
        10   16         16881.584252  1.49130677E-01  8.78190601E-04
        10   18      ---------------  1.99718925E-04 below threshold
        11   13      --------------- below threshold  1.55992185E-04
        11   15            10.870010  1.66779167E-02  1.87119023E-02
        11   17            10.850953  1.66818033E-02  1.87122621E-02
        12   14      --------------- below threshold  1.55992185E-04
        12   16            10.870010  1.66779167E-02  1.87119023E-02
        12   18            10.850953  1.66818033E-02  1.87122621E-02
        13   15            11.589151  1.75752261E-02  1.98790378E-02
        13   17            11.510130  1.75947892E-02  1.98833935E-02
        14   16            11.589151  1.75752261E-02  1.98790378E-02
        14   18            11.510130  1.75947892E-02  1.98833935E-02
        15   17      --------------- below threshold  1.24549028E-02
        16   18      --------------- below threshold  1.24549028E-02
     ---------------------------------------------------------------

 Number of problematic transitions =                    72

--

 Electric-dipole - electric-octupole not included
++ Total transition strengths for the second-order expansion of the wave vector (SO states):
   -----------------------------------------------------------------------------------------
    for osc. strength at least    1.0000000000000001E-005

      From   To        Osc. strength
     -------------------------------
         1    3       8.95413208E-05
         1    7       2.80626466E-04
         1    9       2.81056103E-04
         1   11       5.06944842E-03
         1   15       3.89887092E-04
         1   17       3.89935798E-04
         2    4       8.95413208E-05
         2    8       2.80626466E-04
         2   10       2.81056103E-04
         2   12       5.06944842E-03
         2   16       3.89887092E-04
         2   18       3.89935798E-04
         3    5       7.58839958E-05
         3    7       9.29379230E-04
         3    9       9.31039856E-04
         3   11       6.75574018E-03
         3   13       6.76968380E-03
         3   15       1.62882550E-03
         3   17       1.62909368E-03
         4    6       7.58839958E-05
         4    8       9.29379230E-04
         4   10       9.31039856E-04
         4   12       6.75574018E-03
         4   14       6.76968380E-03
         4   16       1.62882550E-03
         4   18       1.62909368E-03
         5   11       3.78684095E-03
         5   13       3.79955683E-03
         5   15       1.44784505E-03
         5   17       1.44750280E-03
         6   12       3.78684095E-03
         6   14       3.79955683E-03
         6   16       1.44784505E-03
         6   18       1.44750280E-03
         7   11       7.92601451E-04
         7   13       7.91459653E-04
         7   15       1.45797440E-05
         7   17       6.11457272E-05
         8   12       7.92601451E-04
         8   14       7.91459653E-04
         8   16       1.45797440E-05
         8   18       6.11457272E-05
         9   11       7.89782147E-04
         9   13       7.92670743E-04
         9   15       6.07749259E-05
         9   17       1.44568930E-05
        10   12       7.89782147E-04
        10   14       7.92670743E-04
        10   16       6.07749259E-05
        10   18       1.44568930E-05
        11   15       2.50736756E-05
        11   17       2.50793303E-05
        12   16       2.50736756E-05
        12   18       2.50793303E-05
        13   15       2.62236760E-05
        13   17       2.62244446E-05
        14   16       2.62236760E-05
        14   18       2.62244446E-05
     -------------------------------
--

++ I/O STATISTICS
 
  I. General I/O information
  - - - - - - - - - - - - - - - - - - - - - - - - - - - - - - - - - - - - - - - - - - -
  Unit  Name          Flsize      Write/Read            MBytes           Write/Read
                      (MBytes)       Calls              In/Out           Time, sec.
  - - - - - - - - - - - - - - - - - - - - - - - - - - - - - - - - - - - - - - - - - - -
   1  SCRATCH           0.00 .       9/      45 .      0.0/      0.0 .       0/       0
   2  ANNI              0.00 .       0/       0 .      0.0/      0.0 .       0/       0
   3  RUNFILE          14.88 .     322/   10733 .      2.3/     77.8 .       0/       0
   4  ONEINT            5.58 .       0/   23543 .      0.0/   3739.9 .       0/       0
   5  JOBIPH            6.48 .       0/      92 .      0.0/      0.8 .       0/       0
   6  ORDINT          506.53 .       1/    4053 .      0.0/   1013.0 .       0/       0
  - - - - - - - - - - - - - - - - - - - - - - - - - - - - - - - - - - - - - - - - - - -
   *  TOTAL           533.47 .     332/   38466 .      2.3/   4831.6 .       0/       0
  - - - - - - - - - - - - - - - - - - - - - - - - - - - - - - - - - - - - - - - - - - -
 
  II. I/O Access Patterns
  - - - - - - - - - - - - - - - - - - - -
  Unit  Name               % of random
                         Write/Read calls
  - - - - - - - - - - - - - - - - - - - -
   1  SCRATCH             88.9/ 100.0
   2  ANNI                 0.0/   0.0
   3  RUNFILE             28.6/  10.8
   4  ONEINT               0.0/  16.4
   5  JOBIPH               0.0/  76.1
   6  ORDINT             100.0/   0.0
  - - - - - - - - - - - - - - - - - - - -
--
--- Stop Module: rassi at Tue Mar 25 14:16:20 2025 /rc=_RC_ALL_IS_WELL_ ---
*** files: xmldump
    saved to directory /home4/s4752295/Internship/Initial_simulations/Point_charge_model/1_electron/Madelung_charges_9_active_space/Cr
--- Module rassi spent 3 seconds ---

.##################.
.# Happy landing! #.
.##################.

    Timing: Wall=43.30 User=30.23 System=8.93

###############################################################################
Hbrk Cluster
Job 15897320 for user s4752295
Finished at: Tue Mar 25 14:16:25 CET 2025

Job details:
============

Job ID                         : 15897320
Name                           : Cr_no_SO
User                           : s4752295
Partition                      : regularmedium
Nodes                          : node91
Number of Nodes                : 1
Cores                          : 1
Number of Tasks                : 1
State                          : COMPLETED  
Submit                         : 2025-03-25T14:15:05
Start                          : 2025-03-25T14:15:33
End                            : 2025-03-25T14:16:20
Reserved walltime              : 15:00:00
Used walltime                  : 00:00:47
Used CPU time                  : 00:00:41 (Efficiency: 86.17%)
% User (Computation)           : 77.15%
% System (I/O)                 : 22.84%
Total memory reserved          : 25000M
Maximum memory used            : 941.08M

Acknowledgements:
=================

Please see this page for information about acknowledging Hbrk in your publications:

https://wiki.hpc.rug.nl/habrok/introduction/scientific_output

################################################################################
