   This run of MOLCAS is using the pymolcas driver

                             OPE
                             OPE          NMOL  CASOP  ENMOLC A   SO
                 OPE        NMOLC        AS  OP EN  MO LC     AS  OP
                OPENM       OL CA        SO  PE NM  OL CA     SOP EN
                OP EN      MO   LC       AS  OP ENMOL  CASO   PENMOL
                OP  EN     MO   LC       AS  OP EN     MO     LC ASO
               OP   E  NMOL  C  AS       OP  EN MO     LC     AS  OP
               OP  E   NMO   LC AS        OPEN  MO     LCASOP EN   M
               O  PEN   MO  LCA  SO
            OPE   NMO   L   CAS    OP
        OPENMOL  CASOP     ENMOL   CASOPE
     OPENMOLCA   SOPENMOLCASOPEN   MOLCASOPE
    OPENMOLCAS   OP           EN   MOL    CAS
    OPENMOLCAS       OP  ENM        O     LCA
    OPENMOLCAS    OPEN  MOLCASO     P  E  NMO
    OPENMOLCAS     OP               E  N  MOL
    OPENMOLCA   SO           PENM   O  L  CAS    OPEN    MO    LCAS
    OPENMOLCA   SOP           ENM   O  L  CAS   OP  EN  MOLC  AS   O
    OPENMOLCA   SOPE           NM      O  LCA   S      OP  EN MO
    OPENMOLC                AS         O  PEN   M      OL  CA  SOPE
    OPENMO        LCASOPE  NMOL        C  ASO   P      ENMOLC     AS
    OPE     NMO      LCA  SO     P     E   NM   OL  CA SO  PE N   MO
          OPENMOLCA            SOPE   NMO        LCAS  O    P  ENMO
     OPENMOLCASOPENMOLCASOPENMOLCASOPENMOLCA
        OPENMOLCASOPENMOLCASOPENMOLCASOPE
            OPENMOLCASOPENMOLCASOPENM
               OPENMOLCASOPENMOLCA        version: o91e1abe7de707b ?
                   OPENMOLCASO
                       OPE                tag:

 OpenMolcas is free software; you can redistribute it and/or modify it
 under the terms of the GNU Lesser General Public License version 2.1.
 OpenMolcas is distributed in the hope that it will be useful, but it
 is provided "as is" and without any express or implied warranties.
 For more details see the full text of the license in the file
 LICENSE or in <http://www.gnu.org/licenses/>.

                 Copyright (C) The OpenMolcas Authors
           For the author list and the recommended citation,
                   consult the file CONTRIBUTORS.md

           *************************************************
           * pymolcas version py2.10                       *
           *   build 3068ae8b88c9345ec6cfef6fef7f1169      *
           *   (after the EMIL interpreter by V. Veryazov) *
           *************************************************

configuration info
------------------
Host name: login1 (Linux)
C Compiler ID: GNU
C flags: -std=gnu99
Fortran Compiler ID: GNU
Fortran flags: -fno-aggressive-loop-optimizations -cpp -fdefault-integer-8 -fmax-stack-var-size=1048576
Definitions: _MOLCAS_;_I8_;_LINUX_;_MKL_
Parallel: OFF (GA=OFF)


   -----------------------------------------------------------------------------------------------------------------------------------
  |
  |           Project: chromium_so_cf
  |    Submitted from: /home4/s4752295/Internship/Initial_simulations/Point_charge_model/1_electron/Madelung_charges_9_active_space/Cr
  |      Scratch area: /tmp/chromium_so_cf
  |   Save outputs to: /home4/s4752295/Internship/Initial_simulations/Point_charge_model/1_electron/Madelung_charges_9_active_space/Cr
  |            Molcas: /home4/s4752295/Internship/Molcas/recomp_try/OpenMolcas-master/build
  |
  | Scratch area is empty
  |
  |    MOLCAS_DRIVER = /home4/s4752295/Internship/Molcas/bin/pymolcas
  |    MOLCAS_NPROCS = 1
  |    MOLCAS_SOURCE = /home4/s4752295/Internship/Molcas/recomp_try/OpenMolcas-master
  | MOLCAS_STRUCTURE = 0
  |
   -----------------------------------------------------------------------------------------------------------------------------------

++ ---------   Input file   ---------

&SEWARD
AMFi

CLIG
$R

Basis Set
Cr.ANO-rcc.Roos.21s15p10d6f4g2h.10s10p8d6f4g2h.
Spherical d
Cr            -1.0658140267135469e-14   -3.5527134223784897e-15 0.008753588724385739
End of Basis

Xfield

414
-7.604182052,-2.9259999999999997,1.6893261      -0.625931
-7.604182052,-0.0,-3.3786540999999994   -0.625931
-7.604182052,2.9259999999999997,1.6893261       -0.625931
-7.591157533,0.0,0.0    1.892092
5.052441411,-2.9259999999999997,-1.6893261      2.515516
5.052441411,0.0,3.3786540999999994      2.515516
5.052441411,2.9259999999999997,-1.6893261       2.515516
6.769677732,-5.851999999999999,0.0      0.004632
6.769677732,-2.9259999999999997,-5.0679802      0.004632
6.769677732,-2.9259999999999997,5.0679802       0.004632
6.769677732,2.9259999999999997,-5.0679802       0.004632
6.769677732,2.9259999999999997,5.0679802        0.004632
6.769677732,5.851999999999999,0.0       0.004632
7.845385741,-2.9259999999999997,1.6893261       -2.519484
7.845385741,-0.0,-3.3786540999999994    -2.519484
7.845385741,2.9259999999999997,1.6893261        -2.519484
-5.572900393,-0.0,-0.0  -3.142907
-9.452685554,-5.851999999999999,-3.3786540999999994     -0.625931
-9.452685554,0.0,6.7573063      -0.625931
-9.452685554,5.851999999999999,-3.3786540999999994      -0.625931
-12.557812499999999,-5.851999999999999,0.0      1.892092
-12.557812499999999,-2.9259999999999997,-5.0679802      1.892092
-12.557812499999999,-2.9259999999999997,5.0679802       1.892092
-12.557812499999999,2.9259999999999997,-5.0679802       1.892092
-12.557812499999999,2.9259999999999997,5.0679802        1.892092
-12.557812499999999,5.851999999999999,0.0       1.892092
47.826562499999994,-5.851999999999999,3.3786540999999994        2.515516
47.826562499999994,-0.0,-6.7573063      2.515516
47.826562499999994,5.851999999999999,3.3786540999999994 2.515516
6.9134765719999995,-5.851999999999999,-3.3786540999999994       -2.519484
6.9134765719999995,0.0,6.7573063        -2.519484
6.9134765719999995,5.851999999999999,-3.3786540999999994        -2.519484
-6.141601572,-5.851999999999999,-0.0    -3.142907
-6.141601572,-2.9259999999999997,-5.0679802     -3.142907
-6.141601572,-2.9259999999999997,5.0679802      -3.142907
-6.141601572,2.9259999999999997,-5.0679802      -3.142907
-6.141601572,2.9259999999999997,5.0679802       -3.142907
-6.141601572,5.851999999999999,-0.0     -3.142907
-18.09453125,-5.851999999999999,6.7573063       -0.625931
-18.09453125,5.851999999999999,6.7573063        -0.625931
-18.09453125,-8.778,1.6893261   -0.625931
-18.09453125,8.778,1.6893261    -0.625931
-18.09453125,-2.9259999999999997,-8.4466343     -0.625931
-18.09453125,2.9259999999999997,-8.4466343      -0.625931
11.41484375,-2.9259999999999997,-1.6893261      4.409069
11.41484375,2.9259999999999997,-1.6893261       4.409069
11.41484375,0.0,3.3786540999999994      4.409069
-332.97499999999997,-0.0,-0.0   -5.030367
-332.97499999999997,0.0,0.0     5.039632
25.683398427999997,-5.851999999999999,-6.7573063        2.515516
25.683398427999997,5.851999999999999,-6.7573063 2.515516
25.683398427999997,-8.778,-1.6893261    2.515516
25.683398427999997,8.778,-1.6893261     2.515516
25.683398427999997,-2.9259999999999997,8.4466343        2.515516
25.683398427999997,2.9259999999999997,8.4466343 2.515516
36.17421875,-8.778,-5.0679802   0.004632
36.17421875,-8.778,5.0679802    0.004632
36.17421875,8.778,-5.0679802    0.004632
36.17421875,8.778,5.0679802     0.004632
36.17421875,-0.0,-10.1359604    0.004632
36.17421875,0.0,10.1359604      0.004632
91.34843749999999,-5.851999999999999,6.7573063  -2.519484
91.34843749999999,5.851999999999999,6.7573063   -2.519484
91.34843749999999,-8.778,1.6893261      -2.519484
91.34843749999999,8.778,1.6893261       -2.519484
91.34843749999999,-2.9259999999999997,-8.4466343        -2.519484
91.34843749999999,2.9259999999999997,-8.4466343 -2.519484
-277.16249999999997,-8.778,-5.0679802   1.892092
-277.16249999999997,-8.778,5.0679802    1.892092
-277.16249999999997,8.778,-5.0679802    1.892092
-277.16249999999997,8.778,5.0679802     1.892092
-277.16249999999997,-0.0,-10.1359604    1.892092
-277.16249999999997,0.0,10.1359604      1.892092
-223.725,-5.851999999999999,3.3786540999999994  4.409069
-223.725,-0.0,-6.7573063        4.409069
-223.725,5.851999999999999,3.3786540999999994   4.409069
-169.1,-5.851999999999999,-0.0  -5.030367
-169.1,-2.9259999999999997,-5.0679802   -5.030367
-169.1,-2.9259999999999997,5.0679802    -5.030367
-169.1,2.9259999999999997,-5.0679802    -5.030367
-169.1,-5.851999999999999,0.0   5.039632
-169.1,5.851999999999999,-0.0   -5.030367
-169.1,2.9259999999999997,5.0679802     -5.030367
-169.1,-2.9259999999999997,-5.0679802   5.039632
-169.1,-2.9259999999999997,5.0679802    5.039632
-169.1,2.9259999999999997,-5.0679802    5.039632
-169.1,5.851999999999999,0.0    5.039632
-169.1,2.9259999999999997,5.0679802     5.039632
-88.58749999999999,-2.9259999999999997,-1.6893261       -5.660931
-88.58749999999999,0.0,3.3786540999999994       -5.660931
-88.58749999999999,2.9259999999999997,-1.6893261        -5.660931
1.67734375,-11.7039981,0.0      0.004632
1.67734375,-5.851999999999999,-10.1359604       0.004632
1.67734375,-5.851999999999999,10.1359604        0.004632
1.67734375,5.851999999999999,-10.1359604        0.004632
1.67734375,11.7039981,0.0       0.004632
1.67734375,5.851999999999999,10.1359604 0.004632
129.08124999999998,-8.778,5.0679802     -3.142907
129.08124999999998,-8.778,-5.0679802    -3.142907
129.08124999999998,8.778,-5.0679802     -3.142907
129.08124999999998,8.778,5.0679802      -3.142907
129.08124999999998,-0.0,-10.1359604     -3.142907
129.08124999999998,0.0,10.1359604       -3.142907
164.11249999999998,-11.7039981,-3.3786540999999994      -0.625931
164.11249999999998,-8.778,-8.4466343    -0.625931
164.11249999999998,-2.9259999999999997,11.8252865       -0.625931
164.11249999999998,8.778,-8.4466343     -0.625931
164.11249999999998,11.7039981,-3.3786540999999994       -0.625931
164.11249999999998,2.9259999999999997,11.8252865        -0.625931
2.2748046779999997,-11.7039981,0.0      1.892092
2.2748046779999997,-5.851999999999999,-10.1359604       1.892092
2.2748046779999997,-5.851999999999999,10.1359604        1.892092
2.2748046779999997,5.851999999999999,-10.1359604        1.892092
2.2748046779999997,11.7039981,0.0       1.892092
2.2748046779999997,5.851999999999999,10.1359604 1.892092
64.303125,-5.851999999999999,-6.7573063 4.409069
64.303125,5.851999999999999,-6.7573063  4.409069
64.303125,-8.778,-1.6893261     4.409069
64.303125,8.778,-1.6893261      4.409069
64.303125,-2.9259999999999997,8.4466343 4.409069
64.303125,2.9259999999999997,8.4466343  4.409069
308.571875,-5.851999999999999,3.3786540999999994        -5.660931
308.571875,-0.0,-6.7573063      -5.660931
308.571875,5.851999999999999,3.3786540999999994 -5.660931
0.653125,-11.7039981,3.3786540999999994 2.515516
0.653125,-2.9259999999999997,-11.8252865        2.515516
0.653125,-8.778,8.4466343       2.515516
0.653125,2.9259999999999997,-11.8252865 2.515516
0.653125,11.7039981,3.3786540999999994  2.515516
0.653125,8.778,8.4466343        2.515516
-178.95624999999998,-11.7039981,-3.3786540999999994     -2.519484
-178.95624999999998,-8.778,-8.4466343   -2.519484
-178.95624999999998,-2.9259999999999997,11.8252865      -2.519484
-178.95624999999998,8.778,-8.4466343    -2.519484
-178.95624999999998,2.9259999999999997,11.8252865       -2.519484
-178.95624999999998,11.7039981,-3.3786540999999994      -2.519484
-41.93359375,-11.7039981,-0.0   -3.142907
-41.93359375,-5.851999999999999,-10.1359604     -3.142907
-41.93359375,-5.851999999999999,10.1359604      -3.142907
-41.93359375,5.851999999999999,-10.1359604      -3.142907
-41.93359375,5.851999999999999,10.1359604       -3.142907
-41.93359375,11.7039981,-0.0    -3.142907
1152.35,0.0,0.0 6.927092
614.175,-11.7039981,6.7573063   -0.625931
614.175,11.7039981,6.7573063    -0.625931
614.175,-0.0,-13.5146145        -0.625931
-10.3015625,-8.778,5.0679802    -5.030367
-10.3015625,-8.778,-5.0679802   -5.030367
-10.3015625,-8.778,5.0679802    5.039632
-10.3015625,-8.778,-5.0679802   5.039632
-10.3015625,8.778,-5.0679802    -5.030367
-10.3015625,8.778,5.0679802     -5.030367
-10.3015625,8.778,-5.0679802    5.039632
-10.3015625,8.778,5.0679802     5.039632
-10.3015625,-0.0,-10.1359604    -5.030367
-10.3015625,0.0,10.1359604      -5.030367
-10.3015625,-0.0,-10.1359604    5.039632
-10.3015625,0.0,10.1359604      5.039632
174.44375,-5.851999999999999,-6.7573063 -5.660931
174.44375,5.851999999999999,-6.7573063  -5.660931
174.44375,-8.778,-1.6893261     -5.660931
174.44375,8.778,-1.6893261      -5.660931
174.44375,-2.9259999999999997,8.4466343 -5.660931
174.44375,2.9259999999999997,8.4466343  -5.660931
570.9499999999999,-11.7039981,-6.7573063        2.515516
570.9499999999999,11.7039981,-6.7573063 2.515516
570.9499999999999,0.0,13.5146145        2.515516
-982.775,-11.7039981,6.7573063  -2.519484
-982.775,11.7039981,6.7573063   -2.519484
-982.775,-0.0,-13.5146145       -2.519484
101.76875,-5.851999999999999,0.0        6.927092
101.76875,-2.9259999999999997,-5.0679802        6.927092
101.76875,-2.9259999999999997,5.0679802 6.927092
101.76875,2.9259999999999997,-5.0679802 6.927092
101.76875,2.9259999999999997,5.0679802  6.927092
101.76875,5.851999999999999,0.0 6.927092
-104.975,-2.9259999999999997,1.6893261  7.550516
-104.975,0.0,-3.3786540999999994        7.550516
-104.975,2.9259999999999997,1.6893261   7.550516
29.509375,-2.9259999999999997,-1.6893261        -7.554483
29.509375,2.9259999999999997,-1.6893261 -7.554483
29.509375,-0.0,3.3786540999999994       -7.554483
-237.2625,-14.6299981,1.6893261 -0.625931
-237.2625,-8.778,11.8252865     -0.625931
-237.2625,-5.851999999999999,-13.5146145        -0.625931
-237.2625,5.851999999999999,-13.5146145 -0.625931
-237.2625,14.6299981,1.6893261  -0.625931
-237.2625,8.778,11.8252865      -0.625931
-128.13125,-11.7039981,3.3786540999999994       4.409069
-128.13125,-8.778,8.4466343     4.409069
-128.13125,-2.9259999999999997,-11.8252865      4.409069
-128.13125,2.9259999999999997,-11.8252865       4.409069
-128.13125,8.778,8.4466343      4.409069
-128.13125,11.7039981,3.3786540999999994        4.409069
93.396875,-11.7039981,-0.0      -5.030367
93.396875,-5.851999999999999,-10.1359604        -5.030367
93.396875,-5.851999999999999,10.1359604 -5.030367
93.396875,-11.7039981,0.0       5.039632
93.396875,-5.851999999999999,-10.1359604        5.039632
93.396875,5.851999999999999,-10.1359604 -5.030367
93.396875,5.851999999999999,10.1359604  -5.030367
93.396875,11.7039981,-0.0       -5.030367
93.396875,-5.851999999999999,10.1359604 5.039632
93.396875,5.851999999999999,-10.1359604 5.039632
93.396875,11.7039981,0.0        5.039632
93.396875,5.851999999999999,10.1359604  5.039632
343.425,-14.6299981,-1.6893261  2.515516
343.425,-8.778,-11.8252865      2.515516
343.425,-5.851999999999999,13.5146145   2.515516
343.425,8.778,-11.8252865       2.515516
343.425,14.6299981,-1.6893261   2.515516
343.425,5.851999999999999,13.5146145    2.515516
-44.353125,-14.6299981,-5.0679802       0.004632
-44.353125,-14.6299981,5.0679802        0.004632
-44.353125,-11.7039981,-10.1359604      0.004632
-44.353125,-11.7039981,10.1359604       0.004632
-44.353125,-2.9259999999999997,-15.2039406      0.004632
-44.353125,2.9259999999999997,-15.2039406       0.004632
-44.353125,-2.9259999999999997,15.2039406       0.004632
-44.353125,11.7039981,-10.1359604       0.004632
-44.353125,2.9259999999999997,15.2039406        0.004632
-44.353125,14.6299981,-5.0679802        0.004632
-44.353125,14.6299981,5.0679802 0.004632
-44.353125,11.7039981,10.1359604        0.004632
-271.9375,-14.6299981,1.6893261 -2.519484
-271.9375,-8.778,11.8252865     -2.519484
-271.9375,-5.851999999999999,-13.5146145        -2.519484
-271.9375,5.851999999999999,-13.5146145 -2.519484
-271.9375,14.6299981,1.6893261  -2.519484
-271.9375,8.778,11.8252865      -2.519484
5760.8,-0.0,-0.0        -8.177907
-220.39999999999998,-5.851999999999999,-3.3786540999999994      7.550516
-220.39999999999998,0.0,6.7573063       7.550516
-220.39999999999998,5.851999999999999,-3.3786540999999994       7.550516
-1146.6499999999999,-5.851999999999999,3.3786540999999994       -7.554483
-1146.6499999999999,-0.0,-6.7573063     -7.554483
-1146.6499999999999,5.851999999999999,3.3786540999999994        -7.554483
92.921875,-14.6299981,5.0679802 1.892092
92.921875,-14.6299981,-5.0679802        1.892092
92.921875,-11.7039981,-10.1359604       1.892092
92.921875,-11.7039981,10.1359604        1.892092
92.921875,-2.9259999999999997,-15.2039406       1.892092
92.921875,2.9259999999999997,-15.2039406        1.892092
92.921875,-2.9259999999999997,15.2039406        1.892092
92.921875,11.7039981,-10.1359604        1.892092
92.921875,2.9259999999999997,15.2039406 1.892092
92.921875,14.6299981,-5.0679802 1.892092
92.921875,14.6299981,5.0679802  1.892092
92.921875,11.7039981,10.1359604 1.892092
-959.5,-11.7039981,-6.7573063   4.409069
-959.5,11.7039981,-6.7573063    4.409069
-959.5,0.0,13.5146145   4.409069
49.05859375,-11.7039981,3.3786540999999994      -5.660931
49.05859375,-2.9259999999999997,-11.8252865     -5.660931
49.05859375,-8.778,8.4466343    -5.660931
49.05859375,2.9259999999999997,-11.8252865      -5.660931
49.05859375,8.778,8.4466343     -5.660931
49.05859375,11.7039981,3.3786540999999994       -5.660931
-110.55624999999999,-11.7039981,-10.1359604     -3.142907
-110.55624999999999,-14.6299981,5.0679802       -3.142907
-110.55624999999999,-14.6299981,-5.0679802      -3.142907
-110.55624999999999,-11.7039981,10.1359604      -3.142907
-110.55624999999999,-2.9259999999999997,-15.2039406     -3.142907
-110.55624999999999,2.9259999999999997,-15.2039406      -3.142907
-110.55624999999999,-2.9259999999999997,15.2039406      -3.142907
-110.55624999999999,14.6299981,-5.0679802       -3.142907
-110.55624999999999,11.7039981,-10.1359604      -3.142907
-110.55624999999999,2.9259999999999997,15.2039406       -3.142907
-110.55624999999999,14.6299981,5.0679802        -3.142907
-110.55624999999999,11.7039981,10.1359604       -3.142907
124.271875,-8.778,-5.0679802    6.927092
124.271875,-8.778,5.0679802     6.927092
124.271875,8.778,-5.0679802     6.927092
124.271875,8.778,5.0679802      6.927092
124.271875,-0.0,-10.1359604     6.927092
124.271875,0.0,10.1359604       6.927092
-158.17499999999998,-5.851999999999999,-0.0     -8.177907
-158.17499999999998,-2.9259999999999997,5.0679802       -8.177907
-158.17499999999998,-2.9259999999999997,-5.0679802      -8.177907
-158.17499999999998,2.9259999999999997,-5.0679802       -8.177907
-158.17499999999998,5.851999999999999,-0.0      -8.177907
-158.17499999999998,2.9259999999999997,5.0679802        -8.177907
-172.72187499999998,-5.851999999999999,6.7573063        7.550516
-172.72187499999998,5.851999999999999,6.7573063 7.550516
-172.72187499999998,-8.778,1.6893261    7.550516
-172.72187499999998,8.778,1.6893261     7.550516
-172.72187499999998,-2.9259999999999997,-8.4466343      7.550516
-172.72187499999998,2.9259999999999997,-8.4466343       7.550516
-86.80624999999999,-5.851999999999999,-6.7573063        -7.554483
-86.80624999999999,5.851999999999999,-6.7573063 -7.554483
-86.80624999999999,-8.778,-1.6893261    -7.554483
-86.80624999999999,8.778,-1.6893261     -7.554483
-86.80624999999999,-2.9259999999999997,8.4466343        -7.554483
-86.80624999999999,2.9259999999999997,8.4466343 -7.554483
-950.4749999999999,0.0,16.893266699999998       -0.625931
-950.4749999999999,-14.6299981,-8.4466343       -0.625931
-950.4749999999999,14.6299981,-8.4466343        -0.625931
-512.525,-14.6299981,-1.6893261 4.409069
-512.525,-8.778,-11.8252865     4.409069
-512.525,-5.851999999999999,13.5146145  4.409069
-512.525,8.778,-11.8252865      4.409069
-512.525,14.6299981,-1.6893261  4.409069
-512.525,5.851999999999999,13.5146145   4.409069
589.7125,-11.7039981,-6.7573063 -5.660931
589.7125,11.7039981,-6.7573063  -5.660931
589.7125,0.0,13.5146145 -5.660931
1115.3,-0.0,-16.893266699999998 2.515516
1115.3,-14.6299981,8.4466343    2.515516
1115.3,14.6299981,8.4466343     2.515516
-178.36249999999998,-17.555998099999996,-0.0    0.004632
-178.36249999999998,8.778,-15.2039406   0.004632
-178.36249999999998,-8.778,15.2039406   0.004632
-178.36249999999998,17.555998099999996,-0.0     0.004632
-178.36249999999998,-8.778,-15.2039406  0.004632
-178.36249999999998,8.778,15.2039406    0.004632
-732.925,0.0,16.893266699999998 -2.519484
-732.925,-14.6299981,-8.4466343 -2.519484
-732.925,14.6299981,-8.4466343  -2.519484
433.2,-11.7039981,0.0   6.927092
433.2,-5.851999999999999,-10.1359604    6.927092
433.2,-5.851999999999999,10.1359604     6.927092
433.2,5.851999999999999,-10.1359604     6.927092
433.2,11.7039981,0.0    6.927092
433.2,5.851999999999999,10.1359604      6.927092
402.5625,-17.555998099999996,-3.3786540999999994        -0.625931
402.5625,-5.851999999999999,16.893266699999998  -0.625931
402.5625,-11.7039981,-13.5146145        -0.625931
402.5625,11.7039981,-13.5146145 -0.625931
402.5625,5.851999999999999,16.893266699999998   -0.625931
402.5625,17.555998099999996,-3.3786540999999994 -0.625931
212.68124999999998,-17.555998099999996,0.0      1.892092
212.68124999999998,-8.778,-15.2039406   1.892092
212.68124999999998,-8.778,15.2039406    1.892092
212.68124999999998,8.778,-15.2039406    1.892092
212.68124999999998,17.555998099999996,0.0       1.892092
212.68124999999998,8.778,15.2039406     1.892092
-8.20859375,-14.6299981,5.0679802       -5.030367
-8.20859375,-14.6299981,-5.0679802      -5.030367
-8.20859375,-11.7039981,-10.1359604     -5.030367
-8.20859375,-11.7039981,10.1359604      -5.030367
-8.20859375,-14.6299981,5.0679802       5.039632
-8.20859375,2.9259999999999997,-15.2039406      -5.030367
-8.20859375,-2.9259999999999997,-15.2039406     -5.030367
-8.20859375,-14.6299981,-5.0679802      5.039632
-8.20859375,-11.7039981,-10.1359604     5.039632
-8.20859375,-2.9259999999999997,15.2039406      -5.030367
-8.20859375,2.9259999999999997,-15.2039406      5.039632
-8.20859375,-11.7039981,10.1359604      5.039632
-8.20859375,-2.9259999999999997,-15.2039406     5.039632
-8.20859375,11.7039981,-10.1359604      -5.030367
-8.20859375,2.9259999999999997,15.2039406       -5.030367
-8.20859375,14.6299981,-5.0679802       -5.030367
-8.20859375,14.6299981,5.0679802        -5.030367
-8.20859375,11.7039981,10.1359604       -5.030367
-8.20859375,-2.9259999999999997,15.2039406      5.039632
-8.20859375,11.7039981,-10.1359604      5.039632
-8.20859375,14.6299981,-5.0679802       5.039632
-8.20859375,2.9259999999999997,15.2039406       5.039632
-8.20859375,14.6299981,5.0679802        5.039632
-8.20859375,11.7039981,10.1359604       5.039632
-1.30625,-14.6299981,-1.6893261 -5.660931
-1.30625,-8.778,-11.8252865     -5.660931
-1.30625,-5.851999999999999,13.5146145  -5.660931
-1.30625,8.778,-11.8252865      -5.660931
-1.30625,5.851999999999999,13.5146145   -5.660931
-1.30625,14.6299981,-1.6893261  -5.660931
220.39999999999998,-2.9259999999999997,1.6893261        9.444068
220.39999999999998,0.0,-3.3786540999999994      9.444068
220.39999999999998,2.9259999999999997,1.6893261 9.444068
97.49374999999999,-17.555998099999996,3.3786540999999994        2.515516
97.49374999999999,-5.851999999999999,-16.893266699999998        2.515516
97.49374999999999,5.851999999999999,-16.893266699999998 2.515516
97.49374999999999,-11.7039981,13.5146145        2.515516
97.49374999999999,17.555998099999996,3.3786540999999994 2.515516
97.49374999999999,11.7039981,13.5146145 2.515516
298.0625,-17.555998099999996,-3.3786540999999994        -2.519484
298.0625,-5.851999999999999,16.893266699999998  -2.519484
298.0625,-11.7039981,-13.5146145        -2.519484
298.0625,11.7039981,-13.5146145 -2.519484
298.0625,17.555998099999996,-3.3786540999999994 -2.519484
298.0625,5.851999999999999,16.893266699999998   -2.519484
417.28749999999997,-17.555998099999996,-0.0     -3.142907
417.28749999999997,-8.778,-15.2039406   -3.142907
417.28749999999997,-8.778,15.2039406    -3.142907
417.28749999999997,8.778,-15.2039406    -3.142907
417.28749999999997,17.555998099999996,-0.0      -3.142907
417.28749999999997,8.778,15.2039406     -3.142907
16.426464838999998,-8.778,-5.0679802    -8.177907
16.426464838999998,-8.778,5.0679802     -8.177907
16.426464838999998,8.778,5.0679802      -8.177907
16.426464838999998,8.778,-5.0679802     -8.177907
16.426464838999998,-0.0,-10.1359604     -8.177907
16.426464838999998,0.0,10.1359604       -8.177907
478.5625,-8.778,-8.4466343      7.550516
478.5625,-11.7039981,-3.3786540999999994        7.550516
478.5625,-2.9259999999999997,11.8252865 7.550516
478.5625,8.778,-8.4466343       7.550516
478.5625,2.9259999999999997,11.8252865  7.550516
478.5625,11.7039981,-3.3786540999999994 7.550516
-661.1999999999999,-8.778,8.4466343     -7.554483
-661.1999999999999,-11.7039981,3.3786540999999994       -7.554483
-661.1999999999999,-2.9259999999999997,-11.8252865      -7.554483
-661.1999999999999,2.9259999999999997,-11.8252865       -7.554483
-661.1999999999999,11.7039981,3.3786540999999994        -7.554483
-661.1999999999999,8.778,8.4466343      -7.554483
135.4046875,-14.6299981,11.8252865      -0.625931
135.4046875,-17.555998099999996,6.7573063       -0.625931
135.4046875,-2.9259999999999997,-18.582594699999998     -0.625931
135.4046875,2.9259999999999997,-18.582594699999998      -0.625931
135.4046875,17.555998099999996,6.7573063        -0.625931
135.4046875,14.6299981,11.8252865       -0.625931
-919.125,-0.0,-16.893266699999998       4.409069
-919.125,-14.6299981,8.4466343  4.409069
-919.125,14.6299981,8.4466343   4.409069

End of input

&SCF
Occupied
9
Iterations
   50  100
End of Input

&RASSCF
LumOrb
Symmetry
1
Spin
2
Nactel
1 0 0
CIRoot
9 9 1
inactive
9
ras2
9
End of Input

>>> COPY chromium_so_cf.JobIph $SLURM_SUBMIT_DIR/chromium_so_cf.doublet.JobIph

>>> COPY $SLURM_SUBMIT_DIR/chromium_so_cf.doublet.JobIph ./JOB002

&RASSI
NROFJobIph
1 All
SpinOrbit
End of Input

EOF

-- ----------------------------------

--- Start Module: seward at Wed Mar 26 23:42:17 2025 ---

()()()()()()()()()()()()()()()()()()()()()()()()()()()()()()()()()()()()()()()()()()()()()()()()()()

                                              &SEWARD

                                   only a single process is used
                       available to each process: 4.1 GB of memory, 1 thread?
                                            pid: 3974633
()()()()()()()()()()()()()()()()()()()()()()()()()()()()()()()()()()()()()()()()()()()()()()()()()()

 The speed of LIGHT in this CALCULATION =   137.03599917700001     
               SEWARD will generate:
                  Multipole Moment integrals up to order  2
                  Kinetic Energy integrals
                  Nuclear Attraction integrals (point charge)
                  One-Electron Hamiltonian integrals
                  Velocity integrals
                  Relativistic Douglas-Kroll-Hess integrals:
                    - Parametrization         : EXP
                    - DKH order of Hamiltonian: 2
                    - DKH order of Properties : 0
                         - multipole moment operators
                         - electric potential operators
                         - contact operators
                  External field from   414 point(s) added to the one-electron Hamiltonian
                  Orbital angular momentum around (-0.0000 -0.0000  0.0088 )
                  Velocity quadrupole around (-0.0000 -0.0000  0.0088 )
                  Atomic mean-field integrals
                  Two-Electron Repulsion integrals

                   Integrals are discarded if absolute value <: 0.10E-13
                   Integral cutoff threshold is set to       <: 0.10E-15

++    Symmetry information:
      ---------------------

                    Character Table for C1 

                             E  
                    a        1  x, y, xy, Rz, z, xz, Ry, yz, Rx, I
--


++    Basis set information:
      ----------------------


      Basis set label: CR.ANO-RCC.ROOS.21S15P10D6F4G2H.10S10P8D6F4G2H......

      Electronic valence basis set:
      ------------------
      Associated Effective Charge  24.000000 au
      Associated Actual Charge     24.000000 au
      Nuclear Model: Point charge

      Shell  nPrim  nBasis  Cartesian Spherical Contaminant
         s      21      10        X                  
         p      15      10        X                  
         d      10       8                 X         
         f       6       6                 X         
         g       4       4                 X         
         h       2       2                 X         
--


++    Molecular structure info:
      -------------------------

                    ************************************************ 
                    **** Cartesian Coordinates / Bohr, Angstrom **** 
                    ************************************************ 

     Center  Label                x              y              z                     x              y              z
        1      CR              -0.000000      -0.000000       0.008754             -0.000000      -0.000000       0.004632
--


++    Operator info:
      --------------


  Net charge from external field:   -39.268449999999902     
--


            Nuclear Potential Energy              0.00000000 au

                    Nuclear-External Field Potential Energy    -115.56593647 au
                    External Field Potential Energy             845.07205336 au 


            Total Nuclear Potential Energy           -115.56593647 au


      Basis set specifications :
      Symmetry species         a  
      Basis functions          180

 Sorry, Molden does not know how to handle
 functions with angular momentum larger than g
Note: The following floating-point exceptions are signalling: IEEE_UNDERFLOW_FLAG IEEE_DENORMAL
--- Stop Module: seward at Wed Mar 26 23:42:25 2025 /rc=_RC_ALL_IS_WELL_ ---
*** files: chromium_so_cf.GssOrb xmldump
    saved to directory /home4/s4752295/Internship/Initial_simulations/Point_charge_model/1_electron/Madelung_charges_9_active_space/Cr
--- Module seward spent 8 seconds ---

*** symbolic link created: INPORB -> chromium_so_cf.GssOrb
--- Start Module: scf at Wed Mar 26 23:42:25 2025 ---

()()()()()()()()()()()()()()()()()()()()()()()()()()()()()()()()()()()()()()()()()()()()()()()()()()

                                                &SCF

                                   only a single process is used
                       available to each process: 4.1 GB of memory, 1 thread?
                                            pid: 3974640
()()()()()()()()()()()()()()()()()()()()()()()()()()()()()()()()()()()()()()()()()()()()()()()()()()

++    Input section:
      --------------

      Header of the integral files:
      
       Integrals generated by seward 4.2.0  , Wed Mar 26 23:42:17 2025


      Cartesian coordinates in Angstrom:
      -----------------------------------------------------
      No.  Label        X            Y            Z        
      -----------------------------------------------------
       1   CR        -0.00000000  -0.00000000   0.00463220
      -----------------------------------------------------
      Nuclear repulsion energy = -115.56593647
--

++    Orbital specifications:
      -----------------------

      Symmetry species               1
                                     a
      Frozen orbitals                0
      Occupied orbitals              9
      Secondary orbitals           171
      Deleted orbitals               0
      Total number of orbitals     180
      Number of basis functions    180
--

      Molecular charge                           6.000

++    Optimization specifications:
      ----------------------------

      SCF Algorithm: Conventional
      Minimized density differences are used
      Number of density matrices in core                5
      Maximum number of NDDO SCF iterations            50
      Maximum number of HF SCF iterations             100
      Threshold for SCF energy change            0.10E-08
      Threshold for density matrix               0.10E-03
      Threshold for Fock matrix                  0.15E-03
      Threshold for linear dependence            0.10E-08
      Threshold at which DIIS is turned on       0.15E+00
      Threshold at which QNR/C2DIIS is turned on 0.75E-01
      Threshold for Norm(delta) (QNR/C2DIIS)     0.20E-04
      DIIS extrapolation of the SCF procedure
      All orbitals punched on: SCFORB
--

      Detected guessorb starting orbitals                                             


++ Convergence information
                                   SCF        iterations: Energy and convergence statistics

Iter     Tot. SCF        One-elec.       Two-elec.     Energy      Max Dij or  Max Fij      DNorm      TNorm      AccCon     Time
         Energy          Energy          Energy        Change      Delta Norm                                                in Sec.

 The total and one-electron energies are shifted by a value of      1000. a.u.

   1   -68.498787350  -258.309513960   305.376663078   0.00E+00    0.20E+00*   0.40E+00*    0.60E+01   0.25E+03   None         1.
   2   -69.120049548  -270.805794488   317.251681408  -0.62E+00*   0.15E-01*   0.77E-01*    0.11E+01   0.25E+03   EDIIS        1.
   3   -69.129786196  -269.352781874   315.788932146  -0.97E-02*   0.42E-02*   0.12E-01*    0.87E-01   0.25E+03   EDIIS        1.
   4   -69.130042319  -269.592082245   316.027976395  -0.26E-03*   0.25E-03*   0.17E-02*    0.84E-02   0.25E+03   c2DIIS       1.
   5   -69.130051525  -269.562028059   315.997913002  -0.92E-05*   0.61E-04*   0.11E-03     0.74E-03   0.25E+03   QNRc2DIIS    1.
   6   -69.130051557  -269.561278632   315.997163543  -0.32E-07*   0.12E-04    0.21E-04     0.90E-04   0.25E+03   QNRc2DIIS    1.
   7   -69.130051558  -269.561408955   315.997293865  -0.14E-08*   0.19E-05    0.33E-05     0.11E-04   0.25E+03   QNRc2DIIS    1.
   8   -69.130051559  -269.561429835   315.997314745  -0.26E-10    0.85E-06    0.12E-05     0.23E-03   0.25E+03   QNRc2DIIS    1.

       Convergence after  8 Macro Iterations
--

 *****************************************************************************************************************************
 *                                                                                                                           *
 *                                             SCF/KS-DFT Program, Final results                                             *
 *                                                                                                                           *
 *                                                                                                                           *
 *                                                                                                                           *
 *                                                       Final Results                                                       *
 *                                                                                                                           *
 *****************************************************************************************************************************

::    Total SCF energy                              -1069.1300515585
      One-electron energy                           -1269.5614298353
      Two-electron energy                             315.9973147451
      Nuclear repulsion energy                       -115.5659364683
      Kinetic energy (interpolated)                  1078.4318273283
      Virial theorem                                    0.9913747207
      Total spin, S(S+1)                                0.0000000000
      Total spin, S                                     0.0000000000
      Max non-diagonal density matrix element           0.0000013109
      Max non-diagonal Fock matrix element              0.0000005507


      All orbitals with orbital energies smaller than  E(LUMO)+0.5 are printed

++    Molecular orbitals:
      -------------------

      Title: SCF orbitals

      Molecular orbitals for symmetry species 1: a  

          Orbital            1         2         3         4         5         6         7         8         9        10    
          Energy         -221.4891  -26.1699  -21.7937  -21.7937  -21.7933   -2.4767   -1.0930   -1.0930   -1.0810    1.5550
          Occ. No.          2.0000    2.0000    2.0000    2.0000    2.0000    2.0000    2.0000    2.0000    2.0000    0.0000

        1 CR     1s         1.0000   -0.0001    0.0000   -0.0000   -0.0000    0.0001   -0.0000    0.0000    0.0000   -0.0000
        2 CR     2s         0.0001    1.0000    0.0000   -0.0000   -0.0019    0.0021    0.0000   -0.0000   -0.0005   -0.0000
        3 CR     3s        -0.0001   -0.0021   -0.0000    0.0000    0.0005    0.9934    0.0000   -0.0000   -0.0625    0.0000
        4 CR     4s         0.0000    0.0001    0.0000   -0.0000   -0.0001   -0.0499   -0.0000    0.0000    0.0133    0.0000
        5 CR     5s        -0.0000   -0.0004   -0.0000    0.0000    0.0001    0.0730    0.0000   -0.0000   -0.0202   -0.0000
        6 CR     6s         0.0000    0.0003    0.0000   -0.0000   -0.0001   -0.0298   -0.0000    0.0000    0.0080   -0.0000
        7 CR     7s        -0.0000   -0.0001   -0.0000    0.0000    0.0000   -0.0089   -0.0000    0.0000    0.0029   -0.0000
        8 CR     8s         0.0000   -0.0000    0.0000   -0.0000   -0.0000    0.0065    0.0000   -0.0000   -0.0020   -0.0000
        9 CR     9s        -0.0001    0.0002    0.0000   -0.0000   -0.0000    0.0021    0.0000   -0.0000   -0.0007   -0.0000
       10 CR    10s         0.0001   -0.0003   -0.0000    0.0000    0.0000    0.0004    0.0000   -0.0000   -0.0001   -0.0000
       11 CR     2px        0.0000    0.0019   -0.0015    0.0000    1.0000   -0.0004   -0.0000    0.0000    0.0033   -0.0000
       12 CR     3px       -0.0000    0.0004    0.0000   -0.0000   -0.0031    0.0654   -0.0011    0.0000    0.9876   -0.0000
       13 CR     4px        0.0000   -0.0001   -0.0000    0.0000    0.0005   -0.0011    0.0001   -0.0000   -0.0905    0.0000
       14 CR     5px       -0.0000    0.0001    0.0000   -0.0000   -0.0008   -0.0016   -0.0001    0.0000    0.0978   -0.0000
       15 CR     6px        0.0000   -0.0000   -0.0000    0.0000    0.0002    0.0017    0.0000   -0.0000   -0.0022   -0.0000
       16 CR     7px       -0.0000    0.0000    0.0000   -0.0000   -0.0000   -0.0012    0.0000   -0.0000   -0.0153    0.0000
       17 CR     8px        0.0000   -0.0000    0.0000   -0.0000   -0.0002   -0.0004   -0.0000    0.0000    0.0025    0.0000
       18 CR     9px       -0.0000    0.0000   -0.0000    0.0000    0.0003    0.0004   -0.0000    0.0000    0.0037   -0.0000
       19 CR    10px        0.0000   -0.0000    0.0000   -0.0000   -0.0003    0.0002   -0.0000   -0.0000    0.0000   -0.0000
       20 CR    11px       -0.0000    0.0000   -0.0000    0.0000    0.0002    0.0000    0.0000   -0.0000   -0.0004    0.0000
       21 CR     2py       -0.0000   -0.0000    0.0000    1.0000   -0.0000   -0.0000    0.0000    0.0032    0.0000    0.0000
       22 CR     3py       -0.0000    0.0000   -0.0000   -0.0031    0.0000   -0.0000    0.0000    0.9903   -0.0000    0.0011
       23 CR     4py       -0.0000   -0.0000    0.0000    0.0005   -0.0000    0.0000   -0.0000   -0.0904    0.0000   -0.0016
       24 CR     5py        0.0000    0.0000   -0.0000   -0.0008    0.0000   -0.0000    0.0000    0.0971   -0.0000    0.0011
       25 CR     6py       -0.0000   -0.0000    0.0000    0.0002   -0.0000    0.0000   -0.0000   -0.0018    0.0000    0.0002
       26 CR     7py        0.0000    0.0000   -0.0000   -0.0000   -0.0000   -0.0000   -0.0000   -0.0155    0.0000   -0.0003
       27 CR     8py       -0.0000   -0.0000   -0.0000   -0.0002    0.0000    0.0000    0.0000    0.0024   -0.0000   -0.0001
       28 CR     9py        0.0000    0.0000    0.0000    0.0003   -0.0000   -0.0000    0.0000    0.0038   -0.0000    0.0001
       29 CR    10py       -0.0000   -0.0000   -0.0000   -0.0003    0.0000    0.0000    0.0000    0.0001   -0.0000    0.0000
       30 CR    11py        0.0000    0.0000    0.0000    0.0002   -0.0000   -0.0000   -0.0000   -0.0004    0.0000    0.0000
       31 CR     2pz        0.0000    0.0000    1.0000   -0.0000    0.0015   -0.0000    0.0032   -0.0000    0.0000   -0.0000
       32 CR     3pz       -0.0000    0.0000   -0.0031    0.0000   -0.0000    0.0000    0.9903   -0.0000    0.0011   -0.0000
       33 CR     4pz        0.0000   -0.0000    0.0005   -0.0000    0.0000   -0.0000   -0.0904    0.0000   -0.0001    0.0000
       34 CR     5pz       -0.0000    0.0000   -0.0008    0.0000   -0.0000   -0.0000    0.0971   -0.0000    0.0001   -0.0000
       35 CR     6pz        0.0000   -0.0000    0.0002   -0.0000    0.0000    0.0000   -0.0018    0.0000   -0.0000   -0.0000
       36 CR     7pz       -0.0000    0.0000   -0.0000    0.0000   -0.0000   -0.0000   -0.0155    0.0000   -0.0000    0.0000
       37 CR     8pz        0.0000   -0.0000   -0.0002    0.0000   -0.0000   -0.0000    0.0024   -0.0000    0.0000    0.0000
       38 CR     9pz       -0.0000    0.0000    0.0003   -0.0000    0.0000    0.0000    0.0038   -0.0000    0.0000   -0.0000
       39 CR    10pz        0.0000   -0.0000   -0.0003    0.0000   -0.0000    0.0000    0.0001   -0.0000    0.0000   -0.0000
       40 CR    11pz       -0.0000    0.0000    0.0002   -0.0000    0.0000    0.0000   -0.0004    0.0000   -0.0000   -0.0000
       41 CR     3d2-      -0.0000    0.0000    0.0000    0.0002   -0.0000   -0.0000    0.0000    0.0375   -0.0000   -0.0329
       42 CR     4d2-      -0.0000   -0.0000   -0.0000   -0.0001    0.0000    0.0000   -0.0000   -0.0085    0.0000    0.0108
       43 CR     5d2-       0.0000    0.0000    0.0000    0.0001   -0.0000   -0.0000   -0.0000   -0.0049    0.0000   -0.0000
       44 CR     6d2-      -0.0000   -0.0000   -0.0000   -0.0001    0.0000    0.0000    0.0000    0.0025   -0.0000   -0.0006
       45 CR     7d2-       0.0000    0.0000    0.0000    0.0000   -0.0000   -0.0000    0.0000    0.0014   -0.0000   -0.0005
       46 CR     8d2-      -0.0000   -0.0000   -0.0000   -0.0000    0.0000    0.0000   -0.0000   -0.0005    0.0000    0.0002
       47 CR     9d2-       0.0000    0.0000    0.0000    0.0000   -0.0000   -0.0000   -0.0000   -0.0008    0.0000    0.0001
       48 CR    10d2-      -0.0000    0.0000   -0.0000   -0.0000    0.0000   -0.0000   -0.0000   -0.0001   -0.0000    0.0000
       49 CR     3d1-      -0.0000    0.0000    0.0000    0.0000    0.0000   -0.0000    0.0000    0.0000   -0.0000    0.9450
       50 CR     4d1-       0.0000   -0.0000   -0.0000   -0.0000   -0.0000    0.0000   -0.0000   -0.0000    0.0000   -0.3224
       51 CR     5d1-      -0.0000    0.0000    0.0000    0.0000    0.0000   -0.0000   -0.0000   -0.0000   -0.0000   -0.0014
       52 CR     6d1-      -0.0000   -0.0000   -0.0000   -0.0000   -0.0000    0.0000    0.0000    0.0000    0.0000    0.0192
       53 CR     7d1-       0.0000    0.0000    0.0000    0.0000    0.0000   -0.0000    0.0000    0.0000   -0.0000    0.0160
       54 CR     8d1-      -0.0000   -0.0000   -0.0000   -0.0000   -0.0000   -0.0000    0.0000    0.0000    0.0000   -0.0052
       55 CR     9d1-       0.0000    0.0000    0.0000    0.0000    0.0000   -0.0000    0.0000    0.0000   -0.0000   -0.0046
       56 CR    10d1-       0.0000   -0.0000   -0.0000   -0.0000   -0.0000    0.0000    0.0000    0.0000    0.0000   -0.0004
       57 CR     3d0        0.0000    0.0000    0.0000   -0.0000   -0.0001   -0.0000    0.0001   -0.0000   -0.0223    0.0000
       58 CR     4d0       -0.0000   -0.0000   -0.0000    0.0000    0.0001   -0.0001   -0.0000    0.0000    0.0050   -0.0000
       59 CR     5d0        0.0000    0.0000    0.0000   -0.0000   -0.0000    0.0001   -0.0000    0.0000    0.0029   -0.0000
       60 CR     6d0       -0.0000   -0.0000   -0.0000    0.0000    0.0000    0.0000    0.0000   -0.0000   -0.0015    0.0000
       61 CR     7d0        0.0000   -0.0000    0.0000   -0.0000   -0.0000   -0.0000    0.0000   -0.0000   -0.0008    0.0000
       62 CR     8d0       -0.0000    0.0000   -0.0000    0.0000    0.0000   -0.0000   -0.0000    0.0000    0.0003   -0.0000
       63 CR     9d0        0.0000   -0.0000    0.0000   -0.0000   -0.0000    0.0000   -0.0000    0.0000    0.0004   -0.0000
       64 CR    10d0       -0.0000    0.0000   -0.0000    0.0000    0.0000    0.0000   -0.0000    0.0000    0.0001   -0.0000
       65 CR     3d1+      -0.0000   -0.0000    0.0002   -0.0000    0.0000   -0.0000    0.0375   -0.0000    0.0001    0.0000
       66 CR     4d1+       0.0000    0.0000   -0.0001    0.0000   -0.0000    0.0000   -0.0085    0.0000   -0.0000   -0.0000
       67 CR     5d1+      -0.0000   -0.0000    0.0001   -0.0000    0.0000    0.0000   -0.0049    0.0000   -0.0000    0.0000
       68 CR     6d1+       0.0000    0.0000   -0.0001    0.0000   -0.0000   -0.0000    0.0025   -0.0000    0.0000    0.0000
       69 CR     7d1+      -0.0000   -0.0000    0.0000   -0.0000    0.0000   -0.0000    0.0014   -0.0000    0.0000    0.0000
       70 CR     8d1+       0.0000   -0.0000   -0.0000    0.0000   -0.0000    0.0000   -0.0005    0.0000   -0.0000   -0.0000
       71 CR     9d1+      -0.0000    0.0000    0.0000   -0.0000    0.0000    0.0000   -0.0008    0.0000   -0.0000   -0.0000
       72 CR    10d1+       0.0000   -0.0000   -0.0000    0.0000   -0.0000    0.0000   -0.0001    0.0000   -0.0000   -0.0000
       73 CR     3d2+      -0.0000   -0.0000   -0.0000    0.0000    0.0002    0.0000   -0.0000    0.0000    0.0386    0.0000
       74 CR     4d2+       0.0000    0.0000    0.0000   -0.0000   -0.0001    0.0002    0.0000   -0.0000   -0.0087   -0.0000
       75 CR     5d2+      -0.0000   -0.0000   -0.0000    0.0000    0.0001   -0.0001    0.0000   -0.0000   -0.0050   -0.0000
       76 CR     6d2+       0.0000    0.0000    0.0000   -0.0000   -0.0001   -0.0001   -0.0000    0.0000    0.0026    0.0000
       77 CR     7d2+      -0.0000    0.0000   -0.0000    0.0000    0.0000    0.0000   -0.0000    0.0000    0.0014    0.0000
       78 CR     8d2+       0.0000   -0.0000    0.0000   -0.0000   -0.0000    0.0000   -0.0000   -0.0000   -0.0005   -0.0000
       79 CR     9d2+      -0.0000    0.0000   -0.0000    0.0000    0.0000   -0.0000    0.0000   -0.0000   -0.0008   -0.0000
       80 CR    10d2+       0.0000   -0.0000    0.0000   -0.0000   -0.0000   -0.0000   -0.0000    0.0000   -0.0001   -0.0000
       81 CR     4f3-      -0.0000   -0.0000   -0.0000   -0.0000    0.0000    0.0000   -0.0000   -0.0000   -0.0000   -0.0015
       82 CR     5f3-       0.0000    0.0000    0.0000    0.0000   -0.0000   -0.0000    0.0000    0.0002    0.0000   -0.0007
       83 CR     6f3-      -0.0000   -0.0000   -0.0000   -0.0000    0.0000    0.0000    0.0000    0.0000   -0.0000    0.0001
       84 CR     7f3-       0.0000    0.0000    0.0000    0.0000   -0.0000   -0.0000   -0.0000   -0.0001    0.0000    0.0001
       85 CR     8f3-      -0.0000   -0.0000   -0.0000   -0.0000    0.0000    0.0000   -0.0000   -0.0000    0.0000    0.0000
       86 CR     9f3-       0.0000    0.0000    0.0000    0.0000   -0.0000   -0.0000    0.0000    0.0000    0.0000   -0.0000
       87 CR     4f2-      -0.0000   -0.0000   -0.0000   -0.0000    0.0000   -0.0000   -0.0000   -0.0000   -0.0000    0.0319
       88 CR     5f2-       0.0000    0.0000    0.0000    0.0000    0.0000    0.0000   -0.0000   -0.0000    0.0000    0.0139
       89 CR     6f2-      -0.0000   -0.0000   -0.0000   -0.0000   -0.0000   -0.0000    0.0000    0.0000   -0.0000   -0.0038
       90 CR     7f2-       0.0000   -0.0000    0.0000    0.0000    0.0000   -0.0000    0.0000    0.0000    0.0000   -0.0036
       91 CR     8f2-      -0.0000    0.0000    0.0000    0.0000   -0.0000    0.0000    0.0000    0.0000   -0.0000   -0.0006
       92 CR     9f2-       0.0000   -0.0000    0.0000    0.0000    0.0000   -0.0000   -0.0000   -0.0000    0.0000    0.0011
       93 CR     4f1-      -0.0000   -0.0000    0.0000    0.0000   -0.0000    0.0000    0.0000    0.0000   -0.0000    0.0004
       94 CR     5f1-       0.0000    0.0000   -0.0000   -0.0000    0.0000   -0.0000   -0.0000   -0.0001    0.0000    0.0002
       95 CR     6f1-      -0.0000   -0.0000    0.0000    0.0000   -0.0000    0.0000   -0.0000   -0.0000   -0.0000   -0.0000
       96 CR     7f1-       0.0000    0.0000   -0.0000   -0.0000    0.0000   -0.0000    0.0000    0.0000    0.0000   -0.0000
       97 CR     8f1-      -0.0000   -0.0000    0.0000    0.0000   -0.0000    0.0000    0.0000    0.0000   -0.0000   -0.0000
       98 CR     9f1-      -0.0000    0.0000   -0.0000   -0.0000    0.0000   -0.0000   -0.0000   -0.0000    0.0000    0.0000
       99 CR     4f0       -0.0000    0.0000    0.0000   -0.0000    0.0000    0.0000    0.0000   -0.0000    0.0000   -0.0000
      100 CR     5f0        0.0000   -0.0000   -0.0000    0.0000   -0.0000    0.0000   -0.0001    0.0000    0.0000   -0.0000
      101 CR     6f0       -0.0000   -0.0000    0.0000   -0.0000    0.0000   -0.0000   -0.0000    0.0000   -0.0000    0.0000
      102 CR     7f0        0.0000   -0.0000   -0.0000    0.0000   -0.0000   -0.0000    0.0001   -0.0000   -0.0000    0.0000
      103 CR     8f0        0.0000   -0.0000    0.0000   -0.0000   -0.0000   -0.0000    0.0000   -0.0000   -0.0000    0.0000
      104 CR     9f0        0.0000   -0.0000   -0.0000    0.0000   -0.0000   -0.0000   -0.0000    0.0000    0.0000   -0.0000
      105 CR     4f1+       0.0000   -0.0000    0.0000   -0.0000    0.0000   -0.0001    0.0000   -0.0000    0.0001    0.0000
      106 CR     5f1+      -0.0000    0.0000   -0.0000    0.0000   -0.0000   -0.0000    0.0000   -0.0000   -0.0001    0.0000
      107 CR     6f1+       0.0000   -0.0000   -0.0000    0.0000    0.0000    0.0000   -0.0000    0.0000   -0.0000   -0.0000
      108 CR     7f1+      -0.0000   -0.0000    0.0000   -0.0000   -0.0000    0.0000   -0.0000    0.0000    0.0001   -0.0000
      109 CR     8f1+       0.0000    0.0000   -0.0000    0.0000    0.0000   -0.0000   -0.0000    0.0000    0.0000   -0.0000
      110 CR     9f1+      -0.0000   -0.0000   -0.0000    0.0000   -0.0000   -0.0000    0.0000   -0.0000   -0.0000    0.0000
      111 CR     4f2+      -0.0000    0.0000   -0.0000    0.0000    0.0000    0.0000   -0.0000    0.0000    0.0000    0.0000
      112 CR     5f2+       0.0000   -0.0000    0.0000   -0.0000    0.0000    0.0000    0.0002   -0.0000    0.0000    0.0000
      113 CR     6f2+      -0.0000   -0.0000   -0.0000    0.0000   -0.0000   -0.0000    0.0000   -0.0000   -0.0000   -0.0000
      114 CR     7f2+       0.0000   -0.0000    0.0000   -0.0000    0.0000   -0.0000   -0.0001    0.0000   -0.0000   -0.0000
      115 CR     8f2+      -0.0000   -0.0000   -0.0000    0.0000   -0.0000   -0.0000   -0.0000    0.0000   -0.0000   -0.0000
      116 CR     9f2+       0.0000   -0.0000    0.0000   -0.0000   -0.0000   -0.0000    0.0000   -0.0000    0.0000    0.0000
      117 CR     4f3+      -0.0000    0.0000    0.0000   -0.0000   -0.0000    0.0001    0.0000   -0.0000   -0.0001    0.0000
      118 CR     5f3+       0.0000   -0.0000   -0.0000    0.0000    0.0000    0.0000    0.0000   -0.0000    0.0002    0.0000
      119 CR     6f3+      -0.0000    0.0000    0.0000   -0.0000   -0.0000   -0.0000   -0.0000    0.0000    0.0000   -0.0000
      120 CR     7f3+       0.0000    0.0000   -0.0000    0.0000    0.0000   -0.0000   -0.0000    0.0000   -0.0001   -0.0000
      121 CR     8f3+      -0.0000   -0.0000   -0.0000    0.0000   -0.0000    0.0000   -0.0000    0.0000   -0.0000   -0.0000
      122 CR     9f3+       0.0000    0.0000   -0.0000    0.0000    0.0000    0.0000    0.0000   -0.0000    0.0000    0.0000
      123 CR     5g4-      -0.0000   -0.0000    0.0000    0.0000   -0.0000    0.0000    0.0000    0.0001   -0.0000    0.0000
      124 CR     6g4-       0.0000    0.0000   -0.0000   -0.0000    0.0000    0.0000    0.0000    0.0001   -0.0000   -0.0000
      125 CR     7g4-      -0.0000   -0.0000    0.0000    0.0000   -0.0000   -0.0000    0.0000    0.0000    0.0000   -0.0000
      126 CR     8g4-       0.0000    0.0000    0.0000    0.0000    0.0000    0.0000   -0.0000   -0.0000   -0.0000   -0.0000
      127 CR     5g3-       0.0000    0.0000   -0.0000   -0.0000   -0.0000    0.0000   -0.0000   -0.0000   -0.0000    0.0002
      128 CR     6g3-      -0.0000   -0.0000    0.0000    0.0000    0.0000   -0.0000   -0.0000   -0.0000    0.0000    0.0008
      129 CR     7g3-       0.0000    0.0000   -0.0000   -0.0000   -0.0000    0.0000   -0.0000   -0.0000   -0.0000    0.0007
      130 CR     8g3-      -0.0000   -0.0000   -0.0000   -0.0000    0.0000   -0.0000   -0.0000   -0.0000   -0.0000    0.0004
      131 CR     5g2-      -0.0000   -0.0000   -0.0000   -0.0000    0.0000   -0.0000   -0.0000   -0.0000   -0.0000   -0.0000
      132 CR     6g2-       0.0000    0.0000    0.0000    0.0000   -0.0000   -0.0000   -0.0000   -0.0000    0.0000    0.0000
      133 CR     7g2-      -0.0000   -0.0000   -0.0000   -0.0000   -0.0000    0.0000   -0.0000   -0.0000   -0.0000    0.0000
      134 CR     8g2-       0.0000    0.0000   -0.0000   -0.0000    0.0000   -0.0000    0.0000    0.0000   -0.0000    0.0000
      135 CR     5g1-      -0.0000   -0.0000    0.0000    0.0000   -0.0000    0.0000    0.0000    0.0000    0.0000   -0.0001
      136 CR     6g1-       0.0000    0.0000    0.0000    0.0000   -0.0000   -0.0000    0.0000    0.0000   -0.0000   -0.0003
      137 CR     7g1-      -0.0000   -0.0000   -0.0000   -0.0000    0.0000    0.0000    0.0000    0.0000    0.0000   -0.0003
      138 CR     8g1-       0.0000    0.0000    0.0000    0.0000    0.0000   -0.0000    0.0000    0.0000   -0.0000   -0.0001
      139 CR     5g0        0.0000   -0.0000   -0.0000    0.0000    0.0000   -0.0000   -0.0000    0.0000    0.0000   -0.0000
      140 CR     6g0        0.0000    0.0000    0.0000   -0.0000   -0.0000   -0.0000   -0.0000    0.0000    0.0000   -0.0000
      141 CR     7g0       -0.0000   -0.0000   -0.0000    0.0000    0.0000    0.0000   -0.0000    0.0000    0.0000   -0.0000
      142 CR     8g0       -0.0000    0.0000   -0.0000    0.0000    0.0000    0.0000   -0.0000    0.0000   -0.0000   -0.0000
      143 CR     5g1+      -0.0000    0.0000   -0.0000    0.0000    0.0000    0.0000   -0.0001    0.0000    0.0000    0.0000
      144 CR     6g1+      -0.0000   -0.0000    0.0000   -0.0000    0.0000    0.0000   -0.0001    0.0000    0.0000   -0.0000
      145 CR     7g1+       0.0000    0.0000   -0.0000    0.0000    0.0000    0.0000   -0.0000    0.0000    0.0000   -0.0000
      146 CR     8g1+       0.0000   -0.0000   -0.0000    0.0000    0.0000   -0.0000    0.0000   -0.0000    0.0000   -0.0000
      147 CR     5g2+      -0.0000    0.0000    0.0000   -0.0000   -0.0000    0.0000    0.0000   -0.0000   -0.0001    0.0000
      148 CR     6g2+      -0.0000   -0.0000   -0.0000    0.0000    0.0000    0.0000    0.0000   -0.0000   -0.0001    0.0000
      149 CR     7g2+       0.0000    0.0000    0.0000   -0.0000   -0.0000   -0.0000    0.0000   -0.0000   -0.0000    0.0000
      150 CR     8g2+       0.0000   -0.0000    0.0000   -0.0000   -0.0000   -0.0000    0.0000   -0.0000    0.0000    0.0000
      151 CR     5g3+      -0.0000    0.0000    0.0000   -0.0000    0.0000    0.0000    0.0001   -0.0000    0.0000   -0.0000
      152 CR     6g3+      -0.0000   -0.0000   -0.0000    0.0000   -0.0000    0.0000    0.0000   -0.0000    0.0000    0.0000
      153 CR     7g3+       0.0000    0.0000    0.0000   -0.0000    0.0000    0.0000    0.0000   -0.0000    0.0000    0.0000
      154 CR     8g3+       0.0000   -0.0000    0.0000   -0.0000    0.0000   -0.0000   -0.0000    0.0000    0.0000    0.0000
      155 CR     5g4+       0.0000   -0.0000    0.0000   -0.0000    0.0000   -0.0000    0.0000   -0.0000    0.0001    0.0000
      156 CR     6g4+      -0.0000    0.0000   -0.0000    0.0000   -0.0000   -0.0000    0.0000   -0.0000    0.0001    0.0000
      157 CR     7g4+      -0.0000   -0.0000    0.0000   -0.0000    0.0000    0.0000    0.0000   -0.0000    0.0000    0.0000
      158 CR     8g4+      -0.0000    0.0000    0.0000   -0.0000    0.0000    0.0000    0.0000   -0.0000   -0.0000    0.0000
      159 CR     6h5-      -0.0000   -0.0000   -0.0000   -0.0000   -0.0000    0.0000   -0.0000   -0.0000   -0.0000    0.0000
      160 CR     7h5-       0.0000    0.0000    0.0000    0.0000    0.0000   -0.0000   -0.0000   -0.0000   -0.0000    0.0000
      161 CR     6h4-      -0.0000   -0.0000    0.0000    0.0000   -0.0000    0.0000    0.0000    0.0000   -0.0000    0.0001
      162 CR     7h4-       0.0000    0.0000   -0.0000   -0.0000    0.0000    0.0000    0.0000    0.0000   -0.0000    0.0001
      163 CR     6h3-      -0.0000   -0.0000    0.0000    0.0000   -0.0000    0.0000    0.0000    0.0000    0.0000   -0.0000
      164 CR     7h3-       0.0000    0.0000   -0.0000   -0.0000    0.0000   -0.0000    0.0000    0.0000   -0.0000   -0.0000
      165 CR     6h2-      -0.0000    0.0000    0.0000    0.0000   -0.0000    0.0000    0.0000    0.0000   -0.0000   -0.0001
      166 CR     7h2-       0.0000   -0.0000   -0.0000   -0.0000    0.0000    0.0000    0.0000    0.0000   -0.0000   -0.0001
      167 CR     6h1-      -0.0000   -0.0000   -0.0000   -0.0000   -0.0000    0.0000   -0.0000   -0.0000    0.0000   -0.0000
      168 CR     7h1-       0.0000    0.0000    0.0000    0.0000    0.0000   -0.0000   -0.0000   -0.0000   -0.0000   -0.0000
      169 CR     6h0        0.0000   -0.0000   -0.0000    0.0000   -0.0000   -0.0000   -0.0000    0.0000   -0.0000   -0.0000
      170 CR     7h0        0.0000   -0.0000    0.0000   -0.0000    0.0000   -0.0000   -0.0000    0.0000   -0.0000   -0.0000
      171 CR     6h1+       0.0000    0.0000    0.0000   -0.0000   -0.0000   -0.0000    0.0000   -0.0000   -0.0000   -0.0000
      172 CR     7h1+       0.0000   -0.0000   -0.0000    0.0000    0.0000   -0.0000    0.0000   -0.0000   -0.0000   -0.0000
      173 CR     6h2+      -0.0000    0.0000    0.0000   -0.0000    0.0000    0.0000    0.0000   -0.0000    0.0000    0.0000
      174 CR     7h2+      -0.0000    0.0000   -0.0000    0.0000   -0.0000    0.0000    0.0000   -0.0000    0.0000    0.0000
      175 CR     6h3+      -0.0000   -0.0000    0.0000   -0.0000    0.0000    0.0000    0.0000   -0.0000    0.0000    0.0000
      176 CR     7h3+      -0.0000    0.0000   -0.0000    0.0000   -0.0000    0.0000    0.0000   -0.0000    0.0000    0.0000
      177 CR     6h4+      -0.0000    0.0000   -0.0000    0.0000    0.0000    0.0000   -0.0000    0.0000    0.0000   -0.0000
      178 CR     7h4+      -0.0000    0.0000    0.0000   -0.0000   -0.0000    0.0000   -0.0000    0.0000    0.0000   -0.0000
      179 CR     6h5+       0.0000    0.0000    0.0000   -0.0000   -0.0000   -0.0000    0.0000   -0.0000   -0.0000    0.0000
      180 CR     7h5+       0.0000   -0.0000   -0.0000    0.0000    0.0000   -0.0000    0.0000   -0.0000   -0.0000    0.0000

          Orbital           11        12        13        14    
          Energy            1.5550    1.5593    1.5593    1.5611
          Occ. No.          0.0000    0.0000    0.0000    0.0000

        1 CR     1s        -0.0000    0.0000    0.0000   -0.0000
        2 CR     2s         0.0000   -0.0000    0.0000    0.0000
        3 CR     3s         0.0000   -0.0000    0.0000    0.0030
        4 CR     4s         0.0000   -0.0000    0.0000    0.0080
        5 CR     5s        -0.0000    0.0000   -0.0000   -0.0022
        6 CR     6s        -0.0000    0.0000   -0.0000   -0.0025
        7 CR     7s         0.0000   -0.0000    0.0000    0.0006
        8 CR     8s         0.0000   -0.0000    0.0000    0.0008
        9 CR     9s         0.0000    0.0000   -0.0000    0.0001
       10 CR    10s         0.0000    0.0000   -0.0000   -0.0000
       11 CR     2px       -0.0000    0.0000   -0.0000   -0.0004
       12 CR     3px       -0.0000    0.0001   -0.0000   -0.0368
       13 CR     4px        0.0000   -0.0001    0.0000    0.0538
       14 CR     5px       -0.0000    0.0001   -0.0000   -0.0397
       15 CR     6px       -0.0000    0.0000   -0.0000   -0.0080
       16 CR     7px        0.0000   -0.0000    0.0000    0.0116
       17 CR     8px        0.0000   -0.0000    0.0000    0.0022
       18 CR     9px       -0.0000    0.0000   -0.0000   -0.0030
       19 CR    10px       -0.0000    0.0000   -0.0000   -0.0013
       20 CR    11px       -0.0000    0.0000    0.0000   -0.0001
       21 CR     2py       -0.0000   -0.0000   -0.0004   -0.0000
       22 CR     3py       -0.0000   -0.0000   -0.0312   -0.0000
       23 CR     4py        0.0000    0.0000    0.0431   -0.0000
       24 CR     5py       -0.0000   -0.0000   -0.0334   -0.0000
       25 CR     6py       -0.0000   -0.0000   -0.0062    0.0000
       26 CR     7py        0.0000    0.0000    0.0098    0.0000
       27 CR     8py        0.0000    0.0000    0.0016    0.0000
       28 CR     9py       -0.0000   -0.0000   -0.0027   -0.0000
       29 CR    10py       -0.0000   -0.0000   -0.0011   -0.0000
       30 CR    11py       -0.0000   -0.0000   -0.0001   -0.0000
       31 CR     2pz       -0.0000   -0.0004    0.0000   -0.0000
       32 CR     3pz       -0.0010   -0.0312    0.0000   -0.0001
       33 CR     4pz        0.0015    0.0431   -0.0000    0.0001
       34 CR     5pz       -0.0010   -0.0334    0.0000   -0.0001
       35 CR     6pz       -0.0002   -0.0062    0.0000   -0.0000
       36 CR     7pz        0.0003    0.0098   -0.0000    0.0000
       37 CR     8pz        0.0001    0.0016   -0.0000    0.0000
       38 CR     9pz       -0.0001   -0.0027    0.0000   -0.0000
       39 CR    10pz       -0.0000   -0.0011    0.0000   -0.0000
       40 CR    11pz       -0.0000   -0.0001    0.0000   -0.0000
       41 CR     3d2-       0.0000    0.0000    0.9443    0.0000
       42 CR     4d2-      -0.0000   -0.0000   -0.3168   -0.0000
       43 CR     5d2-       0.0000   -0.0000   -0.0004   -0.0000
       44 CR     6d2-       0.0000    0.0000    0.0179   -0.0000
       45 CR     7d2-       0.0000    0.0000    0.0151    0.0000
       46 CR     8d2-      -0.0000   -0.0000   -0.0048    0.0000
       47 CR     9d2-      -0.0000   -0.0000   -0.0040    0.0000
       48 CR    10d2-      -0.0000   -0.0000   -0.0003    0.0000
       49 CR     3d1-      -0.0000    0.0000    0.0328    0.0000
       50 CR     4d1-       0.0000   -0.0000   -0.0115   -0.0000
       51 CR     5d1-       0.0000   -0.0000   -0.0001   -0.0000
       52 CR     6d1-      -0.0000    0.0000    0.0007    0.0000
       53 CR     7d1-      -0.0000    0.0000    0.0006    0.0000
       54 CR     8d1-       0.0000   -0.0000   -0.0002   -0.0000
       55 CR     9d1-       0.0000   -0.0000   -0.0002   -0.0000
       56 CR    10d1-       0.0000   -0.0000   -0.0000   -0.0000
       57 CR     3d0        0.8184   -0.0235    0.0000   -0.4724
       58 CR     4d0       -0.2792    0.0083   -0.0000    0.1574
       59 CR     5d0       -0.0012    0.0001   -0.0000   -0.0001
       60 CR     6d0        0.0166   -0.0005    0.0000   -0.0087
       61 CR     7d0        0.0139   -0.0004    0.0000   -0.0074
       62 CR     8d0       -0.0045    0.0001   -0.0000    0.0023
       63 CR     9d0       -0.0040    0.0001   -0.0000    0.0019
       64 CR    10d0       -0.0004    0.0000   -0.0000    0.0001
       65 CR     3d1+       0.0289    0.9444   -0.0000    0.0029
       66 CR     4d1+      -0.0094   -0.3168    0.0000   -0.0010
       67 CR     5d1+       0.0000   -0.0004    0.0000    0.0000
       68 CR     6d1+       0.0005    0.0179   -0.0000    0.0001
       69 CR     7d1+       0.0004    0.0151   -0.0000    0.0000
       70 CR     8d1+      -0.0002   -0.0048    0.0000   -0.0000
       71 CR     9d1+      -0.0001   -0.0040    0.0000   -0.0000
       72 CR    10d1+      -0.0000   -0.0003    0.0000   -0.0000
       73 CR     3d2+       0.4727   -0.0169    0.0000    0.8177
       74 CR     4d2+      -0.1612    0.0059   -0.0000   -0.2725
       75 CR     5d2+      -0.0007    0.0001   -0.0000    0.0001
       76 CR     6d2+       0.0096   -0.0003    0.0000    0.0151
       77 CR     7d2+       0.0080   -0.0003    0.0000    0.0128
       78 CR     8d2+      -0.0026    0.0001   -0.0000   -0.0041
       79 CR     9d2+      -0.0023    0.0001   -0.0000   -0.0033
       80 CR    10d2+      -0.0002    0.0000   -0.0000   -0.0002
       81 CR     4f3-       0.0000    0.0000    0.0400    0.0000
       82 CR     5f3-       0.0000    0.0000    0.0180   -0.0000
       83 CR     6f3-      -0.0000   -0.0000   -0.0043   -0.0000
       84 CR     7f3-      -0.0000   -0.0000   -0.0045   -0.0000
       85 CR     8f3-      -0.0000   -0.0000   -0.0008    0.0000
       86 CR     9f3-       0.0000    0.0000    0.0012   -0.0000
       87 CR     4f2-      -0.0000    0.0000    0.0010    0.0000
       88 CR     5f2-      -0.0000    0.0000    0.0002    0.0000
       89 CR     6f2-       0.0000   -0.0000   -0.0003   -0.0000
       90 CR     7f2-       0.0000   -0.0000   -0.0002   -0.0000
       91 CR     8f2-       0.0000   -0.0000   -0.0000   -0.0000
       92 CR     9f2-      -0.0000    0.0000    0.0001    0.0000
       93 CR     4f1-      -0.0000   -0.0000   -0.0103   -0.0000
       94 CR     5f1-      -0.0000   -0.0000   -0.0047   -0.0000
       95 CR     6f1-       0.0000    0.0000    0.0011    0.0000
       96 CR     7f1-       0.0000    0.0000    0.0012    0.0000
       97 CR     8f1-       0.0000    0.0000    0.0002   -0.0000
       98 CR     9f1-      -0.0000   -0.0000   -0.0003    0.0000
       99 CR     4f0       -0.0008   -0.0253    0.0000   -0.0000
      100 CR     5f0       -0.0004   -0.0114    0.0000    0.0000
      101 CR     6f0        0.0000    0.0027   -0.0000    0.0001
      102 CR     7f0        0.0001    0.0028   -0.0000    0.0000
      103 CR     8f0        0.0000    0.0005   -0.0000    0.0000
      104 CR     9f0       -0.0000   -0.0007    0.0000   -0.0000
      105 CR     4f1+       0.0252   -0.0006    0.0000   -0.0271
      106 CR     5f1+       0.0110   -0.0001    0.0000   -0.0123
      107 CR     6f1+      -0.0030    0.0002   -0.0000    0.0029
      108 CR     7f1+      -0.0029    0.0001   -0.0000    0.0030
      109 CR     8f1+      -0.0005    0.0000   -0.0000    0.0006
      110 CR     9f1+       0.0008   -0.0001    0.0000   -0.0008
      111 CR     4f2+       0.0011    0.0327   -0.0000    0.0001
      112 CR     5f2+       0.0006    0.0147   -0.0000    0.0001
      113 CR     6f2+      -0.0000   -0.0035    0.0000    0.0000
      114 CR     7f2+      -0.0001   -0.0037    0.0000    0.0000
      115 CR     8f2+      -0.0000   -0.0007    0.0000   -0.0000
      116 CR     9f2+       0.0000    0.0010   -0.0000   -0.0000
      117 CR     4f3+       0.0195   -0.0006    0.0000    0.0349
      118 CR     5f3+       0.0085   -0.0002    0.0000    0.0158
      119 CR     6f3+      -0.0023    0.0002   -0.0000   -0.0037
      120 CR     7f3+      -0.0022    0.0001   -0.0000   -0.0039
      121 CR     8f3+      -0.0004    0.0000   -0.0000   -0.0008
      122 CR     9f3+       0.0007   -0.0000    0.0000    0.0010
      123 CR     5g4-      -0.0000    0.0000    0.0003    0.0000
      124 CR     6g4-       0.0000    0.0000    0.0012   -0.0000
      125 CR     7g4-       0.0000    0.0000    0.0011    0.0000
      126 CR     8g4-       0.0000    0.0000    0.0006   -0.0000
      127 CR     5g3-      -0.0000   -0.0000   -0.0001    0.0000
      128 CR     6g3-      -0.0000   -0.0000   -0.0001    0.0000
      129 CR     7g3-      -0.0000   -0.0000   -0.0001    0.0000
      130 CR     8g3-      -0.0000   -0.0000   -0.0001    0.0000
      131 CR     5g2-       0.0000   -0.0000   -0.0001   -0.0000
      132 CR     6g2-      -0.0000   -0.0000   -0.0005    0.0000
      133 CR     7g2-      -0.0000   -0.0000   -0.0004    0.0000
      134 CR     8g2-      -0.0000   -0.0000   -0.0002    0.0000
      135 CR     5g1-       0.0000    0.0000    0.0001    0.0000
      136 CR     6g1-       0.0000    0.0000    0.0001   -0.0000
      137 CR     7g1-       0.0000    0.0000    0.0001   -0.0000
      138 CR     8g1-       0.0000    0.0000    0.0001   -0.0000
      139 CR     5g0       -0.0001   -0.0000    0.0000    0.0001
      140 CR     6g0       -0.0005   -0.0000    0.0000    0.0005
      141 CR     7g0       -0.0004   -0.0000    0.0000    0.0004
      142 CR     8g0       -0.0002   -0.0000    0.0000    0.0002
      143 CR     5g1+       0.0000   -0.0002    0.0000    0.0000
      144 CR     6g1+      -0.0000   -0.0010    0.0000    0.0000
      145 CR     7g1+      -0.0000   -0.0009    0.0000    0.0000
      146 CR     8g1+      -0.0000   -0.0005    0.0000    0.0000
      147 CR     5g2+       0.0001    0.0001   -0.0000   -0.0002
      148 CR     6g2+       0.0004    0.0001   -0.0000   -0.0007
      149 CR     7g2+       0.0004    0.0001   -0.0000   -0.0007
      150 CR     8g2+       0.0002    0.0001   -0.0000   -0.0003
      151 CR     5g3+      -0.0000    0.0002   -0.0000    0.0000
      152 CR     6g3+       0.0000    0.0008   -0.0000    0.0000
      153 CR     7g3+       0.0000    0.0008   -0.0000    0.0001
      154 CR     8g3+       0.0000    0.0004   -0.0000    0.0001
      155 CR     5g4+       0.0001    0.0001   -0.0000    0.0002
      156 CR     6g4+       0.0006    0.0001   -0.0000    0.0009
      157 CR     7g4+       0.0005    0.0001   -0.0000    0.0009
      158 CR     8g4+       0.0002    0.0001   -0.0000    0.0004
      159 CR     6h5-      -0.0000    0.0000    0.0002   -0.0000
      160 CR     7h5-      -0.0000    0.0000    0.0002   -0.0000
      161 CR     6h4-      -0.0000   -0.0000   -0.0000    0.0000
      162 CR     7h4-      -0.0000   -0.0000   -0.0000   -0.0000
      163 CR     6h3-       0.0000   -0.0000   -0.0001   -0.0000
      164 CR     7h3-       0.0000   -0.0000   -0.0001   -0.0000
      165 CR     6h2-       0.0000    0.0000    0.0000   -0.0000
      166 CR     7h2-       0.0000    0.0000    0.0000   -0.0000
      167 CR     6h1-       0.0000    0.0000    0.0000   -0.0000
      168 CR     7h1-       0.0000    0.0000    0.0000   -0.0000
      169 CR     6h0       -0.0000    0.0001   -0.0000   -0.0000
      170 CR     7h0       -0.0000    0.0001   -0.0000   -0.0000
      171 CR     6h1+      -0.0001    0.0000   -0.0000    0.0001
      172 CR     7h1+      -0.0001   -0.0000    0.0000    0.0001
      173 CR     6h2+       0.0000   -0.0001    0.0000    0.0000
      174 CR     7h2+       0.0000   -0.0001    0.0000    0.0000
      175 CR     6h3+       0.0000    0.0000   -0.0000   -0.0001
      176 CR     7h3+       0.0000    0.0000   -0.0000   -0.0001
      177 CR     6h4+      -0.0000    0.0001   -0.0000    0.0000
      178 CR     7h4+      -0.0000    0.0001   -0.0000    0.0000
      179 CR     6h5+       0.0001    0.0000   -0.0000    0.0001
      180 CR     7h5+       0.0001    0.0000   -0.0000    0.0002
--


++    Molecular charges:
      ------------------

      Mulliken charges per centre and basis function type
      ---------------------------------------------------

                CR    
      1s       2.0000
      2s       2.0000
      2px      2.0000
      2pz      2.0000
      2py      2.0000
      3s       1.9816
      3px      1.9591
      3pz      1.9612
      3py      1.9612
      4s       0.0053
      3d2+     0.0030
      3d1+     0.0028
      3d0      0.0010
      3d1-     0.0000
      3d2-     0.0028
      4px      0.0164
      4pz      0.0164
      4py      0.0164
      5s       0.0115
      4d2+     0.0002
      4d1+     0.0001
      4d0      0.0001
      4d1-     0.0000
      4d2-     0.0001
      5px      0.0191
      5pz      0.0189
      5py      0.0189
      6s       0.0019
      4f3+     0.0000
      4f2+     0.0000
      4f1+     0.0000
      4f0      0.0000
      4f1-     0.0000
      4f2-     0.0000
      4f3-     0.0000
      5d2+     0.0000
      5d1+     0.0000
      5d0      0.0000
      5d1-     0.0000
      5d2-     0.0000
      6px      0.0000
      6pz      0.0000
      6py      0.0000
      7s       0.0002
      5f3+     0.0000
      5f2+     0.0000
      5f1+     0.0000
      5f0      0.0000
      5f1-     0.0000
      5f2-     0.0000
      5f3-     0.0000
      6d2+     0.0000
      6d1+     0.0000
      6d0      0.0000
      6d1-     0.0000
      6d2-     0.0000
      7px      0.0005
      7pz      0.0005
      7py      0.0005
      5g4+     0.0000
      5g3+     0.0000
      5g2+     0.0000
      5g1+     0.0000
      5g0      0.0000
      5g1-     0.0000
      5g2-     0.0000
      5g3-     0.0000
      5g4-     0.0000
      6f3+     0.0000
      6f2+     0.0000
      6f1+     0.0000
      6f0      0.0000
      6f1-     0.0000
      6f2-     0.0000
      6f3-     0.0000
      6g4+     0.0000
      6g3+     0.0000
      6g2+     0.0000
      6g1+     0.0000
      6g0      0.0000
      6g1-     0.0000
      6g2-     0.0000
      6g3-     0.0000
      6g4-     0.0000
      6h5+     0.0000
      6h4+     0.0000
      6h3+     0.0000
      6h2+     0.0000
      6h1+     0.0000
      6h0      0.0000
      6h1-     0.0000
      6h2-     0.0000
      6h3-     0.0000
      6h4-     0.0000
      6h5-     0.0000
      7d2+     0.0000
      7d1+     0.0000
      7d0      0.0000
      7d1-     0.0000
      7d2-     0.0000
      7f3+     0.0000
      7f2+     0.0000
      7f1+     0.0000
      7f0      0.0000
      7f1-     0.0000
      7f2-     0.0000
      7f3-     0.0000
      7g4+     0.0000
      7g3+     0.0000
      7g2+     0.0000
      7g1+     0.0000
      7g0      0.0000
      7g1-     0.0000
      7g2-     0.0000
      7g3-     0.0000
      7g4-     0.0000
      7h5+     0.0000
      7h4+     0.0000
      7h3+     0.0000
      7h2+     0.0000
      7h1+     0.0000
      7h0      0.0000
      7h1-     0.0000
      7h2-     0.0000
      7h3-     0.0000
      7h4-     0.0000
      7h5-     0.0000
      8s       0.0001
      8px      0.0000
      8pz      0.0000
      8py      0.0000
      8d2+     0.0000
      8d1+     0.0000
      8d0      0.0000
      8d1-     0.0000
      8d2-     0.0000
      8f3+     0.0000
      8f2+     0.0000
      8f1+     0.0000
      8f0      0.0000
      8f1-     0.0000
      8f2-     0.0000
      8f3-     0.0000
      8g4+     0.0000
      8g3+     0.0000
      8g2+     0.0000
      8g1+     0.0000
      8g0      0.0000
      8g1-     0.0000
      8g2-     0.0000
      8g3-     0.0000
      8g4-     0.0000
      9s       0.0000
      9px      0.0000
      9pz      0.0000
      9py      0.0000
      9d2+     0.0000
      9d1+     0.0000
      9d0      0.0000
      9d1-     0.0000
      9d2-     0.0000
      9f3+     0.0000
      9f2+     0.0000
      9f1+     0.0000
      9f0      0.0000
      9f1-     0.0000
      9f2-     0.0000
      9f3-     0.0000
     10s       0.0000
     10px      0.0000
     10pz      0.0000
     10py      0.0000
     10d2+     0.0000
     10d1+     0.0000
     10d0      0.0000
     10d1-     0.0000
     10d2-     0.0000
     11px      0.0000
     11pz      0.0000
     11py      0.0000
      Total   18.0000

      N-E      6.0000

      Total electronic charge=   18.000000

      Total            charge=    6.000000
--

 Sorry, Molden does not know how to handle
 functions with angular momentum larger than g

++    Static properties:
      ------------------


      LoProp Charges per center


                   CR    
      Nuclear     24.0000
      Electronic -18.0000

      Total        6.0000
--


++    Molecular properties:
      ---------------------

      Charge (e):
                      =    6.0000
      Dipole Moment (Debye):
      Origin of the operator (Ang)=    0.0000    0.0000    0.0000
                   X= -6.0189E-01               Y= -3.6506E-14               Z=  1.3321E-01           Total=  6.1645E-01
      Center of Charge (Ang)
                     X=   -0.02088485               Y=   -0.00000000               Z=    0.00462234
      Quadrupole Moment (Debye*Ang):
      Origin of the operator (Ang)=   -0.0000   -0.0000    0.0046
                  XX= -3.4411E+00              XY= -6.6534E-15              XZ=  1.5472E-05              YY= -3.4421E+00
                  YZ=  5.3785E-15              ZZ= -3.4421E+00
      In traceless form (Debye*Ang)
                  XX=  9.9678E-04              XY= -9.9801E-15              XZ=  2.3207E-05              YY= -4.9740E-04
                  YZ=  8.0677E-15              ZZ= -4.9938E-04
--

 Sorry, Molden does not know how to handle
 functions with angular momentum larger than g
 ###############################################################################
 ###############################################################################
 ###                                                                         ###
 ###                                                                         ###
 ###    WARNING: RunFile label nBas                                          ###
 ###    was used       62 times                                              ###
 ###                                                                         ###
 ###                                                                         ###
 ###############################################################################
 ###############################################################################
Note: The following floating-point exceptions are signalling: IEEE_UNDERFLOW_FLAG IEEE_DENORMAL
--- Stop Module: scf at Wed Mar 26 23:42:33 2025 /rc=_RC_ALL_IS_WELL_ ---
*** files: chromium_so_cf.LprOrb chromium_so_cf.ScfOrb xmldump
    saved to directory /home4/s4752295/Internship/Initial_simulations/Point_charge_model/1_electron/Madelung_charges_9_active_space/Cr
--- Module scf spent 7 seconds ---

*** symbolic link created: INPORB -> chromium_so_cf.ScfOrb
--- Start Module: rasscf at Wed Mar 26 23:42:33 2025 ---

()()()()()()()()()()()()()()()()()()()()()()()()()()()()()()()()()()()()()()()()()()()()()()()()()()

                                              &RASSCF

                                   only a single process is used
                       available to each process: 4.1 GB of memory, 1 thread?
                                            pid: 3974647
()()()()()()()()()()()()()()()()()()()()()()()()()()()()()()()()()()()()()()()()()()()()()()()()()()


      Header of the ONEINT file:
      --------------------------
      
      Integrals generated by seward 4.2.0  , Wed Mar 26 23:42:17 2025


      OrdInt status: non-squared


      Cartesian coordinates in Angstrom:
      -----------------------------------------------------
      No.  Label        X            Y            Z        
      -----------------------------------------------------
       1   CR        -0.00000000  -0.00000000   0.00463220
      -----------------------------------------------------
      Nuclear repulsion energy = -115.56593647

++    Wave function specifications:
      -----------------------------

      Number of closed shell electrons          18
      Number of electrons in active shells       1
      Max number of holes in RAS1 space          0
      Max nr of electrons in RAS3 space          0
      Number of inactive orbitals                9
      Number of active orbitals                  9
      Number of secondary orbitals             162
      Spin quantum number                      0.5
      State symmetry                             1
--

++    Orbital specifications:
      -----------------------

      Symmetry species                           1
                                                 a
      Frozen orbitals                            0
      Inactive orbitals                          9
      Active orbitals                            9
      RAS1 orbitals                              0
      RAS2 orbitals                              9
      RAS3 orbitals                              0
      Secondary orbitals                       162
      Deleted orbitals                           0
      Number of basis functions                180
--

++    CI expansion specifications:
[...]
    8         0.004685       4 0.5  1.0000    9 0.5  0.0000    8 0.5  0.0000    7 0.5  0.0000    6 0.5  0.0000
    9         0.006584       5 0.5  1.0000    9 0.5  0.0000    8 0.5  0.0000    7 0.5  0.0000    6 0.5  0.0000
   10         0.006584       5 0.5  1.0000    9 0.5  0.0000    8 0.5  0.0000    7 0.5  0.0000    6 0.5  0.0000
   11         0.819598       6 0.5  1.0000    9 0.5  0.0000    8 0.5  0.0000    7 0.5  0.0000    5 0.5  0.0000
   12         0.819598       6 0.5  1.0000    9 0.5  0.0000    8 0.5  0.0000    7 0.5  0.0000    5 0.5  0.0000
   13         1.190061       7 0.5  1.0000    9 0.5  0.0000    8 0.5  0.0000    6 0.5  0.0000    5 0.5  0.0000
   14         1.190061       7 0.5  1.0000    9 0.5  0.0000    8 0.5  0.0000    6 0.5  0.0000    5 0.5  0.0000
   15         1.190283       8 0.5  1.0000    9 0.5  0.0000    7 0.5  0.0000    6 0.5  0.0000    5 0.5  0.0000
   16         1.190283       8 0.5  1.0000    9 0.5  0.0000    7 0.5  0.0000    6 0.5  0.0000    5 0.5  0.0000
   17         1.288995       9 0.5  1.0000    8 0.5  0.0000    7 0.5  0.0000    6 0.5  0.0000    5 0.5  0.0000
   18         1.288995       9 0.5  1.0000    8 0.5  0.0000    7 0.5  0.0000    6 0.5  0.0000    5 0.5  0.0000
 -------------------------------------------------------------------------------------------------------


      ****************************************************************************************************
      *                                                                                                  *
      *                                    Special properties section                                    *
      *                                                                                                  *
      ****************************************************************************************************


++ Dipole transition strengths (SO states):
   ----------------------------------------
    for osc. strength at least    1.0000000000000001E-005

      From   To        Osc. strength     Einstein coefficients Ax, Ay, Az (sec-1)    Total A (sec-1)
     -----------------------------------------------------------------------------------------------
         1   11       1.67244127E-05  1.73874247E-12  3.60962564E+05  4.90386575E-09  3.60962564E+05
         1   13       2.35702030E-02  6.50441719E-08  1.07253439E+09  1.80920462E-05  1.07253439E+09
         1   15       2.37153019E-02  4.73339245E+06  1.81300062E-05  1.07480671E+09  1.07954011E+09
         2   12       1.67244127E-05  1.73874247E-12  3.60962564E+05  4.90386575E-09  3.60962564E+05
         2   14       2.35702030E-02  6.50441719E-08  1.07253439E+09  1.80920462E-05  1.07253439E+09
         2   16       2.37153019E-02  4.73339245E+06  1.81300062E-05  1.07480671E+09  1.07954011E+09
         3   11       1.38811191E-05  4.87110158E+01  6.04163836E-09  2.99545823E+05  2.99594534E+05
         3   13       2.36577412E-02  3.95639455E+06  1.80927359E-05  1.07255811E+09  1.07651450E+09
         3   15       2.36075806E-02  7.92345783E-08  1.07463333E+09  1.81310313E-05  1.07463333E+09
         4   12       1.38811191E-05  4.87110158E+01  6.04163836E-09  2.99545823E+05  2.99594534E+05
         4   14       2.36577412E-02  3.95639455E+06  1.80927359E-05  1.07255811E+09  1.07651450E+09
         4   16       2.36075806E-02  7.92345783E-08  1.07463333E+09  1.81310313E-05  1.07463333E+09
         5   11       1.22086539E-02  3.55773858E+03  4.64664130E-07  2.60495074E+08  2.60498631E+08
         5   13       5.00095326E-02  2.25773772E+09  2.02159042E-10  2.55625416E+04  2.25776329E+09
         6   12       1.22086539E-02  3.55773858E+03  4.64664130E-07  2.60495074E+08  2.60498631E+08
         6   14       5.00095326E-02  2.25773772E+09  2.02159042E-10  2.55625416E+04  2.25776329E+09
         7   11       1.21967671E-02  4.47457416E-12  2.60241760E+08  4.65159089E-07  2.60241760E+08
         7   15       5.00083815E-02  2.25844546E+09  7.74852396E-11  9.33396037E+04  2.25853880E+09
         8   12       1.21967671E-02  4.47457416E-12  2.60241760E+08  4.65159089E-07  2.60241760E+08
         8   16       5.00083815E-02  2.25844546E+09  7.74852396E-11  9.33396037E+04  2.25853880E+09
         9   11       2.62590688E-02  5.57677521E+08  8.04288965E-14  2.02425939E+03  5.57679546E+08
         9   13       1.56777714E-03  1.44940442E+04  1.56786806E-12  7.05381539E+07  7.05526480E+07
         9   15       1.57306956E-03  7.05542956E-13  7.08174102E+07  1.03692906E-14  7.08174102E+07
         9   17       1.72396318E-02  9.10943567E+08  3.77983882E-16  7.77436231E+02  9.10944344E+08
        10   12       2.62590688E-02  5.57677521E+08  8.04288965E-14  2.02425939E+03  5.57679546E+08
        10   14       1.56777714E-03  1.44940442E+04  1.56786806E-12  7.05381539E+07  7.05526480E+07
        10   16       1.57306956E-03  7.05542956E-13  7.08174102E+07  1.03692906E-14  7.08174102E+07
        10   18       1.72396318E-02  9.10943567E+08  3.77983882E-16  7.77436231E+02  9.10944344E+08
        11   13       3.27164698E-01  3.57627102E+00  9.39543789E-12  1.44266489E+09  1.44266489E+09
        11   15       3.27092478E-01  4.35939673E-17  1.44407778E+09  9.39878730E-12  1.44407778E+09
        11   17       3.21858997E-01  2.27853513E+09  2.38677351E-16  2.14190651E+01  2.27853516E+09
        12   14       3.27164698E-01  3.57627102E+00  9.39543789E-12  1.44266489E+09  1.44266489E+09
        12   16       3.27092478E-01  4.35939673E-17  1.44407778E+09  9.39878730E-12  1.44407778E+09
        12   18       3.21858997E-01  2.27853513E+09  2.38677351E-16  2.14190651E+01  2.27853516E+09
        13   17       2.97126427E-03  1.62814444E+01  6.32294287E-15  9.34404082E+05  9.34420364E+05
        14   18       2.97126427E-03  1.62814444E+01  6.32294287E-15  9.34404082E+05  9.34420364E+05
        15   17       3.04197865E-03  2.25917632E-19  9.52365137E+05  6.06791311E-15  9.52365137E+05
        16   18       3.04197865E-03  2.25917632E-19  9.52365137E+05  6.06791311E-15  9.52365137E+05
     -----------------------------------------------------------------------------------------------
--

++ Velocity transition strengths (SO states):
   ------------------------------------------
    for osc. strength at least    1.0000000000000001E-005

      From   To        Osc. strength     Einstein coefficients Ax, Ay, Az (sec-1)    Total A (sec-1)
     -----------------------------------------------------------------------------------------------
         1    3       1.08056455E-04  9.93036058E-22  1.09646601E-05  2.91999060E-21  1.09646601E-05
         1    5       4.49415910E-03  5.30404990E-17  3.16222683E+03  9.35638243E-11  3.16222683E+03
         1    7       4.48824830E-03  5.24677163E-06  9.38350150E-11  3.16491509E+03  3.16491509E+03
         1   11       1.43873502E-05  1.55272179E-12  3.10522885E+05  4.22374164E-09  3.10522885E+05
         1   13       2.06744458E-02  5.83597969E-08  9.40769635E+08  1.58694888E-05  9.40769635E+08
         1   15       2.08038320E-02  4.24355914E+06  1.59022542E-05  9.42767329E+08  9.47010888E+08
         2    4       1.08056455E-04  9.93036058E-22  1.09646601E-05  2.91999060E-21  1.09646601E-05
         2    6       4.49415910E-03  5.30404990E-17  3.16222683E+03  9.35638243E-11  3.16222683E+03
         2    8       4.48824830E-03  5.24677163E-06  9.38350150E-11  3.16491509E+03  3.16491509E+03
         2   12       1.43873502E-05  1.55272179E-12  3.10522885E+05  4.22374164E-09  3.10522885E+05
         2   14       2.06744458E-02  5.83597969E-08  9.40769635E+08  1.58694888E-05  9.40769635E+08
         2   16       2.08038320E-02  4.24355914E+06  1.59022542E-05  9.42767329E+08  9.47010888E+08
         3    5       4.49125057E-03  3.16719679E-03  9.36436810E-11  3.15777742E+03  3.15778059E+03
         3    7       4.49268781E-03  2.55689261E-18  3.16564256E+03  9.36900902E-11  3.16564256E+03
         3   11       1.19515194E-05  4.28258824E+01  5.19673958E-09  2.57906285E+05  2.57949111E+05
         3   13       2.07529522E-02  3.55014014E+06  1.58702306E-05  9.40789025E+08  9.44339165E+08
         3   15       2.07069984E-02  7.10324936E-08  9.42600111E+08  1.59039001E-05  9.42600111E+08
         4    6       4.49125057E-03  3.16719679E-03  9.36436810E-11  3.15777742E+03  3.15778059E+03
         4    8       4.49268781E-03  2.55689261E-18  3.16564256E+03  9.36900902E-11  3.16564256E+03
         4   12       1.19515194E-05  4.28258824E+01  5.19673958E-09  2.57906285E+05  2.57949111E+05
         4   14       2.07529522E-02  3.55014014E+06  1.58702306E-05  9.40789025E+08  9.44339165E+08
         4   16       2.07069984E-02  7.10324936E-08  9.42600111E+08  1.59039001E-05  9.42600111E+08
         5    9       3.38005619E-02  8.88239734E-04  7.03741821E-12  3.93894667E+03  3.93894756E+03
         5   11       1.04078699E-02  3.07653030E+03  3.96111791E-07  2.22072616E+08  2.22075693E+08
         5   13       4.44540402E-02  2.00694231E+09  1.51404186E-10  1.60338085E+04  2.00695835E+09
         5   17       1.46712770E-05  6.86902247E+03  1.29928028E-09  7.70670081E+05  7.77539104E+05
         6   10       3.38005619E-02  8.88239734E-04  7.03741821E-12  3.93894667E+03  3.93894756E+03
         6   12       1.04078699E-02  3.07653030E+03  3.96111791E-07  2.22072616E+08  2.22075693E+08
         6   14       4.44540402E-02  2.00694231E+09  1.51404186E-10  1.60338085E+04  2.00695835E+09
         6   18       1.46712770E-05  6.86902247E+03  1.29928028E-09  7.70670081E+05  7.77539104E+05
         7    9       3.38707365E-02  6.41611881E-18  3.92613557E+03  7.01621065E-12  3.92613557E+03
         7   11       1.03974845E-02  3.90540631E-12  2.21851336E+08  3.96529390E-07  2.21851336E+08
         7   15       4.44514080E-02  2.00750622E+09  5.19008561E-11  6.88234969E+04  2.00757504E+09
         7   17       1.37397533E-05  9.20481359E-12  7.28165043E+05  1.37623930E-09  7.28165043E+05
         8   10       3.38707365E-02  6.41611881E-18  3.92613557E+03  7.01621065E-12  3.92613557E+03
         8   12       1.03974845E-02  3.90540631E-12  2.21851336E+08  3.96529390E-07  2.21851336E+08
         8   16       4.44514080E-02  2.00750622E+09  5.19008561E-11  6.88234969E+04  2.00757504E+09
         8   18       1.37397533E-05  9.20481359E-12  7.28165043E+05  1.37623930E-09  7.28165043E+05
         9   11       2.27188249E-02  4.82493215E+08  6.77059083E-14  1.73188106E+03  4.82494947E+08
         9   13       1.27704838E-03  1.29481473E+04  1.37804728E-12  5.74566095E+07  5.74695576E+07
         9   15       1.28169721E-03  6.37562818E-13  5.77004316E+07  7.88528346E-15  5.77004316E+07
         9   17       1.60569249E-02  8.48452183E+08  1.99085020E-16  7.26163295E+02  8.48452909E+08
        10   12       2.27188249E-02  4.82493215E+08  6.77059083E-14  1.73188106E+03  4.82494947E+08
        10   14       1.27704838E-03  1.29481473E+04  1.37804728E-12  5.74566095E+07  5.74695576E+07
        10   16       1.28169721E-03  6.37562818E-13  5.77004316E+07  7.88528346E-15  5.77004316E+07
        10   18       1.60569249E-02  8.48452183E+08  1.99085020E-16  7.26163295E+02  8.48452909E+08
        11   13       3.22052862E-01  5.92671698E+00  9.27224835E-12  1.42012868E+09  1.42012869E+09
        11   15       3.21968376E-01  1.47555579E-16  1.42146037E+09  9.25945082E-12  1.42146037E+09
        11   17       2.86582599E-01  2.02881013E+09  6.66227868E-17  6.87549851E+00  2.02881014E+09
        12   14       3.22052862E-01  5.92671698E+00  9.27224835E-12  1.42012868E+09  1.42012869E+09
        12   16       3.21968376E-01  1.47555579E-16  1.42146037E+09  9.25945082E-12  1.42146037E+09
        12   18       2.86582599E-01  2.02881013E+09  6.66227868E-17  6.87549851E+00  2.02881014E+09
        13   17       4.70271620E-04  6.02211205E+00  9.93034710E-16  1.47888230E+05  1.47894252E+05
        14   18       4.70271620E-04  6.02211205E+00  9.93034710E-16  1.47888230E+05  1.47894252E+05
        15   17       4.55887465E-04  1.50041957E-17  1.42727115E+05  1.00733795E-15  1.42727115E+05
        16   18       4.55887465E-04  1.50041957E-17  1.42727115E+05  1.00733795E-15  1.42727115E+05
     -----------------------------------------------------------------------------------------------
--

++ Length and velocity gauge comparison (SO states):

 --------------------------------------------------
 A comparison between the dipole oscillator strengths in 
 length and velocity gauge will be performed

 All dipole oscillator differences above the tolerance of   0.10000000000000001       will be printed 

 Due to basis set deficiency these oscillator may be problematic 

 The tolerance is defined as ABS(1-O_l/O_v) 
 O_l : dipole oscillator strength in length gauge
 O_p : dipole oscillator strength in velocity gauge
 --------------------------------------------------

  Problematic transitions have been found

      From   To       Difference (%) Osc. st. (len.) Osc. st. (vel.)
     ---------------------------------------------------------------
         1    3      --------------- below threshold  1.08056455E-04
         1    5      --------------- below threshold  4.49415910E-03
         1    7      --------------- below threshold  4.48824830E-03
         1   11            16.243870  1.67244127E-05  1.43873502E-05
         1   13            14.006456  2.35702030E-02  2.06744458E-02
         1   15            13.994873  2.37153019E-02  2.08038320E-02
         2    4      --------------- below threshold  1.08056455E-04
         2    6      --------------- below threshold  4.49415910E-03
         2    8      --------------- below threshold  4.48824830E-03
         2   12            16.243870  1.67244127E-05  1.43873502E-05
         2   14            14.006456  2.35702030E-02  2.06744458E-02
         2   16            13.994873  2.37153019E-02  2.08038320E-02
         3    5      --------------- below threshold  4.49125057E-03
         3    7      --------------- below threshold  4.49268781E-03
         3   11            16.145225  1.38811191E-05  1.19515194E-05
         3   13            13.996992  2.36577412E-02  2.07529522E-02
         3   15            14.007738  2.36075806E-02  2.07069984E-02
         4    6      --------------- below threshold  4.49125057E-03
         4    8      --------------- below threshold  4.49268781E-03
         4   12            16.145225  1.38811191E-05  1.19515194E-05
         4   14            13.996992  2.36577412E-02  2.07529522E-02
         4   16            14.007738  2.36075806E-02  2.07069984E-02
         5    9      --------------- below threshold  3.38005619E-02
         5   11            17.302139  1.22086539E-02  1.04078699E-02
         5   13            12.497160  5.00095326E-02  4.44540402E-02
         5   17      --------------- below threshold  1.46712770E-05
         6   10      --------------- below threshold  3.38005619E-02
         6   12            17.302139  1.22086539E-02  1.04078699E-02
         6   14            12.497160  5.00095326E-02  4.44540402E-02
         6   18      --------------- below threshold  1.46712770E-05
         7    9      --------------- below threshold  3.38707365E-02
         7   11            17.304980  1.21967671E-02  1.03974845E-02
         7   15            12.501232  5.00083815E-02  4.44514080E-02
         7   17      --------------- below threshold  1.37397533E-05
         8   10      --------------- below threshold  3.38707365E-02
         8   12            17.304980  1.21967671E-02  1.03974845E-02
         8   16            12.501232  5.00083815E-02  4.44514080E-02
         8   18      --------------- below threshold  1.37397533E-05
         9   11            15.582865  2.62590688E-02  2.27188249E-02
         9   13            22.765680  1.56777714E-03  1.27704838E-03
         9   15            22.733322  1.57306956E-03  1.28169721E-03
        10   12            15.582865  2.62590688E-02  2.27188249E-02
        10   14            22.765680  1.56777714E-03  1.27704838E-03
        10   16            22.733322  1.57306956E-03  1.28169721E-03
        11   17            12.309330  3.21858997E-01  2.86582599E-01
        12   18            12.309330  3.21858997E-01  2.86582599E-01
        13   17           531.818750  2.97126427E-03  4.70271620E-04
        14   18           531.818750  2.97126427E-03  4.70271620E-04
        15   17           567.265255  3.04197865E-03  4.55887465E-04
        16   18           567.265255  3.04197865E-03  4.55887465E-04
     ---------------------------------------------------------------

 Number of problematic transitions =                    50

--

 Electric-dipole - electric-octupole not included
++ I/O STATISTICS
 
  I. General I/O information
  - - - - - - - - - - - - - - - - - - - - - - - - - - - - - - - - - - - - - - - - - - -
  Unit  Name          Flsize      Write/Read            MBytes           Write/Read
                      (MBytes)       Calls              In/Out           Time, sec.
  - - - - - - - - - - - - - - - - - - - - - - - - - - - - - - - - - - - - - - - - - - -
   1  SCRATCH           0.00 .       9/      45 .      0.0/      0.0 .       0/       0
   2  ANNI              0.00 .       0/       0 .      0.0/      0.0 .       0/       0
   3  RUNFILE          14.88 .     322/   10733 .      2.3/     77.8 .       0/       0
   4  ONEINT            5.58 .       0/   23543 .      0.0/   3739.9 .       0/       0
   5  JOBIPH            6.48 .       0/      92 .      0.0/      0.8 .       0/       0
   6  ORDINT          506.53 .       1/    4053 .      0.0/   1013.0 .       0/       0
  - - - - - - - - - - - - - - - - - - - - - - - - - - - - - - - - - - - - - - - - - - -
   *  TOTAL           533.47 .     332/   38466 .      2.3/   4831.6 .       0/       0
  - - - - - - - - - - - - - - - - - - - - - - - - - - - - - - - - - - - - - - - - - - -
 
  II. I/O Access Patterns
  - - - - - - - - - - - - - - - - - - - -
  Unit  Name               % of random
                         Write/Read calls
  - - - - - - - - - - - - - - - - - - - -
   1  SCRATCH             88.9/ 100.0
   2  ANNI                 0.0/   0.0
   3  RUNFILE             28.6/  10.8
   4  ONEINT               0.0/  16.4
   5  JOBIPH               0.0/  76.1
   6  ORDINT             100.0/   0.0
  - - - - - - - - - - - - - - - - - - - -
--
--- Stop Module: rassi at Wed Mar 26 23:43:08 2025 /rc=_RC_ALL_IS_WELL_ ---
*** files: xmldump
    saved to directory /home4/s4752295/Internship/Initial_simulations/Point_charge_model/1_electron/Madelung_charges_9_active_space/Cr
--- Module rassi spent 2 seconds ---

.##################.
.# Happy landing! #.
.##################.

    Timing: Wall=50.72 User=41.97 System=7.77

###############################################################################
Hbrk Cluster
Job 15913387 for user s4752295
Finished at: Wed Mar 26 23:43:12 CET 2025

Job details:
============

Job ID                         : 15913387
Name                           : Cr_no_SO
User                           : s4752295
Partition                      : regularmedium
Nodes                          : node99
Number of Nodes                : 1
Cores                          : 1
Number of Tasks                : 1
State                          : COMPLETED  
Submit                         : 2025-03-26T23:42:07
Start                          : 2025-03-26T23:42:14
End                            : 2025-03-26T23:43:08
Reserved walltime              : 15:00:00
Used walltime                  : 00:00:54
Used CPU time                  : 00:00:51 (Efficiency: 94.17%)
% User (Computation)           : 84.30%
% System (I/O)                 : 15.70%
Total memory reserved          : 25000M
Maximum memory used            : 52.41M

Acknowledgements:
=================

Please see this page for information about acknowledging Hbrk in your publications:

https://wiki.hpc.rug.nl/habrok/introduction/scientific_output

################################################################################
