   This run of MOLCAS is using the pymolcas driver

                             OPE
                             OPE          NMOL  CASOP  ENMOLC A   SO
                 OPE        NMOLC        AS  OP EN  MO LC     AS  OP
                OPENM       OL CA        SO  PE NM  OL CA     SOP EN
                OP EN      MO   LC       AS  OP ENMOL  CASO   PENMOL
                OP  EN     MO   LC       AS  OP EN     MO     LC ASO
               OP   E  NMOL  C  AS       OP  EN MO     LC     AS  OP
               OP  E   NMO   LC AS        OPEN  MO     LCASOP EN   M
               O  PEN   MO  LCA  SO
            OPE   NMO   L   CAS    OP
        OPENMOL  CASOP     ENMOL   CASOPE
     OPENMOLCA   SOPENMOLCASOPEN   MOLCASOPE
    OPENMOLCAS   OP           EN   MOL    CAS
    OPENMOLCAS       OP  ENM        O     LCA
    OPENMOLCAS    OPEN  MOLCASO     P  E  NMO
    OPENMOLCAS     OP               E  N  MOL
    OPENMOLCA   SO           PENM   O  L  CAS    OPEN    MO    LCAS
    OPENMOLCA   SOP           ENM   O  L  CAS   OP  EN  MOLC  AS   O
    OPENMOLCA   SOPE           NM      O  LCA   S      OP  EN MO
    OPENMOLC                AS         O  PEN   M      OL  CA  SOPE
    OPENMO        LCASOPE  NMOL        C  ASO   P      ENMOLC     AS
    OPE     NMO      LCA  SO     P     E   NM   OL  CA SO  PE N   MO
          OPENMOLCA            SOPE   NMO        LCAS  O    P  ENMO
     OPENMOLCASOPENMOLCASOPENMOLCASOPENMOLCA
        OPENMOLCASOPENMOLCASOPENMOLCASOPE
            OPENMOLCASOPENMOLCASOPENM
               OPENMOLCASOPENMOLCA        version: o91e1abe7de707b ?
                   OPENMOLCASO
                       OPE                tag:

 OpenMolcas is free software; you can redistribute it and/or modify it
 under the terms of the GNU Lesser General Public License version 2.1.
 OpenMolcas is distributed in the hope that it will be useful, but it
 is provided "as is" and without any express or implied warranties.
 For more details see the full text of the license in the file
 LICENSE or in <http://www.gnu.org/licenses/>.

                 Copyright (C) The OpenMolcas Authors
           For the author list and the recommended citation,
                   consult the file CONTRIBUTORS.md

           *************************************************
           * pymolcas version py2.10                       *
           *   build 3068ae8b88c9345ec6cfef6fef7f1169      *
           *   (after the EMIL interpreter by V. Veryazov) *
           *************************************************

configuration info
------------------
Host name: login1 (Linux)
C Compiler ID: GNU
C flags: -std=gnu99
Fortran Compiler ID: GNU
Fortran flags: -fno-aggressive-loop-optimizations -cpp -fdefault-integer-8 -fmax-stack-var-size=1048576
Definitions: _MOLCAS_;_I8_;_LINUX_;_MKL_
Parallel: OFF (GA=OFF)


   -----------------------------------------------------------------------------------------------------------------------------------
  |
  |           Project: chromium_so_cf
  |    Submitted from: /home4/s4752295/Internship/Initial_simulations/Point_charge_model/1_electron/Madelung_charges_9_active_space/Cr
  |      Scratch area: /tmp/chromium_so_cf
  |   Save outputs to: /home4/s4752295/Internship/Initial_simulations/Point_charge_model/1_electron/Madelung_charges_9_active_space/Cr
  |            Molcas: /home4/s4752295/Internship/Molcas/recomp_try/OpenMolcas-master/build
  |
  | Scratch area is empty
  |
  |    MOLCAS_DRIVER = /home4/s4752295/Internship/Molcas/bin/pymolcas
  |    MOLCAS_NPROCS = 1
  |    MOLCAS_SOURCE = /home4/s4752295/Internship/Molcas/recomp_try/OpenMolcas-master
  | MOLCAS_STRUCTURE = 0
  |
   -----------------------------------------------------------------------------------------------------------------------------------

++ ---------   Input file   ---------

&SEWARD
AMFi

CLIG
$R

Basis Set
Cr.ANO-rcc.Roos.21s15p10d6f4g2h.10s10p8d6f4g2h.
Spherical d
Cr            -1.0658140267135469e-14   -3.5527134223784897e-15 0.008753588724385739
End of Basis

Xfield

414
-3.601980972,-1.3860000000000001,0.8002071000000001     -0.625931
-3.601980972,-0.0,-1.6004151    -0.625931
-3.601980972,1.3860000000000001,0.8002071000000001      -0.625931
-3.595811463,0.0,0.0    1.892092
2.3932617210000005,-1.3860000000000001,-0.8002071000000001      2.515516
2.3932617210000005,0.0,1.6004151        2.515516
2.3932617210000005,1.3860000000000001,-0.8002071000000001       2.515516
3.206689452,-2.7720000000000002,0.0     0.004632
3.206689452,-1.3860000000000001,-2.4006222000000004     0.004632
3.206689452,-1.3860000000000001,2.4006222000000004      0.004632
3.206689452,1.3860000000000001,-2.4006222000000004      0.004632
3.206689452,1.3860000000000001,2.4006222000000004       0.004632
3.206689452,2.7720000000000002,0.0      0.004632
3.7162353510000004,-1.3860000000000001,0.8002071000000001       -2.519484
3.7162353510000004,-0.0,-1.6004151      -2.519484
3.7162353510000004,1.3860000000000001,0.8002071000000001        -2.519484
-2.639794923,-0.0,-0.0  -3.142907
-4.477587894,-2.7720000000000002,-1.6004151     -0.625931
-4.477587894,0.0,3.2008293      -0.625931
-4.477587894,2.7720000000000002,-1.6004151      -0.625931
-5.9484375,-2.7720000000000002,0.0      1.892092
-5.9484375,-1.3860000000000001,-2.4006222000000004      1.892092
-5.9484375,-1.3860000000000001,2.4006222000000004       1.892092
-5.9484375,1.3860000000000001,-2.4006222000000004       1.892092
-5.9484375,1.3860000000000001,2.4006222000000004        1.892092
-5.9484375,2.7720000000000002,0.0       1.892092
22.6546875,-2.7720000000000002,1.6004151        2.515516
22.6546875,-0.0,-3.2008293      2.515516
22.6546875,2.7720000000000002,1.6004151 2.515516
3.274804692,-2.7720000000000002,-1.6004151      -2.519484
3.274804692,0.0,3.2008293       -2.519484
3.274804692,2.7720000000000002,-1.6004151       -2.519484
-2.909179692,-2.7720000000000002,-0.0   -3.142907
-2.909179692,-1.3860000000000001,-2.4006222000000004    -3.142907
-2.909179692,-1.3860000000000001,2.4006222000000004     -3.142907
-2.909179692,1.3860000000000001,-2.4006222000000004     -3.142907
-2.909179692,1.3860000000000001,2.4006222000000004      -3.142907
-2.909179692,2.7720000000000002,-0.0    -3.142907
-8.571093750000001,-2.7720000000000002,3.2008293        -0.625931
-8.571093750000001,2.7720000000000002,3.2008293 -0.625931
-8.571093750000001,-4.158,0.8002071000000001    -0.625931
-8.571093750000001,4.158,0.8002071000000001     -0.625931
-8.571093750000001,-1.3860000000000001,-4.0010373       -0.625931
-8.571093750000001,1.3860000000000001,-4.0010373        -0.625931
5.40703125,-1.3860000000000001,-0.8002071000000001      4.409069
5.40703125,1.3860000000000001,-0.8002071000000001       4.409069
5.40703125,0.0,1.6004151        4.409069
-157.725,-0.0,-0.0      -5.030367
-157.725,0.0,0.0        5.039632
12.165820308,-2.7720000000000002,-3.2008293     2.515516
12.165820308,2.7720000000000002,-3.2008293      2.515516
12.165820308,-4.158,-0.8002071000000001 2.515516
12.165820308,4.158,-0.8002071000000001  2.515516
12.165820308,-1.3860000000000001,4.0010373      2.515516
12.165820308,1.3860000000000001,4.0010373       2.515516
17.13515625,-4.158,-2.4006222000000004  0.004632
17.13515625,-4.158,2.4006222000000004   0.004632
17.13515625,4.158,-2.4006222000000004   0.004632
17.13515625,4.158,2.4006222000000004    0.004632
17.13515625,-0.0,-4.801244400000001     0.004632
17.13515625,0.0,4.801244400000001       0.004632
43.2703125,-2.7720000000000002,3.2008293        -2.519484
43.2703125,2.7720000000000002,3.2008293 -2.519484
43.2703125,-4.158,0.8002071000000001    -2.519484
43.2703125,4.158,0.8002071000000001     -2.519484
43.2703125,-1.3860000000000001,-4.0010373       -2.519484
43.2703125,1.3860000000000001,-4.0010373        -2.519484
-131.2875,-4.158,-2.4006222000000004    1.892092
-131.2875,-4.158,2.4006222000000004     1.892092
-131.2875,4.158,-2.4006222000000004     1.892092
-131.2875,4.158,2.4006222000000004      1.892092
-131.2875,-0.0,-4.801244400000001       1.892092
-131.2875,0.0,4.801244400000001 1.892092
-105.97500000000001,-2.7720000000000002,1.6004151       4.409069
-105.97500000000001,-0.0,-3.2008293     4.409069
-105.97500000000001,2.7720000000000002,1.6004151        4.409069
-80.10000000000001,-2.7720000000000002,-0.0     -5.030367
-80.10000000000001,-1.3860000000000001,-2.4006222000000004      -5.030367
-80.10000000000001,-1.3860000000000001,2.4006222000000004       -5.030367
-80.10000000000001,1.3860000000000001,-2.4006222000000004       -5.030367
-80.10000000000001,-2.7720000000000002,0.0      5.039632
-80.10000000000001,2.7720000000000002,-0.0      -5.030367
-80.10000000000001,1.3860000000000001,2.4006222000000004        -5.030367
-80.10000000000001,-1.3860000000000001,-2.4006222000000004      5.039632
-80.10000000000001,-1.3860000000000001,2.4006222000000004       5.039632
-80.10000000000001,1.3860000000000001,-2.4006222000000004       5.039632
-80.10000000000001,2.7720000000000002,0.0       5.039632
-80.10000000000001,1.3860000000000001,2.4006222000000004        5.039632
-41.9625,-1.3860000000000001,-0.8002071000000001        -5.660931
-41.9625,0.0,1.6004151  -5.660931
-41.9625,1.3860000000000001,-0.8002071000000001 -5.660931
0.79453125,-5.5439991,0.0       0.004632
0.79453125,-2.7720000000000002,-4.801244400000001       0.004632
0.79453125,-2.7720000000000002,4.801244400000001        0.004632
0.79453125,2.7720000000000002,-4.801244400000001        0.004632
0.79453125,5.5439991,0.0        0.004632
0.79453125,2.7720000000000002,4.801244400000001 0.004632
61.143750000000004,-4.158,2.4006222000000004    -3.142907
61.143750000000004,-4.158,-2.4006222000000004   -3.142907
61.143750000000004,4.158,-2.4006222000000004    -3.142907
61.143750000000004,4.158,2.4006222000000004     -3.142907
61.143750000000004,-0.0,-4.801244400000001      -3.142907
61.143750000000004,0.0,4.801244400000001        -3.142907
77.7375,-5.5439991,-1.6004151   -0.625931
77.7375,-4.158,-4.0010373       -0.625931
77.7375,-1.3860000000000001,5.6014515000000005  -0.625931
77.7375,4.158,-4.0010373        -0.625931
77.7375,5.5439991,-1.6004151    -0.625931
77.7375,1.3860000000000001,5.6014515000000005   -0.625931
1.0775390580000002,-5.5439991,0.0       1.892092
1.0775390580000002,-2.7720000000000002,-4.801244400000001       1.892092
1.0775390580000002,-2.7720000000000002,4.801244400000001        1.892092
1.0775390580000002,2.7720000000000002,-4.801244400000001        1.892092
1.0775390580000002,5.5439991,0.0        1.892092
1.0775390580000002,2.7720000000000002,4.801244400000001 1.892092
30.459375,-2.7720000000000002,-3.2008293        4.409069
30.459375,2.7720000000000002,-3.2008293 4.409069
30.459375,-4.158,-0.8002071000000001    4.409069
30.459375,4.158,-0.8002071000000001     4.409069
30.459375,-1.3860000000000001,4.0010373 4.409069
30.459375,1.3860000000000001,4.0010373  4.409069
146.165625,-2.7720000000000002,1.6004151        -5.660931
146.165625,-0.0,-3.2008293      -5.660931
146.165625,2.7720000000000002,1.6004151 -5.660931
0.309375,-5.5439991,1.6004151   2.515516
0.309375,-1.3860000000000001,-5.6014515000000005        2.515516
0.309375,-4.158,4.0010373       2.515516
0.309375,1.3860000000000001,-5.6014515000000005 2.515516
0.309375,5.5439991,1.6004151    2.515516
0.309375,4.158,4.0010373        2.515516
-84.76875,-5.5439991,-1.6004151 -2.519484
-84.76875,-4.158,-4.0010373     -2.519484
-84.76875,-1.3860000000000001,5.6014515000000005        -2.519484
-84.76875,4.158,-4.0010373      -2.519484
-84.76875,1.3860000000000001,5.6014515000000005 -2.519484
-84.76875,5.5439991,-1.6004151  -2.519484
-19.86328125,-5.5439991,-0.0    -3.142907
-19.86328125,-2.7720000000000002,-4.801244400000001     -3.142907
-19.86328125,-2.7720000000000002,4.801244400000001      -3.142907
-19.86328125,2.7720000000000002,-4.801244400000001      -3.142907
-19.86328125,2.7720000000000002,4.801244400000001       -3.142907
-19.86328125,5.5439991,-0.0     -3.142907
545.85,0.0,0.0  6.927092
290.925,-5.5439991,3.2008293    -0.625931
290.925,5.5439991,3.2008293     -0.625931
290.925,-0.0,-6.4016595 -0.625931
-4.8796875,-4.158,2.4006222000000004    -5.030367
-4.8796875,-4.158,-2.4006222000000004   -5.030367
-4.8796875,-4.158,2.4006222000000004    5.039632
-4.8796875,-4.158,-2.4006222000000004   5.039632
-4.8796875,4.158,-2.4006222000000004    -5.030367
-4.8796875,4.158,2.4006222000000004     -5.030367
-4.8796875,4.158,-2.4006222000000004    5.039632
-4.8796875,4.158,2.4006222000000004     5.039632
-4.8796875,-0.0,-4.801244400000001      -5.030367
-4.8796875,0.0,4.801244400000001        -5.030367
-4.8796875,-0.0,-4.801244400000001      5.039632
-4.8796875,0.0,4.801244400000001        5.039632
82.63125000000001,-2.7720000000000002,-3.2008293        -5.660931
82.63125000000001,2.7720000000000002,-3.2008293 -5.660931
82.63125000000001,-4.158,-0.8002071000000001    -5.660931
82.63125000000001,4.158,-0.8002071000000001     -5.660931
82.63125000000001,-1.3860000000000001,4.0010373 -5.660931
82.63125000000001,1.3860000000000001,4.0010373  -5.660931
270.45,-5.5439991,-3.2008293    2.515516
270.45,5.5439991,-3.2008293     2.515516
270.45,0.0,6.4016595    2.515516
-465.52500000000003,-5.5439991,3.2008293        -2.519484
-465.52500000000003,5.5439991,3.2008293 -2.519484
-465.52500000000003,-0.0,-6.4016595     -2.519484
48.206250000000004,-2.7720000000000002,0.0      6.927092
48.206250000000004,-1.3860000000000001,-2.4006222000000004      6.927092
48.206250000000004,-1.3860000000000001,2.4006222000000004       6.927092
48.206250000000004,1.3860000000000001,-2.4006222000000004       6.927092
48.206250000000004,1.3860000000000001,2.4006222000000004        6.927092
48.206250000000004,2.7720000000000002,0.0       6.927092
-49.725,-1.3860000000000001,0.8002071000000001  7.550516
-49.725,0.0,-1.6004151  7.550516
-49.725,1.3860000000000001,0.8002071000000001   7.550516
13.978125,-1.3860000000000001,-0.8002071000000001       -7.554483
13.978125,1.3860000000000001,-0.8002071000000001        -7.554483
13.978125,-0.0,1.6004151        -7.554483
-112.3875,-6.9299991,0.8002071000000001 -0.625931
-112.3875,-4.158,5.6014515000000005     -0.625931
-112.3875,-2.7720000000000002,-6.4016595        -0.625931
-112.3875,2.7720000000000002,-6.4016595 -0.625931
-112.3875,6.9299991,0.8002071000000001  -0.625931
-112.3875,4.158,5.6014515000000005      -0.625931
-60.69375,-5.5439991,1.6004151  4.409069
-60.69375,-4.158,4.0010373      4.409069
-60.69375,-1.3860000000000001,-5.6014515000000005       4.409069
-60.69375,1.3860000000000001,-5.6014515000000005        4.409069
-60.69375,4.158,4.0010373       4.409069
-60.69375,5.5439991,1.6004151   4.409069
44.240625,-5.5439991,-0.0       -5.030367
44.240625,-2.7720000000000002,-4.801244400000001        -5.030367
44.240625,-2.7720000000000002,4.801244400000001 -5.030367
44.240625,-5.5439991,0.0        5.039632
44.240625,-2.7720000000000002,-4.801244400000001        5.039632
44.240625,2.7720000000000002,-4.801244400000001 -5.030367
44.240625,2.7720000000000002,4.801244400000001  -5.030367
44.240625,5.5439991,-0.0        -5.030367
44.240625,-2.7720000000000002,4.801244400000001 5.039632
44.240625,2.7720000000000002,-4.801244400000001 5.039632
44.240625,5.5439991,0.0 5.039632
44.240625,2.7720000000000002,4.801244400000001  5.039632
162.675,-6.9299991,-0.8002071000000001  2.515516
162.675,-4.158,-5.6014515000000005      2.515516
162.675,-2.7720000000000002,6.4016595   2.515516
162.675,4.158,-5.6014515000000005       2.515516
162.675,6.9299991,-0.8002071000000001   2.515516
162.675,2.7720000000000002,6.4016595    2.515516
-21.009375000000002,-6.9299991,-2.4006222000000004      0.004632
-21.009375000000002,-6.9299991,2.4006222000000004       0.004632
-21.009375000000002,-5.5439991,-4.801244400000001       0.004632
-21.009375000000002,-5.5439991,4.801244400000001        0.004632
-21.009375000000002,-1.3860000000000001,-7.201866600000001      0.004632
-21.009375000000002,1.3860000000000001,-7.201866600000001       0.004632
-21.009375000000002,-1.3860000000000001,7.201866600000001       0.004632
-21.009375000000002,5.5439991,-4.801244400000001        0.004632
-21.009375000000002,1.3860000000000001,7.201866600000001        0.004632
-21.009375000000002,6.9299991,-2.4006222000000004       0.004632
-21.009375000000002,6.9299991,2.4006222000000004        0.004632
-21.009375000000002,5.5439991,4.801244400000001 0.004632
-128.8125,-6.9299991,0.8002071000000001 -2.519484
-128.8125,-4.158,5.6014515000000005     -2.519484
-128.8125,-2.7720000000000002,-6.4016595        -2.519484
-128.8125,2.7720000000000002,-6.4016595 -2.519484
-128.8125,6.9299991,0.8002071000000001  -2.519484
-128.8125,4.158,5.6014515000000005      -2.519484
2728.8,-0.0,-0.0        -8.177907
-104.4,-2.7720000000000002,-1.6004151   7.550516
-104.4,0.0,3.2008293    7.550516
-104.4,2.7720000000000002,-1.6004151    7.550516
-543.15,-2.7720000000000002,1.6004151   -7.554483
-543.15,-0.0,-3.2008293 -7.554483
-543.15,2.7720000000000002,1.6004151    -7.554483
44.015625,-6.9299991,2.4006222000000004 1.892092
44.015625,-6.9299991,-2.4006222000000004        1.892092
44.015625,-5.5439991,-4.801244400000001 1.892092
44.015625,-5.5439991,4.801244400000001  1.892092
44.015625,-1.3860000000000001,-7.201866600000001        1.892092
44.015625,1.3860000000000001,-7.201866600000001 1.892092
44.015625,-1.3860000000000001,7.201866600000001 1.892092
44.015625,5.5439991,-4.801244400000001  1.892092
44.015625,1.3860000000000001,7.201866600000001  1.892092
44.015625,6.9299991,-2.4006222000000004 1.892092
44.015625,6.9299991,2.4006222000000004  1.892092
44.015625,5.5439991,4.801244400000001   1.892092
-454.5,-5.5439991,-3.2008293    4.409069
-454.5,5.5439991,-3.2008293     4.409069
-454.5,0.0,6.4016595    4.409069
23.23828125,-5.5439991,1.6004151        -5.660931
23.23828125,-1.3860000000000001,-5.6014515000000005     -5.660931
23.23828125,-4.158,4.0010373    -5.660931
23.23828125,1.3860000000000001,-5.6014515000000005      -5.660931
23.23828125,4.158,4.0010373     -5.660931
23.23828125,5.5439991,1.6004151 -5.660931
-52.36875,-5.5439991,-4.801244400000001 -3.142907
-52.36875,-6.9299991,2.4006222000000004 -3.142907
-52.36875,-6.9299991,-2.4006222000000004        -3.142907
-52.36875,-5.5439991,4.801244400000001  -3.142907
-52.36875,-1.3860000000000001,-7.201866600000001        -3.142907
-52.36875,1.3860000000000001,-7.201866600000001 -3.142907
-52.36875,-1.3860000000000001,7.201866600000001 -3.142907
-52.36875,6.9299991,-2.4006222000000004 -3.142907
-52.36875,5.5439991,-4.801244400000001  -3.142907
-52.36875,1.3860000000000001,7.201866600000001  -3.142907
-52.36875,6.9299991,2.4006222000000004  -3.142907
-52.36875,5.5439991,4.801244400000001   -3.142907
58.865625,-4.158,-2.4006222000000004    6.927092
58.865625,-4.158,2.4006222000000004     6.927092
58.865625,4.158,-2.4006222000000004     6.927092
58.865625,4.158,2.4006222000000004      6.927092
58.865625,-0.0,-4.801244400000001       6.927092
58.865625,0.0,4.801244400000001 6.927092
-74.925,-2.7720000000000002,-0.0        -8.177907
-74.925,-1.3860000000000001,2.4006222000000004  -8.177907
-74.925,-1.3860000000000001,-2.4006222000000004 -8.177907
-74.925,1.3860000000000001,-2.4006222000000004  -8.177907
-74.925,2.7720000000000002,-0.0 -8.177907
-74.925,1.3860000000000001,2.4006222000000004   -8.177907
-81.815625,-2.7720000000000002,3.2008293        7.550516
-81.815625,2.7720000000000002,3.2008293 7.550516
-81.815625,-4.158,0.8002071000000001    7.550516
-81.815625,4.158,0.8002071000000001     7.550516
-81.815625,-1.3860000000000001,-4.0010373       7.550516
-81.815625,1.3860000000000001,-4.0010373        7.550516
-41.11875,-2.7720000000000002,-3.2008293        -7.554483
-41.11875,2.7720000000000002,-3.2008293 -7.554483
-41.11875,-4.158,-0.8002071000000001    -7.554483
-41.11875,4.158,-0.8002071000000001     -7.554483
-41.11875,-1.3860000000000001,4.0010373 -7.554483
-41.11875,1.3860000000000001,4.0010373  -7.554483
-450.225,0.0,8.0020737  -0.625931
-450.225,-6.9299991,-4.0010373  -0.625931
-450.225,6.9299991,-4.0010373   -0.625931
-242.775,-6.9299991,-0.8002071000000001 4.409069
-242.775,-4.158,-5.6014515000000005     4.409069
-242.775,-2.7720000000000002,6.4016595  4.409069
-242.775,4.158,-5.6014515000000005      4.409069
-242.775,6.9299991,-0.8002071000000001  4.409069
-242.775,2.7720000000000002,6.4016595   4.409069
279.33750000000003,-5.5439991,-3.2008293        -5.660931
279.33750000000003,5.5439991,-3.2008293 -5.660931
279.33750000000003,0.0,6.4016595        -5.660931
528.3000000000001,-0.0,-8.0020737       2.515516
528.3000000000001,-6.9299991,4.0010373  2.515516
528.3000000000001,6.9299991,4.0010373   2.515516
-84.4875,-8.315999099999999,-0.0        0.004632
-84.4875,4.158,-7.201866600000001       0.004632
-84.4875,-4.158,7.201866600000001       0.004632
-84.4875,8.315999099999999,-0.0 0.004632
-84.4875,-4.158,-7.201866600000001      0.004632
-84.4875,4.158,7.201866600000001        0.004632
-347.175,0.0,8.0020737  -2.519484
-347.175,-6.9299991,-4.0010373  -2.519484
-347.175,6.9299991,-4.0010373   -2.519484
205.20000000000002,-5.5439991,0.0       6.927092
205.20000000000002,-2.7720000000000002,-4.801244400000001       6.927092
205.20000000000002,-2.7720000000000002,4.801244400000001        6.927092
205.20000000000002,2.7720000000000002,-4.801244400000001        6.927092
205.20000000000002,5.5439991,0.0        6.927092
205.20000000000002,2.7720000000000002,4.801244400000001 6.927092
190.6875,-8.315999099999999,-1.6004151  -0.625931
190.6875,-2.7720000000000002,8.0020737  -0.625931
190.6875,-5.5439991,-6.4016595  -0.625931
190.6875,5.5439991,-6.4016595   -0.625931
190.6875,2.7720000000000002,8.0020737   -0.625931
190.6875,8.315999099999999,-1.6004151   -0.625931
100.74375,-8.315999099999999,0.0        1.892092
100.74375,-4.158,-7.201866600000001     1.892092
100.74375,-4.158,7.201866600000001      1.892092
100.74375,4.158,-7.201866600000001      1.892092
100.74375,8.315999099999999,0.0 1.892092
100.74375,4.158,7.201866600000001       1.892092
-3.88828125,-6.9299991,2.4006222000000004       -5.030367
-3.88828125,-6.9299991,-2.4006222000000004      -5.030367
-3.88828125,-5.5439991,-4.801244400000001       -5.030367
-3.88828125,-5.5439991,4.801244400000001        -5.030367
-3.88828125,-6.9299991,2.4006222000000004       5.039632
-3.88828125,1.3860000000000001,-7.201866600000001       -5.030367
-3.88828125,-1.3860000000000001,-7.201866600000001      -5.030367
-3.88828125,-6.9299991,-2.4006222000000004      5.039632
-3.88828125,-5.5439991,-4.801244400000001       5.039632
-3.88828125,-1.3860000000000001,7.201866600000001       -5.030367
-3.88828125,1.3860000000000001,-7.201866600000001       5.039632
-3.88828125,-5.5439991,4.801244400000001        5.039632
-3.88828125,-1.3860000000000001,-7.201866600000001      5.039632
-3.88828125,5.5439991,-4.801244400000001        -5.030367
-3.88828125,1.3860000000000001,7.201866600000001        -5.030367
-3.88828125,6.9299991,-2.4006222000000004       -5.030367
-3.88828125,6.9299991,2.4006222000000004        -5.030367
-3.88828125,5.5439991,4.801244400000001 -5.030367
-3.88828125,-1.3860000000000001,7.201866600000001       5.039632
-3.88828125,5.5439991,-4.801244400000001        5.039632
-3.88828125,6.9299991,-2.4006222000000004       5.039632
-3.88828125,1.3860000000000001,7.201866600000001        5.039632
-3.88828125,6.9299991,2.4006222000000004        5.039632
-3.88828125,5.5439991,4.801244400000001 5.039632
-0.61875,-6.9299991,-0.8002071000000001 -5.660931
-0.61875,-4.158,-5.6014515000000005     -5.660931
-0.61875,-2.7720000000000002,6.4016595  -5.660931
-0.61875,4.158,-5.6014515000000005      -5.660931
-0.61875,2.7720000000000002,6.4016595   -5.660931
-0.61875,6.9299991,-0.8002071000000001  -5.660931
104.4,-1.3860000000000001,0.8002071000000001    9.444068
104.4,0.0,-1.6004151    9.444068
104.4,1.3860000000000001,0.8002071000000001     9.444068
46.18125,-8.315999099999999,1.6004151   2.515516
46.18125,-2.7720000000000002,-8.0020737 2.515516
46.18125,2.7720000000000002,-8.0020737  2.515516
46.18125,-5.5439991,6.4016595   2.515516
46.18125,8.315999099999999,1.6004151    2.515516
46.18125,5.5439991,6.4016595    2.515516
141.1875,-8.315999099999999,-1.6004151  -2.519484
141.1875,-2.7720000000000002,8.0020737  -2.519484
141.1875,-5.5439991,-6.4016595  -2.519484
141.1875,5.5439991,-6.4016595   -2.519484
141.1875,8.315999099999999,-1.6004151   -2.519484
141.1875,2.7720000000000002,8.0020737   -2.519484
197.6625,-8.315999099999999,-0.0        -3.142907
197.6625,-4.158,-7.201866600000001      -3.142907
197.6625,-4.158,7.201866600000001       -3.142907
197.6625,4.158,-7.201866600000001       -3.142907
197.6625,8.315999099999999,-0.0 -3.142907
197.6625,4.158,7.201866600000001        -3.142907
7.780957029,-4.158,-2.4006222000000004  -8.177907
7.780957029,-4.158,2.4006222000000004   -8.177907
7.780957029,4.158,2.4006222000000004    -8.177907
7.780957029,4.158,-2.4006222000000004   -8.177907
7.780957029,-0.0,-4.801244400000001     -8.177907
7.780957029,0.0,4.801244400000001       -8.177907
226.6875,-4.158,-4.0010373      7.550516
226.6875,-5.5439991,-1.6004151  7.550516
226.6875,-1.3860000000000001,5.6014515000000005 7.550516
226.6875,4.158,-4.0010373       7.550516
226.6875,1.3860000000000001,5.6014515000000005  7.550516
226.6875,5.5439991,-1.6004151   7.550516
-313.2,-4.158,4.0010373 -7.554483
-313.2,-5.5439991,1.6004151     -7.554483
-313.2,-1.3860000000000001,-5.6014515000000005  -7.554483
-313.2,1.3860000000000001,-5.6014515000000005   -7.554483
-313.2,5.5439991,1.6004151      -7.554483
-313.2,4.158,4.0010373  -7.554483
64.13906250000001,-6.9299991,5.6014515000000005 -0.625931
64.13906250000001,-8.315999099999999,3.2008293  -0.625931
64.13906250000001,-1.3860000000000001,-8.8022817        -0.625931
64.13906250000001,1.3860000000000001,-8.8022817 -0.625931
64.13906250000001,8.315999099999999,3.2008293   -0.625931
64.13906250000001,6.9299991,5.6014515000000005  -0.625931
-435.375,-0.0,-8.0020737        4.409069
-435.375,-6.9299991,4.0010373   4.409069
-435.375,6.9299991,4.0010373    4.409069

End of input

&SCF
Occupied
9
Iterations
   50  100
End of Input

&RASSCF
LumOrb
Symmetry
1
Spin
2
Nactel
1 0 0
CIRoot
9 9 1
inactive
9
ras2
9
End of Input

>>> COPY chromium_so_cf.JobIph $SLURM_SUBMIT_DIR/chromium_so_cf.doublet.JobIph

>>> COPY $SLURM_SUBMIT_DIR/chromium_so_cf.doublet.JobIph ./JOB002

&RASSI
NROFJobIph
1 All
SpinOrbit
End of Input

EOF

-- ----------------------------------

--- Start Module: seward at Wed Mar 26 12:21:11 2025 ---

()()()()()()()()()()()()()()()()()()()()()()()()()()()()()()()()()()()()()()()()()()()()()()()()()()

                                              &SEWARD

                                   only a single process is used
                       available to each process: 4.1 GB of memory, 1 thread?
                                            pid: 4152707
()()()()()()()()()()()()()()()()()()()()()()()()()()()()()()()()()()()()()()()()()()()()()()()()()()

 The speed of LIGHT in this CALCULATION =   137.03599917700001     
               SEWARD will generate:
                  Multipole Moment integrals up to order  2
                  Kinetic Energy integrals
                  Nuclear Attraction integrals (point charge)
                  One-Electron Hamiltonian integrals
                  Velocity integrals
                  Relativistic Douglas-Kroll-Hess integrals:
                    - Parametrization         : EXP
                    - DKH order of Hamiltonian: 2
                    - DKH order of Properties : 0
                         - multipole moment operators
                         - electric potential operators
                         - contact operators
                  External field from   414 point(s) added to the one-electron Hamiltonian
                  Orbital angular momentum around (-0.0000 -0.0000  0.0088 )
                  Velocity quadrupole around (-0.0000 -0.0000  0.0088 )
                  Atomic mean-field integrals
                  Two-Electron Repulsion integrals

                   Integrals are discarded if absolute value <: 0.10E-13
                   Integral cutoff threshold is set to       <: 0.10E-15

++    Symmetry information:
      ---------------------

                    Character Table for C1 

                             E  
                    a        1  x, y, xy, Rz, z, xz, Ry, yz, Rx, I
--


++    Basis set information:
      ----------------------


      Basis set label: CR.ANO-RCC.ROOS.21S15P10D6F4G2H.10S10P8D6F4G2H......

      Electronic valence basis set:
      ------------------
      Associated Effective Charge  24.000000 au
      Associated Actual Charge     24.000000 au
      Nuclear Model: Point charge

      Shell  nPrim  nBasis  Cartesian Spherical Contaminant
         s      21      10        X                  
         p      15      10        X                  
         d      10       8                 X         
         f       6       6                 X         
         g       4       4                 X         
         h       2       2                 X         
--


++    Molecular structure info:
      -------------------------

                    ************************************************ 
                    **** Cartesian Coordinates / Bohr, Angstrom **** 
                    ************************************************ 

     Center  Label                x              y              z                     x              y              z
        1      CR              -0.000000      -0.000000       0.008754             -0.000000      -0.000000       0.004632
--


++    Operator info:
      --------------


  Net charge from external field:   -39.268449999999902     
--


            Nuclear Potential Energy              0.00000000 au

                    Nuclear-External Field Potential Energy    -243.97242520 au
                    External Field Potential Energy            1784.04100154 au 


            Total Nuclear Potential Energy           -243.97242520 au


      Basis set specifications :
      Symmetry species         a  
      Basis functions          180

 Sorry, Molden does not know how to handle
 functions with angular momentum larger than g
Note: The following floating-point exceptions are signalling: IEEE_UNDERFLOW_FLAG IEEE_DENORMAL
--- Stop Module: seward at Wed Mar 26 12:21:20 2025 /rc=_RC_ALL_IS_WELL_ ---
*** files: chromium_so_cf.GssOrb xmldump
    saved to directory /home4/s4752295/Internship/Initial_simulations/Point_charge_model/1_electron/Madelung_charges_9_active_space/Cr
--- Module seward spent 8 seconds ---

*** symbolic link created: INPORB -> chromium_so_cf.GssOrb
--- Start Module: scf at Wed Mar 26 12:21:20 2025 ---

()()()()()()()()()()()()()()()()()()()()()()()()()()()()()()()()()()()()()()()()()()()()()()()()()()

                                                &SCF

                                   only a single process is used
                       available to each process: 4.1 GB of memory, 1 thread?
                                            pid: 4152710
()()()()()()()()()()()()()()()()()()()()()()()()()()()()()()()()()()()()()()()()()()()()()()()()()()

++    Input section:
      --------------

      Header of the integral files:
      
       Integrals generated by seward 4.2.0  , Wed Mar 26 12:21:12 2025


      Cartesian coordinates in Angstrom:
      -----------------------------------------------------
      No.  Label        X            Y            Z        
      -----------------------------------------------------
       1   CR        -0.00000000  -0.00000000   0.00463220
      -----------------------------------------------------
      Nuclear repulsion energy = -243.97242520
--

++    Orbital specifications:
      -----------------------

      Symmetry species               1
                                     a
      Frozen orbitals                0
      Occupied orbitals              9
      Secondary orbitals           171
      Deleted orbitals               0
      Total number of orbitals     180
      Number of basis functions    180
--

      Molecular charge                           6.000

++    Optimization specifications:
      ----------------------------

      SCF Algorithm: Conventional
      Minimized density differences are used
      Number of density matrices in core                5
      Maximum number of NDDO SCF iterations            50
      Maximum number of HF SCF iterations             100
      Threshold for SCF energy change            0.10E-08
      Threshold for density matrix               0.10E-03
      Threshold for Fock matrix                  0.15E-03
      Threshold for linear dependence            0.10E-08
      Threshold at which DIIS is turned on       0.15E+00
      Threshold at which QNR/C2DIIS is turned on 0.75E-01
      Threshold for Norm(delta) (QNR/C2DIIS)     0.20E-04
      DIIS extrapolation of the SCF procedure
      All orbitals punched on: SCFORB
--

      Detected guessorb starting orbitals                                             


++ Convergence information
                                   SCF        iterations: Energy and convergence statistics

Iter     Tot. SCF        One-elec.       Two-elec.     Energy      Max Dij or  Max Fij      DNorm      TNorm      AccCon     Time
         Energy          Energy          Energy        Change      Delta Norm                                                in Sec.

 The total and one-electron energies are shifted by a value of      1000. a.u.

   1  -100.600601417  -162.004839293   305.376663078   0.00E+00    0.34E+00*   0.62E+00*    0.60E+01   0.25E+03   None         1.
   2  -101.851469979  -173.411256669   315.532211892  -0.13E+01*   0.68E-01*   0.10E+00*    0.17E+01   0.25E+03   EDIIS        1.
   3  -101.884899248  -172.072970906   314.160496859  -0.33E-01*   0.15E-01*   0.30E-01*    0.20E+00   0.25E+03   EDIIS        1.
   4  -101.886391619  -172.263979468   314.350013051  -0.15E-02*   0.14E-02*   0.54E-02*    0.21E-01   0.25E+03   c2DIIS       1.
   5  -101.886473742  -172.242266303   314.328217763  -0.82E-04*   0.32E-03*   0.57E-03*    0.27E-02   0.25E+03   QNRc2DIIS    1.
   6  -101.886474467  -172.239499208   314.325449943  -0.73E-06*   0.13E-03*   0.12E-03     0.42E-03   0.25E+03   QNRc2DIIS    1.
   7  -101.886474534  -172.239763866   314.325714534  -0.67E-07*   0.15E-04    0.32E-04     0.77E-04   0.25E+03   QNRc2DIIS    1.
   8  -101.886474536  -172.239722324   314.325672990  -0.17E-08*   0.50E-05    0.53E-05     0.76E-05   0.25E+03   QNRc2DIIS    1.
   9  -101.886474536  -172.239726456   314.325677122  -0.12E-09    0.21E-06    0.31E-06     0.18E-03   0.25E+03   QNRc2DIIS    1.

       Convergence after  9 Macro Iterations
--

 *****************************************************************************************************************************
 *                                                                                                                           *
 *                                             SCF/KS-DFT Program, Final results                                             *
 *                                                                                                                           *
 *                                                                                                                           *
 *                                                                                                                           *
 *                                                       Final Results                                                       *
 *                                                                                                                           *
 *****************************************************************************************************************************

::    Total SCF energy                              -1101.8864745359
      One-electron energy                           -1172.2397264558
      Two-electron energy                             314.3256771220
      Nuclear repulsion energy                       -243.9724252021
      Kinetic energy (interpolated)                  1076.4392580863
      Virial theorem                                    1.0236401787
      Total spin, S(S+1)                                0.0000000000
      Total spin, S                                     0.0000000000
      Max non-diagonal density matrix element           0.0000001905
      Max non-diagonal Fock matrix element              0.0000000518


      All orbitals with orbital energies smaller than  E(LUMO)+0.5 are printed

++    Molecular orbitals:
      -------------------

      Title: SCF orbitals

      Molecular orbitals for symmetry species 1: a  

          Orbital            1         2         3         4         5         6         7         8         9        10    
          Energy         -216.3149  -20.9528  -16.5800  -16.5800  -16.5766    2.7094    4.1209    4.1210    4.2590    6.3727
          Occ. No.          2.0000    2.0000    2.0000    2.0000    2.0000    2.0000    2.0000    2.0000    2.0000    0.0000

        1 CR     1s         1.0000   -0.0001    0.0000   -0.0000   -0.0001    0.0001   -0.0000   -0.0000    0.0000   -0.0000
        2 CR     2s         0.0001    1.0000    0.0000   -0.0000   -0.0087    0.0022    0.0000   -0.0000   -0.0023    0.0001
        3 CR     3s        -0.0000   -0.0026   -0.0000    0.0000    0.0024    0.9620    0.0002   -0.0000   -0.2489    0.0115
        4 CR     4s         0.0000    0.0002    0.0000   -0.0000   -0.0003   -0.0372   -0.0001    0.0000    0.0608    0.1620
        5 CR     5s        -0.0000   -0.0007   -0.0000    0.0000    0.0006    0.0559    0.0001   -0.0000   -0.0879    0.0619
        6 CR     6s         0.0000    0.0005    0.0000   -0.0000   -0.0004   -0.0251   -0.0000    0.0000    0.0312    0.2328
        7 CR     7s        -0.0000   -0.0002   -0.0000    0.0000    0.0001   -0.0045   -0.0000    0.0000    0.0140    0.5101
        8 CR     8s         0.0000    0.0001    0.0000   -0.0000   -0.0000    0.0042    0.0000    0.0000   -0.0068    0.5377
        9 CR     9s        -0.0000    0.0001    0.0000   -0.0000   -0.0000    0.0009    0.0000   -0.0000   -0.0034    0.1208
       10 CR    10s         0.0001   -0.0002   -0.0000    0.0000    0.0000    0.0002    0.0000   -0.0000   -0.0004    0.0123
       11 CR     2px        0.0001    0.0087   -0.0030    0.0000    0.9999   -0.0014   -0.0000    0.0000    0.0039   -0.0003
       12 CR     3px       -0.0000    0.0016    0.0000   -0.0000   -0.0036    0.2622   -0.0018    0.0000    0.9320   -0.0201
       13 CR     4px        0.0000   -0.0003   -0.0000    0.0000    0.0006   -0.0004    0.0001   -0.0000   -0.0608    0.0885
       14 CR     5px       -0.0000    0.0006    0.0000   -0.0000   -0.0011   -0.0098   -0.0001    0.0000    0.0776   -0.1718
       15 CR     6px        0.0000   -0.0002   -0.0000    0.0000    0.0003    0.0060    0.0000   -0.0000   -0.0113   -0.3886
       16 CR     7px       -0.0000    0.0002    0.0000   -0.0000   -0.0001   -0.0034    0.0000   -0.0000   -0.0023   -0.2225
       17 CR     8px        0.0000   -0.0001    0.0000   -0.0000   -0.0001   -0.0014   -0.0000   -0.0000    0.0038   -0.2230
       18 CR     9px       -0.0000    0.0000   -0.0000    0.0000    0.0003    0.0010   -0.0000   -0.0000   -0.0015   -0.1550
       19 CR    10px        0.0000   -0.0000    0.0000   -0.0000   -0.0003    0.0005    0.0000   -0.0000   -0.0023   -0.0654
       20 CR    11px       -0.0000    0.0001   -0.0000    0.0000    0.0002    0.0000    0.0000   -0.0000   -0.0008   -0.0105
       21 CR     2py       -0.0000   -0.0000    0.0000    1.0000   -0.0000   -0.0000    0.0000    0.0033    0.0000    0.0000
       22 CR     3py        0.0000    0.0000   -0.0000   -0.0034    0.0000   -0.0000    0.0000    0.9796   -0.0000   -0.0000
       23 CR     4py       -0.0000   -0.0000    0.0000    0.0006   -0.0000    0.0000   -0.0000   -0.0766    0.0000   -0.0000
       24 CR     5py        0.0000    0.0000   -0.0000   -0.0010    0.0000   -0.0000    0.0000    0.0844   -0.0000    0.0000
       25 CR     6py       -0.0000   -0.0000    0.0000    0.0003   -0.0000    0.0000   -0.0000   -0.0039    0.0000    0.0000
       26 CR     7py        0.0000    0.0000   -0.0000   -0.0002    0.0000   -0.0000   -0.0000   -0.0107   -0.0000    0.0000
       27 CR     8py       -0.0000   -0.0000   -0.0000   -0.0001    0.0000    0.0000    0.0000    0.0023   -0.0000    0.0000
       28 CR     9py        0.0000    0.0000    0.0000    0.0002   -0.0000   -0.0000    0.0000    0.0023   -0.0000    0.0000
       29 CR    10py       -0.0000   -0.0000   -0.0000   -0.0002    0.0000    0.0000   -0.0000   -0.0004   -0.0000    0.0000
       30 CR    11py        0.0000    0.0000    0.0000    0.0002   -0.0000    0.0000   -0.0000   -0.0005    0.0000    0.0000
       31 CR     2pz        0.0000    0.0000    1.0000   -0.0000    0.0030   -0.0000    0.0033   -0.0000    0.0000   -0.0000
       32 CR     3pz       -0.0000    0.0000   -0.0034    0.0000   -0.0000    0.0002    0.9796   -0.0000    0.0017   -0.0000
       33 CR     4pz        0.0000   -0.0000    0.0006   -0.0000    0.0000   -0.0000   -0.0765    0.0000   -0.0001    0.0001
       34 CR     5pz       -0.0000    0.0000   -0.0010    0.0000   -0.0000   -0.0000    0.0844   -0.0000    0.0002    0.0005
       35 CR     6pz        0.0000   -0.0000    0.0003   -0.0000    0.0000    0.0000   -0.0039    0.0000   -0.0000    0.0031
       36 CR     7pz       -0.0000    0.0000   -0.0002    0.0000   -0.0000   -0.0000   -0.0107    0.0000   -0.0000    0.0031
       37 CR     8pz        0.0000   -0.0000   -0.0001    0.0000   -0.0000   -0.0000    0.0023   -0.0000    0.0000    0.0034
       38 CR     9pz       -0.0000    0.0000    0.0002   -0.0000    0.0000    0.0000    0.0023   -0.0000   -0.0000    0.0021
       39 CR    10pz        0.0000   -0.0000   -0.0002    0.0000   -0.0000    0.0000   -0.0004    0.0000   -0.0000    0.0008
       40 CR    11pz       -0.0000    0.0000    0.0002   -0.0000    0.0000    0.0000   -0.0005    0.0000   -0.0000    0.0001
       41 CR     3d2-       0.0000    0.0000    0.0000    0.0008   -0.0000   -0.0000    0.0000    0.1592   -0.0000   -0.0000
       42 CR     4d2-      -0.0000   -0.0000   -0.0000   -0.0007    0.0000    0.0000   -0.0000   -0.0319    0.0000    0.0000
       43 CR     5d2-      -0.0000    0.0000    0.0000    0.0004   -0.0000    0.0000   -0.0000   -0.0212    0.0000    0.0000
       44 CR     6d2-      -0.0000   -0.0000   -0.0000   -0.0003    0.0000    0.0000    0.0000    0.0089   -0.0000    0.0000
       45 CR     7d2-       0.0000    0.0000    0.0000    0.0001   -0.0000   -0.0000    0.0000    0.0056   -0.0000   -0.0000
       46 CR     8d2-      -0.0000   -0.0000   -0.0000   -0.0001    0.0000   -0.0000   -0.0000   -0.0006   -0.0000   -0.0000
       47 CR     9d2-       0.0000    0.0000    0.0000    0.0001   -0.0000    0.0000   -0.0000   -0.0025    0.0000   -0.0000
       48 CR    10d2-      -0.0000    0.0000   -0.0000   -0.0001    0.0000   -0.0000   -0.0000   -0.0005   -0.0000   -0.0000
       49 CR     3d1-      -0.0000    0.0000    0.0000    0.0000    0.0000   -0.0000   -0.0000   -0.0014   -0.0000    0.0000
       50 CR     4d1-       0.0000   -0.0000   -0.0000   -0.0000    0.0000    0.0000   -0.0000   -0.0007    0.0000    0.0000
       51 CR     5d1-      -0.0000    0.0000    0.0000    0.0000   -0.0000    0.0000    0.0000    0.0004    0.0000   -0.0000
       52 CR     6d1-      -0.0000   -0.0000   -0.0000   -0.0000   -0.0000    0.0000    0.0000    0.0004    0.0000    0.0000
       53 CR     7d1-       0.0000    0.0000    0.0000    0.0000    0.0000    0.0000    0.0000    0.0000    0.0000    0.0000
       54 CR     8d1-      -0.0000   -0.0000   -0.0000   -0.0000   -0.0000   -0.0000   -0.0000   -0.0004   -0.0000    0.0000
       55 CR     9d1-       0.0000    0.0000    0.0000    0.0000    0.0000   -0.0000   -0.0000   -0.0002   -0.0000    0.0000
       56 CR    10d1-       0.0000   -0.0000   -0.0000   -0.0000   -0.0000    0.0000   -0.0000   -0.0000   -0.0000    0.0000
       57 CR     3d0       -0.0000    0.0000    0.0000   -0.0000   -0.0005   -0.0091    0.0016   -0.0000   -0.1048   -0.0564
       58 CR     4d0        0.0000   -0.0000   -0.0000    0.0000    0.0004   -0.0012    0.0005   -0.0000    0.0212   -0.0366
       59 CR     5d0       -0.0000    0.0000   -0.0000   -0.0000   -0.0002    0.0031   -0.0004    0.0000    0.0133   -0.0184
       60 CR     6d0       -0.0000    0.0000    0.0000   -0.0000    0.0001   -0.0000   -0.0003    0.0000   -0.0050   -0.0161
       61 CR     7d0        0.0000   -0.0000   -0.0000    0.0000   -0.0000   -0.0008   -0.0000   -0.0000   -0.0034   -0.0358
       62 CR     8d0       -0.0000    0.0000    0.0000   -0.0000    0.0000   -0.0004    0.0003   -0.0000   -0.0000   -0.0338
       63 CR     9d0        0.0000   -0.0000    0.0000   -0.0000   -0.0000    0.0004    0.0002   -0.0000    0.0013   -0.0152
       64 CR    10d0       -0.0000   -0.0000   -0.0000    0.0000    0.0001    0.0002    0.0000   -0.0000    0.0003   -0.0029
       65 CR     3d1+       0.0000   -0.0000    0.0008   -0.0000    0.0000   -0.0000    0.1593   -0.0000    0.0006   -0.0000
       66 CR     4d1+      -0.0000    0.0000   -0.0007    0.0000   -0.0000    0.0000   -0.0319    0.0000   -0.0001   -0.0002
       67 CR     5d1+      -0.0000   -0.0000    0.0004   -0.0000    0.0000   -0.0000   -0.0213    0.0000   -0.0001   -0.0006
       68 CR     6d1+       0.0000    0.0000   -0.0003    0.0000   -0.0000   -0.0000    0.0089   -0.0000    0.0000   -0.0007
       69 CR     7d1+      -0.0000    0.0000    0.0001   -0.0000    0.0000    0.0000    0.0056   -0.0000    0.0000   -0.0012
       70 CR     8d1+       0.0000   -0.0000   -0.0001    0.0000   -0.0000    0.0000   -0.0006    0.0000    0.0000   -0.0010
       71 CR     9d1+      -0.0000    0.0000    0.0001   -0.0000    0.0000   -0.0000   -0.0025    0.0000   -0.0000   -0.0006
       72 CR    10d1+       0.0000   -0.0000   -0.0001    0.0000   -0.0000   -0.0000   -0.0005    0.0000   -0.0000   -0.0002
       73 CR     3d2+       0.0000   -0.0000   -0.0000    0.0000    0.0009    0.0157    0.0005   -0.0000    0.1817    0.0986
       74 CR     4d2+      -0.0000    0.0000    0.0000   -0.0000   -0.0007    0.0022    0.0004   -0.0000   -0.0368    0.0639
       75 CR     5d2+       0.0000   -0.0000   -0.0000    0.0000    0.0004   -0.0053   -0.0002    0.0000   -0.0230    0.0322
       76 CR     6d2+       0.0000   -0.0000    0.0000   -0.0000   -0.0002    0.0000   -0.0002    0.0000    0.0086    0.0278
       77 CR     7d2+      -0.0000    0.0000   -0.0000    0.0000    0.0001    0.0014   -0.0000    0.0000    0.0060    0.0614
       78 CR     8d2+       0.0000   -0.0000    0.0000   -0.0000   -0.0000    0.0007    0.0002   -0.0000    0.0001    0.0575
       79 CR     9d2+      -0.0000    0.0000   -0.0000    0.0000    0.0001   -0.0007    0.0001   -0.0000   -0.0023    0.0256
       80 CR    10d2+       0.0000    0.0000    0.0000   -0.0000   -0.0001   -0.0003    0.0000   -0.0000   -0.0005    0.0049
       81 CR     4f3-      -0.0000   -0.0000   -0.0000   -0.0001    0.0000    0.0000    0.0000    0.0105   -0.0000   -0.0000
       82 CR     5f3-       0.0000    0.0000    0.0000    0.0001   -0.0000   -0.0000    0.0000    0.0071   -0.0000   -0.0000
       83 CR     6f3-      -0.0000   -0.0000   -0.0000   -0.0000    0.0000   -0.0000   -0.0000   -0.0020   -0.0000    0.0000
       84 CR     7f3-       0.0000    0.0000    0.0000    0.0000   -0.0000   -0.0000   -0.0000   -0.0031   -0.0000    0.0000
       85 CR     8f3-      -0.0000   -0.0000    0.0000    0.0000   -0.0000    0.0000   -0.0000   -0.0002   -0.0000    0.0000
       86 CR     9f3-       0.0000    0.0000   -0.0000   -0.0000    0.0000   -0.0000    0.0000    0.0014   -0.0000    0.0000
       87 CR     4f2-      -0.0000   -0.0000   -0.0000   -0.0000    0.0000   -0.0000   -0.0000   -0.0027    0.0000    0.0000
       88 CR     5f2-       0.0000    0.0000    0.0000    0.0000   -0.0000    0.0000   -0.0000   -0.0024    0.0000    0.0000
       89 CR     6f2-      -0.0000   -0.0000   -0.0000   -0.0000   -0.0000   -0.0000    0.0000    0.0000    0.0000    0.0000
       90 CR     7f2-       0.0000   -0.0000    0.0000    0.0000    0.0000    0.0000    0.0000    0.0010    0.0000   -0.0000
       91 CR     8f2-      -0.0000    0.0000   -0.0000   -0.0000   -0.0000    0.0000    0.0000    0.0003   -0.0000   -0.0000
       92 CR     9f2-       0.0000   -0.0000   -0.0000   -0.0000    0.0000   -0.0000   -0.0000   -0.0002    0.0000   -0.0000
       93 CR     4f1-      -0.0000   -0.0000    0.0000    0.0000   -0.0000    0.0000   -0.0000   -0.0027    0.0000    0.0000
       94 CR     5f1-       0.0000    0.0000   -0.0000   -0.0000    0.0000    0.0000   -0.0000   -0.0018    0.0000    0.0000
       95 CR     6f1-      -0.0000   -0.0000    0.0000    0.0000   -0.0000    0.0000    0.0000    0.0005   -0.0000    0.0000
       96 CR     7f1-       0.0000    0.0000   -0.0000   -0.0000    0.0000    0.0000    0.0000    0.0008    0.0000   -0.0000
       97 CR     8f1-      -0.0000   -0.0000   -0.0000   -0.0000    0.0000    0.0000    0.0000    0.0000   -0.0000   -0.0000
       98 CR     9f1-      -0.0000    0.0000    0.0000    0.0000   -0.0000   -0.0000   -0.0000   -0.0004    0.0000   -0.0000
       99 CR     4f0       -0.0000    0.0000    0.0000   -0.0000    0.0000    0.0004   -0.0067    0.0000    0.0015    0.0064
      100 CR     5f0        0.0000    0.0000   -0.0000    0.0000   -0.0000    0.0004   -0.0046    0.0000    0.0014    0.0130
      101 CR     6f0       -0.0000   -0.0000    0.0000   -0.0000    0.0000   -0.0000    0.0013   -0.0000    0.0000    0.0124
      102 CR     7f0        0.0000    0.0000   -0.0000    0.0000   -0.0000   -0.0002    0.0020   -0.0000   -0.0005    0.0071
      103 CR     8f0       -0.0000   -0.0000   -0.0000    0.0000    0.0000   -0.0000    0.0001   -0.0000   -0.0001    0.0015
      104 CR     9f0        0.0000    0.0000    0.0000   -0.0000    0.0000    0.0001   -0.0009    0.0000    0.0002   -0.0005
      105 CR     4f1+       0.0000   -0.0000    0.0000   -0.0000    0.0000   -0.0017    0.0021   -0.0000   -0.0079   -0.0176
      106 CR     5f1+      -0.0000    0.0000   -0.0000    0.0000   -0.0000   -0.0007    0.0019   -0.0000   -0.0047   -0.0134
      107 CR     6f1+       0.0000   -0.0000   -0.0000    0.0000    0.0000    0.0004   -0.0000    0.0000    0.0018    0.0036
      108 CR     7f1+      -0.0000    0.0000    0.0000   -0.0000   -0.0000    0.0003   -0.0008    0.0000    0.0021    0.0137
      109 CR     8f1+       0.0000    0.0000   -0.0000    0.0000   -0.0000   -0.0001   -0.0003    0.0000   -0.0001    0.0129
      110 CR     9f1+      -0.0000   -0.0000    0.0000   -0.0000    0.0000   -0.0002    0.0002   -0.0000   -0.0012    0.0118
      111 CR     4f2+      -0.0000    0.0000   -0.0001    0.0000    0.0000    0.0004    0.0087   -0.0000    0.0012    0.0051
      112 CR     5f2+       0.0000    0.0000    0.0000   -0.0000   -0.0000    0.0003    0.0059   -0.0000    0.0011    0.0103
      113 CR     6f2+      -0.0000   -0.0000   -0.0000    0.0000   -0.0000   -0.0000   -0.0016    0.0000   -0.0000    0.0099
      114 CR     7f2+       0.0000    0.0000    0.0000   -0.0000    0.0000   -0.0001   -0.0026    0.0000   -0.0005    0.0058
      115 CR     8f2+      -0.0000   -0.0000    0.0000   -0.0000    0.0000   -0.0000   -0.0001    0.0000   -0.0001    0.0015
      116 CR     9f2+       0.0000    0.0000   -0.0000    0.0000    0.0000    0.0001    0.0012   -0.0000    0.0002   -0.0001
      117 CR     4f3+      -0.0000    0.0000    0.0000   -0.0000   -0.0001    0.0022    0.0017   -0.0000    0.0103    0.0232
      118 CR     5f3+       0.0000   -0.0000   -0.0000    0.0000    0.0001    0.0009    0.0015   -0.0000    0.0062    0.0179
      119 CR     6f3+      -0.0000    0.0000    0.0000   -0.0000   -0.0000   -0.0006   -0.0000    0.0000   -0.0023   -0.0043
      120 CR     7f3+       0.0000   -0.0000   -0.0000    0.0000    0.0000   -0.0004   -0.0006    0.0000   -0.0027   -0.0177
      121 CR     8f3+      -0.0000   -0.0000   -0.0000    0.0000    0.0000    0.0001   -0.0002    0.0000    0.0002   -0.0165
      122 CR     9f3+       0.0000    0.0000    0.0000   -0.0000   -0.0000    0.0003    0.0001   -0.0000    0.0016   -0.0151
      123 CR     5g4-      -0.0000   -0.0000    0.0000    0.0000   -0.0000    0.0000    0.0000    0.0024   -0.0000   -0.0000
      124 CR     6g4-       0.0000    0.0000   -0.0000   -0.0000    0.0000   -0.0000    0.0000    0.0029   -0.0000   -0.0000
      125 CR     7g4-      -0.0000   -0.0000    0.0000    0.0000   -0.0000   -0.0000    0.0000    0.0010   -0.0000   -0.0000
      126 CR     8g4-       0.0000    0.0000   -0.0000   -0.0000    0.0000   -0.0000   -0.0000   -0.0006   -0.0000   -0.0000
      127 CR     5g3-       0.0000    0.0000   -0.0000   -0.0000    0.0000    0.0000   -0.0000   -0.0017    0.0000    0.0000
      128 CR     6g3-      -0.0000   -0.0000    0.0000    0.0000    0.0000   -0.0000   -0.0000   -0.0025    0.0000    0.0000
      129 CR     7g3-       0.0000    0.0000   -0.0000   -0.0000   -0.0000    0.0000   -0.0000   -0.0013   -0.0000    0.0000
      130 CR     8g3-      -0.0000   -0.0000    0.0000    0.0000    0.0000   -0.0000    0.0000    0.0001   -0.0000    0.0000
      131 CR     5g2-      -0.0000   -0.0000   -0.0000   -0.0000    0.0000   -0.0000   -0.0000   -0.0009    0.0000    0.0000
      132 CR     6g2-       0.0000    0.0000    0.0000    0.0000   -0.0000   -0.0000   -0.0000   -0.0011    0.0000    0.0000
      133 CR     7g2-      -0.0000   -0.0000   -0.0000   -0.0000    0.0000    0.0000   -0.0000   -0.0004    0.0000    0.0000
      134 CR     8g2-       0.0000    0.0000    0.0000    0.0000    0.0000   -0.0000    0.0000    0.0002    0.0000   -0.0000
      135 CR     5g1-      -0.0000   -0.0000    0.0000    0.0000   -0.0000    0.0000    0.0000    0.0007   -0.0000   -0.0000
      136 CR     6g1-       0.0000    0.0000    0.0000    0.0000   -0.0000   -0.0000    0.0000    0.0011   -0.0000   -0.0000
      137 CR     7g1-      -0.0000   -0.0000   -0.0000   -0.0000    0.0000   -0.0000    0.0000    0.0005   -0.0000   -0.0000
      138 CR     8g1-       0.0000    0.0000   -0.0000   -0.0000    0.0000   -0.0000   -0.0000   -0.0002   -0.0000   -0.0000
      139 CR     5g0        0.0000   -0.0000   -0.0000    0.0000    0.0000   -0.0002   -0.0009    0.0000    0.0005    0.0001
      140 CR     6g0        0.0000    0.0000    0.0000   -0.0000   -0.0000   -0.0002   -0.0014    0.0000    0.0001   -0.0005
      141 CR     7g0        0.0000   -0.0000   -0.0000    0.0000    0.0000   -0.0001   -0.0007    0.0000   -0.0003   -0.0014
      142 CR     8g0        0.0000    0.0000    0.0000   -0.0000   -0.0000    0.0000    0.0000   -0.0000   -0.0002   -0.0017
      143 CR     5g1+      -0.0000    0.0000   -0.0000    0.0000    0.0000    0.0008   -0.0020    0.0000    0.0011    0.0041
      144 CR     6g1+      -0.0000    0.0000    0.0000   -0.0000    0.0000    0.0009   -0.0024    0.0000    0.0019    0.0089
      145 CR     7g1+      -0.0000    0.0000   -0.0000    0.0000   -0.0000    0.0003   -0.0008    0.0000    0.0010    0.0076
      146 CR     8g1+       0.0000   -0.0000    0.0000   -0.0000   -0.0000   -0.0002    0.0005   -0.0000   -0.0001    0.0036
      147 CR     5g2+      -0.0000    0.0000    0.0000   -0.0000   -0.0000    0.0002    0.0010   -0.0000   -0.0008   -0.0003
      148 CR     6g2+      -0.0000   -0.0000    0.0000   -0.0000    0.0000    0.0002    0.0015   -0.0000   -0.0002    0.0006
      149 CR     7g2+      -0.0000    0.0000   -0.0000    0.0000   -0.0000    0.0001    0.0007   -0.0000    0.0004    0.0020
      150 CR     8g2+      -0.0000   -0.0000   -0.0000    0.0000    0.0000   -0.0000   -0.0002    0.0000    0.0003    0.0026
      151 CR     5g3+      -0.0000    0.0000    0.0000   -0.0000    0.0000    0.0010    0.0018   -0.0000    0.0013    0.0048
      152 CR     6g3+      -0.0000    0.0000   -0.0000    0.0000    0.0000    0.0011    0.0021   -0.0000    0.0022    0.0103
      153 CR     7g3+      -0.0000    0.0000    0.0000   -0.0000   -0.0000    0.0003    0.0007   -0.0000    0.0011    0.0087
      154 CR     8g3+       0.0000   -0.0000   -0.0000    0.0000   -0.0000   -0.0003   -0.0004    0.0000   -0.0002    0.0041
      155 CR     5g4+       0.0000   -0.0000    0.0000   -0.0000    0.0000   -0.0002    0.0012   -0.0000    0.0011    0.0005
      156 CR     6g4+       0.0000    0.0000   -0.0000    0.0000   -0.0000   -0.0003    0.0019   -0.0000    0.0004   -0.0004
      157 CR     7g4+       0.0000   -0.0000   -0.0000    0.0000    0.0000   -0.0001    0.0009   -0.0000   -0.0004   -0.0025
      158 CR     8g4+       0.0000    0.0000   -0.0000    0.0000   -0.0000    0.0000   -0.0001    0.0000   -0.0005   -0.0034
      159 CR     6h5-      -0.0000   -0.0000   -0.0000   -0.0000   -0.0000    0.0000    0.0000    0.0003   -0.0000    0.0000
      160 CR     7h5-       0.0000    0.0000    0.0000    0.0000    0.0000   -0.0000    0.0000    0.0008   -0.0000   -0.0000
      161 CR     6h4-      -0.0000   -0.0000    0.0000    0.0000   -0.0000    0.0000   -0.0000   -0.0003    0.0000    0.0000
      162 CR     7h4-      -0.0000    0.0000   -0.0000   -0.0000    0.0000   -0.0000   -0.0000   -0.0008    0.0000    0.0000
      163 CR     6h3-      -0.0000   -0.0000    0.0000    0.0000   -0.0000    0.0000   -0.0000   -0.0002    0.0000    0.0000
      164 CR     7h3-       0.0000    0.0000   -0.0000   -0.0000    0.0000   -0.0000   -0.0000   -0.0004   -0.0000    0.0000
      165 CR     6h2-       0.0000    0.0000    0.0000    0.0000   -0.0000    0.0000    0.0000    0.0010   -0.0000   -0.0000
      166 CR     7h2-       0.0000    0.0000   -0.0000   -0.0000    0.0000    0.0000    0.0000    0.0015   -0.0000   -0.0000
      167 CR     6h1-      -0.0000   -0.0000   -0.0000   -0.0000   -0.0000    0.0000   -0.0000   -0.0000    0.0000    0.0000
      168 CR     7h1-       0.0000    0.0000    0.0000    0.0000    0.0000   -0.0000    0.0000    0.0000   -0.0000    0.0000
      169 CR     6h0        0.0000   -0.0000   -0.0000    0.0000   -0.0000   -0.0006    0.0002   -0.0000   -0.0009   -0.0021
      170 CR     7h0        0.0000   -0.0000    0.0000   -0.0000   -0.0000   -0.0008    0.0005   -0.0000   -0.0015   -0.0043
      171 CR     6h1+       0.0000   -0.0000    0.0000   -0.0000   -0.0000   -0.0002   -0.0001    0.0000   -0.0007   -0.0011
      172 CR     7h1+       0.0000   -0.0000   -0.0000    0.0000    0.0000   -0.0004   -0.0005    0.0000   -0.0010   -0.0025
      173 CR     6h2+      -0.0000    0.0000    0.0000   -0.0000    0.0000    0.0003   -0.0002    0.0000    0.0005    0.0012
      174 CR     7h2+      -0.0000    0.0000   -0.0000    0.0000    0.0000    0.0005   -0.0005    0.0000    0.0009    0.0025
      175 CR     6h3+      -0.0000    0.0000    0.0000   -0.0000    0.0000    0.0003    0.0008   -0.0000    0.0007    0.0012
      176 CR     7h3+      -0.0000    0.0000   -0.0000    0.0000   -0.0000    0.0004    0.0011   -0.0000    0.0011    0.0026
      177 CR     6h4+      -0.0000    0.0000   -0.0000    0.0000    0.0000    0.0009    0.0002   -0.0000    0.0014    0.0033
      178 CR     7h4+      -0.0000    0.0000    0.0000   -0.0000    0.0000    0.0012    0.0005   -0.0000    0.0023    0.0067
      179 CR     6h5+       0.0000   -0.0000    0.0000   -0.0000   -0.0000   -0.0003    0.0007   -0.0000   -0.0009   -0.0015
      180 CR     7h5+       0.0000   -0.0000    0.0000   -0.0000    0.0000   -0.0005    0.0012   -0.0000   -0.0013   -0.0033

          Orbital           11        12        13        14        15        16        17        18    
          Energy            6.5256    6.6439    6.6445    6.6602    6.6603    6.7613    6.7616    6.8540
          Occ. No.          0.0000    0.0000    0.0000    0.0000    0.0000    0.0000    0.0000    0.0000

        1 CR     1s        -0.0000    0.0000   -0.0000   -0.0000    0.0000    0.0000    0.0000    0.0000
        2 CR     2s         0.0004   -0.0000   -0.0000    0.0000    0.0000   -0.0000    0.0000    0.0001
        3 CR     3s         0.0398   -0.0002   -0.0000    0.0001   -0.0000   -0.0001   -0.0000    0.0007
        4 CR     4s         0.3625   -0.0019   -0.0000   -0.0010    0.0000   -0.0010    0.0000   -0.3256
        5 CR     5s        -0.2845    0.0023    0.0000   -0.0007    0.0000    0.0000    0.0000   -0.2477
        6 CR     6s        -0.1599    0.0019    0.0000   -0.0009    0.0000   -0.0001    0.0000   -0.2543
        7 CR     7s        -0.0618    0.0014   -0.0000   -0.0015    0.0000   -0.0001    0.0000   -0.0839
        8 CR     8s        -0.1096    0.0014   -0.0000   -0.0017    0.0000    0.0001    0.0000   -0.0005
        9 CR     9s        -0.0408    0.0004   -0.0000   -0.0004    0.0000    0.0001    0.0000    0.0134
       10 CR    10s        -0.0055    0.0000   -0.0000   -0.0000    0.0000    0.0000    0.0000    0.0019
       11 CR     2px       -0.0011    0.0000    0.0000   -0.0000   -0.0000    0.0000   -0.0000   -0.0004
       12 CR     3px       -0.0909    0.0003    0.0000   -0.0004    0.0000    0.0002    0.0000   -0.0352
       13 CR     4px        0.5381   -0.0037   -0.0000    0.0006   -0.0000   -0.0009    0.0000   -0.0820
       14 CR     5px       -0.2250    0.0001    0.0000    0.0008   -0.0000    0.0004    0.0000   -0.0704
       15 CR     6px       -0.0377   -0.0024   -0.0000    0.0038   -0.0000   -0.0000    0.0000   -0.1145
       16 CR     7px        0.2120   -0.0029   -0.0000    0.0026   -0.0000   -0.0003   -0.0000   -0.0670
       17 CR     8px        0.1460   -0.0024   -0.0000    0.0019   -0.0000   -0.0002   -0.0000   -0.0455
       18 CR     9px       -0.0016   -0.0009   -0.0000    0.0008   -0.0000    0.0000   -0.0000   -0.0110
       19 CR    10px       -0.0242   -0.0002    0.0000    0.0002   -0.0000    0.0000   -0.0000    0.0012
       20 CR    11px       -0.0054   -0.0000    0.0000    0.0000   -0.0000    0.0000   -0.0000    0.0007
       21 CR     2py        0.0000   -0.0000    0.0009   -0.0000   -0.0009    0.0000   -0.0005    0.0000
       22 CR     3py       -0.0000   -0.0000    0.0693   -0.0000   -0.0693   -0.0000   -0.0376   -0.0000
       23 CR     4py        0.0000    0.0000   -0.1868    0.0000    0.2151    0.0000    0.0850   -0.0000
       24 CR     5py        0.0000   -0.0000    0.1829   -0.0000   -0.0397   -0.0000   -0.0437   -0.0000
       25 CR     6py        0.0000   -0.0000    0.3859    0.0000    0.2941    0.0000   -0.0057   -0.0000
       26 CR     7py        0.0000   -0.0000    0.2769    0.0000    0.3894    0.0000    0.0234    0.0000
       27 CR     8py        0.0000   -0.0000    0.3368    0.0000    0.4089    0.0000    0.0135    0.0000
       28 CR     9py        0.0000   -0.0000    0.2399    0.0000    0.2253    0.0000    0.0006   -0.0000
       29 CR    10py        0.0000   -0.0000    0.0980    0.0000    0.0771    0.0000   -0.0009   -0.0000
       30 CR    11py        0.0000   -0.0000    0.0153    0.0000    0.0110    0.0000   -0.0002   -0.0000
       31 CR     2pz       -0.0000   -0.0010   -0.0000   -0.0008    0.0000    0.0005   -0.0000   -0.0000
       32 CR     3pz       -0.0003   -0.0760   -0.0000   -0.0624    0.0000    0.0363   -0.0000   -0.0002
       33 CR     4pz        0.0008    0.2074    0.0000    0.1973   -0.0000   -0.0820    0.0000   -0.0045
       34 CR     5pz       -0.0010   -0.1870   -0.0000   -0.0221    0.0000    0.0422   -0.0000   -0.0033
       35 CR     6pz       -0.0027   -0.3561   -0.0000    0.3300   -0.0000    0.0055   -0.0000   -0.0026
       36 CR     7pz       -0.0024   -0.2372   -0.0000    0.4148   -0.0000   -0.0226    0.0000    0.0015
       37 CR     8pz       -0.0030   -0.2953   -0.0000    0.4400   -0.0000   -0.0130    0.0000    0.0027
       38 CR     9pz       -0.0020   -0.2173   -0.0000    0.2476   -0.0000   -0.0006   -0.0000    0.0016
       39 CR    10pz       -0.0008   -0.0903   -0.0000    0.0862   -0.0000    0.0009   -0.0000    0.0005
       40 CR    11pz       -0.0001   -0.0142   -0.0000    0.0124   -0.0000    0.0002   -0.0000    0.0001
       41 CR     3d2-       0.0000    0.0000   -0.5767    0.0000    0.5502    0.0000    0.2920    0.0000
       42 CR     4d2-      -0.0000    0.0000   -0.0460   -0.0000   -0.0089   -0.0000   -0.0411   -0.0000
       43 CR     5d2-      -0.0000    0.0000   -0.0403   -0.0000   -0.0786   -0.0000   -0.0065   -0.0000
       44 CR     6d2-      -0.0000    0.0000   -0.0387   -0.0000   -0.1317   -0.0000   -0.0104   -0.0000
       45 CR     7d2-      -0.0000    0.0000   -0.1310   -0.0000   -0.1578   -0.0000   -0.0023    0.0000
       46 CR     8d2-      -0.0000    0.0000   -0.1583   -0.0000   -0.0849    0.0000    0.0053    0.0000
       47 CR     9d2-      -0.0000    0.0000   -0.0930   -0.0000   -0.0291    0.0000    0.0037    0.0000
       48 CR    10d2-      -0.0000    0.0000   -0.0224   -0.0000   -0.0073    0.0000    0.0007    0.0000
       49 CR     3d1-       0.0000   -0.0000    0.2000   -0.0000   -0.2207    0.0000    0.9006    0.0000
       50 CR     4d1-      -0.0000    0.0000   -0.0274    0.0000    0.0119   -0.0000   -0.2542   -0.0000
       51 CR     5d1-       0.0000    0.0000   -0.0145   -0.0000   -0.0018    0.0000   -0.0031   -0.0000
       52 CR     6d1-       0.0000    0.0000   -0.0025    0.0000    0.0244    0.0000    0.0120   -0.0000
       53 CR     7d1-       0.0000   -0.0000    0.0388    0.0000    0.0556    0.0000    0.0164   -0.0000
       54 CR     8d1-       0.0000   -0.0000    0.0742    0.0000    0.0621    0.0000    0.0017   -0.0000
       55 CR     9d1-       0.0000   -0.0000    0.0568    0.0000    0.0391   -0.0000   -0.0015   -0.0000
       56 CR    10d1-       0.0000   -0.0000    0.0158    0.0000    0.0107   -0.0000   -0.0001    0.0000
       57 CR     3d0       -0.2456    0.1860    0.0000    0.1675   -0.0000    0.7832   -0.0000   -0.1099
       58 CR     4d0       -0.0624   -0.0232   -0.0000   -0.0068    0.0000   -0.2209    0.0000   -0.0531
       59 CR     5d0        0.0436   -0.0129   -0.0000    0.0035   -0.0000   -0.0031    0.0000   -0.1454
       60 CR     6d0        0.0627   -0.0052   -0.0000   -0.0196    0.0000    0.0099   -0.0000   -0.1398
       61 CR     7d0        0.0330    0.0269    0.0000   -0.0489    0.0000    0.0138   -0.0000   -0.1530
       62 CR     8d0       -0.0236    0.0569    0.0000   -0.0577    0.0000    0.0015   -0.0000   -0.0531
       63 CR     9d0       -0.0228    0.0446    0.0000   -0.0373    0.0000   -0.0012    0.0000    0.0043
       64 CR    10d0       -0.0048    0.0124    0.0000   -0.0103    0.0000   -0.0001    0.0000    0.0041
       65 CR     3d1+       0.0022    0.6284    0.0000    0.4928   -0.0000   -0.2833    0.0000    0.0004
       66 CR     4d1+       0.0004    0.0465    0.0000   -0.0121    0.0000    0.0402   -0.0000   -0.0012
       67 CR     5d1+       0.0001    0.0320    0.0000   -0.0824    0.0000    0.0063   -0.0000   -0.0015
       68 CR     6d1+       0.0004    0.0250    0.0000   -0.1353    0.0000    0.0100   -0.0000   -0.0012
       69 CR     7d1+       0.0012    0.1149    0.0000   -0.1699    0.0000    0.0022    0.0000   -0.0011
       70 CR     8d1+       0.0013    0.1499    0.0000   -0.0996    0.0000   -0.0051    0.0000   -0.0003
       71 CR     9d1+       0.0005    0.0902    0.0000   -0.0378    0.0000   -0.0035    0.0000    0.0001
       72 CR    10d1+       0.0001    0.0217    0.0000   -0.0094    0.0000   -0.0006    0.0000    0.0000
       73 CR     3d2+       0.4304    0.1044    0.0000    0.0978   -0.0000    0.4508   -0.0000    0.1899
       74 CR     4d2+       0.1078   -0.0136   -0.0000   -0.0043    0.0000   -0.1272    0.0000    0.0989
       75 CR     5d2+      -0.0765   -0.0063   -0.0000    0.0007   -0.0000   -0.0012   -0.0000    0.2613
       76 CR     6d2+      -0.1094   -0.0012   -0.0000   -0.0130    0.0000    0.0063   -0.0000    0.2497
       77 CR     7d2+      -0.0569    0.0180    0.0000   -0.0309    0.0000    0.0084   -0.0000    0.2718
       78 CR     8d2+       0.0425    0.0346    0.0000   -0.0356    0.0000    0.0009   -0.0000    0.0926
       79 CR     9d2+       0.0407    0.0266    0.0000   -0.0228    0.0000   -0.0008    0.0000   -0.0092
       80 CR    10d2+       0.0086    0.0074    0.0000   -0.0063    0.0000   -0.0001    0.0000   -0.0077
       81 CR     4f3-      -0.0000    0.0000   -0.1595    0.0000    0.1567    0.0000    0.0587    0.0000
       82 CR     5f3-      -0.0000    0.0000   -0.1186    0.0000    0.1370    0.0000    0.0304    0.0000
       83 CR     6f3-      -0.0000   -0.0000    0.0211    0.0000    0.0356   -0.0000   -0.0088    0.0000
       84 CR     7f3-       0.0000   -0.0000    0.0897   -0.0000   -0.0076   -0.0000   -0.0143    0.0000
       85 CR     8f3-       0.0000   -0.0000    0.0625    0.0000    0.0072   -0.0000   -0.0044    0.0000
       86 CR     9f3-       0.0000   -0.0000    0.0392    0.0000    0.0248   -0.0000    0.0019    0.0000
       87 CR     4f2-       0.0000   -0.0000    0.0657   -0.0000   -0.0662    0.0000    0.1274    0.0000
       88 CR     5f2-       0.0000   -0.0000    0.0614   -0.0000   -0.0700    0.0000    0.0568   -0.0000
       89 CR     6f2-      -0.0000   -0.0000    0.0018   -0.0000   -0.0278   -0.0000   -0.0152   -0.0000
       90 CR     7f2-      -0.0000    0.0000   -0.0381    0.0000    0.0006   -0.0000   -0.0154   -0.0000
       91 CR     8f2-      -0.0000    0.0000   -0.0306    0.0000    0.0015    0.0000   -0.0018   -0.0000
       92 CR     9f2-      -0.0000    0.0000   -0.0209   -0.0000   -0.0036    0.0000    0.0056    0.0000
       93 CR     4f1-      -0.0000   -0.0000    0.0410   -0.0000   -0.0403   -0.0000   -0.0150   -0.0000
       94 CR     5f1-      -0.0000   -0.0000    0.0303   -0.0000   -0.0351   -0.0000   -0.0078   -0.0000
       95 CR     6f1-      -0.0000    0.0000   -0.0055   -0.0000   -0.0090    0.0000    0.0023   -0.0000
       96 CR     7f1-      -0.0000    0.0000   -0.0231    0.0000    0.0019    0.0000    0.0037   -0.0000
       97 CR     8f1-      -0.0000    0.0000   -0.0160   -0.0000   -0.0019    0.0000    0.0011   -0.0000
       98 CR     9f1-      -0.0000    0.0000   -0.0100   -0.0000   -0.0064    0.0000   -0.0005   -0.0000
       99 CR     4f0        0.0129   -0.1110   -0.0000   -0.0895    0.0000    0.0360   -0.0000    0.0298
      100 CR     5f0        0.0139   -0.0844   -0.0000   -0.0798    0.0000    0.0187   -0.0000    0.1137
      101 CR     6f0       -0.0039    0.0106    0.0000   -0.0239    0.0000   -0.0051    0.0000    0.2080
      102 CR     7f0       -0.0164    0.0573    0.0000   -0.0005    0.0000   -0.0084    0.0000    0.2626
      103 CR     8f0       -0.0100    0.0392    0.0000   -0.0084    0.0000   -0.0024   -0.0000    0.2241
      104 CR     9f0       -0.0046    0.0233    0.0000   -0.0182    0.0000    0.0014   -0.0000    0.2126
      105 CR     4f1+      -0.0787    0.0560    0.0000    0.0459   -0.0000    0.1014   -0.0000   -0.0314
      106 CR     5f1+      -0.0550    0.0529    0.0000    0.0492   -0.0000    0.0455   -0.0000   -0.0411
      107 CR     6f1+       0.0082    0.0035    0.0000    0.0211   -0.0000   -0.0121    0.0000   -0.0498
      108 CR     7f1+       0.0252   -0.0294   -0.0000    0.0022   -0.0000   -0.0125    0.0000   -0.0538
      109 CR     8f1+       0.0033   -0.0234   -0.0000    0.0010   -0.0000   -0.0016    0.0000   -0.0353
      110 CR     9f1+      -0.0121   -0.0155   -0.0000    0.0041   -0.0000    0.0044   -0.0000   -0.0268
      111 CR     4f2+       0.0113    0.1430    0.0000    0.1155   -0.0000   -0.0463    0.0000    0.0239
      112 CR     5f2+       0.0116    0.1084    0.0000    0.1027   -0.0000   -0.0238    0.0000    0.0899
      113 CR     6f2+      -0.0036   -0.0141   -0.0000    0.0305   -0.0000    0.0072   -0.0000    0.1637
      114 CR     7f2+      -0.0138   -0.0739   -0.0000    0.0004    0.0000    0.0115   -0.0000    0.2062
      115 CR     8f2+      -0.0083   -0.0503   -0.0000    0.0105   -0.0000    0.0036   -0.0000    0.1757
      116 CR     9f2+      -0.0037   -0.0296   -0.0000    0.0232   -0.0000   -0.0013   -0.0000    0.1665
      117 CR     4f3+       0.1037    0.0429    0.0000    0.0362   -0.0000    0.0781   -0.0000    0.0405
      118 CR     5f3+       0.0730    0.0409    0.0000    0.0389   -0.0000    0.0351   -0.0000    0.0539
      119 CR     6f3+      -0.0105    0.0026    0.0000    0.0170   -0.0000   -0.0091    0.0000    0.0660
      120 CR     7f3+      -0.0337   -0.0235   -0.0000    0.0023   -0.0000   -0.0094    0.0000    0.0710
      121 CR     8f3+      -0.0049   -0.0190   -0.0000    0.0014   -0.0000   -0.0011    0.0000    0.0463
      122 CR     9f3+       0.0155   -0.0129   -0.0000    0.0040   -0.0000    0.0034   -0.0000    0.0349
      123 CR     5g4-      -0.0000    0.0000   -0.0315    0.0000    0.0294    0.0000    0.0074    0.0000
      124 CR     6g4-      -0.0000    0.0000   -0.0556    0.0000    0.0525    0.0000    0.0107    0.0000
      125 CR     7g4-      -0.0000    0.0000   -0.0339    0.0000    0.0338    0.0000    0.0034    0.0000
      126 CR     8g4-      -0.0000    0.0000   -0.0037    0.0000    0.0065   -0.0000   -0.0034    0.0000
      127 CR     5g3-       0.0000   -0.0000    0.0234   -0.0000   -0.0205    0.0000    0.0087   -0.0000
      128 CR     6g3-       0.0000   -0.0000    0.0469   -0.0000   -0.0383    0.0000    0.0116   -0.0000
      129 CR     7g3-       0.0000   -0.0000    0.0377   -0.0000   -0.0260   -0.0000    0.0027    0.0000
      130 CR     8g3-       0.0000   -0.0000    0.0169   -0.0000   -0.0059   -0.0000   -0.0045    0.0000
      131 CR     5g2-       0.0000   -0.0000    0.0117   -0.0000   -0.0109   -0.0000   -0.0028   -0.0000
      132 CR     6g2-       0.0000   -0.0000    0.0206   -0.0000   -0.0195   -0.0000   -0.0040   -0.0000
      133 CR     7g2-       0.0000   -0.0000    0.0125   -0.0000   -0.0125   -0.0000   -0.0013   -0.0000
      134 CR     8g2-       0.0000   -0.0000    0.0013   -0.0000   -0.0024    0.0000    0.0013   -0.0000
      135 CR     5g1-      -0.0000    0.0000   -0.0113    0.0000    0.0107   -0.0000   -0.0028    0.0000
      136 CR     6g1-      -0.0000    0.0000   -0.0209    0.0000    0.0207   -0.0000   -0.0040    0.0000
      137 CR     7g1-      -0.0000    0.0000   -0.0141    0.0000    0.0156   -0.0000   -0.0015    0.0000
      138 CR     8g1-      -0.0000    0.0000   -0.0031    0.0000    0.0058   -0.0000    0.0007    0.0000
      139 CR     5g0        0.0021   -0.0135   -0.0000   -0.0093    0.0000   -0.0056    0.0000    0.0011
      140 CR     6g0        0.0019   -0.0277   -0.0000   -0.0168    0.0000   -0.0075    0.0000    0.0003
      141 CR     7g0       -0.0011   -0.0232   -0.0000   -0.0102    0.0000   -0.0017    0.0000   -0.0028
      142 CR     8g0       -0.0027   -0.0115   -0.0000   -0.0005    0.0000    0.0031   -0.0000   -0.0048
      143 CR     5g1+       0.0118   -0.0280   -0.0000   -0.0214    0.0000    0.0057   -0.0000    0.0023
      144 CR     6g1+       0.0233   -0.0495   -0.0000   -0.0383    0.0000    0.0082   -0.0000    0.0090
      145 CR     7g1+       0.0168   -0.0305   -0.0000   -0.0248    0.0000    0.0026   -0.0000    0.0151
      146 CR     8g1+       0.0047   -0.0037   -0.0000   -0.0050    0.0000   -0.0027    0.0000    0.0162
      147 CR     5g2+      -0.0035    0.0155    0.0000    0.0117   -0.0000    0.0044   -0.0000   -0.0014
      148 CR     6g2+      -0.0034    0.0296    0.0000    0.0222   -0.0000    0.0062   -0.0000    0.0001
      149 CR     7g2+       0.0011    0.0213    0.0000    0.0161   -0.0000    0.0020   -0.0000    0.0052
      150 CR     8g2+       0.0038    0.0067    0.0000    0.0051   -0.0000   -0.0016    0.0000    0.0082
      151 CR     5g3+       0.0140    0.0245    0.0000    0.0188   -0.0000   -0.0051    0.0000    0.0028
      152 CR     6g3+       0.0274    0.0432    0.0000    0.0336   -0.0000   -0.0073    0.0000    0.0107
      153 CR     7g3+       0.0195    0.0264    0.0000    0.0216   -0.0000   -0.0023    0.0000    0.0179
      154 CR     8g3+       0.0051    0.0029    0.0000    0.0042   -0.0000    0.0024   -0.0000    0.0192
      155 CR     5g4+       0.0055    0.0188    0.0000    0.0138   -0.0000    0.0060   -0.0000    0.0019
      156 CR     6g4+       0.0061    0.0369    0.0000    0.0258   -0.0000    0.0083   -0.0000   -0.0002
      157 CR     7g4+      -0.0005    0.0284    0.0000    0.0177   -0.0000    0.0022   -0.0000   -0.0070
      158 CR     8g4+      -0.0050    0.0112    0.0000    0.0043   -0.0000   -0.0028    0.0000   -0.0110
      159 CR     6h5-      -0.0000    0.0000   -0.0063    0.0000    0.0059    0.0000    0.0021    0.0000
      160 CR     7h5-      -0.0000    0.0000   -0.0110    0.0000    0.0102    0.0000    0.0031    0.0000
      161 CR     6h4-       0.0000   -0.0000    0.0073   -0.0000   -0.0066    0.0000    0.0015   -0.0000
      162 CR     7h4-       0.0000   -0.0000    0.0141   -0.0000   -0.0125    0.0000    0.0017   -0.0000
      163 CR     6h3-      -0.0000   -0.0000    0.0028   -0.0000   -0.0026   -0.0000   -0.0010   -0.0000
      164 CR     7h3-      -0.0000   -0.0000    0.0049   -0.0000   -0.0046   -0.0000   -0.0016   -0.0000
      165 CR     6h2-      -0.0000    0.0000   -0.0074    0.0000    0.0067    0.0000   -0.0000    0.0000
      166 CR     7h2-      -0.0000    0.0000   -0.0143    0.0000    0.0129    0.0000    0.0005    0.0000
      167 CR     6h1-      -0.0000    0.0000   -0.0006    0.0000    0.0005    0.0000    0.0000    0.0000
      168 CR     7h1-       0.0000    0.0000   -0.0009    0.0000    0.0008   -0.0000    0.0000   -0.0000
      169 CR     6h0       -0.0064    0.0040    0.0000    0.0030   -0.0000   -0.0013    0.0000    0.0002
      170 CR     7h0       -0.0128    0.0071    0.0000    0.0053   -0.0000   -0.0019    0.0000    0.0002
      171 CR     6h1+      -0.0031   -0.0054   -0.0000   -0.0040    0.0000   -0.0013    0.0000    0.0003
      172 CR     7h1+      -0.0070   -0.0104   -0.0000   -0.0075    0.0000   -0.0016    0.0000    0.0003
      173 CR     6h2+       0.0037   -0.0049   -0.0000   -0.0038    0.0000    0.0013   -0.0000   -0.0001
      174 CR     7h2+       0.0074   -0.0086   -0.0000   -0.0066    0.0000    0.0019   -0.0000   -0.0001
      175 CR     6h3+       0.0032    0.0057    0.0000    0.0043   -0.0000   -0.0001   -0.0000   -0.0003
      176 CR     7h3+       0.0072    0.0110    0.0000    0.0082   -0.0000   -0.0005    0.0000   -0.0002
      177 CR     6h4+       0.0099    0.0045    0.0000    0.0034   -0.0000   -0.0014    0.0000   -0.0002
      178 CR     7h4+       0.0199    0.0078    0.0000    0.0060   -0.0000   -0.0021    0.0000   -0.0003
      179 CR     6h5+      -0.0039    0.0081    0.0000    0.0060   -0.0000    0.0008   -0.0000    0.0004
      180 CR     7h5+      -0.0090    0.0156    0.0000    0.0114   -0.0000    0.0007   -0.0000    0.0003
--


++    Molecular charges:
      ------------------

      Mulliken charges per centre and basis function type
      ---------------------------------------------------

                CR    
      1s       2.0000
      2s       2.0000
      2px      2.0000
      2pz      2.0000
      2py      2.0000
      3s       1.9750
      3px      1.8746
      3pz      1.9193
      3py      1.9194
      4s       0.0102
      3d2+     0.0666
      3d1+     0.0508
      3d0      0.0221
      3d1-     0.0000
      3d2-     0.0507
      4px      0.0074
      4pz      0.0117
      4py      0.0117
      5s       0.0217
      4d2+     0.0027
      4d1+     0.0020
      4d0      0.0009
      4d1-     0.0000
      4d2-     0.0020
      5px      0.0122
      5pz      0.0142
      5py      0.0143
      6s       0.0032
      4f3+     0.0002
      4f2+     0.0002
      4f1+     0.0001
      4f0      0.0001
      4f1-     0.0000
      4f2-     0.0000
      4f3-     0.0002
      5d2+     0.0011
      5d1+     0.0009
      5d0      0.0004
      5d1-     0.0000
      5d2-     0.0009
      6px      0.0003
[...]
         7   17       8.27063558E-03  4.17594566E-16  1.31648678E+07  8.65017933E-13  1.31648678E+07
         8   10       1.37416258E-02  2.49248202E+05  2.36474981E-15  3.27645364E+04  2.82012739E+05
         8   12       1.53350681E-03  1.25176384E-14  3.40229308E+04  3.77404025E-15  3.40229308E+04
         8   14       4.88409800E-05  7.11964420E-14  1.55692396E+04  2.14660433E-16  1.55692396E+04
         8   16       6.70977245E-04  2.01668702E+05  5.10200741E-16  1.34791949E+04  2.15147897E+05
         8   18       8.27063558E-03  4.17594566E-16  1.31648678E+07  8.65017933E-13  1.31648678E+07
         9   11       3.15358865E-04  1.03500412E-21  1.02245872E+01  6.26415920E-20  1.02245872E+01
         9   13       4.26324468E-05  9.90883837E-17  7.56857152E+03  5.49752104E-16  7.56857152E+03
         9   15       4.32994532E-05  2.91811087E+01  4.16333708E-16  7.71840464E+03  7.74758575E+03
         9   17       1.88055799E-01  1.55998671E-16  2.35220713E+08  3.88654052E-13  2.35220713E+08
        10   12       3.15358865E-04  1.03500412E-21  1.02245872E+01  6.26415920E-20  1.02245872E+01
        10   14       4.26324468E-05  9.90883837E-17  7.56857152E+03  5.49752104E-16  7.56857152E+03
        10   16       4.32994532E-05  2.91811087E+01  4.16333708E-16  7.71840464E+03  7.74758575E+03
        10   18       1.88055799E-01  1.55998671E-16  2.35220713E+08  3.88654052E-13  2.35220713E+08
        11   13       4.20048314E-05  2.28290438E+02  5.19907622E-16  7.02867022E+03  7.25696066E+03
        11   15       3.98222175E-05  2.04334697E-18  6.93486335E+03  9.60238610E-16  6.93486335E+03
        11   17       1.85085242E-01  4.24770374E+03  4.25245023E-13  2.29149576E+08  2.29153823E+08
        12   14       4.20048314E-05  2.28290438E+02  5.19907622E-16  7.02867022E+03  7.25696066E+03
        12   16       3.98222175E-05  2.04334697E-18  6.93486335E+03  9.60238610E-16  6.93486335E+03
        12   18       1.85085242E-01  4.24770374E+03  4.25245023E-13  2.29149576E+08  2.29153823E+08
        13   17       9.41468642E-04  1.24031333E+01  5.92971536E-14  4.57425745E+05  4.57438148E+05
        14   18       9.41468642E-04  1.24031333E+01  5.92971536E-14  4.57425745E+05  4.57438148E+05
        15   17       1.03512070E-03  3.30364748E-19  5.00552427E+05  5.82438439E-14  5.00552427E+05
        16   18       1.03512070E-03  3.30364748E-19  5.00552427E+05  5.82438439E-14  5.00552427E+05
     -----------------------------------------------------------------------------------------------
--

++ Velocity transition strengths (SO states):
   ------------------------------------------
    for osc. strength at least    1.0000000000000001E-005

      From   To        Osc. strength     Einstein coefficients Ax, Ay, Az (sec-1)    Total A (sec-1)
     -----------------------------------------------------------------------------------------------
         1    3       2.64023776E-03  1.78646979E+06  1.95469195E-16  1.31096348E+01  1.78648290E+06
         1    5       7.92145707E-04  6.02548095E+01  8.43446884E-14  1.66994888E+06  1.67000913E+06
         1    7       6.77219741E-04  4.94458047E-17  1.44514698E+06  8.23640912E-14  1.44514698E+06
         1    9       3.37853354E-03  1.46482577E-17  8.69297991E+06  1.43902333E-14  8.69297991E+06
         1   11       3.29542060E-03  4.66391949E+02  1.13525479E-14  8.53896847E+06  8.53943486E+06
         1   13       1.25181738E-04  4.12425670E+01  7.39650702E-14  5.13486618E+05  5.13527860E+05
         1   15       1.35140385E-04  8.74319626E-18  5.55288576E+05  7.16192546E-14  5.55288576E+05
         1   17       9.66265344E-04  7.15715854E+06  1.50716679E-18  4.56130803E+03  7.16171985E+06
         2    4       2.64023776E-03  1.78646979E+06  1.95469195E-16  1.31096348E+01  1.78648290E+06
         2    6       7.92145707E-04  6.02548095E+01  8.43446884E-14  1.66994888E+06  1.67000913E+06
         2    8       6.77219741E-04  4.94458047E-17  1.44514698E+06  8.23640912E-14  1.44514698E+06
         2   10       3.37853354E-03  1.46482577E-17  8.69297991E+06  1.43902333E-14  8.69297991E+06
         2   12       3.29542060E-03  4.66391949E+02  1.13525479E-14  8.53896847E+06  8.53943486E+06
         2   14       1.25181738E-04  4.12425670E+01  7.39650702E-14  5.13486618E+05  5.13527860E+05
         2   16       1.35140385E-04  8.74319626E-18  5.55288576E+05  7.16192546E-14  5.55288576E+05
         2   18       9.66265344E-04  7.15715854E+06  1.50716679E-18  4.56130803E+03  7.16171985E+06
         3    5       8.52579978E-02  2.24822435E+00  1.98159321E-12  3.37731753E+07  3.37731775E+07
         3    7       8.30843419E-02  7.94660725E-18  3.38425160E+07  2.02958408E-12  3.38425160E+07
         3    9       1.22305618E-04  2.67760462E-20  7.46931954E+04  5.06942001E-17  7.46931954E+04
         3   11       1.29252552E-05  7.79309679E+02  2.95126312E-15  7.22971377E+03  8.00902344E+03
         3   13       2.25956881E-03  5.40727101E+02  5.13970645E-13  3.26856950E+06  3.26911022E+06
         3   15       2.46139067E-03  4.39445941E-17  3.57092468E+06  4.63576812E-13  3.57092468E+06
         3   17       2.48749646E-03  8.97193437E+06  1.42451321E-17  6.73583314E+03  8.97867020E+06
         4    6       8.52579978E-02  2.24822435E+00  1.98159321E-12  3.37731753E+07  3.37731775E+07
         4    8       8.30843419E-02  7.94660725E-18  3.38425160E+07  2.02958408E-12  3.38425160E+07
         4   10       1.22305618E-04  2.67760462E-20  7.46931954E+04  5.06942001E-17  7.46931954E+04
         4   12       1.29252552E-05  7.79309679E+02  2.95126312E-15  7.22971377E+03  8.00902344E+03
         4   14       2.25956881E-03  5.40727101E+02  5.13970645E-13  3.26856950E+06  3.26911022E+06
         4   16       2.46139067E-03  4.39445941E-17  3.57092468E+06  4.63576812E-13  3.57092468E+06
         4   18       2.48749646E-03  8.97193437E+06  1.42451321E-17  6.73583314E+03  8.97867020E+06
         5    7       3.51402241E-04  6.63636499E-19  2.74234529E+01  4.63608263E-18  2.74234529E+01
         5    9       5.46733202E-05  3.29185248E-16  1.26468693E+03  3.19367423E-17  1.26468693E+03
         5   11       3.64008448E-04  7.04620627E+03  8.84573941E-17  2.01620335E+03  9.06240962E+03
         5   13       1.16258514E-03  6.31158886E+04  5.38917872E-15  3.19175435E+05  3.82291324E+05
         5   15       9.09369115E-04  2.45722331E-14  3.00757860E+05  6.70220696E-15  3.00757860E+05
         5   17       6.30239396E-03  1.41340092E+02  6.44461989E-13  1.01727710E+07  1.01729123E+07
         6    8       3.51402241E-04  6.63636499E-19  2.74234529E+01  4.63608263E-18  2.74234529E+01
         6   10       5.46733202E-05  3.29185248E-16  1.26468693E+03  3.19367423E-17  1.26468693E+03
         6   12       3.64008448E-04  7.04620627E+03  8.84573941E-17  2.01620335E+03  9.06240962E+03
         6   14       1.16258514E-03  6.31158886E+04  5.38917872E-15  3.19175435E+05  3.82291324E+05
         6   16       9.09369115E-04  2.45722331E-14  3.00757860E+05  6.70220696E-15  3.00757860E+05
         6   18       6.30239396E-03  1.41340092E+02  6.44461989E-13  1.01727710E+07  1.01729123E+07
         7    9       3.62334909E-04  6.18117573E+03  3.00238381E-16  1.25487416E+03  7.43604990E+03
         7   11       3.74533720E-05  3.04394396E-16  8.30956801E+02  1.41753961E-16  8.30956801E+02
         7   13       9.08342492E-04  2.41625736E-14  2.89557070E+05  4.20052415E-15  2.89557070E+05
         7   15       1.09964464E-03  6.39715170E+04  5.98394157E-15  2.88629195E+05  3.52600712E+05
         7   17       6.78749550E-03  8.54820145E-17  1.08041021E+07  6.54906842E-13  1.08041021E+07
         8   10       3.62334909E-04  6.18117573E+03  3.00238381E-16  1.25487416E+03  7.43604990E+03
         8   12       3.74533720E-05  3.04394396E-16  8.30956801E+02  1.41753961E-16  8.30956801E+02
         8   14       9.08342492E-04  2.41625736E-14  2.89557070E+05  4.20052415E-15  2.89557070E+05
         8   16       1.09964464E-03  6.39715170E+04  5.98394157E-15  2.88629195E+05  3.52600712E+05
         8   18       6.78749550E-03  8.54820145E-17  1.08041021E+07  6.54906842E-13  1.08041021E+07
         9   11       5.48436825E-05  1.18801407E-21  1.77815189E+00  4.13720090E-20  1.77815189E+00
         9   13       3.23559731E-04  1.36170885E-15  5.74420111E+04  6.02364902E-15  5.74420111E+04
         9   15       3.67059200E-04  8.15409401E+03  6.89354301E-15  5.75241607E+04  6.56782547E+04
         9   17       8.39023660E-03  6.07903893E-18  1.04945676E+07  1.69789840E-14  1.04945676E+07
        10   12       5.48436825E-05  1.18801407E-21  1.77815189E+00  4.13720090E-20  1.77815189E+00
        10   14       3.23559731E-04  1.36170885E-15  5.74420111E+04  6.02364902E-15  5.74420111E+04
        10   16       3.67059200E-04  8.15409401E+03  6.89354301E-15  5.75241607E+04  6.56782547E+04
        10   18       8.39023660E-03  6.07903893E-18  1.04945676E+07  1.69789840E-14  1.04945676E+07
        11   13       3.23969001E-04  6.36208107E+03  6.24199981E-15  4.96085869E+04  5.59706679E+04
        11   15       2.96552212E-04  1.06228582E-15  5.16434379E+04  5.95312082E-15  5.16434379E+04
        11   17       8.57258467E-03  2.13047032E+02  2.60759116E-14  1.06135310E+07  1.06137441E+07
        12   14       3.23969001E-04  6.36208107E+03  6.24199981E-15  4.96085869E+04  5.59706679E+04
        12   16       2.96552212E-04  1.06228582E-15  5.16434379E+04  5.95312082E-15  5.16434379E+04
        12   18       8.57258467E-03  2.13047032E+02  2.60759116E-14  1.06135310E+07  1.06137441E+07
        13   15       2.68466179E-05  2.12325703E-20  7.37618558E-02  3.27905673E-21  7.37618558E-02
        13   17       2.43669067E-03  2.88402088E+01  1.82303503E-13  1.18390771E+06  1.18393655E+06
        14   16       2.68466179E-05  2.12325703E-20  7.37618558E-02  3.27905673E-21  7.37618558E-02
        14   18       2.43669067E-03  2.88402088E+01  1.82303503E-13  1.18390771E+06  1.18393655E+06
        15   17       2.65323667E-03  3.77151437E-18  1.28302784E+06  1.66341339E-13  1.28302784E+06
        16   18       2.65323667E-03  3.77151437E-18  1.28302784E+06  1.66341339E-13  1.28302784E+06
     -----------------------------------------------------------------------------------------------
--

++ Length and velocity gauge comparison (SO states):

 --------------------------------------------------
 A comparison between the dipole oscillator strengths in 
 length and velocity gauge will be performed

 All dipole oscillator differences above the tolerance of   0.10000000000000001       will be printed 

 Due to basis set deficiency these oscillator may be problematic 

 The tolerance is defined as ABS(1-O_l/O_v) 
 O_l : dipole oscillator strength in length gauge
 O_p : dipole oscillator strength in velocity gauge
 --------------------------------------------------

  Problematic transitions have been found

      From   To       Difference (%) Osc. st. (len.) Osc. st. (vel.)
     ---------------------------------------------------------------
         1    3         15433.155611  4.10112240E-01  2.64023776E-03
         1    5         33972.273043  2.69902048E-01  7.92145707E-04
         1    7         49607.700867  3.36630363E-01  6.77219741E-04
         1    9        116538.074017  3.94065645E+00  3.37853354E-03
         1   11        121689.943602  4.01349089E+00  3.29542060E-03
         1   13          3065.655466  3.96282254E-03  1.25181738E-04
         1   15          3011.670115  4.20512299E-03  1.35140385E-04
         1   17         21117.785723  2.05020110E-01  9.66265344E-04
         2    4         15433.155611  4.10112240E-01  2.64023776E-03
         2    6         33972.273043  2.69902048E-01  7.92145707E-04
         2    8         49607.700867  3.36630363E-01  6.77219741E-04
         2   10        116538.074017  3.94065645E+00  3.37853354E-03
         2   12        121689.943602  4.01349089E+00  3.29542060E-03
         2   14          3065.655466  3.96282254E-03  1.25181738E-04
         2   16          3011.670115  4.20512299E-03  1.35140385E-04
         2   18         21117.785723  2.05020110E-01  9.66265344E-04
         3    5            42.579926  4.89552056E-02  8.52579978E-02
         3    7            35.573686  5.35281793E-02  8.30843419E-02
         3    9         98265.660977  1.20306730E-01  1.22305618E-04
         3   11        961590.647292  1.24300970E-01  1.29252552E-05
         3   13            78.030664  4.96412264E-04  2.25956881E-03
         3   15            78.182547  5.37012762E-04  2.46139067E-03
         3   17            14.605678  2.12418074E-03  2.48749646E-03
         4    6            42.579926  4.89552056E-02  8.52579978E-02
         4    8            35.573686  5.35281793E-02  8.30843419E-02
         4   10         98265.660977  1.20306730E-01  1.22305618E-04
         4   12        961590.647292  1.24300970E-01  1.29252552E-05
         4   14            78.030664  4.96412264E-04  2.25956881E-03
         4   16            78.182547  5.37012762E-04  2.46139067E-03
         4   18            14.605678  2.12418074E-03  2.48749646E-03
         5    7      --------------- below threshold  3.51402241E-04
         5    9          2384.566016  1.35839473E-03  5.46733202E-05
         5   11          3548.513578  1.32808977E-02  3.64008448E-04
         5   13            44.573454  6.44380793E-04  1.16258514E-03
         5   15            94.947932  4.59419453E-05  9.09369115E-04
         6    8      --------------- below threshold  3.51402241E-04
         6   10          2384.566016  1.35839473E-03  5.46733202E-05
         6   12          3548.513578  1.32808977E-02  3.64008448E-04
         6   14            44.573454  6.44380793E-04  1.16258514E-03
         6   16            94.947932  4.59419453E-05  9.09369115E-04
         7    9          3692.520536  1.37416258E-02  3.62334909E-04
         7   11          3994.442576  1.53350681E-03  3.74533720E-05
         7   13            94.623066  4.88409800E-05  9.08342492E-04
         7   15            38.982356  6.70977245E-04  1.09964464E-03
         7   17            21.851065  8.27063558E-03  6.78749550E-03
         8   10          3692.520536  1.37416258E-02  3.62334909E-04
         8   12          3994.442576  1.53350681E-03  3.74533720E-05
         8   14            94.623066  4.88409800E-05  9.08342492E-04
         8   16            38.982356  6.70977245E-04  1.09964464E-03
         8   18            21.851065  8.27063558E-03  6.78749550E-03
         9   11           475.014024  3.15358865E-04  5.48436825E-05
         9   13            86.823933  4.26324468E-05  3.23559731E-04
         9   15            88.203687  4.32994532E-05  3.67059200E-04
         9   17          2141.364672  1.88055799E-01  8.39023660E-03
        10   12           475.014024  3.15358865E-04  5.48436825E-05
        10   14            86.823933  4.26324468E-05  3.23559731E-04
        10   16            88.203687  4.32994532E-05  3.67059200E-04
        10   18          2141.364672  1.88055799E-01  8.39023660E-03
        11   13            87.034305  4.20048314E-05  3.23969001E-04
        11   15            86.571600  3.98222175E-05  2.96552212E-04
        11   17          2059.036613  1.85085242E-01  8.57258467E-03
        12   14            87.034305  4.20048314E-05  3.23969001E-04
        12   16            86.571600  3.98222175E-05  2.96552212E-04
        12   18          2059.036613  1.85085242E-01  8.57258467E-03
        13   15      --------------- below threshold  2.68466179E-05
        13   17            61.362817  9.41468642E-04  2.43669067E-03
        14   16      --------------- below threshold  2.68466179E-05
        14   18            61.362817  9.41468642E-04  2.43669067E-03
        15   17            60.986492  1.03512070E-03  2.65323667E-03
        16   18            60.986492  1.03512070E-03  2.65323667E-03
     ---------------------------------------------------------------

 Number of problematic transitions =                    70

--

 Electric-dipole - electric-octupole not included
++ Total transition strengths for the second-order expansion of the wave vector (SO states):
   -----------------------------------------------------------------------------------------
    for osc. strength at least    1.0000000000000001E-005

      From   To        Osc. strength
     -------------------------------
         1    9       2.36579322E-05
         1   11       2.43517637E-05
         1   17       1.92421996E-05
         2   10       2.36579322E-05
         2   12       2.43517637E-05
         2   18       1.92421996E-05
     -------------------------------
--

++ I/O STATISTICS
 
  I. General I/O information
  - - - - - - - - - - - - - - - - - - - - - - - - - - - - - - - - - - - - - - - - - - -
  Unit  Name          Flsize      Write/Read            MBytes           Write/Read
                      (MBytes)       Calls              In/Out           Time, sec.
  - - - - - - - - - - - - - - - - - - - - - - - - - - - - - - - - - - - - - - - - - - -
   1  SCRATCH           0.00 .       9/      45 .      0.0/      0.0 .       0/       0
   2  ANNI              0.00 .       0/       0 .      0.0/      0.0 .       0/       0
   3  RUNFILE          14.88 .     322/   10733 .      2.3/     77.8 .       0/       0
   4  ONEINT            5.58 .       0/   23543 .      0.0/   3739.9 .       0/       0
   5  JOBIPH            6.48 .       0/      92 .      0.0/      0.8 .       0/       0
   6  ORDINT          506.53 .       1/    4053 .      0.0/   1013.0 .       0/       0
  - - - - - - - - - - - - - - - - - - - - - - - - - - - - - - - - - - - - - - - - - - -
   *  TOTAL           533.47 .     332/   38466 .      2.3/   4831.6 .       0/       0
  - - - - - - - - - - - - - - - - - - - - - - - - - - - - - - - - - - - - - - - - - - -
 
  II. I/O Access Patterns
  - - - - - - - - - - - - - - - - - - - -
  Unit  Name               % of random
                         Write/Read calls
  - - - - - - - - - - - - - - - - - - - -
   1  SCRATCH             88.9/ 100.0
   2  ANNI                 0.0/   0.0
   3  RUNFILE             28.6/  10.8
   4  ONEINT               0.0/  16.4
   5  JOBIPH               0.0/  76.1
   6  ORDINT             100.0/   0.0
  - - - - - - - - - - - - - - - - - - - -
--
--- Stop Module: rassi at Wed Mar 26 12:22:07 2025 /rc=_RC_ALL_IS_WELL_ ---
*** files: xmldump
    saved to directory /home4/s4752295/Internship/Initial_simulations/Point_charge_model/1_electron/Madelung_charges_9_active_space/Cr
--- Module rassi spent 2 seconds ---

.##################.
.# Happy landing! #.
.##################.

    Timing: Wall=55.29 User=44.52 System=8.84

###############################################################################
Hbrk Cluster
Job 15905702 for user s4752295
Finished at: Wed Mar 26 12:22:12 CET 2025

Job details:
============

Job ID                         : 15905702
Name                           : Cr_no_SO
User                           : s4752295
Partition                      : regularmedium
Nodes                          : node101
Number of Nodes                : 1
Cores                          : 1
Number of Tasks                : 1
State                          : COMPLETED  
Submit                         : 2025-03-26T12:20:25
Start                          : 2025-03-26T12:21:07
End                            : 2025-03-26T12:22:08
Reserved walltime              : 15:00:00
Used walltime                  : 00:01:01
Used CPU time                  : 00:00:55 (Efficiency: 89.55%)
% User (Computation)           : 83.40%
% System (I/O)                 : 16.60%
Total memory reserved          : 25000M
Maximum memory used            : 2.03G

Acknowledgements:
=================

Please see this page for information about acknowledging Hbrk in your publications:

https://wiki.hpc.rug.nl/habrok/introduction/scientific_output

################################################################################
