   This run of MOLCAS is using the pymolcas driver

                             OPE
                             OPE          NMOL  CASOP  ENMOLC A   SO
                 OPE        NMOLC        AS  OP EN  MO LC     AS  OP
                OPENM       OL CA        SO  PE NM  OL CA     SOP EN
                OP EN      MO   LC       AS  OP ENMOL  CASO   PENMOL
                OP  EN     MO   LC       AS  OP EN     MO     LC ASO
               OP   E  NMOL  C  AS       OP  EN MO     LC     AS  OP
               OP  E   NMO   LC AS        OPEN  MO     LCASOP EN   M
               O  PEN   MO  LCA  SO
            OPE   NMO   L   CAS    OP
        OPENMOL  CASOP     ENMOL   CASOPE
     OPENMOLCA   SOPENMOLCASOPEN   MOLCASOPE
    OPENMOLCAS   OP           EN   MOL    CAS
    OPENMOLCAS       OP  ENM        O     LCA
    OPENMOLCAS    OPEN  MOLCASO     P  E  NMO
    OPENMOLCAS     OP               E  N  MOL
    OPENMOLCA   SO           PENM   O  L  CAS    OPEN    MO    LCAS
    OPENMOLCA   SOP           ENM   O  L  CAS   OP  EN  MOLC  AS   O
    OPENMOLCA   SOPE           NM      O  LCA   S      OP  EN MO
    OPENMOLC                AS         O  PEN   M      OL  CA  SOPE
    OPENMO        LCASOPE  NMOL        C  ASO   P      ENMOLC     AS
    OPE     NMO      LCA  SO     P     E   NM   OL  CA SO  PE N   MO
          OPENMOLCA            SOPE   NMO        LCAS  O    P  ENMO
     OPENMOLCASOPENMOLCASOPENMOLCASOPENMOLCA
        OPENMOLCASOPENMOLCASOPENMOLCASOPE
            OPENMOLCASOPENMOLCASOPENM
               OPENMOLCASOPENMOLCA        version: o91e1abe7de707b ?
                   OPENMOLCASO
                       OPE                tag:

 OpenMolcas is free software; you can redistribute it and/or modify it
 under the terms of the GNU Lesser General Public License version 2.1.
 OpenMolcas is distributed in the hope that it will be useful, but it
 is provided "as is" and without any express or implied warranties.
 For more details see the full text of the license in the file
 LICENSE or in <http://www.gnu.org/licenses/>.

                 Copyright (C) The OpenMolcas Authors
           For the author list and the recommended citation,
                   consult the file CONTRIBUTORS.md

           *************************************************
           * pymolcas version py2.10                       *
           *   build 3068ae8b88c9345ec6cfef6fef7f1169      *
           *   (after the EMIL interpreter by V. Veryazov) *
           *************************************************

configuration info
------------------
Host name: login1 (Linux)
C Compiler ID: GNU
C flags: -std=gnu99
Fortran Compiler ID: GNU
Fortran flags: -fno-aggressive-loop-optimizations -cpp -fdefault-integer-8 -fmax-stack-var-size=1048576
Definitions: _MOLCAS_;_I8_;_LINUX_;_MKL_
Parallel: OFF (GA=OFF)


   -----------------------------------------------------------------------------------------------------------------------------------
  |
  |           Project: chromium_so_cf
  |    Submitted from: /home4/s4752295/Internship/Initial_simulations/Point_charge_model/1_electron/Madelung_charges_9_active_space/Cr
  |      Scratch area: /tmp/chromium_so_cf
  |   Save outputs to: /home4/s4752295/Internship/Initial_simulations/Point_charge_model/1_electron/Madelung_charges_9_active_space/Cr
  |            Molcas: /home4/s4752295/Internship/Molcas/recomp_try/OpenMolcas-master/build
  |
  | Scratch area is empty
  |
  |    MOLCAS_DRIVER = /home4/s4752295/Internship/Molcas/bin/pymolcas
  |    MOLCAS_NPROCS = 1
  |    MOLCAS_SOURCE = /home4/s4752295/Internship/Molcas/recomp_try/OpenMolcas-master
  | MOLCAS_STRUCTURE = 0
  |
   -----------------------------------------------------------------------------------------------------------------------------------

++ ---------   Input file   ---------

&SEWARD
AMFi

CLIG
$R

Basis Set
Cr.ANO-rcc.Roos.21s15p10d6f4g2h.10s10p8d6f4g2h.
Spherical d
Cr            -1.0658140267135469e-14   -3.5527134223784897e-15 0.008753588724385739
End of Basis

Xfield

414
-6.00330162,-2.31,1.3336785     -0.625931
-6.00330162,-0.0,-2.6673584999999997    -0.625931
-6.00330162,2.31,1.3336785      -0.625931
-5.993019105,0.0,0.0    1.892092
3.9887695350000003,-2.31,-1.3336785     2.515516
3.9887695350000003,0.0,2.6673584999999997       2.515516
3.9887695350000003,2.31,-1.3336785      2.515516
5.34448242,-4.62,0.0    0.004632
5.34448242,-2.31,-4.001037      0.004632
5.34448242,-2.31,4.001037       0.004632
5.34448242,2.31,-4.001037       0.004632
5.34448242,2.31,4.001037        0.004632
5.34448242,4.62,0.0     0.004632
6.193725585000001,-2.31,1.3336785       -2.519484
6.193725585000001,-0.0,-2.6673584999999997      -2.519484
6.193725585000001,2.31,1.3336785        -2.519484
-4.399658205,-0.0,-0.0  -3.142907
-7.462646490000001,-4.62,-2.6673584999999997    -0.625931
-7.462646490000001,0.0,5.3347155        -0.625931
-7.462646490000001,4.62,-2.6673584999999997     -0.625931
-9.9140625,-4.62,0.0    1.892092
-9.9140625,-2.31,-4.001037      1.892092
-9.9140625,-2.31,4.001037       1.892092
-9.9140625,2.31,-4.001037       1.892092
-9.9140625,2.31,4.001037        1.892092
-9.9140625,4.62,0.0     1.892092
37.7578125,-4.62,2.6673584999999997     2.515516
37.7578125,-0.0,-5.3347155      2.515516
37.7578125,4.62,2.6673584999999997      2.515516
5.45800782,-4.62,-2.6673584999999997    -2.519484
5.45800782,0.0,5.3347155        -2.519484
5.45800782,4.62,-2.6673584999999997     -2.519484
-4.84863282,-4.62,-0.0  -3.142907
-4.84863282,-2.31,-4.001037     -3.142907
-4.84863282,-2.31,4.001037      -3.142907
-4.84863282,2.31,-4.001037      -3.142907
-4.84863282,2.31,4.001037       -3.142907
-4.84863282,4.62,-0.0   -3.142907
-14.28515625,-4.62,5.3347155    -0.625931
-14.28515625,4.62,5.3347155     -0.625931
-14.28515625,-6.93,1.3336785    -0.625931
-14.28515625,6.93,1.3336785     -0.625931
-14.28515625,-2.31,-6.668395500000001   -0.625931
-14.28515625,2.31,-6.668395500000001    -0.625931
9.01171875,-2.31,-1.3336785     4.409069
9.01171875,2.31,-1.3336785      4.409069
9.01171875,0.0,2.6673584999999997       4.409069
-262.875,-0.0,-0.0      -5.030367
-262.875,0.0,0.0        5.039632
20.27636718,-4.62,-5.3347155    2.515516
20.27636718,4.62,-5.3347155     2.515516
20.27636718,-6.93,-1.3336785    2.515516
20.27636718,6.93,-1.3336785     2.515516
20.27636718,-2.31,6.668395500000001     2.515516
20.27636718,2.31,6.668395500000001      2.515516
28.55859375,-6.93,-4.001037     0.004632
28.55859375,-6.93,4.001037      0.004632
28.55859375,6.93,-4.001037      0.004632
28.55859375,6.93,4.001037       0.004632
28.55859375,-0.0,-8.002074      0.004632
28.55859375,0.0,8.002074        0.004632
72.1171875,-4.62,5.3347155      -2.519484
72.1171875,4.62,5.3347155       -2.519484
72.1171875,-6.93,1.3336785      -2.519484
72.1171875,6.93,1.3336785       -2.519484
72.1171875,-2.31,-6.668395500000001     -2.519484
72.1171875,2.31,-6.668395500000001      -2.519484
-218.8125,-6.93,-4.001037       1.892092
-218.8125,-6.93,4.001037        1.892092
-218.8125,6.93,-4.001037        1.892092
-218.8125,6.93,4.001037 1.892092
-218.8125,-0.0,-8.002074        1.892092
-218.8125,0.0,8.002074  1.892092
-176.625,-4.62,2.6673584999999997       4.409069
-176.625,-0.0,-5.3347155        4.409069
-176.625,4.62,2.6673584999999997        4.409069
-133.5,-4.62,-0.0       -5.030367
-133.5,-2.31,-4.001037  -5.030367
-133.5,-2.31,4.001037   -5.030367
-133.5,2.31,-4.001037   -5.030367
-133.5,-4.62,0.0        5.039632
-133.5,4.62,-0.0        -5.030367
-133.5,2.31,4.001037    -5.030367
-133.5,-2.31,-4.001037  5.039632
-133.5,-2.31,4.001037   5.039632
-133.5,2.31,-4.001037   5.039632
-133.5,4.62,0.0 5.039632
-133.5,2.31,4.001037    5.039632
-69.9375,-2.31,-1.3336785       -5.660931
-69.9375,0.0,2.6673584999999997 -5.660931
-69.9375,2.31,-1.3336785        -5.660931
1.32421875,-9.2399985,0.0       0.004632
1.32421875,-4.62,-8.002074      0.004632
1.32421875,-4.62,8.002074       0.004632
1.32421875,4.62,-8.002074       0.004632
1.32421875,9.2399985,0.0        0.004632
1.32421875,4.62,8.002074        0.004632
101.90625,-6.93,4.001037        -3.142907
101.90625,-6.93,-4.001037       -3.142907
101.90625,6.93,-4.001037        -3.142907
101.90625,6.93,4.001037 -3.142907
101.90625,-0.0,-8.002074        -3.142907
101.90625,0.0,8.002074  -3.142907
129.5625,-9.2399985,-2.6673584999999997 -0.625931
129.5625,-6.93,-6.668395500000001       -0.625931
129.5625,-2.31,9.3357525        -0.625931
129.5625,6.93,-6.668395500000001        -0.625931
129.5625,9.2399985,-2.6673584999999997  -0.625931
129.5625,2.31,9.3357525 -0.625931
1.79589843,-9.2399985,0.0       1.892092
1.79589843,-4.62,-8.002074      1.892092
1.79589843,-4.62,8.002074       1.892092
1.79589843,4.62,-8.002074       1.892092
1.79589843,9.2399985,0.0        1.892092
1.79589843,4.62,8.002074        1.892092
50.765625,-4.62,-5.3347155      4.409069
50.765625,4.62,-5.3347155       4.409069
50.765625,-6.93,-1.3336785      4.409069
50.765625,6.93,-1.3336785       4.409069
50.765625,-2.31,6.668395500000001       4.409069
50.765625,2.31,6.668395500000001        4.409069
243.609375,-4.62,2.6673584999999997     -5.660931
243.609375,-0.0,-5.3347155      -5.660931
243.609375,4.62,2.6673584999999997      -5.660931
0.515625,-9.2399985,2.6673584999999997  2.515516
0.515625,-2.31,-9.3357525       2.515516
0.515625,-6.93,6.668395500000001        2.515516
0.515625,2.31,-9.3357525        2.515516
0.515625,9.2399985,2.6673584999999997   2.515516
0.515625,6.93,6.668395500000001 2.515516
-141.28125,-9.2399985,-2.6673584999999997       -2.519484
-141.28125,-6.93,-6.668395500000001     -2.519484
-141.28125,-2.31,9.3357525      -2.519484
-141.28125,6.93,-6.668395500000001      -2.519484
-141.28125,2.31,9.3357525       -2.519484
-141.28125,9.2399985,-2.6673584999999997        -2.519484
-33.10546875,-9.2399985,-0.0    -3.142907
-33.10546875,-4.62,-8.002074    -3.142907
-33.10546875,-4.62,8.002074     -3.142907
-33.10546875,4.62,-8.002074     -3.142907
-33.10546875,4.62,8.002074      -3.142907
-33.10546875,9.2399985,-0.0     -3.142907
909.75,0.0,0.0  6.927092
484.875,-9.2399985,5.3347155    -0.625931
484.875,9.2399985,5.3347155     -0.625931
484.875,-0.0,-10.669432500000001        -0.625931
-8.1328125,-6.93,4.001037       -5.030367
-8.1328125,-6.93,-4.001037      -5.030367
-8.1328125,-6.93,4.001037       5.039632
-8.1328125,-6.93,-4.001037      5.039632
-8.1328125,6.93,-4.001037       -5.030367
-8.1328125,6.93,4.001037        -5.030367
-8.1328125,6.93,-4.001037       5.039632
-8.1328125,6.93,4.001037        5.039632
-8.1328125,-0.0,-8.002074       -5.030367
-8.1328125,0.0,8.002074 -5.030367
-8.1328125,-0.0,-8.002074       5.039632
-8.1328125,0.0,8.002074 5.039632
137.71875,-4.62,-5.3347155      -5.660931
137.71875,4.62,-5.3347155       -5.660931
137.71875,-6.93,-1.3336785      -5.660931
137.71875,6.93,-1.3336785       -5.660931
137.71875,-2.31,6.668395500000001       -5.660931
137.71875,2.31,6.668395500000001        -5.660931
450.75,-9.2399985,-5.3347155    2.515516
450.75,9.2399985,-5.3347155     2.515516
450.75,0.0,10.669432500000001   2.515516
-775.875,-9.2399985,5.3347155   -2.519484
-775.875,9.2399985,5.3347155    -2.519484
-775.875,-0.0,-10.669432500000001       -2.519484
80.34375,-4.62,0.0      6.927092
80.34375,-2.31,-4.001037        6.927092
80.34375,-2.31,4.001037 6.927092
80.34375,2.31,-4.001037 6.927092
80.34375,2.31,4.001037  6.927092
80.34375,4.62,0.0       6.927092
-82.875,-2.31,1.3336785 7.550516
-82.875,0.0,-2.6673584999999997 7.550516
-82.875,2.31,1.3336785  7.550516
23.296875,-2.31,-1.3336785      -7.554483
23.296875,2.31,-1.3336785       -7.554483
23.296875,-0.0,2.6673584999999997       -7.554483
-187.3125,-11.549998500000001,1.3336785 -0.625931
-187.3125,-6.93,9.3357525       -0.625931
-187.3125,-4.62,-10.669432500000001     -0.625931
-187.3125,4.62,-10.669432500000001      -0.625931
-187.3125,11.549998500000001,1.3336785  -0.625931
-187.3125,6.93,9.3357525        -0.625931
-101.15625,-9.2399985,2.6673584999999997        4.409069
-101.15625,-6.93,6.668395500000001      4.409069
-101.15625,-2.31,-9.3357525     4.409069
-101.15625,2.31,-9.3357525      4.409069
-101.15625,6.93,6.668395500000001       4.409069
-101.15625,9.2399985,2.6673584999999997 4.409069
73.734375,-9.2399985,-0.0       -5.030367
73.734375,-4.62,-8.002074       -5.030367
73.734375,-4.62,8.002074        -5.030367
73.734375,-9.2399985,0.0        5.039632
73.734375,-4.62,-8.002074       5.039632
73.734375,4.62,-8.002074        -5.030367
73.734375,4.62,8.002074 -5.030367
73.734375,9.2399985,-0.0        -5.030367
73.734375,-4.62,8.002074        5.039632
73.734375,4.62,-8.002074        5.039632
73.734375,9.2399985,0.0 5.039632
73.734375,4.62,8.002074 5.039632
271.125,-11.549998500000001,-1.3336785  2.515516
271.125,-6.93,-9.3357525        2.515516
271.125,-4.62,10.669432500000001        2.515516
271.125,6.93,-9.3357525 2.515516
271.125,11.549998500000001,-1.3336785   2.515516
271.125,4.62,10.669432500000001 2.515516
-35.015625,-11.549998500000001,-4.001037        0.004632
-35.015625,-11.549998500000001,4.001037 0.004632
-35.015625,-9.2399985,-8.002074 0.004632
-35.015625,-9.2399985,8.002074  0.004632
-35.015625,-2.31,-12.003111     0.004632
-35.015625,2.31,-12.003111      0.004632
-35.015625,-2.31,12.003111      0.004632
-35.015625,9.2399985,-8.002074  0.004632
-35.015625,2.31,12.003111       0.004632
-35.015625,11.549998500000001,-4.001037 0.004632
-35.015625,11.549998500000001,4.001037  0.004632
-35.015625,9.2399985,8.002074   0.004632
-214.6875,-11.549998500000001,1.3336785 -2.519484
-214.6875,-6.93,9.3357525       -2.519484
-214.6875,-4.62,-10.669432500000001     -2.519484
-214.6875,4.62,-10.669432500000001      -2.519484
-214.6875,11.549998500000001,1.3336785  -2.519484
-214.6875,6.93,9.3357525        -2.519484
4548.0,-0.0,-0.0        -8.177907
-174.0,-4.62,-2.6673584999999997        7.550516
-174.0,0.0,5.3347155    7.550516
-174.0,4.62,-2.6673584999999997 7.550516
-905.25,-4.62,2.6673584999999997        -7.554483
-905.25,-0.0,-5.3347155 -7.554483
-905.25,4.62,2.6673584999999997 -7.554483
73.359375,-11.549998500000001,4.001037  1.892092
73.359375,-11.549998500000001,-4.001037 1.892092
73.359375,-9.2399985,-8.002074  1.892092
73.359375,-9.2399985,8.002074   1.892092
73.359375,-2.31,-12.003111      1.892092
73.359375,2.31,-12.003111       1.892092
73.359375,-2.31,12.003111       1.892092
73.359375,9.2399985,-8.002074   1.892092
73.359375,2.31,12.003111        1.892092
73.359375,11.549998500000001,-4.001037  1.892092
73.359375,11.549998500000001,4.001037   1.892092
73.359375,9.2399985,8.002074    1.892092
-757.5,-9.2399985,-5.3347155    4.409069
-757.5,9.2399985,-5.3347155     4.409069
-757.5,0.0,10.669432500000001   4.409069
38.73046875,-9.2399985,2.6673584999999997       -5.660931
38.73046875,-2.31,-9.3357525    -5.660931
38.73046875,-6.93,6.668395500000001     -5.660931
38.73046875,2.31,-9.3357525     -5.660931
38.73046875,6.93,6.668395500000001      -5.660931
38.73046875,9.2399985,2.6673584999999997        -5.660931
-87.28125,-9.2399985,-8.002074  -3.142907
-87.28125,-11.549998500000001,4.001037  -3.142907
-87.28125,-11.549998500000001,-4.001037 -3.142907
-87.28125,-9.2399985,8.002074   -3.142907
-87.28125,-2.31,-12.003111      -3.142907
-87.28125,2.31,-12.003111       -3.142907
-87.28125,-2.31,12.003111       -3.142907
-87.28125,11.549998500000001,-4.001037  -3.142907
-87.28125,9.2399985,-8.002074   -3.142907
-87.28125,2.31,12.003111        -3.142907
-87.28125,11.549998500000001,4.001037   -3.142907
-87.28125,9.2399985,8.002074    -3.142907
98.109375,-6.93,-4.001037       6.927092
98.109375,-6.93,4.001037        6.927092
98.109375,6.93,-4.001037        6.927092
98.109375,6.93,4.001037 6.927092
98.109375,-0.0,-8.002074        6.927092
98.109375,0.0,8.002074  6.927092
-124.875,-4.62,-0.0     -8.177907
-124.875,-2.31,4.001037 -8.177907
-124.875,-2.31,-4.001037        -8.177907
-124.875,2.31,-4.001037 -8.177907
-124.875,4.62,-0.0      -8.177907
-124.875,2.31,4.001037  -8.177907
-136.359375,-4.62,5.3347155     7.550516
-136.359375,4.62,5.3347155      7.550516
-136.359375,-6.93,1.3336785     7.550516
-136.359375,6.93,1.3336785      7.550516
-136.359375,-2.31,-6.668395500000001    7.550516
-136.359375,2.31,-6.668395500000001     7.550516
-68.53125,-4.62,-5.3347155      -7.554483
-68.53125,4.62,-5.3347155       -7.554483
-68.53125,-6.93,-1.3336785      -7.554483
-68.53125,6.93,-1.3336785       -7.554483
-68.53125,-2.31,6.668395500000001       -7.554483
-68.53125,2.31,6.668395500000001        -7.554483
-750.375,0.0,13.336789499999998 -0.625931
-750.375,-11.549998500000001,-6.668395500000001 -0.625931
-750.375,11.549998500000001,-6.668395500000001  -0.625931
-404.625,-11.549998500000001,-1.3336785 4.409069
-404.625,-6.93,-9.3357525       4.409069
-404.625,-4.62,10.669432500000001       4.409069
-404.625,6.93,-9.3357525        4.409069
-404.625,11.549998500000001,-1.3336785  4.409069
-404.625,4.62,10.669432500000001        4.409069
465.5625,-9.2399985,-5.3347155  -5.660931
465.5625,9.2399985,-5.3347155   -5.660931
465.5625,0.0,10.669432500000001 -5.660931
880.5,-0.0,-13.336789499999998  2.515516
880.5,-11.549998500000001,6.668395500000001     2.515516
880.5,11.549998500000001,6.668395500000001      2.515516
-140.8125,-13.8599985,-0.0      0.004632
-140.8125,6.93,-12.003111       0.004632
-140.8125,-6.93,12.003111       0.004632
-140.8125,13.8599985,-0.0       0.004632
-140.8125,-6.93,-12.003111      0.004632
-140.8125,6.93,12.003111        0.004632
-578.625,0.0,13.336789499999998 -2.519484
-578.625,-11.549998500000001,-6.668395500000001 -2.519484
-578.625,11.549998500000001,-6.668395500000001  -2.519484
342.0,-9.2399985,0.0    6.927092
342.0,-4.62,-8.002074   6.927092
342.0,-4.62,8.002074    6.927092
342.0,4.62,-8.002074    6.927092
342.0,9.2399985,0.0     6.927092
342.0,4.62,8.002074     6.927092
317.8125,-13.8599985,-2.6673584999999997        -0.625931
317.8125,-4.62,13.336789499999998       -0.625931
317.8125,-9.2399985,-10.669432500000001 -0.625931
317.8125,9.2399985,-10.669432500000001  -0.625931
317.8125,4.62,13.336789499999998        -0.625931
317.8125,13.8599985,-2.6673584999999997 -0.625931
167.90625,-13.8599985,0.0       1.892092
167.90625,-6.93,-12.003111      1.892092
167.90625,-6.93,12.003111       1.892092
167.90625,6.93,-12.003111       1.892092
167.90625,13.8599985,0.0        1.892092
167.90625,6.93,12.003111        1.892092
-6.48046875,-11.549998500000001,4.001037        -5.030367
-6.48046875,-11.549998500000001,-4.001037       -5.030367
-6.48046875,-9.2399985,-8.002074        -5.030367
-6.48046875,-9.2399985,8.002074 -5.030367
-6.48046875,-11.549998500000001,4.001037        5.039632
-6.48046875,2.31,-12.003111     -5.030367
-6.48046875,-2.31,-12.003111    -5.030367
-6.48046875,-11.549998500000001,-4.001037       5.039632
-6.48046875,-9.2399985,-8.002074        5.039632
-6.48046875,-2.31,12.003111     -5.030367
-6.48046875,2.31,-12.003111     5.039632
-6.48046875,-9.2399985,8.002074 5.039632
-6.48046875,-2.31,-12.003111    5.039632
-6.48046875,9.2399985,-8.002074 -5.030367
-6.48046875,2.31,12.003111      -5.030367
-6.48046875,11.549998500000001,-4.001037        -5.030367
-6.48046875,11.549998500000001,4.001037 -5.030367
-6.48046875,9.2399985,8.002074  -5.030367
-6.48046875,-2.31,12.003111     5.039632
-6.48046875,9.2399985,-8.002074 5.039632
-6.48046875,11.549998500000001,-4.001037        5.039632
-6.48046875,2.31,12.003111      5.039632
-6.48046875,11.549998500000001,4.001037 5.039632
-6.48046875,9.2399985,8.002074  5.039632
-1.03125,-11.549998500000001,-1.3336785 -5.660931
-1.03125,-6.93,-9.3357525       -5.660931
-1.03125,-4.62,10.669432500000001       -5.660931
-1.03125,6.93,-9.3357525        -5.660931
-1.03125,4.62,10.669432500000001        -5.660931
-1.03125,11.549998500000001,-1.3336785  -5.660931
174.0,-2.31,1.3336785   9.444068
174.0,0.0,-2.6673584999999997   9.444068
174.0,2.31,1.3336785    9.444068
76.96875,-13.8599985,2.6673584999999997 2.515516
76.96875,-4.62,-13.336789499999998      2.515516
76.96875,4.62,-13.336789499999998       2.515516
76.96875,-9.2399985,10.669432500000001  2.515516
76.96875,13.8599985,2.6673584999999997  2.515516
76.96875,9.2399985,10.669432500000001   2.515516
235.3125,-13.8599985,-2.6673584999999997        -2.519484
235.3125,-4.62,13.336789499999998       -2.519484
235.3125,-9.2399985,-10.669432500000001 -2.519484
235.3125,9.2399985,-10.669432500000001  -2.519484
235.3125,13.8599985,-2.6673584999999997 -2.519484
235.3125,4.62,13.336789499999998        -2.519484
329.4375,-13.8599985,-0.0       -3.142907
329.4375,-6.93,-12.003111       -3.142907
329.4375,-6.93,12.003111        -3.142907
329.4375,6.93,-12.003111        -3.142907
329.4375,13.8599985,-0.0        -3.142907
329.4375,6.93,12.003111 -3.142907
12.968261715,-6.93,-4.001037    -8.177907
12.968261715,-6.93,4.001037     -8.177907
12.968261715,6.93,4.001037      -8.177907
12.968261715,6.93,-4.001037     -8.177907
12.968261715,-0.0,-8.002074     -8.177907
12.968261715,0.0,8.002074       -8.177907
377.8125,-6.93,-6.668395500000001       7.550516
377.8125,-9.2399985,-2.6673584999999997 7.550516
377.8125,-2.31,9.3357525        7.550516
377.8125,6.93,-6.668395500000001        7.550516
377.8125,2.31,9.3357525 7.550516
377.8125,9.2399985,-2.6673584999999997  7.550516
-522.0,-6.93,6.668395500000001  -7.554483
-522.0,-9.2399985,2.6673584999999997    -7.554483
-522.0,-2.31,-9.3357525 -7.554483
-522.0,2.31,-9.3357525  -7.554483
-522.0,9.2399985,2.6673584999999997     -7.554483
-522.0,6.93,6.668395500000001   -7.554483
106.8984375,-11.549998500000001,9.3357525       -0.625931
106.8984375,-13.8599985,5.3347155       -0.625931
106.8984375,-2.31,-14.6704695   -0.625931
106.8984375,2.31,-14.6704695    -0.625931
106.8984375,13.8599985,5.3347155        -0.625931
106.8984375,11.549998500000001,9.3357525        -0.625931
-725.625,-0.0,-13.336789499999998       4.409069
-725.625,-11.549998500000001,6.668395500000001  4.409069
-725.625,11.549998500000001,6.668395500000001   4.409069

End of input

&SCF
Occupied
9
Iterations
   50  100
End of Input

&RASSCF
LumOrb
Symmetry
1
Spin
2
Nactel
1 0 0
CIRoot
9 9 1
inactive
9
ras2
9
End of Input

>>> COPY chromium_so_cf.JobIph $SLURM_SUBMIT_DIR/chromium_so_cf.doublet.JobIph

>>> COPY $SLURM_SUBMIT_DIR/chromium_so_cf.doublet.JobIph ./JOB002

&RASSI
NROFJobIph
1 All
SpinOrbit
End of Input

EOF

-- ----------------------------------

--- Start Module: seward at Wed Mar 26 16:01:57 2025 ---

()()()()()()()()()()()()()()()()()()()()()()()()()()()()()()()()()()()()()()()()()()()()()()()()()()

                                              &SEWARD

                                   only a single process is used
                       available to each process: 4.1 GB of memory, 1 thread?
                                            pid: 1278177
()()()()()()()()()()()()()()()()()()()()()()()()()()()()()()()()()()()()()()()()()()()()()()()()()()

 The speed of LIGHT in this CALCULATION =   137.03599917700001     
               SEWARD will generate:
                  Multipole Moment integrals up to order  2
                  Kinetic Energy integrals
                  Nuclear Attraction integrals (point charge)
                  One-Electron Hamiltonian integrals
                  Velocity integrals
                  Relativistic Douglas-Kroll-Hess integrals:
                    - Parametrization         : EXP
                    - DKH order of Hamiltonian: 2
                    - DKH order of Properties : 0
                         - multipole moment operators
                         - electric potential operators
                         - contact operators
                  External field from   414 point(s) added to the one-electron Hamiltonian
                  Orbital angular momentum around (-0.0000 -0.0000  0.0088 )
                  Velocity quadrupole around (-0.0000 -0.0000  0.0088 )
                  Atomic mean-field integrals
                  Two-Electron Repulsion integrals

                   Integrals are discarded if absolute value <: 0.10E-13
                   Integral cutoff threshold is set to       <: 0.10E-15

++    Symmetry information:
      ---------------------

                    Character Table for C1 

                             E  
                    a        1  x, y, xy, Rz, z, xz, Ry, yz, Rx, I
--


++    Basis set information:
      ----------------------


      Basis set label: CR.ANO-RCC.ROOS.21S15P10D6F4G2H.10S10P8D6F4G2H......

      Electronic valence basis set:
      ------------------
      Associated Effective Charge  24.000000 au
      Associated Actual Charge     24.000000 au
      Nuclear Model: Point charge

      Shell  nPrim  nBasis  Cartesian Spherical Contaminant
         s      21      10        X                  
         p      15      10        X                  
         d      10       8                 X         
         f       6       6                 X         
         g       4       4                 X         
         h       2       2                 X         
--


++    Molecular structure info:
      -------------------------

                    ************************************************ 
                    **** Cartesian Coordinates / Bohr, Angstrom **** 
                    ************************************************ 

     Center  Label                x              y              z                     x              y              z
        1      CR              -0.000000      -0.000000       0.008754             -0.000000      -0.000000       0.004632
--


++    Operator info:
      --------------


  Net charge from external field:   -39.268449999999902     
--


            Nuclear Potential Energy              0.00000000 au

                    Nuclear-External Field Potential Energy    -146.38350826 au
                    External Field Potential Energy            1070.42460092 au 


            Total Nuclear Potential Energy           -146.38350826 au


      Basis set specifications :
      Symmetry species         a  
      Basis functions          180

 Sorry, Molden does not know how to handle
 functions with angular momentum larger than g
Note: The following floating-point exceptions are signalling: IEEE_UNDERFLOW_FLAG IEEE_DENORMAL
--- Stop Module: seward at Wed Mar 26 16:02:09 2025 /rc=_RC_ALL_IS_WELL_ ---
*** files: chromium_so_cf.GssOrb xmldump
    saved to directory /home4/s4752295/Internship/Initial_simulations/Point_charge_model/1_electron/Madelung_charges_9_active_space/Cr
--- Module seward spent 11 seconds ---

*** symbolic link created: INPORB -> chromium_so_cf.GssOrb
--- Start Module: scf at Wed Mar 26 16:02:09 2025 ---

()()()()()()()()()()()()()()()()()()()()()()()()()()()()()()()()()()()()()()()()()()()()()()()()()()

                                                &SCF

                                   only a single process is used
                       available to each process: 4.1 GB of memory, 1 thread?
                                            pid: 1278569
()()()()()()()()()()()()()()()()()()()()()()()()()()()()()()()()()()()()()()()()()()()()()()()()()()

++    Input section:
      --------------

      Header of the integral files:
      
       Integrals generated by seward 4.2.0  , Wed Mar 26 16:01:58 2025


      Cartesian coordinates in Angstrom:
      -----------------------------------------------------
      No.  Label        X            Y            Z        
      -----------------------------------------------------
       1   CR        -0.00000000  -0.00000000   0.00463220
      -----------------------------------------------------
      Nuclear repulsion energy = -146.38350826
--

++    Orbital specifications:
      -----------------------

      Symmetry species               1
                                     a
      Frozen orbitals                0
      Occupied orbitals              9
      Secondary orbitals           171
      Deleted orbitals               0
      Total number of orbitals     180
      Number of basis functions    180
--

      Molecular charge                           6.000

++    Optimization specifications:
      ----------------------------

      SCF Algorithm: Conventional
      Minimized density differences are used
      Number of density matrices in core                5
      Maximum number of NDDO SCF iterations            50
      Maximum number of HF SCF iterations             100
      Threshold for SCF energy change            0.10E-08
      Threshold for density matrix               0.10E-03
      Threshold for Fock matrix                  0.15E-03
      Threshold for linear dependence            0.10E-08
      Threshold at which DIIS is turned on       0.15E+00
      Threshold at which QNR/C2DIIS is turned on 0.75E-01
      Threshold for Norm(delta) (QNR/C2DIIS)     0.20E-04
      DIIS extrapolation of the SCF procedure
      All orbitals punched on: SCFORB
--

      Detected guessorb starting orbitals                                             


++ Convergence information
                                   SCF        iterations: Energy and convergence statistics

Iter     Tot. SCF        One-elec.       Two-elec.     Energy      Max Dij or  Max Fij      DNorm      TNorm      AccCon     Time
         Energy          Energy          Energy        Change      Delta Norm                                                in Sec.

 The total and one-electron energies are shifted by a value of      1000. a.u.

   1   -76.203180603  -235.196335417   305.376663078   0.00E+00    0.15E+00*   0.40E+00*    0.60E+01   0.25E+03   None         1.
   2   -76.876786060  -247.608240309   317.114962513  -0.67E+00*   0.21E-01*   0.76E-01*    0.11E+01   0.25E+03   EDIIS        1.
   3   -76.888526716  -246.162942569   315.657924117  -0.12E-01*   0.67E-02*   0.12E-01*    0.10E+00   0.25E+03   EDIIS        1.
   4   -76.888893759  -246.398726929   315.893341434  -0.37E-03*   0.32E-03*   0.21E-02*    0.11E-01   0.25E+03   c2DIIS       1.
   5   -76.888910006  -246.369567801   315.864166060  -0.16E-04*   0.87E-04*   0.17E-03*    0.99E-03   0.25E+03   QNRc2DIIS    1.
   6   -76.888910069  -246.368438385   315.863036581  -0.63E-07*   0.20E-04*   0.34E-04     0.14E-03   0.25E+03   QNRc2DIIS    1.
   7   -76.888910072  -246.368604031   315.863202224  -0.33E-08*   0.46E-05    0.67E-05     0.21E-04   0.25E+03   QNRc2DIIS    1.
   8   -76.888910072  -246.368640677   315.863238869  -0.13E-09    0.16E-05    0.21E-05     0.19E-03   0.25E+03   QNRc2DIIS    1.

       Convergence after  8 Macro Iterations
--

 *****************************************************************************************************************************
 *                                                                                                                           *
 *                                             SCF/KS-DFT Program, Final results                                             *
 *                                                                                                                           *
 *                                                                                                                           *
 *                                                                                                                           *
 *                                                       Final Results                                                       *
 *                                                                                                                           *
 *****************************************************************************************************************************

::    Total SCF energy                              -1076.8889100720
      One-electron energy                           -1246.3686406770
      Two-electron energy                             315.8632388694
      Nuclear repulsion energy                       -146.3835082644
      Kinetic energy (interpolated)                  1078.2673468301
      Virial theorem                                    0.9987216188
      Total spin, S(S+1)                                0.0000000000
      Total spin, S                                     0.0000000000
      Max non-diagonal density matrix element           0.0000023663
      Max non-diagonal Fock matrix element              0.0000009971


      All orbitals with orbital energies smaller than  E(LUMO)+0.5 are printed

++    Molecular orbitals:
      -------------------

      Title: SCF orbitals

      Molecular orbitals for symmetry species 1: a  

          Orbital            1         2         3         4         5         6         7         8         9        10    
          Energy         -220.2194  -24.8966  -20.5207  -20.5207  -20.5200   -1.2066    0.1788    0.1788    0.2052    2.8249
          Occ. No.          2.0000    2.0000    2.0000    2.0000    2.0000    2.0000    2.0000    2.0000    2.0000    0.0000

        1 CR     1s         1.0000   -0.0001    0.0000   -0.0000   -0.0000    0.0001   -0.0000   -0.0000    0.0000   -0.0000
        2 CR     2s         0.0001    1.0000    0.0000   -0.0000   -0.0030    0.0021    0.0000   -0.0000   -0.0008   -0.0000
        3 CR     3s        -0.0001   -0.0022   -0.0000    0.0000    0.0009    0.9903    0.0001   -0.0000   -0.0991   -0.0000
        4 CR     4s         0.0000    0.0001    0.0000   -0.0000   -0.0001   -0.0487   -0.0000    0.0000    0.0213   -0.0000
        5 CR     5s        -0.0000   -0.0004   -0.0000    0.0000    0.0002    0.0714    0.0000   -0.0000   -0.0322    0.0000
        6 CR     6s         0.0000    0.0003    0.0000   -0.0000   -0.0002   -0.0293   -0.0000    0.0000    0.0127    0.0000
        7 CR     7s        -0.0000   -0.0001   -0.0000    0.0000    0.0000   -0.0086   -0.0000    0.0000    0.0045   -0.0000
        8 CR     8s         0.0000   -0.0000    0.0000   -0.0000   -0.0000    0.0063    0.0000   -0.0000   -0.0031   -0.0000
        9 CR     9s        -0.0001    0.0002    0.0000   -0.0000   -0.0000    0.0020    0.0000   -0.0000   -0.0012   -0.0000
       10 CR    10s         0.0001   -0.0003   -0.0000    0.0000    0.0000    0.0004    0.0000   -0.0000   -0.0001   -0.0000
       11 CR     2px        0.0000    0.0030   -0.0018    0.0000    1.0000   -0.0006   -0.0000    0.0000    0.0033   -0.0000
       12 CR     3px       -0.0000    0.0006    0.0000   -0.0000   -0.0032    0.1037   -0.0013    0.0000    0.9826    0.0000
       13 CR     4px        0.0000   -0.0001   -0.0000    0.0000    0.0005   -0.0016    0.0001   -0.0000   -0.0884   -0.0000
       14 CR     5px       -0.0000    0.0002    0.0000   -0.0000   -0.0009   -0.0027   -0.0001    0.0000    0.0967    0.0000
       15 CR     6px        0.0000   -0.0001   -0.0000    0.0000    0.0002    0.0027    0.0000   -0.0000   -0.0029    0.0000
       16 CR     7px       -0.0000    0.0001    0.0000   -0.0000   -0.0000   -0.0019    0.0000   -0.0000   -0.0144   -0.0000
       17 CR     8px        0.0000   -0.0000    0.0000   -0.0000   -0.0002   -0.0006   -0.0000    0.0000    0.0026   -0.0000
       18 CR     9px       -0.0000    0.0000   -0.0000    0.0000    0.0003    0.0007   -0.0000    0.0000    0.0034    0.0000
       19 CR    10px        0.0000   -0.0000    0.0000   -0.0000   -0.0003    0.0003   -0.0000   -0.0000   -0.0001    0.0000
       20 CR    11px       -0.0000    0.0000   -0.0000    0.0000    0.0002    0.0000    0.0000   -0.0000   -0.0005   -0.0000
       21 CR     2py       -0.0000   -0.0000    0.0000    1.0000   -0.0000   -0.0000    0.0000    0.0032    0.0000    0.0001
       22 CR     3py        0.0000    0.0000   -0.0000   -0.0031    0.0000   -0.0000    0.0000    0.9893   -0.0000    0.0046
       23 CR     4py       -0.0000   -0.0000    0.0000    0.0005   -0.0000    0.0000   -0.0000   -0.0890    0.0000   -0.0078
       24 CR     5py        0.0000    0.0000   -0.0000   -0.0008    0.0000   -0.0000    0.0000    0.0958   -0.0000    0.0049
       25 CR     6py       -0.0000   -0.0000    0.0000    0.0002   -0.0000    0.0000   -0.0000   -0.0019    0.0000    0.0012
       26 CR     7py        0.0000    0.0000   -0.0000   -0.0000    0.0000   -0.0000   -0.0000   -0.0151    0.0000   -0.0014
       27 CR     8py       -0.0000   -0.0000   -0.0000   -0.0002    0.0000    0.0000    0.0000    0.0024   -0.0000   -0.0004
       28 CR     9py        0.0000    0.0000    0.0000    0.0003   -0.0000   -0.0000    0.0000    0.0037   -0.0000    0.0003
       29 CR    10py       -0.0000   -0.0000   -0.0000   -0.0003    0.0000    0.0000    0.0000    0.0001   -0.0000    0.0001
       30 CR    11py        0.0000    0.0000    0.0000    0.0002   -0.0000   -0.0000   -0.0000   -0.0004    0.0000    0.0000
       31 CR     2pz        0.0000    0.0000    1.0000   -0.0000    0.0018   -0.0000    0.0032   -0.0000    0.0000   -0.0000
       32 CR     3pz       -0.0000    0.0000   -0.0031    0.0000   -0.0000    0.0001    0.9893   -0.0000    0.0013   -0.0000
       33 CR     4pz        0.0000   -0.0000    0.0005   -0.0000    0.0000   -0.0000   -0.0890    0.0000   -0.0001    0.0000
       34 CR     5pz       -0.0000    0.0000   -0.0008    0.0000   -0.0000   -0.0000    0.0958   -0.0000    0.0001   -0.0000
       35 CR     6pz        0.0000   -0.0000    0.0002   -0.0000    0.0000    0.0000   -0.0019    0.0000   -0.0000   -0.0000
       36 CR     7pz       -0.0000    0.0000   -0.0000    0.0000   -0.0000   -0.0000   -0.0151    0.0000   -0.0000    0.0000
       37 CR     8pz        0.0000   -0.0000   -0.0002    0.0000   -0.0000   -0.0000    0.0024   -0.0000    0.0000    0.0000
       38 CR     9pz       -0.0000    0.0000    0.0003   -0.0000    0.0000    0.0000    0.0037   -0.0000    0.0000   -0.0000
       39 CR    10pz        0.0000   -0.0000   -0.0003    0.0000   -0.0000    0.0000    0.0001   -0.0000   -0.0000   -0.0000
       40 CR    11pz       -0.0000    0.0000    0.0002   -0.0000    0.0000    0.0000   -0.0004    0.0000   -0.0000   -0.0000
       41 CR     3d2-       0.0000    0.0000    0.0000    0.0003   -0.0000   -0.0000    0.0000    0.0597   -0.0000   -0.0894
       42 CR     4d2-      -0.0000   -0.0000   -0.0000   -0.0002    0.0000    0.0000   -0.0000   -0.0134    0.0000    0.0265
       43 CR     5d2-       0.0000    0.0000    0.0000    0.0001   -0.0000    0.0000   -0.0000   -0.0077    0.0000   -0.0006
       44 CR     6d2-      -0.0000   -0.0000   -0.0000   -0.0001    0.0000    0.0000    0.0000    0.0040   -0.0000   -0.0013
       45 CR     7d2-       0.0000    0.0000    0.0000    0.0000   -0.0000   -0.0000    0.0000    0.0022   -0.0000   -0.0009
       46 CR     8d2-      -0.0000   -0.0000   -0.0000   -0.0000    0.0000    0.0000   -0.0000   -0.0007    0.0000    0.0006
       47 CR     9d2-       0.0000    0.0000    0.0000    0.0000   -0.0000   -0.0000   -0.0000   -0.0012    0.0000    0.0003
       48 CR    10d2-      -0.0000    0.0000   -0.0000   -0.0000    0.0000   -0.0000   -0.0000   -0.0002   -0.0000   -0.0000
       49 CR     3d1-      -0.0000    0.0000    0.0000    0.0000    0.0000   -0.0000   -0.0000   -0.0000   -0.0000    0.9426
       50 CR     4d1-       0.0000   -0.0000   -0.0000   -0.0000   -0.0000    0.0000   -0.0000   -0.0000    0.0000   -0.3144
       51 CR     5d1-      -0.0000    0.0000    0.0000    0.0000    0.0000   -0.0000   -0.0000   -0.0000   -0.0000   -0.0020
       52 CR     6d1-      -0.0000   -0.0000   -0.0000   -0.0000   -0.0000    0.0000    0.0000    0.0000    0.0000    0.0179
       53 CR     7d1-       0.0000    0.0000    0.0000    0.0000    0.0000   -0.0000   -0.0000   -0.0000   -0.0000    0.0154
       54 CR     8d1-      -0.0000   -0.0000   -0.0000   -0.0000   -0.0000   -0.0000   -0.0000   -0.0000    0.0000   -0.0047
       55 CR     9d1-       0.0000    0.0000    0.0000    0.0000    0.0000   -0.0000   -0.0000   -0.0000   -0.0000   -0.0042
       56 CR    10d1-       0.0000   -0.0000   -0.0000   -0.0000   -0.0000    0.0000    0.0000    0.0000    0.0000   -0.0003
       57 CR     3d0        0.0000    0.0000    0.0000   -0.0000   -0.0002   -0.0006    0.0001   -0.0000   -0.0361    0.0000
       58 CR     4d0       -0.0000   -0.0000   -0.0000    0.0000    0.0001   -0.0002   -0.0000    0.0000    0.0081   -0.0000
       59 CR     5d0        0.0000    0.0000    0.0000   -0.0000   -0.0001    0.0003   -0.0000    0.0000    0.0046   -0.0000
       60 CR     6d0       -0.0000   -0.0000   -0.0000    0.0000    0.0000    0.0000    0.0000   -0.0000   -0.0024    0.0000
       61 CR     7d0        0.0000   -0.0000    0.0000   -0.0000   -0.0000   -0.0001    0.0000   -0.0000   -0.0013    0.0000
       62 CR     8d0       -0.0000    0.0000   -0.0000    0.0000    0.0000   -0.0000    0.0000   -0.0000    0.0004   -0.0000
       63 CR     9d0        0.0000   -0.0000    0.0000   -0.0000   -0.0000    0.0000   -0.0000    0.0000    0.0007   -0.0000
       64 CR    10d0       -0.0000    0.0000   -0.0000    0.0000    0.0000    0.0000   -0.0000    0.0000    0.0001   -0.0000
       65 CR     3d1+      -0.0000   -0.0000    0.0003   -0.0000    0.0000   -0.0000    0.0597   -0.0000    0.0001    0.0000
       66 CR     4d1+       0.0000    0.0000   -0.0002    0.0000   -0.0000    0.0000   -0.0134    0.0000   -0.0000   -0.0000
       67 CR     5d1+      -0.0000   -0.0000    0.0001   -0.0000    0.0000    0.0000   -0.0077    0.0000   -0.0000    0.0000
       68 CR     6d1+       0.0000    0.0000   -0.0001    0.0000   -0.0000   -0.0000    0.0040   -0.0000    0.0000    0.0000
       69 CR     7d1+      -0.0000   -0.0000    0.0000   -0.0000    0.0000   -0.0000    0.0022   -0.0000    0.0000    0.0000
       70 CR     8d1+       0.0000   -0.0000   -0.0000    0.0000   -0.0000    0.0000   -0.0007    0.0000   -0.0000   -0.0000
       71 CR     9d1+      -0.0000    0.0000    0.0000   -0.0000    0.0000    0.0000   -0.0012    0.0000   -0.0000   -0.0000
       72 CR    10d1+       0.0000   -0.0000   -0.0000    0.0000   -0.0000   -0.0000   -0.0002    0.0000   -0.0000    0.0000
       73 CR     3d2+      -0.0000   -0.0000   -0.0000    0.0000    0.0003    0.0010   -0.0001    0.0000    0.0625    0.0000
       74 CR     4d2+       0.0000    0.0000    0.0000   -0.0000   -0.0002    0.0004    0.0000   -0.0000   -0.0140   -0.0000
       75 CR     5d2+      -0.0000   -0.0000   -0.0000    0.0000    0.0001   -0.0004    0.0000   -0.0000   -0.0080   -0.0000
       76 CR     6d2+       0.0000    0.0000    0.0000   -0.0000   -0.0001   -0.0001   -0.0000    0.0000    0.0041    0.0000
       77 CR     7d2+      -0.0000    0.0000   -0.0000    0.0000    0.0000    0.0001   -0.0000    0.0000    0.0023    0.0000
       78 CR     8d2+       0.0000   -0.0000    0.0000   -0.0000   -0.0000    0.0001    0.0000   -0.0000   -0.0007   -0.0000
       79 CR     9d2+      -0.0000    0.0000   -0.0000    0.0000    0.0000   -0.0001    0.0000   -0.0000   -0.0012   -0.0000
       80 CR    10d2+       0.0000   -0.0000    0.0000   -0.0000   -0.0000   -0.0000    0.0000   -0.0000   -0.0002   -0.0000
       81 CR     4f3-      -0.0000   -0.0000   -0.0000   -0.0000    0.0000    0.0000    0.0000    0.0005   -0.0000   -0.0067
       82 CR     5f3-       0.0000    0.0000    0.0000    0.0000   -0.0000   -0.0000    0.0000    0.0007   -0.0000   -0.0040
       83 CR     6f3-      -0.0000   -0.0000   -0.0000   -0.0000    0.0000    0.0000   -0.0000   -0.0000   -0.0000   -0.0003
       84 CR     7f3-       0.0000    0.0000    0.0000    0.0000   -0.0000   -0.0000   -0.0000   -0.0002    0.0000    0.0004
       85 CR     8f3-      -0.0000   -0.0000   -0.0000   -0.0000    0.0000    0.0000   -0.0000   -0.0000   -0.0000    0.0003
       86 CR     9f3-       0.0000    0.0000    0.0000    0.0000   -0.0000   -0.0000    0.0000    0.0001   -0.0000    0.0002
       87 CR     4f2-      -0.0000   -0.0000   -0.0000   -0.0000    0.0000   -0.0000   -0.0000   -0.0001   -0.0000    0.0511
       88 CR     5f2-       0.0000    0.0000    0.0000    0.0000    0.0000    0.0000   -0.0000   -0.0001    0.0000    0.0232
       89 CR     6f2-      -0.0000   -0.0000   -0.0000   -0.0000   -0.0000   -0.0000   -0.0000   -0.0000   -0.0000   -0.0052
       90 CR     7f2-       0.0000   -0.0000   -0.0000   -0.0000    0.0000   -0.0000    0.0000    0.0000    0.0000   -0.0056
       91 CR     8f2-      -0.0000    0.0000   -0.0000   -0.0000   -0.0000    0.0000    0.0000    0.0000   -0.0000   -0.0012
       92 CR     9f2-       0.0000   -0.0000   -0.0000   -0.0000    0.0000   -0.0000   -0.0000   -0.0000    0.0000    0.0013
       93 CR     4f1-      -0.0000   -0.0000    0.0000    0.0000   -0.0000    0.0000   -0.0000   -0.0001   -0.0000    0.0018
       94 CR     5f1-       0.0000    0.0000   -0.0000   -0.0000    0.0000   -0.0000   -0.0000   -0.0002    0.0000    0.0010
       95 CR     6f1-      -0.0000   -0.0000    0.0000    0.0000   -0.0000    0.0000    0.0000    0.0000   -0.0000    0.0001
       96 CR     7f1-       0.0000    0.0000   -0.0000   -0.0000    0.0000   -0.0000    0.0000    0.0001    0.0000   -0.0001
       97 CR     8f1-      -0.0000   -0.0000    0.0000    0.0000   -0.0000    0.0000    0.0000    0.0000   -0.0000   -0.0001
       98 CR     9f1-      -0.0000    0.0000   -0.0000   -0.0000    0.0000   -0.0000   -0.0000   -0.0000    0.0000   -0.0000
       99 CR     4f0       -0.0000    0.0000    0.0000   -0.0000    0.0000    0.0000   -0.0003    0.0000    0.0001   -0.0000
      100 CR     5f0        0.0000   -0.0000   -0.0000    0.0000   -0.0000    0.0000   -0.0004    0.0000    0.0001   -0.0000
      101 CR     6f0        0.0000   -0.0000    0.0000   -0.0000    0.0000   -0.0000    0.0000   -0.0000    0.0000   -0.0000
      102 CR     7f0        0.0000   -0.0000   -0.0000    0.0000    0.0000   -0.0000    0.0002   -0.0000   -0.0000    0.0000
      103 CR     8f0        0.0000   -0.0000    0.0000   -0.0000    0.0000   -0.0000    0.0000   -0.0000   -0.0000    0.0000
      104 CR     9f0        0.0000   -0.0000   -0.0000    0.0000   -0.0000   -0.0000   -0.0001    0.0000    0.0000    0.0000
      105 CR     4f1+       0.0000   -0.0000    0.0000   -0.0000    0.0000   -0.0002    0.0001   -0.0000   -0.0003    0.0000
      106 CR     5f1+      -0.0000    0.0000   -0.0000    0.0000   -0.0000   -0.0001    0.0001   -0.0000   -0.0005    0.0000
      107 CR     6f1+       0.0000   -0.0000    0.0000   -0.0000    0.0000    0.0001    0.0000   -0.0000    0.0000   -0.0000
      108 CR     7f1+      -0.0000   -0.0000    0.0000   -0.0000   -0.0000    0.0000   -0.0000    0.0000    0.0002   -0.0000
      109 CR     8f1+       0.0000    0.0000   -0.0000    0.0000    0.0000   -0.0000   -0.0000    0.0000    0.0000   -0.0000
      110 CR     9f1+      -0.0000   -0.0000    0.0000   -0.0000   -0.0000   -0.0000    0.0000   -0.0000   -0.0001    0.0000
      111 CR     4f2+      -0.0000    0.0000   -0.0000    0.0000    0.0000    0.0000    0.0004   -0.0000    0.0001    0.0000
      112 CR     5f2+       0.0000   -0.0000    0.0000   -0.0000    0.0000    0.0000    0.0006   -0.0000    0.0000    0.0000
      113 CR     6f2+      -0.0000   -0.0000   -0.0000    0.0000   -0.0000   -0.0000   -0.0000    0.0000    0.0000    0.0000
      114 CR     7f2+       0.0000   -0.0000    0.0000   -0.0000    0.0000   -0.0000   -0.0002    0.0000   -0.0000   -0.0000
      115 CR     8f2+      -0.0000   -0.0000   -0.0000    0.0000   -0.0000   -0.0000   -0.0000    0.0000   -0.0000   -0.0000
      116 CR     9f2+       0.0000   -0.0000    0.0000   -0.0000    0.0000   -0.0000    0.0001   -0.0000    0.0000   -0.0000
      117 CR     4f3+      -0.0000    0.0000    0.0000   -0.0000   -0.0000    0.0003    0.0001   -0.0000    0.0004    0.0000
      118 CR     5f3+       0.0000   -0.0000   -0.0000    0.0000    0.0000    0.0001    0.0001   -0.0000    0.0006    0.0000
      119 CR     6f3+      -0.0000    0.0000    0.0000   -0.0000   -0.0000   -0.0001    0.0000   -0.0000   -0.0000   -0.0000
      120 CR     7f3+       0.0000    0.0000    0.0000   -0.0000    0.0000   -0.0000   -0.0000    0.0000   -0.0003   -0.0000
      121 CR     8f3+      -0.0000   -0.0000    0.0000   -0.0000   -0.0000    0.0000   -0.0000    0.0000   -0.0000   -0.0000
      122 CR     9f3+       0.0000    0.0000    0.0000   -0.0000    0.0000    0.0000    0.0000   -0.0000    0.0001    0.0000
      123 CR     5g4-      -0.0000   -0.0000    0.0000    0.0000   -0.0000    0.0000    0.0000    0.0002   -0.0000   -0.0002
      124 CR     6g4-       0.0000    0.0000   -0.0000   -0.0000    0.0000    0.0000    0.0000    0.0002   -0.0000   -0.0006
      125 CR     7g4-      -0.0000   -0.0000    0.0000    0.0000   -0.0000   -0.0000    0.0000    0.0000    0.0000   -0.0007
      126 CR     8g4-       0.0000    0.0000    0.0000    0.0000    0.0000    0.0000   -0.0000   -0.0000   -0.0000   -0.0005
      127 CR     5g3-       0.0000    0.0000   -0.0000   -0.0000   -0.0000    0.0000   -0.0000   -0.0000   -0.0000    0.0012
      128 CR     6g3-      -0.0000   -0.0000    0.0000    0.0000    0.0000   -0.0000   -0.0000   -0.0001    0.0000    0.0028
      129 CR     7g3-       0.0000    0.0000   -0.0000   -0.0000   -0.0000    0.0000   -0.0000   -0.0000   -0.0000    0.0023
      130 CR     8g3-      -0.0000   -0.0000   -0.0000   -0.0000    0.0000   -0.0000   -0.0000   -0.0000   -0.0000    0.0011
      131 CR     5g2-      -0.0000   -0.0000   -0.0000   -0.0000    0.0000   -0.0000   -0.0000   -0.0001   -0.0000    0.0001
      132 CR     6g2-       0.0000    0.0000    0.0000    0.0000   -0.0000   -0.0000   -0.0000   -0.0001    0.0000    0.0002
      133 CR     7g2-      -0.0000   -0.0000   -0.0000   -0.0000   -0.0000    0.0000   -0.0000   -0.0000   -0.0000    0.0002
      134 CR     8g2-       0.0000    0.0000   -0.0000   -0.0000    0.0000   -0.0000    0.0000    0.0000   -0.0000    0.0002
      135 CR     5g1-      -0.0000   -0.0000    0.0000    0.0000   -0.0000    0.0000    0.0000    0.0000    0.0000   -0.0005
      136 CR     6g1-       0.0000    0.0000    0.0000    0.0000   -0.0000   -0.0000    0.0000    0.0000   -0.0000   -0.0011
      137 CR     7g1-      -0.0000   -0.0000   -0.0000   -0.0000    0.0000    0.0000    0.0000    0.0000    0.0000   -0.0009
      138 CR     8g1-       0.0000    0.0000    0.0000    0.0000    0.0000   -0.0000    0.0000    0.0000   -0.0000   -0.0005
      139 CR     5g0        0.0000   -0.0000   -0.0000    0.0000    0.0000   -0.0000   -0.0000    0.0000    0.0001   -0.0000
      140 CR     6g0       -0.0000    0.0000    0.0000   -0.0000   -0.0000   -0.0000   -0.0000    0.0000    0.0001   -0.0000
      141 CR     7g0       -0.0000   -0.0000   -0.0000    0.0000    0.0000    0.0000   -0.0000    0.0000    0.0000   -0.0000
      142 CR     8g0       -0.0000    0.0000   -0.0000    0.0000    0.0000    0.0000   -0.0000    0.0000   -0.0000   -0.0000
      143 CR     5g1+      -0.0000    0.0000   -0.0000    0.0000    0.0000    0.0000   -0.0002    0.0000    0.0000   -0.0000
      144 CR     6g1+      -0.0000   -0.0000    0.0000   -0.0000    0.0000    0.0000   -0.0002    0.0000    0.0001   -0.0000
      145 CR     7g1+       0.0000    0.0000   -0.0000    0.0000    0.0000    0.0000   -0.0000    0.0000    0.0000   -0.0000
      146 CR     8g1+       0.0000   -0.0000   -0.0000    0.0000    0.0000   -0.0000    0.0000   -0.0000    0.0000   -0.0000
      147 CR     5g2+      -0.0000    0.0000    0.0000   -0.0000   -0.0000    0.0000    0.0000   -0.0000   -0.0002    0.0000
      148 CR     6g2+       0.0000   -0.0000   -0.0000    0.0000    0.0000    0.0000    0.0000   -0.0000   -0.0001    0.0000
      149 CR     7g2+       0.0000    0.0000    0.0000   -0.0000   -0.0000   -0.0000    0.0000   -0.0000   -0.0000    0.0000
      150 CR     8g2+       0.0000   -0.0000    0.0000   -0.0000   -0.0000   -0.0000    0.0000   -0.0000    0.0000    0.0000
      151 CR     5g3+      -0.0000    0.0000    0.0000   -0.0000    0.0000    0.0001    0.0002   -0.0000    0.0000    0.0000
      152 CR     6g3+      -0.0000   -0.0000   -0.0000    0.0000    0.0000    0.0000    0.0001   -0.0000    0.0001    0.0000
      153 CR     7g3+       0.0000    0.0000    0.0000   -0.0000    0.0000    0.0000    0.0000   -0.0000    0.0000    0.0000
      154 CR     8g3+       0.0000   -0.0000    0.0000   -0.0000    0.0000   -0.0000   -0.0000    0.0000    0.0000    0.0000
      155 CR     5g4+       0.0000   -0.0000    0.0000   -0.0000    0.0000   -0.0000    0.0000   -0.0000    0.0002    0.0000
      156 CR     6g4+      -0.0000    0.0000   -0.0000    0.0000   -0.0000   -0.0000    0.0000   -0.0000    0.0002    0.0000
      157 CR     7g4+      -0.0000   -0.0000    0.0000   -0.0000    0.0000    0.0000    0.0000   -0.0000    0.0000    0.0000
      158 CR     8g4+      -0.0000    0.0000    0.0000   -0.0000    0.0000    0.0000    0.0000   -0.0000   -0.0000    0.0000
      159 CR     6h5-      -0.0000   -0.0000   -0.0000   -0.0000   -0.0000    0.0000   -0.0000   -0.0000   -0.0000   -0.0000
      160 CR     7h5-       0.0000    0.0000    0.0000    0.0000    0.0000   -0.0000   -0.0000   -0.0000   -0.0000    0.0000
      161 CR     6h4-      -0.0000   -0.0000    0.0000    0.0000   -0.0000   -0.0000    0.0000    0.0000   -0.0000    0.0003
      162 CR     7h4-       0.0000    0.0000   -0.0000   -0.0000    0.0000    0.0000    0.0000    0.0000   -0.0000    0.0004
      163 CR     6h3-      -0.0000   -0.0000    0.0000    0.0000   -0.0000    0.0000    0.0000    0.0000    0.0000   -0.0000
      164 CR     7h3-       0.0000    0.0000   -0.0000   -0.0000    0.0000   -0.0000    0.0000    0.0000   -0.0000   -0.0000
      165 CR     6h2-      -0.0000    0.0000    0.0000    0.0000   -0.0000    0.0000    0.0000    0.0000   -0.0000   -0.0002
      166 CR     7h2-       0.0000   -0.0000   -0.0000   -0.0000    0.0000    0.0000    0.0000    0.0001   -0.0000   -0.0002
      167 CR     6h1-      -0.0000   -0.0000   -0.0000   -0.0000   -0.0000    0.0000   -0.0000   -0.0000    0.0000   -0.0000
      168 CR     7h1-       0.0000    0.0000    0.0000    0.0000    0.0000   -0.0000   -0.0000   -0.0000   -0.0000   -0.0000
      169 CR     6h0        0.0000   -0.0000   -0.0000    0.0000   -0.0000   -0.0000   -0.0000    0.0000   -0.0000   -0.0000
      170 CR     7h0        0.0000   -0.0000    0.0000   -0.0000    0.0000   -0.0000   -0.0000    0.0000   -0.0000   -0.0000
      171 CR     6h1+       0.0000    0.0000    0.0000   -0.0000   -0.0000   -0.0000    0.0000   -0.0000   -0.0000   -0.0000
      172 CR     7h1+       0.0000   -0.0000   -0.0000    0.0000    0.0000   -0.0000    0.0000   -0.0000   -0.0000   -0.0000
      173 CR     6h2+      -0.0000    0.0000    0.0000   -0.0000    0.0000    0.0000    0.0000   -0.0000    0.0000   -0.0000
      174 CR     7h2+      -0.0000    0.0000   -0.0000    0.0000   -0.0000    0.0000    0.0000   -0.0000    0.0000   -0.0000
      175 CR     6h3+      -0.0000   -0.0000    0.0000   -0.0000    0.0000    0.0000    0.0000   -0.0000    0.0000    0.0000
      176 CR     7h3+      -0.0000    0.0000   -0.0000    0.0000   -0.0000    0.0000    0.0000   -0.0000    0.0000    0.0000
      177 CR     6h4+      -0.0000    0.0000   -0.0000    0.0000    0.0000    0.0000   -0.0000    0.0000    0.0001    0.0000
      178 CR     7h4+      -0.0000    0.0000    0.0000   -0.0000   -0.0000    0.0000   -0.0000    0.0000    0.0001   -0.0000
      179 CR     6h5+       0.0000    0.0000    0.0000   -0.0000   -0.0000   -0.0000    0.0000   -0.0000   -0.0000    0.0000
      180 CR     7h5+       0.0000   -0.0000   -0.0000    0.0000    0.0000   -0.0000    0.0000   -0.0000   -0.0001    0.0000

          Orbital           11        12        13        14    
          Energy            2.8249    2.8315    2.8315    2.8337
          Occ. No.          0.0000    0.0000    0.0000    0.0000

        1 CR     1s        -0.0000    0.0000    0.0000   -0.0000
        2 CR     2s         0.0000   -0.0000    0.0000    0.0001
        3 CR     3s         0.0000   -0.0000   -0.0000    0.0075
        4 CR     4s         0.0000   -0.0002    0.0000    0.0342
        5 CR     5s        -0.0000    0.0001    0.0000   -0.0119
        6 CR     6s        -0.0000    0.0000    0.0000   -0.0084
        7 CR     7s         0.0000   -0.0000   -0.0000    0.0024
        8 CR     8s         0.0000   -0.0000   -0.0000    0.0028
        9 CR     9s         0.0000    0.0000   -0.0000    0.0003
       10 CR    10s         0.0000    0.0000    0.0000   -0.0000
       11 CR     2px       -0.0000    0.0000   -0.0000   -0.0007
       12 CR     3px       -0.0000    0.0002    0.0000   -0.0582
       13 CR     4px        0.0001   -0.0005   -0.0000    0.1065
       14 CR     5px       -0.0001    0.0003    0.0000   -0.0652
       15 CR     6px       -0.0000    0.0001    0.0000   -0.0185
       16 CR     7px        0.0000   -0.0001   -0.0000    0.0184
       17 CR     8px        0.0000   -0.0000    0.0000    0.0056
       18 CR     9px       -0.0000    0.0000    0.0000   -0.0033
       19 CR    10px       -0.0000    0.0000    0.0000   -0.0015
       20 CR    11px        0.0000    0.0000    0.0000   -0.0001
       21 CR     2py        0.0000   -0.0000   -0.0006   -0.0000
       22 CR     3py       -0.0000   -0.0000   -0.0490   -0.0000
       23 CR     4py        0.0000    0.0000    0.0737    0.0000
       24 CR     5py       -0.0000   -0.0000   -0.0528   -0.0000
       25 CR     6py       -0.0000   -0.0000   -0.0113   -0.0000
       26 CR     7py        0.0000    0.0000    0.0154    0.0000
       27 CR     8py        0.0000    0.0000    0.0033    0.0000
       28 CR     9py        0.0000   -0.0000   -0.0039   -0.0000
       29 CR    10py        0.0000   -0.0000   -0.0017   -0.0000
       30 CR    11py        0.0000   -0.0000   -0.0002   -0.0000
       31 CR     2pz       -0.0001   -0.0006    0.0000   -0.0000
       32 CR     3pz       -0.0043   -0.0490    0.0000   -0.0002
       33 CR     4pz        0.0074    0.0738   -0.0000    0.0003
       34 CR     5pz       -0.0046   -0.0529    0.0000   -0.0002
       35 CR     6pz       -0.0012   -0.0113    0.0000   -0.0001
       36 CR     7pz        0.0013    0.0154   -0.0000    0.0001
       37 CR     8pz        0.0003    0.0033   -0.0000    0.0000
       38 CR     9pz       -0.0003   -0.0038    0.0000   -0.0000
       39 CR    10pz       -0.0001   -0.0017    0.0000   -0.0000
       40 CR    11pz       -0.0000   -0.0002    0.0000   -0.0000
       41 CR     3d2-       0.0000    0.0000    0.9415    0.0000
       42 CR     4d2-      -0.0000   -0.0000   -0.2956   -0.0000
       43 CR     5d2-       0.0000    0.0000    0.0010   -0.0000
       44 CR     6d2-       0.0000    0.0000    0.0141    0.0000
       45 CR     7d2-       0.0000    0.0000    0.0123    0.0000
       46 CR     8d2-      -0.0000   -0.0000   -0.0040   -0.0000
       47 CR     9d2-      -0.0000   -0.0000   -0.0026   -0.0000
       48 CR    10d2-       0.0000    0.0000    0.0001    0.0000
       49 CR     3d1-      -0.0000    0.0000    0.0888    0.0000
       50 CR     4d1-       0.0000   -0.0000   -0.0313   -0.0000
       51 CR     5d1-       0.0000   -0.0000   -0.0008   -0.0000
       52 CR     6d1-      -0.0000    0.0000    0.0017    0.0000
       53 CR     7d1-      -0.0000    0.0000    0.0017    0.0000
       54 CR     8d1-       0.0000   -0.0000   -0.0002   -0.0000
       55 CR     9d1-       0.0000   -0.0000   -0.0003   -0.0000
       56 CR    10d1-       0.0000   -0.0000   -0.0000   -0.0000
       57 CR     3d0        0.8165   -0.0693    0.0000   -0.4727
       58 CR     4d0       -0.2724    0.0246   -0.0000    0.1429
       59 CR     5d0       -0.0017    0.0007   -0.0000   -0.0016
       60 CR     6d0        0.0155   -0.0013    0.0000   -0.0061
       61 CR     7d0        0.0133   -0.0014    0.0000   -0.0052
       62 CR     8d0       -0.0040    0.0001   -0.0000    0.0020
       63 CR     9d0       -0.0037    0.0003   -0.0000    0.0008
       64 CR    10d0       -0.0003    0.0000   -0.0000   -0.0002
       65 CR     3d1+       0.0833    0.9421   -0.0000    0.0044
       66 CR     4d1+      -0.0246   -0.2956    0.0000   -0.0014
       67 CR     5d1+       0.0006    0.0010   -0.0000    0.0000
       68 CR     6d1+       0.0012    0.0141   -0.0000    0.0001
       69 CR     7d1+       0.0008    0.0123   -0.0000    0.0001
       70 CR     8d1+      -0.0005   -0.0040    0.0000   -0.0000
       71 CR     9d1+      -0.0002   -0.0026    0.0000   -0.0000
       72 CR    10d1+       0.0000    0.0001   -0.0000    0.0000
       73 CR     3d2+       0.4721   -0.0452    0.0000    0.8167
       74 CR     4d2+      -0.1574    0.0158   -0.0000   -0.2468
       75 CR     5d2+      -0.0010    0.0004   -0.0000    0.0028
       76 CR     6d2+       0.0089   -0.0008    0.0000    0.0105
       77 CR     7d2+       0.0077   -0.0009    0.0000    0.0090
       78 CR     8d2+      -0.0023    0.0001   -0.0000   -0.0034
       79 CR     9d2+      -0.0021    0.0002   -0.0000   -0.0014
       80 CR    10d2+      -0.0002    0.0000   -0.0000    0.0003
       81 CR     4f3-       0.0000    0.0000    0.0660    0.0000
       82 CR     5f3-       0.0000    0.0000    0.0328    0.0000
       83 CR     6f3-       0.0000   -0.0000   -0.0039   -0.0000
       84 CR     7f3-      -0.0000   -0.0000   -0.0066   -0.0000
       85 CR     8f3-      -0.0000   -0.0000   -0.0023   -0.0000
       86 CR     9f3-      -0.0000    0.0000    0.0005    0.0000
       87 CR     4f2-      -0.0000    0.0000    0.0039    0.0000
       88 CR     5f2-      -0.0000    0.0000    0.0004    0.0000
       89 CR     6f2-       0.0000   -0.0000   -0.0019   -0.0000
       90 CR     7f2-       0.0000   -0.0000   -0.0011   -0.0000
       91 CR     8f2-       0.0000    0.0000    0.0001   -0.0000
       92 CR     9f2-      -0.0000    0.0000    0.0007    0.0000
       93 CR     4f1-      -0.0000   -0.0000   -0.0170   -0.0000
       94 CR     5f1-      -0.0000   -0.0000   -0.0085   -0.0000
       95 CR     6f1-      -0.0000    0.0000    0.0010    0.0000
       96 CR     7f1-       0.0000    0.0000    0.0017    0.0000
       97 CR     8f1-       0.0000    0.0000    0.0006   -0.0000
       98 CR     9f1-       0.0000   -0.0000   -0.0001   -0.0000
       99 CR     4f0       -0.0039   -0.0418    0.0000    0.0001
      100 CR     5f0       -0.0024   -0.0208    0.0000    0.0006
      101 CR     6f0       -0.0002    0.0024   -0.0000    0.0006
      102 CR     7f0        0.0002    0.0042   -0.0000    0.0003
      103 CR     8f0        0.0002    0.0014   -0.0000   -0.0000
      104 CR     9f0        0.0001   -0.0003    0.0000   -0.0001
      105 CR     4f1+       0.0404   -0.0026    0.0000   -0.0449
      106 CR     5f1+       0.0183   -0.0001    0.0000   -0.0225
      107 CR     6f1+      -0.0041    0.0015   -0.0000    0.0027
      108 CR     7f1+      -0.0045    0.0008   -0.0000    0.0048
      109 CR     8f1+      -0.0009   -0.0001    0.0000    0.0016
      110 CR     9f1+       0.0010   -0.0005    0.0000   -0.0004
      111 CR     4f2+       0.0051    0.0539   -0.0000    0.0006
      112 CR     5f2+       0.0031    0.0268   -0.0000    0.0007
      113 CR     6f2+       0.0003   -0.0031    0.0000    0.0005
      114 CR     7f2+      -0.0003   -0.0054    0.0000    0.0002
      115 CR     8f2+      -0.0003   -0.0018    0.0000   -0.0000
      116 CR     9f2+      -0.0002    0.0004   -0.0000   -0.0001
      117 CR     4f3+       0.0313   -0.0024    0.0000    0.0579
      118 CR     5f3+       0.0142   -0.0003    0.0000    0.0290
      119 CR     6f3+      -0.0032    0.0012   -0.0000   -0.0034
      120 CR     7f3+      -0.0035    0.0007   -0.0000   -0.0061
      121 CR     8f3+      -0.0007   -0.0001    0.0000   -0.0021
      122 CR     9f3+       0.0008   -0.0004    0.0000    0.0005
      123 CR     5g4-       0.0000    0.0000    0.0019    0.0000
      124 CR     6g4-       0.0000    0.0000    0.0047    0.0000
      125 CR     7g4-       0.0000    0.0000    0.0042    0.0000
      126 CR     8g4-       0.0000    0.0000    0.0023    0.0000
      127 CR     5g3-      -0.0000   -0.0000   -0.0003    0.0000
      128 CR     6g3-      -0.0000   -0.0000   -0.0007    0.0000
      129 CR     7g3-      -0.0000   -0.0000   -0.0009    0.0000
      130 CR     8g3-      -0.0000   -0.0000   -0.0009    0.0000
      131 CR     5g2-      -0.0000   -0.0000   -0.0007   -0.0000
      132 CR     6g2-      -0.0000   -0.0000   -0.0018   -0.0000
      133 CR     7g2-      -0.0000   -0.0000   -0.0016   -0.0000
      134 CR     8g2-      -0.0000   -0.0000   -0.0009   -0.0000
      135 CR     5g1-       0.0000    0.0000    0.0003    0.0000
      136 CR     6g1-       0.0000    0.0000    0.0006   -0.0000
      137 CR     7g1-       0.0000    0.0000    0.0006    0.0000
      138 CR     8g1-       0.0000    0.0000    0.0005   -0.0000
      139 CR     5g0       -0.0007   -0.0001    0.0000    0.0007
      140 CR     6g0       -0.0017   -0.0003    0.0000    0.0017
      141 CR     7g0       -0.0014   -0.0004    0.0000    0.0013
      142 CR     8g0       -0.0006   -0.0004    0.0000    0.0006
      143 CR     5g1+      -0.0002   -0.0015    0.0000    0.0001
      144 CR     6g1+      -0.0005   -0.0038    0.0000    0.0004
      145 CR     7g1+      -0.0005   -0.0034    0.0000    0.0006
      146 CR     8g1+      -0.0004   -0.0019    0.0000    0.0006
      147 CR     5g2+       0.0007    0.0003   -0.0000   -0.0010
      148 CR     6g2+       0.0016    0.0007   -0.0000   -0.0025
      149 CR     7g2+       0.0013    0.0007   -0.0000   -0.0020
      150 CR     8g2+       0.0006    0.0006   -0.0000   -0.0009
      151 CR     5g3+       0.0001    0.0014   -0.0000    0.0002
      152 CR     6g3+       0.0004    0.0034   -0.0000    0.0005
      153 CR     7g3+       0.0005    0.0030   -0.0000    0.0007
      154 CR     8g3+       0.0003    0.0017   -0.0000    0.0007
      155 CR     5g4+       0.0009    0.0003   -0.0000    0.0014
      156 CR     6g4+       0.0020    0.0006   -0.0000    0.0033
      157 CR     7g4+       0.0017    0.0008   -0.0000    0.0027
      158 CR     8g4+       0.0008    0.0007   -0.0000    0.0012
      159 CR     6h5-       0.0000    0.0000    0.0004   -0.0000
      160 CR     7h5-      -0.0000    0.0000    0.0006   -0.0000
      161 CR     6h4-      -0.0000   -0.0000   -0.0000    0.0000
      162 CR     7h4-      -0.0000   -0.0000   -0.0001    0.0000
      163 CR     6h3-       0.0000   -0.0000   -0.0002   -0.0000
      164 CR     7h3-      -0.0000   -0.0000   -0.0003   -0.0000
      165 CR     6h2-       0.0000    0.0000    0.0001    0.0000
      166 CR     7h2-       0.0000    0.0000    0.0002    0.0000
      167 CR     6h1-       0.0000    0.0000    0.0001   -0.0000
      168 CR     7h1-       0.0000    0.0000    0.0001   -0.0000
      169 CR     6h0       -0.0000    0.0002   -0.0000   -0.0000
      170 CR     7h0       -0.0000    0.0003   -0.0000   -0.0001
      171 CR     6h1+      -0.0002   -0.0000    0.0000    0.0002
      172 CR     7h1+      -0.0003   -0.0000    0.0000    0.0003
      173 CR     6h2+      -0.0000   -0.0003    0.0000    0.0000
      174 CR     7h2+      -0.0000   -0.0004    0.0000    0.0001
      175 CR     6h3+       0.0001    0.0001   -0.0000   -0.0002
      176 CR     7h3+       0.0002    0.0002   -0.0000   -0.0003
      177 CR     6h4+      -0.0000    0.0003   -0.0000    0.0001
      178 CR     7h4+      -0.0000    0.0004   -0.0000    0.0002
      179 CR     6h5+       0.0002    0.0001   -0.0000    0.0003
      180 CR     7h5+       0.0003    0.0002   -0.0000    0.0004
--


++    Molecular charges:
      ------------------

      Mulliken charges per centre and basis function type
      ---------------------------------------------------

                CR    
      1s       2.0000
      2s       2.0000
      2px      2.0000
      2pz      2.0000
      2py      2.0000
      3s       1.9812
      3px      1.9525
      3pz      1.9576
      3py      1.9576
      4s       0.0057
      3d2+     0.0078
      3d1+     0.0071
      3d0      0.0026
      3d1-     0.0000
      3d2-     0.0071
      4px      0.0156
      4pz      0.0159
      4py      0.0159
      5s       0.0123
      4d2+     0.0004
      4d1+     0.0004
      4d0      0.0001
      4d1-     0.0000
      4d2-     0.0004
      5px      0.0187
      5pz      0.0184
      5py      0.0184
      6s       0.0020
      4f3+     0.0000
      4f2+     0.0000
      4f1+     0.0000
      4f0      0.0000
      4f1-     0.0000
      4f2-     0.0000
      4f3-     0.0000
      5d2+     0.0001
      5d1+     0.0001
      5d0      0.0000
      5d1-     0.0000
      5d2-     0.0001
      6px      0.0000
      6pz      0.0000
      6py      0.0000
      7s       0.0002
      5f3+     0.0000
      5f2+     0.0000
      5f1+     0.0000
      5f0      0.0000
      5f1-     0.0000
      5f2-     0.0000
      5f3-     0.0000
      6d2+     0.0000
      6d1+     0.0000
      6d0      0.0000
      6d1-     0.0000
      6d2-     0.0000
      7px      0.0004
      7pz      0.0005
      7py      0.0005
      5g4+     0.0000
      5g3+     0.0000
      5g2+     0.0000
      5g1+     0.0000
      5g0      0.0000
      5g1-     0.0000
      5g2-     0.0000
      5g3-     0.0000
      5g4-     0.0000
      6f3+     0.0000
      6f2+     0.0000
      6f1+     0.0000
      6f0      0.0000
      6f1-     0.0000
      6f2-     0.0000
      6f3-     0.0000
      6g4+     0.0000
      6g3+     0.0000
      6g2+     0.0000
      6g1+     0.0000
      6g0      0.0000
      6g1-     0.0000
      6g2-     0.0000
      6g3-     0.0000
      6g4-     0.0000
      6h5+     0.0000
      6h4+     0.0000
      6h3+     0.0000
      6h2+     0.0000
      6h1+     0.0000
      6h0      0.0000
      6h1-     0.0000
      6h2-     0.0000
      6h3-     0.0000
      6h4-     0.0000
      6h5-     0.0000
      7d2+     0.0000
      7d1+     0.0000
      7d0      0.0000
      7d1-     0.0000
      7d2-     0.0000
      7f3+     0.0000
      7f2+     0.0000
      7f1+     0.0000
      7f0      0.0000
      7f1-     0.0000
      7f2-     0.0000
      7f3-     0.0000
      7g4+     0.0000
      7g3+     0.0000
      7g2+     0.0000
      7g1+     0.0000
      7g0      0.0000
      7g1-     0.0000
      7g2-     0.0000
      7g3-     0.0000
      7g4-     0.0000
      7h5+     0.0000
      7h4+     0.0000
      7h3+     0.0000
      7h2+     0.0000
      7h1+     0.0000
      7h0      0.0000
      7h1-     0.0000
      7h2-     0.0000
      7h3-     0.0000
      7h4-     0.0000
      7h5-     0.0000
      8s       0.0001
      8px      0.0000
      8pz      0.0000
      8py      0.0000
      8d2+     0.0000
      8d1+     0.0000
      8d0      0.0000
      8d1-     0.0000
      8d2-     0.0000
      8f3+     0.0000
      8f2+     0.0000
      8f1+     0.0000
      8f0      0.0000
      8f1-     0.0000
      8f2-     0.0000
      8f3-     0.0000
      8g4+     0.0000
      8g3+     0.0000
      8g2+     0.0000
      8g1+     0.0000
      8g0      0.0000
      8g1-     0.0000
      8g2-     0.0000
      8g3-     0.0000
      8g4-     0.0000
      9s       0.0000
      9px      0.0000
      9pz      0.0000
      9py      0.0000
      9d2+     0.0000
      9d1+     0.0000
      9d0      0.0000
      9d1-     0.0000
      9d2-     0.0000
      9f3+     0.0000
      9f2+     0.0000
      9f1+     0.0000
      9f0      0.0000
      9f1-     0.0000
      9f2-     0.0000
      9f3-     0.0000
     10s       0.0000
     10px      0.0000
     10pz      0.0000
     10py      0.0000
     10d2+     0.0000
     10d1+     0.0000
     10d0      0.0000
     10d1-     0.0000
     10d2-     0.0000
     11px      0.0000
     11pz      0.0000
     11py      0.0000
      Total   18.0000

      N-E      6.0000

      Total electronic charge=   18.000000

      Total            charge=    6.000000
--

 Sorry, Molden does not know how to handle
 functions with angular momentum larger than g

++    Static properties:
      ------------------


      LoProp Charges per center


                   CR    
      Nuclear     24.0000
      Electronic -18.0000

      Total        6.0000
--


++    Molecular properties:
      ---------------------

      Charge (e):
                      =    6.0000
      Dipole Moment (Debye):
      Origin of the operator (Ang)=    0.0000    0.0000    0.0000
                   X= -9.6580E-01               Y= -3.8276E-14               Z=  1.3293E-01           Total=  9.7491E-01
      Center of Charge (Ang)
                     X=   -0.03351249               Y=   -0.00000000               Z=    0.00461245
      Quadrupole Moment (Debye*Ang):
      Origin of the operator (Ang)=   -0.0000   -0.0000    0.0046
                  XX= -3.4576E+00              XY= -7.0510E-15              XZ=  3.4527E-05              YY= -3.4517E+00
                  YZ=  5.3457E-15              ZZ= -3.4517E+00
      In traceless form (Debye*Ang)
                  XX= -5.9825E-03              XY= -1.0577E-14              XZ=  5.1790E-05              YY=  2.9959E-03
                  YZ=  8.0185E-15              ZZ=  2.9866E-03
--

 Sorry, Molden does not know how to handle
 functions with angular momentum larger than g
 ###############################################################################
 ###############################################################################
 ###                                                                         ###
 ###                                                                         ###
 ###    WARNING: RunFile label nBas                                          ###
 ###    was used       62 times                                              ###
 ###                                                                         ###
 ###                                                                         ###
 ###############################################################################
 ###############################################################################
Note: The following floating-point exceptions are signalling: IEEE_UNDERFLOW_FLAG IEEE_DENORMAL
--- Stop Module: scf at Wed Mar 26 16:02:31 2025 /rc=_RC_ALL_IS_WELL_ ---
*** files: chromium_so_cf.LprOrb chromium_so_cf.ScfOrb xmldump
    saved to directory /home4/s4752295/Internship/Initial_simulations/Point_charge_model/1_electron/Madelung_charges_9_active_space/Cr
--- Module scf spent 22 seconds ---

*** symbolic link created: INPORB -> chromium_so_cf.ScfOrb
--- Start Module: rasscf at Wed Mar 26 16:02:31 2025 ---

()()()()()()()()()()()()()()()()()()()()()()()()()()()()()()()()()()()()()()()()()()()()()()()()()()

                                              &RASSCF

                                   only a single process is used
                       available to each process: 4.1 GB of memory, 1 thread?
                                            pid: 1282002
()()()()()()()()()()()()()()()()()()()()()()()()()()()()()()()()()()()()()()()()()()()()()()()()()()


      Header of the ONEINT file:
      --------------------------
      
      Integrals generated by seward 4.2.0  , Wed Mar 26 16:01:58 2025


      OrdInt status: non-squared


      Cartesian coordinates in Angstrom:
      -----------------------------------------------------
      No.  Label        X            Y            Z        
      -----------------------------------------------------
       1   CR        -0.00000000  -0.00000000   0.00463220
      -----------------------------------------------------
      Nuclear repulsion energy = -146.38350826

++    Wave function specifications:
      -----------------------------

      Number of closed shell electrons          18
      Number of electrons in active shells       1
      Max number of holes in RAS1 space          0
      Max nr of electrons in RAS3 space          0
      Number of inactive orbitals                9
      Number of active orbitals                  9
      Number of secondary orbitals             162
      Spin quantum number                      0.5
      State symmetry                             1
--

++    Orbital specifications:
      -----------------------

      Symmetry species                           1
                                                 a
      Frozen orbitals                            0
      Inactive orbitals                          9
      Active orbitals                            9
      RAS1 orbitals                              0
      RAS2 orbitals                              9
      RAS3 orbitals                              0
      Secondary orbitals                       162
      Deleted orbitals                           0
      Number of basis functions                180
--

++    CI expansion specifications:
      ----------------------------

      Number of CSFs                             9
      Number of determinants                     9
      Number of root(s) required                 9
      Root chosen for geometry opt.              9
      CI roots used                              1     2     3     4     5     6     7     8     9
      weights                                0.111 0.111 0.111 0.111 0.111 0.111 0.111 0.111 0.111
      highest root included in the CI            9
      max. size of the explicit Hamiltonian      9
--

++    Optimization specifications:
      ----------------------------

      RASSCF algorithm: Conventional
      Maximum number of macro iterations       200
      Maximum number of SX iterations          100
      Threshold for RASSCF energy            0.100E-07
      Threshold for max MO rotation          0.100E+00
      Threshold for max BLB element          0.100E-03
      Level shift parameter                  0.500E+00
      Make Quasi-Newton update
--

      The MO-coefficients are taken from the file:
      INPORB                                                                                                                          
      Title: SCF orbitals                                                                  

      Total molecular charge    5.00

      ************************************************************************************************************************
      *                                                                                                                      *
      *                                            Wave function control section                                             *
      *                                                                                                                      *
      ************************************************************************************************************************


                                         RASSCF iterations: Energy and convergence statistics
                                         ----------------------------------------------------

      Iter CI   SX   CI       RASSCF       Energy    max ROT     max BLB   max BLB  Level Ln srch  Step   QN   Walltime
          iter iter root      energy       change     param      element    value   shift minimum  type update hh:mm:ss
 Nr of preliminary CI iterations:   1
      Total energies have been shifted. Add                -1000.00 au
        1   1    6    0   -73.67748752    0.00E+00   0.11E-01    6 111 1  0.10E+00*  0.00   0.00    SX    NO    0:00:08
        2   1    6    0   -73.69108571   -0.14E-01*  0.10E-01    8 126 1 -0.21E-01*  0.00   0.00    SX    NO    0:00:04
        3   1    6    0   -73.69142318   -0.34E-03*  0.64E-02    3 170 1  0.40E-02*  0.00   0.00    SX    NO    0:00:04
        4   1    6    0   -73.69145043   -0.27E-04*  0.43E-02    8 126 1 -0.12E-02*  0.00   0.00    SX    NO    0:00:04
        5   1    5    0   -73.69145502   -0.46E-05* -0.17E-02    6 111 1  0.41E-03*  0.00   0.64    QN   YES    0:00:03
        6   1    5    0   -73.69145752   -0.25E-05* -0.45E-03    9 128 1  0.99E-04   0.00   1.03    QN   YES    0:00:04
        7   1    5    0   -73.69145763   -0.11E-06* -0.37E-03    8 126 1 -0.32E-04   0.00   1.07    QN   YES    0:00:04
[...]
         1   11       1.38650480E-04  1.74259072E-14  1.45083217E+06  9.46821502E-11  1.45083217E+06
         1   13       1.00987594E-02  2.40525157E-09  2.93451160E+08  2.01095052E-08  2.93451160E+08
         1   15       1.14250174E-02  3.63226899E+07  2.03267495E-08  2.96572656E+08  3.32895346E+08
         2   12       1.38650480E-04  1.74259072E-14  1.45083217E+06  9.46821502E-11  1.45083217E+06
         2   14       1.00987594E-02  2.40525157E-09  2.93451160E+08  2.01095052E-08  2.93451160E+08
         2   16       1.14250174E-02  3.63226899E+07  2.03267495E-08  2.96572656E+08  3.32895346E+08
         3   11       1.25981748E-04  6.29536597E+02  1.01026275E-10  1.31759037E+06  1.31821991E+06
         3   13       1.12370659E-02  3.33194630E+07  2.01522337E-08  2.93201745E+08  3.26521208E+08
         3   15       1.01360365E-02  2.56539928E-09  2.95331447E+08  2.03682150E-08  2.95331447E+08
         4   12       1.25981748E-04  6.29536597E+02  1.01026275E-10  1.31759037E+06  1.31821991E+06
         4   14       1.12370659E-02  3.33194630E+07  2.01522337E-08  2.93201745E+08  3.26521208E+08
         4   16       1.01360365E-02  2.56539928E-09  2.95331447E+08  2.03682150E-08  2.95331447E+08
         5   11       1.21297658E-02  5.26894403E+03  5.47580208E-10  1.23693346E+08  1.23698615E+08
         5   13       5.38356212E-02  1.53727373E+09  1.34929738E-11  3.16287097E+06  1.54043660E+09
         5   15       1.24213682E-04  6.46824290E-09  3.56398388E+06  1.29286047E-11  3.56398388E+06
         5   17       6.02485574E-03  2.96949508E+04  1.13045150E-09  2.50581305E+08  2.50611000E+08
         6   12       1.21297658E-02  5.26894403E+03  5.47580208E-10  1.23693346E+08  1.23698615E+08
         6   14       5.38356212E-02  1.53727373E+09  1.34929738E-11  3.16287097E+06  1.54043660E+09
         6   16       1.24213682E-04  6.46824290E-09  3.56398388E+06  1.29286047E-11  3.56398388E+06
         6   18       6.02485574E-03  2.96949508E+04  1.13045150E-09  2.50581305E+08  2.50611000E+08
         7   11       1.20700742E-02  1.80908889E-13  1.23076610E+08  5.50588787E-10  1.23076610E+08
         7   13       1.10367881E-04  6.46711886E-09  3.15783072E+06  1.40802593E-11  3.15783072E+06
         7   15       5.37661501E-02  1.53951073E+09  1.76805874E-11  3.06790674E+06  1.54257864E+09
         7   17       6.10207074E-03  4.48444922E-13  2.53809296E+08  1.11621894E-09  2.53809296E+08
         8   12       1.20700742E-02  1.80908889E-13  1.23076610E+08  5.50588787E-10  1.23076610E+08
         8   14       1.10367881E-04  6.46711886E-09  3.15783072E+06  1.40802593E-11  3.15783072E+06
         8   16       5.37661501E-02  1.53951073E+09  1.76805874E-11  3.06790674E+06  1.54257864E+09
         8   18       6.10207074E-03  4.48444922E-13  2.53809296E+08  1.11621894E-09  2.53809296E+08
         9   11       4.79566647E-02  4.84201029E+08  1.31906468E-14  2.48872393E+03  4.84203518E+08
         9   13       2.44972500E-03  2.63445591E+04  5.74123601E-14  6.96534713E+07  6.96798159E+07
         9   15       2.41832412E-03  1.21047315E-13  6.89763034E+07  5.30091441E-13  6.89763034E+07
         9   17       1.39904208E-02  5.79083245E+08  3.98254130E-14  3.76364325E+02  5.79083622E+08
        10   12       4.79566647E-02  4.84201029E+08  1.31906468E-14  2.48872393E+03  4.84203518E+08
        10   14       2.44972500E-03  2.63445591E+04  5.74123601E-14  6.96534713E+07  6.96798159E+07
        10   16       2.41832412E-03  1.21047315E-13  6.89763034E+07  5.30091441E-13  6.89763034E+07
        10   18       1.39904208E-02  5.79083245E+08  3.98254130E-14  3.76364325E+02  5.79083622E+08
        11   13       3.28851340E-01  1.43278298E+03  5.29369489E-12  1.52826518E+09  1.52826661E+09
        11   15       3.28901013E-01  4.38644428E-17  1.53893392E+09  5.29905267E-12  1.53893392E+09
        11   17       3.73977004E-01  3.96493920E+09  8.54729168E-17  8.25434303E+03  3.96494745E+09
        12   14       3.28851340E-01  1.43278298E+03  5.29369489E-12  1.52826518E+09  1.52826661E+09
        12   16       3.28901013E-01  4.38644428E-17  1.53893392E+09  5.29905267E-12  1.53893392E+09
        12   18       3.73977004E-01  3.96493920E+09  8.54729168E-17  8.25434303E+03  3.96494745E+09
        13   15       9.79065485E-05  2.80972461E-24  5.28504906E+00  6.91259380E-20  5.28504906E+00
        13   17       9.93350626E-04  9.07312131E+01  5.02414610E-15  1.20258975E+06  1.20268048E+06
        14   16       9.79065485E-05  2.80972461E-24  5.28504906E+00  6.91259380E-20  5.28504906E+00
        14   18       9.93350626E-04  9.07312131E+01  5.02414610E-15  1.20258975E+06  1.20268048E+06
        15   17       1.14243602E-03  6.19973339E-17  1.36477288E+06  4.27484261E-15  1.36477288E+06
        16   18       1.14243602E-03  6.19973339E-17  1.36477288E+06  4.27484261E-15  1.36477288E+06
     -----------------------------------------------------------------------------------------------
--

++ Velocity transition strengths (SO states):
   ------------------------------------------
    for osc. strength at least    1.0000000000000001E-005

      From   To        Osc. strength     Einstein coefficients Ax, Ay, Az (sec-1)    Total A (sec-1)
     -----------------------------------------------------------------------------------------------
         1    3       6.12267904E-05  6.02280083E-21  2.05625254E-04  2.78760812E-22  2.05625254E-04
         1    5       4.08061243E-03  8.50161390E-19  6.98802232E+03  2.71901943E-13  6.98802232E+03
         1    7       4.06041261E-03  1.22207100E-02  2.69787160E-13  7.01140651E+03  7.01141873E+03
         1    9       5.80881981E-05  1.03656951E-19  1.90552992E+02  1.39494717E-14  1.90552992E+02
         1   11       1.13545364E-04  1.46753885E-14  1.18813754E+06  7.70453643E-11  1.18813754E+06
         1   13       8.81933389E-03  2.17455346E-09  2.56274325E+08  1.75648758E-08  2.56274325E+08
         1   15       1.00183470E-02  3.29256743E+07  1.77569980E-08  2.58983963E+08  2.91909638E+08
         2    4       6.12267904E-05  6.02280083E-21  2.05625254E-04  2.78760812E-22  2.05625254E-04
         2    6       4.08061243E-03  8.50161390E-19  6.98802232E+03  2.71901943E-13  6.98802232E+03
         2    8       4.06041261E-03  1.22207100E-02  2.69787160E-13  7.01140651E+03  7.01141873E+03
         2   10       5.80881981E-05  1.03656951E-19  1.90552992E+02  1.39494717E-14  1.90552992E+02
         2   12       1.13545364E-04  1.46753885E-14  1.18813754E+06  7.70453643E-11  1.18813754E+06
         2   14       8.81933389E-03  2.17455346E-09  2.56274325E+08  1.75648758E-08  2.56274325E+08
         2   16       1.00183470E-02  3.29256743E+07  1.77569980E-08  2.58983963E+08  2.91909638E+08
         3    5       4.07052069E-03  5.24576450E-02  2.70531507E-13  6.95117780E+03  6.95123026E+03
         3    7       4.07562921E-03  4.22613781E-18  7.01807853E+03  2.71960285E-13  7.01807853E+03
         3    9       5.60720296E-05  1.34572906E-04  1.22307736E-14  1.83566964E+02  1.83567098E+02
         3   11       1.03152803E-04  5.46232111E+02  8.24024447E-11  1.07880497E+06  1.07935121E+06
         3   13       9.85144356E-03  3.02160865E+07  1.76093719E-08  2.56043375E+08  2.86259461E+08
         3   15       8.84943988E-03  2.32450228E-09  2.57845064E+08  1.77971619E-08  2.57845064E+08
         4    6       4.07052069E-03  5.24576450E-02  2.70531507E-13  6.95117780E+03  6.95123026E+03
         4    8       4.07562921E-03  4.22613781E-18  7.01807853E+03  2.71960285E-13  7.01807853E+03
         4   10       5.60720296E-05  1.34572906E-04  1.22307736E-14  1.83566964E+02  1.83567098E+02
         4   12       1.03152803E-04  5.46232111E+02  8.24024447E-11  1.07880497E+06  1.07935121E+06
         4   14       9.85144356E-03  3.02160865E+07  1.76093719E-08  2.56043375E+08  2.86259461E+08
         4   16       8.84943988E-03  2.32450228E-09  2.57845064E+08  1.77971619E-08  2.57845064E+08
         5    9       3.32776013E-02  3.77188393E-03  3.74381455E-14  8.40503682E+03  8.40504059E+03
         5   11       1.01118082E-02  4.50902915E+03  4.56470188E-10  1.03115456E+08  1.03119965E+08
         5   13       4.84982254E-02  1.38448433E+09  1.39595136E-11  3.23442326E+06  1.38771876E+09
         5   15       1.26469303E-04  5.82982194E-09  3.62871559E+06  1.34583191E-11  3.62871559E+06
         5   17       4.83006786E-03  2.68404664E+04  9.06731769E-10  2.00886243E+08  2.00913084E+08
         6   10       3.32776013E-02  3.77188393E-03  3.74381455E-14  8.40503682E+03  8.40504059E+03
         6   12       1.01118082E-02  4.50902915E+03  4.56470188E-10  1.03115456E+08  1.03119965E+08
         6   14       4.84982254E-02  1.38448433E+09  1.39595136E-11  3.23442326E+06  1.38771876E+09
         6   16       1.26469303E-04  5.82982194E-09  3.62871559E+06  1.34583191E-11  3.62871559E+06
         6   18       4.83006786E-03  2.68404664E+04  9.06731769E-10  2.00886243E+08  2.00913084E+08
         7    9       3.35635020E-02  8.20682501E-19  8.29454403E+03  3.65891502E-14  8.29454403E+03
         7   11       1.00621983E-02  1.51698058E-13  1.02602979E+08  4.59260972E-10  1.02602979E+08
         7   13       1.13004526E-04  5.83157321E-09  3.23328128E+06  1.44421384E-11  3.23328128E+06
         7   15       4.84264388E-02  1.38623135E+09  1.81090420E-11  3.15304877E+06  1.38938440E+09
         7   17       4.89664094E-03  4.15396166E-13  2.03671403E+08  8.94393632E-10  2.03671403E+08
         8   10       3.35635020E-02  8.20682501E-19  8.29454403E+03  3.65891502E-14  8.29454403E+03
         8   12       1.00621983E-02  1.51698058E-13  1.02602979E+08  4.59260972E-10  1.02602979E+08
         8   14       1.13004526E-04  5.83157321E-09  3.23328128E+06  1.44421384E-11  3.23328128E+06
         8   16       4.84264388E-02  1.38623135E+09  1.81090420E-11  3.15304877E+06  1.38938440E+09
         8   18       4.89664094E-03  4.15396166E-13  2.03671403E+08  8.94393632E-10  2.03671403E+08
         9   11       4.13570013E-02  4.17568128E+08  1.66500876E-14  2.09419249E+03  4.17570223E+08
         9   13       2.46326156E-03  2.47808558E+04  8.29958922E-14  7.00403118E+07  7.00650927E+07
         9   15       2.43101474E-03  1.49538863E-13  6.93385107E+07  5.29578964E-13  6.93385107E+07
         9   17       1.35576262E-02  5.61171367E+08  3.62676136E-14  2.17055418E+02  5.61171584E+08
        10   12       4.13570013E-02  4.17568128E+08  1.66500876E-14  2.09419249E+03  4.17570223E+08
        10   14       2.46326156E-03  2.47808558E+04  8.29958922E-14  7.00403118E+07  7.00650927E+07
        10   16       2.43101474E-03  1.49538863E-13  6.93385107E+07  5.29578964E-13  6.93385107E+07
        10   18       1.35576262E-02  5.61171367E+08  3.62676136E-14  2.17055418E+02  5.61171584E+08
        11   13       3.13326040E-01  1.67433793E+03  5.03440586E-12  1.45611947E+09  1.45612115E+09
        11   15       3.12968166E-01  1.10269663E-17  1.46438892E+09  5.03483062E-12  1.46438892E+09
        11   17       2.75983465E-01  2.92601279E+09  7.02200808E-18  5.99778142E+03  2.92601879E+09
        12   14       3.13326040E-01  1.67433793E+03  5.03440586E-12  1.45611947E+09  1.45612115E+09
        12   16       3.12968166E-01  1.10269663E-17  1.46438892E+09  5.03483062E-12  1.46438892E+09
        12   18       2.75983465E-01  2.92601279E+09  7.02200808E-18  5.99778142E+03  2.92601879E+09
        13   15       5.68921264E-05  2.11888076E-20  3.07107880E+00  1.56889279E-18  3.07107880E+00
        13   17       1.77679753E-04  1.71482400E+02  8.17136418E-16  2.14951666E+05  2.15123148E+05
        14   16       5.68921264E-05  2.11888076E-20  3.07107880E+00  1.56889279E-18  3.07107880E+00
        14   18       1.77679753E-04  1.71482400E+02  8.17136418E-16  2.14951666E+05  2.15123148E+05
        15   17       2.19845444E-04  3.72714857E-16  2.62631901E+05  5.79083983E-16  2.62631901E+05
        16   18       2.19845444E-04  3.72714857E-16  2.62631901E+05  5.79083983E-16  2.62631901E+05
     -----------------------------------------------------------------------------------------------
--

++ Length and velocity gauge comparison (SO states):

 --------------------------------------------------
 A comparison between the dipole oscillator strengths in 
 length and velocity gauge will be performed

 All dipole oscillator differences above the tolerance of   0.10000000000000001       will be printed 

 Due to basis set deficiency these oscillator may be problematic 

 The tolerance is defined as ABS(1-O_l/O_v) 
 O_l : dipole oscillator strength in length gauge
 O_p : dipole oscillator strength in velocity gauge
 --------------------------------------------------

  Problematic transitions have been found

      From   To       Difference (%) Osc. st. (len.) Osc. st. (vel.)
     ---------------------------------------------------------------
         1    3      --------------- below threshold  6.12267904E-05
         1    5      --------------- below threshold  4.08061243E-03
         1    7      --------------- below threshold  4.06041261E-03
         1    9      --------------- below threshold  5.80881981E-05
         1   11            22.110208  1.38650480E-04  1.13545364E-04
         1   13            14.507054  1.00987594E-02  8.81933389E-03
         1   15            14.040943  1.14250174E-02  1.00183470E-02
         2    4      --------------- below threshold  6.12267904E-05
         2    6      --------------- below threshold  4.08061243E-03
         2    8      --------------- below threshold  4.06041261E-03
         2   10      --------------- below threshold  5.80881981E-05
         2   12            22.110208  1.38650480E-04  1.13545364E-04
         2   14            14.507054  1.00987594E-02  8.81933389E-03
         2   16            14.040943  1.14250174E-02  1.00183470E-02
         3    5      --------------- below threshold  4.07052069E-03
         3    7      --------------- below threshold  4.07562921E-03
         3    9      --------------- below threshold  5.60720296E-05
         3   11            22.131192  1.25981748E-04  1.03152803E-04
         3   13            14.065171  1.12370659E-02  9.85144356E-03
         3   15            14.538735  1.01360365E-02  8.84943988E-03
         4    6      --------------- below threshold  4.07052069E-03
         4    8      --------------- below threshold  4.07562921E-03
         4   10      --------------- below threshold  5.60720296E-05
         4   12            22.131192  1.25981748E-04  1.03152803E-04
         4   14            14.065171  1.12370659E-02  9.85144356E-03
         4   16            14.538735  1.01360365E-02  8.84943988E-03
         5    9      --------------- below threshold  3.32776013E-02
         5   11            19.956446  1.21297658E-02  1.01118082E-02
         5   13            11.005343  5.38356212E-02  4.84982254E-02
         5   17            24.736462  6.02485574E-03  4.83006786E-03
         6   10      --------------- below threshold  3.32776013E-02
         6   12            19.956446  1.21297658E-02  1.01118082E-02
         6   14            11.005343  5.38356212E-02  4.84982254E-02
         6   18            24.736462  6.02485574E-03  4.83006786E-03
         7    9      --------------- below threshold  3.35635020E-02
         7   11            19.954644  1.20700742E-02  1.00621983E-02
         7   15            11.026438  5.37661501E-02  4.84264388E-02
         7   17            24.617484  6.10207074E-03  4.89664094E-03
         8   10      --------------- below threshold  3.35635020E-02
         8   12            19.954644  1.20700742E-02  1.00621983E-02
         8   16            11.026438  5.37661501E-02  4.84264388E-02
         8   18            24.617484  6.10207074E-03  4.89664094E-03
         9   11            15.957790  4.79566647E-02  4.13570013E-02
        10   12            15.957790  4.79566647E-02  4.13570013E-02
        11   17            35.507033  3.73977004E-01  2.75983465E-01
        12   18            35.507033  3.73977004E-01  2.75983465E-01
        13   15            72.091561  9.79065485E-05  5.68921264E-05
        13   17           459.067992  9.93350626E-04  1.77679753E-04
        14   16            72.091561  9.79065485E-05  5.68921264E-05
        14   18           459.067992  9.93350626E-04  1.77679753E-04
        15   17           419.654172  1.14243602E-03  2.19845444E-04
        16   18           419.654172  1.14243602E-03  2.19845444E-04
     ---------------------------------------------------------------

 Number of problematic transitions =                    52

--

 Electric-dipole - electric-octupole not included
++ I/O STATISTICS
 
  I. General I/O information
  - - - - - - - - - - - - - - - - - - - - - - - - - - - - - - - - - - - - - - - - - - -
  Unit  Name          Flsize      Write/Read            MBytes           Write/Read
                      (MBytes)       Calls              In/Out           Time, sec.
  - - - - - - - - - - - - - - - - - - - - - - - - - - - - - - - - - - - - - - - - - - -
   1  SCRATCH           0.00 .       9/      45 .      0.0/      0.0 .       0/       0
   2  ANNI              0.00 .       0/       0 .      0.0/      0.0 .       0/       0
   3  RUNFILE          14.88 .     322/   10733 .      2.3/     77.8 .       0/       0
   4  ONEINT            5.58 .       0/   23543 .      0.0/   3739.9 .       0/       0
   5  JOBIPH            6.48 .       0/      92 .      0.0/      0.8 .       0/       0
   6  ORDINT          506.53 .       1/    4053 .      0.0/   1013.0 .       0/       0
  - - - - - - - - - - - - - - - - - - - - - - - - - - - - - - - - - - - - - - - - - - -
   *  TOTAL           533.47 .     332/   38466 .      2.3/   4831.6 .       0/       0
  - - - - - - - - - - - - - - - - - - - - - - - - - - - - - - - - - - - - - - - - - - -
 
  II. I/O Access Patterns
  - - - - - - - - - - - - - - - - - - - -
  Unit  Name               % of random
                         Write/Read calls
  - - - - - - - - - - - - - - - - - - - -
   1  SCRATCH             88.9/ 100.0
   2  ANNI                 0.0/   0.0
   3  RUNFILE             28.6/  10.8
   4  ONEINT               0.0/  16.4
   5  JOBIPH               0.0/  76.1
   6  ORDINT             100.0/   0.0
  - - - - - - - - - - - - - - - - - - - -
--
--- Stop Module: rassi at Wed Mar 26 16:03:32 2025 /rc=_RC_ALL_IS_WELL_ ---
*** files: xmldump
    saved to directory /home4/s4752295/Internship/Initial_simulations/Point_charge_model/1_electron/Madelung_charges_9_active_space/Cr
--- Module rassi spent 3 seconds ---

.##################.
.# Happy landing! #.
.##################.

    Timing: Wall=94.68 User=56.62 System=37.00

###############################################################################
Hbrk Cluster
Job 15909507 for user s4752295
Finished at: Wed Mar 26 16:03:36 CET 2025

Job details:
============

Job ID                         : 15909507
Name                           : Cr_no_SO
User                           : s4752295
Partition                      : regularmedium
Nodes                          : node101
Number of Nodes                : 1
Cores                          : 1
Number of Tasks                : 1
State                          : COMPLETED  
Submit                         : 2025-03-26T16:00:53
Start                          : 2025-03-26T16:01:53
End                            : 2025-03-26T16:03:32
Reserved walltime              : 15:00:00
Used walltime                  : 00:01:39
Used CPU time                  : 00:01:35 (Efficiency: 96.08%)
% User (Computation)           : 60.78%
% System (I/O)                 : 39.22%
Total memory reserved          : 25000M
Maximum memory used            : 2.02G

Acknowledgements:
=================

Please see this page for information about acknowledging Hbrk in your publications:

https://wiki.hpc.rug.nl/habrok/introduction/scientific_output

################################################################################
