   This run of MOLCAS is using the pymolcas driver

                             OPE
                             OPE          NMOL  CASOP  ENMOLC A   SO
                 OPE        NMOLC        AS  OP EN  MO LC     AS  OP
                OPENM       OL CA        SO  PE NM  OL CA     SOP EN
                OP EN      MO   LC       AS  OP ENMOL  CASO   PENMOL
                OP  EN     MO   LC       AS  OP EN     MO     LC ASO
               OP   E  NMOL  C  AS       OP  EN MO     LC     AS  OP
               OP  E   NMO   LC AS        OPEN  MO     LCASOP EN   M
               O  PEN   MO  LCA  SO
            OPE   NMO   L   CAS    OP
        OPENMOL  CASOP     ENMOL   CASOPE
     OPENMOLCA   SOPENMOLCASOPEN   MOLCASOPE
    OPENMOLCAS   OP           EN   MOL    CAS
    OPENMOLCAS       OP  ENM        O     LCA
    OPENMOLCAS    OPEN  MOLCASO     P  E  NMO
    OPENMOLCAS     OP               E  N  MOL
    OPENMOLCA   SO           PENM   O  L  CAS    OPEN    MO    LCAS
    OPENMOLCA   SOP           ENM   O  L  CAS   OP  EN  MOLC  AS   O
    OPENMOLCA   SOPE           NM      O  LCA   S      OP  EN MO
    OPENMOLC                AS         O  PEN   M      OL  CA  SOPE
    OPENMO        LCASOPE  NMOL        C  ASO   P      ENMOLC     AS
    OPE     NMO      LCA  SO     P     E   NM   OL  CA SO  PE N   MO
          OPENMOLCA            SOPE   NMO        LCAS  O    P  ENMO
     OPENMOLCASOPENMOLCASOPENMOLCASOPENMOLCA
        OPENMOLCASOPENMOLCASOPENMOLCASOPE
            OPENMOLCASOPENMOLCASOPENM
               OPENMOLCASOPENMOLCA        version: o91e1abe7de707b ?
                   OPENMOLCASO
                       OPE                tag:

 OpenMolcas is free software; you can redistribute it and/or modify it
 under the terms of the GNU Lesser General Public License version 2.1.
 OpenMolcas is distributed in the hope that it will be useful, but it
 is provided "as is" and without any express or implied warranties.
 For more details see the full text of the license in the file
 LICENSE or in <http://www.gnu.org/licenses/>.

                 Copyright (C) The OpenMolcas Authors
           For the author list and the recommended citation,
                   consult the file CONTRIBUTORS.md

           *************************************************
           * pymolcas version py2.10                       *
           *   build 3068ae8b88c9345ec6cfef6fef7f1169      *
           *   (after the EMIL interpreter by V. Veryazov) *
           *************************************************

configuration info
------------------
Host name: login1 (Linux)
C Compiler ID: GNU
C flags: -std=gnu99
Fortran Compiler ID: GNU
Fortran flags: -fno-aggressive-loop-optimizations -cpp -fdefault-integer-8 -fmax-stack-var-size=1048576
Definitions: _MOLCAS_;_I8_;_LINUX_;_MKL_
Parallel: OFF (GA=OFF)


   -----------------------------------------------------------------------------------------------------------------------------------
  |
  |           Project: chromium_so_cf
  |    Submitted from: /home4/s4752295/Internship/Initial_simulations/Point_charge_model/1_electron/Madelung_charges_9_active_space/Cr
  |      Scratch area: /tmp/chromium_so_cf
  |   Save outputs to: /home4/s4752295/Internship/Initial_simulations/Point_charge_model/1_electron/Madelung_charges_9_active_space/Cr
  |            Molcas: /home4/s4752295/Internship/Molcas/recomp_try/OpenMolcas-master/build
  |
  | Scratch area is empty
  |
  |    MOLCAS_DRIVER = /home4/s4752295/Internship/Molcas/bin/pymolcas
  |    MOLCAS_NPROCS = 1
  |    MOLCAS_SOURCE = /home4/s4752295/Internship/Molcas/recomp_try/OpenMolcas-master
  | MOLCAS_STRUCTURE = 0
  |
   -----------------------------------------------------------------------------------------------------------------------------------

++ ---------   Input file   ---------

&SEWARD
AMFi

CLIG
$R

Basis Set
Cr.ANO-rcc.Roos.21s15p10d6f4g2h.10s10p8d6f4g2h.
Spherical d
Cr            -1.0658140267135469e-14   -3.5527134223784897e-15 0.008753588724385739
End of Basis

Xfield

414
-8.00440216,-3.08,1.778238      -0.625931
-8.00440216,-0.0,-3.556478      -0.625931
-8.00440216,3.08,1.778238       -0.625931
-7.99069214,0.0,0.0     1.892092
5.31835938,-3.08,-1.778238      2.515516
5.31835938,0.0,3.556478 2.515516
5.31835938,3.08,-1.778238       2.515516
7.12597656,-6.16,0.0    0.004632
7.12597656,-3.08,-5.334716      0.004632
7.12597656,-3.08,5.334716       0.004632
7.12597656,3.08,-5.334716       0.004632
7.12597656,3.08,5.334716        0.004632
7.12597656,6.16,0.0     0.004632
8.25830078,-3.08,1.778238       -2.519484
8.25830078,-0.0,-3.556478       -2.519484
8.25830078,3.08,1.778238        -2.519484
-5.86621094,-0.0,-0.0   -3.142907
-9.95019532,-6.16,-3.556478     -0.625931
-9.95019532,0.0,7.112954        -0.625931
-9.95019532,6.16,-3.556478      -0.625931
-13.21875,-6.16,0.0     1.892092
-13.21875,-3.08,-5.334716       1.892092
-13.21875,-3.08,5.334716        1.892092
-13.21875,3.08,-5.334716        1.892092
-13.21875,3.08,5.334716 1.892092
-13.21875,6.16,0.0      1.892092
50.34375,-6.16,3.556478 2.515516
50.34375,-0.0,-7.112954 2.515516
50.34375,6.16,3.556478  2.515516
7.27734376,-6.16,-3.556478      -2.519484
7.27734376,0.0,7.112954 -2.519484
7.27734376,6.16,-3.556478       -2.519484
-6.46484376,-6.16,-0.0  -3.142907
-6.46484376,-3.08,-5.334716     -3.142907
-6.46484376,-3.08,5.334716      -3.142907
-6.46484376,3.08,-5.334716      -3.142907
-6.46484376,3.08,5.334716       -3.142907
-6.46484376,6.16,-0.0   -3.142907
-19.046875,-6.16,7.112954       -0.625931
-19.046875,6.16,7.112954        -0.625931
-19.046875,-9.24,1.778238       -0.625931
-19.046875,9.24,1.778238        -0.625931
-19.046875,-3.08,-8.891194      -0.625931
-19.046875,3.08,-8.891194       -0.625931
12.015625,-3.08,-1.778238       4.409069
12.015625,3.08,-1.778238        4.409069
12.015625,0.0,3.556478  4.409069
-350.5,-0.0,-0.0        -5.030367
-350.5,0.0,0.0  5.039632
27.03515624,-6.16,-7.112954     2.515516
27.03515624,6.16,-7.112954      2.515516
27.03515624,-9.24,-1.778238     2.515516
27.03515624,9.24,-1.778238      2.515516
27.03515624,-3.08,8.891194      2.515516
27.03515624,3.08,8.891194       2.515516
38.078125,-9.24,-5.334716       0.004632
38.078125,-9.24,5.334716        0.004632
38.078125,9.24,-5.334716        0.004632
38.078125,9.24,5.334716 0.004632
38.078125,-0.0,-10.669432       0.004632
38.078125,0.0,10.669432 0.004632
96.15625,-6.16,7.112954 -2.519484
96.15625,6.16,7.112954  -2.519484
96.15625,-9.24,1.778238 -2.519484
96.15625,9.24,1.778238  -2.519484
96.15625,-3.08,-8.891194        -2.519484
96.15625,3.08,-8.891194 -2.519484
-291.75,-9.24,-5.334716 1.892092
-291.75,-9.24,5.334716  1.892092
-291.75,9.24,-5.334716  1.892092
-291.75,9.24,5.334716   1.892092
-291.75,-0.0,-10.669432 1.892092
-291.75,0.0,10.669432   1.892092
-235.5,-6.16,3.556478   4.409069
-235.5,-0.0,-7.112954   4.409069
-235.5,6.16,3.556478    4.409069
-178.0,-6.16,-0.0       -5.030367
-178.0,-3.08,-5.334716  -5.030367
-178.0,-3.08,5.334716   -5.030367
-178.0,3.08,-5.334716   -5.030367
-178.0,-6.16,0.0        5.039632
-178.0,6.16,-0.0        -5.030367
-178.0,3.08,5.334716    -5.030367
-178.0,-3.08,-5.334716  5.039632
-178.0,-3.08,5.334716   5.039632
-178.0,3.08,-5.334716   5.039632
-178.0,6.16,0.0 5.039632
-178.0,3.08,5.334716    5.039632
-93.25,-3.08,-1.778238  -5.660931
-93.25,0.0,3.556478     -5.660931
-93.25,3.08,-1.778238   -5.660931
1.765625,-12.319998,0.0 0.004632
1.765625,-6.16,-10.669432       0.004632
1.765625,-6.16,10.669432        0.004632
1.765625,6.16,-10.669432        0.004632
1.765625,12.319998,0.0  0.004632
1.765625,6.16,10.669432 0.004632
135.875,-9.24,5.334716  -3.142907
135.875,-9.24,-5.334716 -3.142907
135.875,9.24,-5.334716  -3.142907
135.875,9.24,5.334716   -3.142907
135.875,-0.0,-10.669432 -3.142907
135.875,0.0,10.669432   -3.142907
172.75,-12.319998,-3.556478     -0.625931
172.75,-9.24,-8.891194  -0.625931
172.75,-3.08,12.44767   -0.625931
172.75,9.24,-8.891194   -0.625931
172.75,12.319998,-3.556478      -0.625931
172.75,3.08,12.44767    -0.625931
2.39453124,-12.319998,0.0       1.892092
2.39453124,-6.16,-10.669432     1.892092
2.39453124,-6.16,10.669432      1.892092
2.39453124,6.16,-10.669432      1.892092
2.39453124,12.319998,0.0        1.892092
2.39453124,6.16,10.669432       1.892092
67.6875,-6.16,-7.112954 4.409069
67.6875,6.16,-7.112954  4.409069
67.6875,-9.24,-1.778238 4.409069
67.6875,9.24,-1.778238  4.409069
67.6875,-3.08,8.891194  4.409069
67.6875,3.08,8.891194   4.409069
324.8125,-6.16,3.556478 -5.660931
324.8125,-0.0,-7.112954 -5.660931
324.8125,6.16,3.556478  -5.660931
0.6875,-12.319998,3.556478      2.515516
0.6875,-3.08,-12.44767  2.515516
0.6875,-9.24,8.891194   2.515516
0.6875,3.08,-12.44767   2.515516
0.6875,12.319998,3.556478       2.515516
0.6875,9.24,8.891194    2.515516
-188.375,-12.319998,-3.556478   -2.519484
-188.375,-9.24,-8.891194        -2.519484
-188.375,-3.08,12.44767 -2.519484
-188.375,9.24,-8.891194 -2.519484
-188.375,3.08,12.44767  -2.519484
-188.375,12.319998,-3.556478    -2.519484
-44.140625,-12.319998,-0.0      -3.142907
-44.140625,-6.16,-10.669432     -3.142907
-44.140625,-6.16,10.669432      -3.142907
-44.140625,6.16,-10.669432      -3.142907
-44.140625,6.16,10.669432       -3.142907
-44.140625,12.319998,-0.0       -3.142907
1213.0,0.0,0.0  6.927092
646.5,-12.319998,7.112954       -0.625931
646.5,12.319998,7.112954        -0.625931
646.5,-0.0,-14.22591    -0.625931
-10.84375,-9.24,5.334716        -5.030367
-10.84375,-9.24,-5.334716       -5.030367
-10.84375,-9.24,5.334716        5.039632
-10.84375,-9.24,-5.334716       5.039632
-10.84375,9.24,-5.334716        -5.030367
-10.84375,9.24,5.334716 -5.030367
-10.84375,9.24,-5.334716        5.039632
-10.84375,9.24,5.334716 5.039632
-10.84375,-0.0,-10.669432       -5.030367
-10.84375,0.0,10.669432 -5.030367
-10.84375,-0.0,-10.669432       5.039632
-10.84375,0.0,10.669432 5.039632
183.625,-6.16,-7.112954 -5.660931
183.625,6.16,-7.112954  -5.660931
183.625,-9.24,-1.778238 -5.660931
183.625,9.24,-1.778238  -5.660931
183.625,-3.08,8.891194  -5.660931
183.625,3.08,8.891194   -5.660931
601.0,-12.319998,-7.112954      2.515516
601.0,12.319998,-7.112954       2.515516
601.0,0.0,14.22591      2.515516
-1034.5,-12.319998,7.112954     -2.519484
-1034.5,12.319998,7.112954      -2.519484
-1034.5,-0.0,-14.22591  -2.519484
107.125,-6.16,0.0       6.927092
107.125,-3.08,-5.334716 6.927092
107.125,-3.08,5.334716  6.927092
107.125,3.08,-5.334716  6.927092
107.125,3.08,5.334716   6.927092
107.125,6.16,0.0        6.927092
-110.5,-3.08,1.778238   7.550516
-110.5,0.0,-3.556478    7.550516
-110.5,3.08,1.778238    7.550516
31.0625,-3.08,-1.778238 -7.554483
31.0625,3.08,-1.778238  -7.554483
31.0625,-0.0,3.556478   -7.554483
-249.75,-15.399998,1.778238     -0.625931
-249.75,-9.24,12.44767  -0.625931
-249.75,-6.16,-14.22591 -0.625931
-249.75,6.16,-14.22591  -0.625931
-249.75,15.399998,1.778238      -0.625931
-249.75,9.24,12.44767   -0.625931
-134.875,-12.319998,3.556478    4.409069
-134.875,-9.24,8.891194 4.409069
-134.875,-3.08,-12.44767        4.409069
-134.875,3.08,-12.44767 4.409069
-134.875,9.24,8.891194  4.409069
-134.875,12.319998,3.556478     4.409069
98.3125,-12.319998,-0.0 -5.030367
98.3125,-6.16,-10.669432        -5.030367
98.3125,-6.16,10.669432 -5.030367
98.3125,-12.319998,0.0  5.039632
98.3125,-6.16,-10.669432        5.039632
98.3125,6.16,-10.669432 -5.030367
98.3125,6.16,10.669432  -5.030367
98.3125,12.319998,-0.0  -5.030367
98.3125,-6.16,10.669432 5.039632
98.3125,6.16,-10.669432 5.039632
98.3125,12.319998,0.0   5.039632
98.3125,6.16,10.669432  5.039632
361.5,-15.399998,-1.778238      2.515516
361.5,-9.24,-12.44767   2.515516
361.5,-6.16,14.22591    2.515516
361.5,9.24,-12.44767    2.515516
361.5,15.399998,-1.778238       2.515516
361.5,6.16,14.22591     2.515516
-46.6875,-15.399998,-5.334716   0.004632
-46.6875,-15.399998,5.334716    0.004632
-46.6875,-12.319998,-10.669432  0.004632
-46.6875,-12.319998,10.669432   0.004632
-46.6875,-3.08,-16.004148       0.004632
-46.6875,3.08,-16.004148        0.004632
-46.6875,-3.08,16.004148        0.004632
-46.6875,12.319998,-10.669432   0.004632
-46.6875,3.08,16.004148 0.004632
-46.6875,15.399998,-5.334716    0.004632
-46.6875,15.399998,5.334716     0.004632
-46.6875,12.319998,10.669432    0.004632
-286.25,-15.399998,1.778238     -2.519484
-286.25,-9.24,12.44767  -2.519484
-286.25,-6.16,-14.22591 -2.519484
-286.25,6.16,-14.22591  -2.519484
-286.25,15.399998,1.778238      -2.519484
-286.25,9.24,12.44767   -2.519484
6064.0,-0.0,-0.0        -8.177907
-232.0,-6.16,-3.556478  7.550516
-232.0,0.0,7.112954     7.550516
-232.0,6.16,-3.556478   7.550516
-1207.0,-6.16,3.556478  -7.554483
-1207.0,-0.0,-7.112954  -7.554483
-1207.0,6.16,3.556478   -7.554483
97.8125,-15.399998,5.334716     1.892092
97.8125,-15.399998,-5.334716    1.892092
97.8125,-12.319998,-10.669432   1.892092
97.8125,-12.319998,10.669432    1.892092
97.8125,-3.08,-16.004148        1.892092
97.8125,3.08,-16.004148 1.892092
97.8125,-3.08,16.004148 1.892092
97.8125,12.319998,-10.669432    1.892092
97.8125,3.08,16.004148  1.892092
97.8125,15.399998,-5.334716     1.892092
97.8125,15.399998,5.334716      1.892092
97.8125,12.319998,10.669432     1.892092
-1010.0,-12.319998,-7.112954    4.409069
-1010.0,12.319998,-7.112954     4.409069
-1010.0,0.0,14.22591    4.409069
51.640625,-12.319998,3.556478   -5.660931
51.640625,-3.08,-12.44767       -5.660931
51.640625,-9.24,8.891194        -5.660931
51.640625,3.08,-12.44767        -5.660931
51.640625,9.24,8.891194 -5.660931
51.640625,12.319998,3.556478    -5.660931
-116.375,-12.319998,-10.669432  -3.142907
-116.375,-15.399998,5.334716    -3.142907
-116.375,-15.399998,-5.334716   -3.142907
-116.375,-12.319998,10.669432   -3.142907
-116.375,-3.08,-16.004148       -3.142907
-116.375,3.08,-16.004148        -3.142907
-116.375,-3.08,16.004148        -3.142907
-116.375,15.399998,-5.334716    -3.142907
-116.375,12.319998,-10.669432   -3.142907
-116.375,3.08,16.004148 -3.142907
-116.375,15.399998,5.334716     -3.142907
-116.375,12.319998,10.669432    -3.142907
130.8125,-9.24,-5.334716        6.927092
130.8125,-9.24,5.334716 6.927092
130.8125,9.24,-5.334716 6.927092
130.8125,9.24,5.334716  6.927092
130.8125,-0.0,-10.669432        6.927092
130.8125,0.0,10.669432  6.927092
-166.5,-6.16,-0.0       -8.177907
-166.5,-3.08,5.334716   -8.177907
-166.5,-3.08,-5.334716  -8.177907
-166.5,3.08,-5.334716   -8.177907
-166.5,6.16,-0.0        -8.177907
-166.5,3.08,5.334716    -8.177907
-181.8125,-6.16,7.112954        7.550516
-181.8125,6.16,7.112954 7.550516
-181.8125,-9.24,1.778238        7.550516
-181.8125,9.24,1.778238 7.550516
-181.8125,-3.08,-8.891194       7.550516
-181.8125,3.08,-8.891194        7.550516
-91.375,-6.16,-7.112954 -7.554483
-91.375,6.16,-7.112954  -7.554483
-91.375,-9.24,-1.778238 -7.554483
-91.375,9.24,-1.778238  -7.554483
-91.375,-3.08,8.891194  -7.554483
-91.375,3.08,8.891194   -7.554483
-1000.5,0.0,17.782386   -0.625931
-1000.5,-15.399998,-8.891194    -0.625931
-1000.5,15.399998,-8.891194     -0.625931
-539.5,-15.399998,-1.778238     4.409069
-539.5,-9.24,-12.44767  4.409069
-539.5,-6.16,14.22591   4.409069
-539.5,9.24,-12.44767   4.409069
-539.5,15.399998,-1.778238      4.409069
-539.5,6.16,14.22591    4.409069
620.75,-12.319998,-7.112954     -5.660931
620.75,12.319998,-7.112954      -5.660931
620.75,0.0,14.22591     -5.660931
1174.0,-0.0,-17.782386  2.515516
1174.0,-15.399998,8.891194      2.515516
1174.0,15.399998,8.891194       2.515516
-187.75,-18.479998,-0.0 0.004632
-187.75,9.24,-16.004148 0.004632
-187.75,-9.24,16.004148 0.004632
-187.75,18.479998,-0.0  0.004632
-187.75,-9.24,-16.004148        0.004632
-187.75,9.24,16.004148  0.004632
-771.5,0.0,17.782386    -2.519484
-771.5,-15.399998,-8.891194     -2.519484
-771.5,15.399998,-8.891194      -2.519484
456.0,-12.319998,0.0    6.927092
456.0,-6.16,-10.669432  6.927092
456.0,-6.16,10.669432   6.927092
456.0,6.16,-10.669432   6.927092
456.0,12.319998,0.0     6.927092
456.0,6.16,10.669432    6.927092
423.75,-18.479998,-3.556478     -0.625931
423.75,-6.16,17.782386  -0.625931
423.75,-12.319998,-14.22591     -0.625931
423.75,12.319998,-14.22591      -0.625931
423.75,6.16,17.782386   -0.625931
423.75,18.479998,-3.556478      -0.625931
223.875,-18.479998,0.0  1.892092
223.875,-9.24,-16.004148        1.892092
223.875,-9.24,16.004148 1.892092
223.875,9.24,-16.004148 1.892092
223.875,18.479998,0.0   1.892092
223.875,9.24,16.004148  1.892092
-8.640625,-15.399998,5.334716   -5.030367
-8.640625,-15.399998,-5.334716  -5.030367
-8.640625,-12.319998,-10.669432 -5.030367
-8.640625,-12.319998,10.669432  -5.030367
-8.640625,-15.399998,5.334716   5.039632
-8.640625,3.08,-16.004148       -5.030367
-8.640625,-3.08,-16.004148      -5.030367
-8.640625,-15.399998,-5.334716  5.039632
-8.640625,-12.319998,-10.669432 5.039632
-8.640625,-3.08,16.004148       -5.030367
-8.640625,3.08,-16.004148       5.039632
-8.640625,-12.319998,10.669432  5.039632
-8.640625,-3.08,-16.004148      5.039632
-8.640625,12.319998,-10.669432  -5.030367
-8.640625,3.08,16.004148        -5.030367
-8.640625,15.399998,-5.334716   -5.030367
-8.640625,15.399998,5.334716    -5.030367
-8.640625,12.319998,10.669432   -5.030367
-8.640625,-3.08,16.004148       5.039632
-8.640625,12.319998,-10.669432  5.039632
-8.640625,15.399998,-5.334716   5.039632
-8.640625,3.08,16.004148        5.039632
-8.640625,15.399998,5.334716    5.039632
-8.640625,12.319998,10.669432   5.039632
-1.375,-15.399998,-1.778238     -5.660931
-1.375,-9.24,-12.44767  -5.660931
-1.375,-6.16,14.22591   -5.660931
-1.375,9.24,-12.44767   -5.660931
-1.375,6.16,14.22591    -5.660931
-1.375,15.399998,-1.778238      -5.660931
232.0,-3.08,1.778238    9.444068
232.0,0.0,-3.556478     9.444068
232.0,3.08,1.778238     9.444068
102.625,-18.479998,3.556478     2.515516
102.625,-6.16,-17.782386        2.515516
102.625,6.16,-17.782386 2.515516
102.625,-12.319998,14.22591     2.515516
102.625,18.479998,3.556478      2.515516
102.625,12.319998,14.22591      2.515516
313.75,-18.479998,-3.556478     -2.519484
313.75,-6.16,17.782386  -2.519484
313.75,-12.319998,-14.22591     -2.519484
313.75,12.319998,-14.22591      -2.519484
313.75,18.479998,-3.556478      -2.519484
313.75,6.16,17.782386   -2.519484
439.25,-18.479998,-0.0  -3.142907
439.25,-9.24,-16.004148 -3.142907
439.25,-9.24,16.004148  -3.142907
439.25,9.24,-16.004148  -3.142907
439.25,18.479998,-0.0   -3.142907
439.25,9.24,16.004148   -3.142907
17.29101562,-9.24,-5.334716     -8.177907
17.29101562,-9.24,5.334716      -8.177907
17.29101562,9.24,5.334716       -8.177907
17.29101562,9.24,-5.334716      -8.177907
17.29101562,-0.0,-10.669432     -8.177907
17.29101562,0.0,10.669432       -8.177907
503.75,-9.24,-8.891194  7.550516
503.75,-12.319998,-3.556478     7.550516
503.75,-3.08,12.44767   7.550516
503.75,9.24,-8.891194   7.550516
503.75,3.08,12.44767    7.550516
503.75,12.319998,-3.556478      7.550516
-696.0,-9.24,8.891194   -7.554483
-696.0,-12.319998,3.556478      -7.554483
-696.0,-3.08,-12.44767  -7.554483
-696.0,3.08,-12.44767   -7.554483
-696.0,12.319998,3.556478       -7.554483
-696.0,9.24,8.891194    -7.554483
142.53125,-15.399998,12.44767   -0.625931
142.53125,-18.479998,7.112954   -0.625931
142.53125,-3.08,-19.560626      -0.625931
142.53125,3.08,-19.560626       -0.625931
142.53125,18.479998,7.112954    -0.625931
142.53125,15.399998,12.44767    -0.625931
-967.5,-0.0,-17.782386  4.409069
-967.5,-15.399998,8.891194      4.409069
-967.5,15.399998,8.891194       4.409069

End of input

&SCF
Occupied
9
Iterations
   50  100
End of Input

&RASSCF
LumOrb
Symmetry
1
Spin
2
Nactel
1 0 0
CIRoot
9 9 1
inactive
9
ras2
9
End of Input

>>> COPY chromium_so_cf.JobIph $SLURM_SUBMIT_DIR/chromium_so_cf.doublet.JobIph

>>> COPY $SLURM_SUBMIT_DIR/chromium_so_cf.doublet.JobIph ./JOB002

&RASSI
NROFJobIph
1 All
SpinOrbit
End of Input

EOF

-- ----------------------------------

--- Start Module: seward at Thu Mar 27 00:10:25 2025 ---

()()()()()()()()()()()()()()()()()()()()()()()()()()()()()()()()()()()()()()()()()()()()()()()()()()

                                              &SEWARD

                                   only a single process is used
                       available to each process: 4.1 GB of memory, 1 thread?
                                            pid: 1937737
()()()()()()()()()()()()()()()()()()()()()()()()()()()()()()()()()()()()()()()()()()()()()()()()()()

 The speed of LIGHT in this CALCULATION =   137.03599917700001     
               SEWARD will generate:
                  Multipole Moment integrals up to order  2
                  Kinetic Energy integrals
                  Nuclear Attraction integrals (point charge)
                  One-Electron Hamiltonian integrals
                  Velocity integrals
                  Relativistic Douglas-Kroll-Hess integrals:
                    - Parametrization         : EXP
                    - DKH order of Hamiltonian: 2
                    - DKH order of Properties : 0
                         - multipole moment operators
                         - electric potential operators
                         - contact operators
                  External field from   414 point(s) added to the one-electron Hamiltonian
                  Orbital angular momentum around (-0.0000 -0.0000  0.0088 )
                  Velocity quadrupole around (-0.0000 -0.0000  0.0088 )
                  Atomic mean-field integrals
                  Two-Electron Repulsion integrals

                   Integrals are discarded if absolute value <: 0.10E-13
                   Integral cutoff threshold is set to       <: 0.10E-15

++    Symmetry information:
      ---------------------

                    Character Table for C1 

                             E  
                    a        1  x, y, xy, Rz, z, xz, Ry, yz, Rx, I
--


++    Basis set information:
      ----------------------


      Basis set label: CR.ANO-RCC.ROOS.21S15P10D6F4G2H.10S10P8D6F4G2H......

      Electronic valence basis set:
      ------------------
      Associated Effective Charge  24.000000 au
      Associated Actual Charge     24.000000 au
      Nuclear Model: Point charge

      Shell  nPrim  nBasis  Cartesian Spherical Contaminant
         s      21      10        X                  
         p      15      10        X                  
         d      10       8                 X         
         f       6       6                 X         
         g       4       4                 X         
         h       2       2                 X         
--


++    Molecular structure info:
      -------------------------

                    ************************************************ 
                    **** Cartesian Coordinates / Bohr, Angstrom **** 
                    ************************************************ 

     Center  Label                x              y              z                     x              y              z
        1      CR              -0.000000      -0.000000       0.008754             -0.000000      -0.000000       0.004632
--


++    Operator info:
      --------------


  Net charge from external field:   -39.268449999999902     
--


            Nuclear Potential Energy              0.00000000 au

                    Nuclear-External Field Potential Energy    -109.78764101 au
                    External Field Potential Energy             802.81845069 au 


            Total Nuclear Potential Energy           -109.78764101 au


      Basis set specifications :
      Symmetry species         a  
      Basis functions          180

 Sorry, Molden does not know how to handle
 functions with angular momentum larger than g
Note: The following floating-point exceptions are signalling: IEEE_UNDERFLOW_FLAG IEEE_DENORMAL
--- Stop Module: seward at Thu Mar 27 00:10:33 2025 /rc=_RC_ALL_IS_WELL_ ---
*** files: chromium_so_cf.GssOrb xmldump
    saved to directory /home4/s4752295/Internship/Initial_simulations/Point_charge_model/1_electron/Madelung_charges_9_active_space/Cr
--- Module seward spent 8 seconds ---

*** symbolic link created: INPORB -> chromium_so_cf.GssOrb
--- Start Module: scf at Thu Mar 27 00:10:34 2025 ---

()()()()()()()()()()()()()()()()()()()()()()()()()()()()()()()()()()()()()()()()()()()()()()()()()()

                                                &SCF

                                   only a single process is used
                       available to each process: 4.1 GB of memory, 1 thread?
                                            pid: 1937743
()()()()()()()()()()()()()()()()()()()()()()()()()()()()()()()()()()()()()()()()()()()()()()()()()()

++    Input section:
      --------------

      Header of the integral files:
      
       Integrals generated by seward 4.2.0  , Thu Mar 27 00:10:26 2025


      Cartesian coordinates in Angstrom:
      -----------------------------------------------------
      No.  Label        X            Y            Z        
      -----------------------------------------------------
       1   CR        -0.00000000  -0.00000000   0.00463220
      -----------------------------------------------------
      Nuclear repulsion energy = -109.78764101
--

++    Orbital specifications:
      -----------------------

      Symmetry species               1
                                     a
      Frozen orbitals                0
      Occupied orbitals              9
      Secondary orbitals           171
      Deleted orbitals               0
      Total number of orbitals     180
      Number of basis functions    180
--

      Molecular charge                           6.000

++    Optimization specifications:
      ----------------------------

      SCF Algorithm: Conventional
      Minimized density differences are used
      Number of density matrices in core                5
      Maximum number of NDDO SCF iterations            50
      Maximum number of HF SCF iterations             100
      Threshold for SCF energy change            0.10E-08
      Threshold for density matrix               0.10E-03
      Threshold for Fock matrix                  0.15E-03
      Threshold for linear dependence            0.10E-08
      Threshold at which DIIS is turned on       0.15E+00
      Threshold at which QNR/C2DIIS is turned on 0.75E-01
      Threshold for Norm(delta) (QNR/C2DIIS)     0.20E-04
      DIIS extrapolation of the SCF procedure
      All orbitals punched on: SCFORB
--

      Detected guessorb starting orbitals                                             


++ Convergence information
                                   SCF        iterations: Energy and convergence statistics

Iter     Tot. SCF        One-elec.       Two-elec.     Energy      Max Dij or  Max Fij      DNorm      TNorm      AccCon     Time
         Energy          Energy          Energy        Change      Delta Norm                                                in Sec.

 The total and one-electron energies are shifted by a value of      1000. a.u.

   1   -67.054213468  -262.643235539   305.376663078   0.00E+00    0.21E+00*   0.39E+00*    0.60E+01   0.25E+03   None         1.
   2   -67.669305200  -275.149434499   317.267770306  -0.62E+00*   0.15E-01*   0.77E-01*    0.11E+01   0.25E+03   EDIIS        1.
   3   -67.678804650  -273.695526452   315.804362810  -0.95E-02*   0.38E-02*   0.12E-01*    0.84E-01   0.25E+03   EDIIS        1.
   4   -67.679047561  -273.935241253   316.043834700  -0.24E-03*   0.23E-03*   0.17E-02*    0.79E-02   0.25E+03   c2DIIS       1.
   5   -67.679055922  -273.905065039   316.013650125  -0.84E-05*   0.57E-04*   0.10E-03     0.71E-03   0.25E+03   QNRc2DIIS    1.
   6   -67.679055950  -273.904378423   316.012963481  -0.28E-07*   0.11E-04    0.19E-04     0.83E-04   0.25E+03   QNRc2DIIS    1.
   7   -67.679055951  -273.904502327   316.013087383  -0.12E-08*   0.15E-05    0.28E-05     0.10E-04   0.25E+03   QNRc2DIIS    1.
   8   -67.679055951  -273.904520696   316.013105752  -0.16E-10    0.72E-06    0.10E-05     0.75E-03   0.25E+03   QNRc2DIIS    1.

       Convergence after  8 Macro Iterations
--

 *****************************************************************************************************************************
 *                                                                                                                           *
 *                                             SCF/KS-DFT Program, Final results                                             *
 *                                                                                                                           *
 *                                                                                                                           *
 *                                                                                                                           *
 *                                                       Final Results                                                       *
 *                                                                                                                           *
 *****************************************************************************************************************************

::    Total SCF energy                              -1067.6790559514
      One-electron energy                           -1273.9045206960
      Two-electron energy                             316.0131057521
      Nuclear repulsion energy                       -109.7876410074
      Kinetic energy (interpolated)                  1078.4512205779
      Virial theorem                                    0.9900114494
      Total spin, S(S+1)                                0.0000000000
      Total spin, S                                     0.0000000000
      Max non-diagonal density matrix element           0.0000011071
      Max non-diagonal Fock matrix element              0.0000004617


      All orbitals with orbital energies smaller than  E(LUMO)+0.5 are printed

++    Molecular orbitals:
      -------------------

      Title: SCF orbitals

      Molecular orbitals for symmetry species 1: a  

          Orbital            1         2         3         4         5         6         7         8         9        10    
          Energy         -221.7282  -26.4094  -22.0331  -22.0331  -22.0328   -2.7158   -1.3323   -1.3323   -1.3222    1.3160
          Occ. No.          2.0000    2.0000    2.0000    2.0000    2.0000    2.0000    2.0000    2.0000    2.0000    0.0000

        1 CR     1s         1.0000   -0.0001    0.0000   -0.0000   -0.0000    0.0001   -0.0000    0.0000    0.0000   -0.0000
        2 CR     2s         0.0001    1.0000    0.0000   -0.0000   -0.0017    0.0021    0.0000   -0.0000   -0.0005   -0.0000
        3 CR     3s        -0.0001   -0.0021   -0.0000    0.0000    0.0005    0.9938    0.0000   -0.0000   -0.0565   -0.0000
        4 CR     4s         0.0000    0.0001    0.0000   -0.0000   -0.0001   -0.0500   -0.0000    0.0000    0.0120   -0.0000
        5 CR     5s        -0.0000   -0.0004   -0.0000    0.0000    0.0001    0.0732    0.0000   -0.0000   -0.0183    0.0000
        6 CR     6s         0.0000    0.0003    0.0000   -0.0000   -0.0001   -0.0298   -0.0000    0.0000    0.0072    0.0000
        7 CR     7s        -0.0000   -0.0001   -0.0000    0.0000    0.0000   -0.0090   -0.0000    0.0000    0.0026   -0.0000
        8 CR     8s         0.0000   -0.0000    0.0000   -0.0000   -0.0000    0.0065    0.0000   -0.0000   -0.0018   -0.0000
        9 CR     9s        -0.0001    0.0002    0.0000   -0.0000   -0.0000    0.0021    0.0000   -0.0000   -0.0007   -0.0000
       10 CR    10s         0.0001   -0.0003   -0.0000    0.0000    0.0000    0.0004    0.0000   -0.0000   -0.0001   -0.0000
       11 CR     2px        0.0000    0.0017   -0.0014    0.0000    1.0000   -0.0003   -0.0000    0.0000    0.0032   -0.0000
       12 CR     3px       -0.0000    0.0003    0.0000   -0.0000   -0.0031    0.0591   -0.0011    0.0000    0.9882    0.0000
       13 CR     4px        0.0000   -0.0001   -0.0000    0.0000    0.0005   -0.0010    0.0001   -0.0000   -0.0907   -0.0000
       14 CR     5px       -0.0000    0.0001    0.0000   -0.0000   -0.0008   -0.0015   -0.0001    0.0000    0.0979    0.0000
       15 CR     6px        0.0000   -0.0000   -0.0000    0.0000    0.0002    0.0016    0.0000   -0.0000   -0.0021    0.0000
       16 CR     7px       -0.0000    0.0000    0.0000   -0.0000   -0.0000   -0.0011    0.0000   -0.0000   -0.0154   -0.0000
       17 CR     8px        0.0000   -0.0000    0.0000   -0.0000   -0.0002   -0.0004   -0.0000    0.0000    0.0025   -0.0000
       18 CR     9px       -0.0000    0.0000   -0.0000    0.0000    0.0003    0.0004   -0.0000    0.0000    0.0038    0.0000
       19 CR    10px        0.0000   -0.0000    0.0000   -0.0000   -0.0003    0.0002   -0.0000    0.0000    0.0000    0.0000
       20 CR    11px       -0.0000    0.0000   -0.0000    0.0000    0.0002    0.0000    0.0000   -0.0000   -0.0004    0.0000
       21 CR     2py       -0.0000   -0.0000    0.0000    1.0000   -0.0000   -0.0000    0.0000    0.0032   -0.0000    0.0000
       22 CR     3py       -0.0000    0.0000   -0.0000   -0.0031    0.0000   -0.0000    0.0000    0.9904   -0.0000    0.0008
       23 CR     4py       -0.0000   -0.0000    0.0000    0.0005   -0.0000    0.0000   -0.0000   -0.0906    0.0000   -0.0012
       24 CR     5py        0.0000    0.0000   -0.0000   -0.0008    0.0000   -0.0000    0.0000    0.0972   -0.0000    0.0009
       25 CR     6py       -0.0000   -0.0000    0.0000    0.0002   -0.0000    0.0000   -0.0000   -0.0018    0.0000    0.0002
       26 CR     7py        0.0000    0.0000   -0.0000   -0.0000   -0.0000   -0.0000   -0.0000   -0.0156    0.0000   -0.0003
       27 CR     8py       -0.0000   -0.0000   -0.0000   -0.0002    0.0000    0.0000    0.0000    0.0024   -0.0000   -0.0000
       28 CR     9py        0.0000    0.0000    0.0000    0.0003   -0.0000   -0.0000    0.0000    0.0038   -0.0000    0.0001
       29 CR    10py       -0.0000   -0.0000   -0.0000   -0.0003    0.0000    0.0000    0.0000    0.0001   -0.0000    0.0000
       30 CR    11py        0.0000    0.0000    0.0000    0.0002   -0.0000   -0.0000   -0.0000   -0.0004    0.0000    0.0000
       31 CR     2pz        0.0000    0.0000    1.0000   -0.0000    0.0014   -0.0000    0.0032   -0.0000    0.0000    0.0000
       32 CR     3pz       -0.0000    0.0000   -0.0031    0.0000   -0.0000    0.0000    0.9904   -0.0000    0.0011    0.0000
       33 CR     4pz        0.0000   -0.0000    0.0005   -0.0000    0.0000   -0.0000   -0.0906    0.0000   -0.0001   -0.0000
       34 CR     5pz       -0.0000    0.0000   -0.0008    0.0000   -0.0000   -0.0000    0.0972   -0.0000    0.0001    0.0000
       35 CR     6pz        0.0000   -0.0000    0.0002   -0.0000    0.0000    0.0000   -0.0018    0.0000   -0.0000    0.0000
       36 CR     7pz       -0.0000    0.0000   -0.0000    0.0000   -0.0000   -0.0000   -0.0156    0.0000   -0.0000   -0.0000
       37 CR     8pz        0.0000   -0.0000   -0.0002    0.0000   -0.0000   -0.0000    0.0024   -0.0000    0.0000   -0.0000
       38 CR     9pz       -0.0000    0.0000    0.0003   -0.0000    0.0000    0.0000    0.0038   -0.0000    0.0000    0.0000
       39 CR    10pz        0.0000   -0.0000   -0.0003    0.0000   -0.0000    0.0000    0.0001   -0.0000    0.0000    0.0000
       40 CR    11pz       -0.0000    0.0000    0.0002   -0.0000    0.0000    0.0000   -0.0004    0.0000   -0.0000    0.0000
       41 CR     3d2-      -0.0000    0.0000    0.0000    0.0002   -0.0000   -0.0000    0.0000    0.0339   -0.0000   -0.0279
       42 CR     4d2-      -0.0000   -0.0000   -0.0000   -0.0001    0.0000    0.0000   -0.0000   -0.0077    0.0000    0.0092
       43 CR     5d2-       0.0000    0.0000    0.0000    0.0001   -0.0000   -0.0000   -0.0000   -0.0044    0.0000   -0.0000
       44 CR     6d2-      -0.0000   -0.0000   -0.0000   -0.0000    0.0000    0.0000    0.0000    0.0023   -0.0000   -0.0005
       45 CR     7d2-       0.0000    0.0000    0.0000    0.0000   -0.0000   -0.0000    0.0000    0.0013   -0.0000   -0.0004
       46 CR     8d2-      -0.0000   -0.0000   -0.0000   -0.0000    0.0000    0.0000   -0.0000   -0.0004    0.0000    0.0002
       47 CR     9d2-       0.0000    0.0000    0.0000    0.0000   -0.0000   -0.0000   -0.0000   -0.0007    0.0000    0.0001
       48 CR    10d2-      -0.0000    0.0000   -0.0000   -0.0000    0.0000   -0.0000   -0.0000   -0.0001   -0.0000    0.0000
       49 CR     3d1-      -0.0000    0.0000    0.0000    0.0000    0.0000   -0.0000    0.0000    0.0000   -0.0000    0.9450
       50 CR     4d1-       0.0000   -0.0000   -0.0000   -0.0000   -0.0000    0.0000   -0.0000   -0.0000    0.0000   -0.3232
       51 CR     5d1-      -0.0000    0.0000    0.0000    0.0000    0.0000   -0.0000   -0.0000   -0.0000   -0.0000   -0.0013
       52 CR     6d1-      -0.0000   -0.0000   -0.0000   -0.0000   -0.0000    0.0000    0.0000    0.0000    0.0000    0.0194
       53 CR     7d1-       0.0000    0.0000    0.0000    0.0000    0.0000   -0.0000    0.0000    0.0000   -0.0000    0.0161
       54 CR     8d1-      -0.0000   -0.0000    0.0000    0.0000   -0.0000   -0.0000    0.0000    0.0000    0.0000   -0.0052
       55 CR     9d1-       0.0000    0.0000    0.0000    0.0000    0.0000   -0.0000    0.0000    0.0000   -0.0000   -0.0047
       56 CR    10d1-       0.0000   -0.0000   -0.0000   -0.0000   -0.0000    0.0000    0.0000    0.0000    0.0000   -0.0004
       57 CR     3d0        0.0000    0.0000    0.0000   -0.0000   -0.0001    0.0000    0.0000   -0.0000   -0.0201   -0.0000
       58 CR     4d0       -0.0000   -0.0000   -0.0000    0.0000    0.0001   -0.0001   -0.0000    0.0000    0.0045    0.0000
       59 CR     5d0        0.0000    0.0000    0.0000   -0.0000   -0.0000    0.0000   -0.0000    0.0000    0.0026    0.0000
       60 CR     6d0       -0.0000   -0.0000   -0.0000    0.0000    0.0000    0.0000    0.0000   -0.0000   -0.0013   -0.0000
       61 CR     7d0        0.0000   -0.0000    0.0000   -0.0000   -0.0000   -0.0000    0.0000   -0.0000   -0.0008   -0.0000
       62 CR     8d0       -0.0000    0.0000   -0.0000    0.0000    0.0000   -0.0000   -0.0000    0.0000    0.0002    0.0000
       63 CR     9d0        0.0000   -0.0000    0.0000   -0.0000   -0.0000    0.0000   -0.0000    0.0000    0.0004    0.0000
       64 CR    10d0       -0.0000    0.0000   -0.0000    0.0000    0.0000    0.0000   -0.0000    0.0000    0.0001    0.0000
       65 CR     3d1+      -0.0000   -0.0000    0.0002   -0.0000    0.0000   -0.0000    0.0339   -0.0000    0.0001   -0.0000
       66 CR     4d1+       0.0000    0.0000   -0.0001    0.0000   -0.0000    0.0000   -0.0077    0.0000   -0.0000    0.0000
       67 CR     5d1+      -0.0000   -0.0000    0.0001   -0.0000    0.0000    0.0000   -0.0044    0.0000   -0.0000   -0.0000
       68 CR     6d1+       0.0000    0.0000   -0.0000    0.0000   -0.0000   -0.0000    0.0023   -0.0000    0.0000   -0.0000
       69 CR     7d1+      -0.0000   -0.0000    0.0000   -0.0000    0.0000   -0.0000    0.0013   -0.0000    0.0000   -0.0000
       70 CR     8d1+       0.0000   -0.0000   -0.0000    0.0000   -0.0000    0.0000   -0.0004    0.0000   -0.0000    0.0000
       71 CR     9d1+      -0.0000    0.0000    0.0000   -0.0000    0.0000    0.0000   -0.0007    0.0000   -0.0000    0.0000
       72 CR    10d1+       0.0000   -0.0000   -0.0000    0.0000   -0.0000    0.0000   -0.0001    0.0000   -0.0000    0.0000
       73 CR     3d2+      -0.0000   -0.0000   -0.0000    0.0000    0.0002   -0.0000   -0.0000    0.0000    0.0348   -0.0000
       74 CR     4d2+       0.0000    0.0000    0.0000   -0.0000   -0.0001    0.0002    0.0000   -0.0000   -0.0078    0.0000
       75 CR     5d2+      -0.0000   -0.0000   -0.0000    0.0000    0.0001   -0.0001    0.0000   -0.0000   -0.0045    0.0000
       76 CR     6d2+       0.0000    0.0000    0.0000   -0.0000   -0.0000   -0.0001   -0.0000    0.0000    0.0023   -0.0000
       77 CR     7d2+      -0.0000    0.0000   -0.0000    0.0000    0.0000    0.0000   -0.0000    0.0000    0.0013   -0.0000
       78 CR     8d2+       0.0000   -0.0000    0.0000   -0.0000   -0.0000    0.0000   -0.0000    0.0000   -0.0004    0.0000
       79 CR     9d2+      -0.0000    0.0000   -0.0000    0.0000    0.0000   -0.0000    0.0000   -0.0000   -0.0007    0.0000
       80 CR    10d2+       0.0000   -0.0000    0.0000   -0.0000   -0.0000   -0.0000   -0.0000    0.0000   -0.0001    0.0000
       81 CR     4f3-      -0.0000   -0.0000   -0.0000   -0.0000    0.0000    0.0000   -0.0000   -0.0001    0.0000   -0.0011
       82 CR     5f3-       0.0000    0.0000    0.0000    0.0000   -0.0000   -0.0000    0.0000    0.0002    0.0000   -0.0006
       83 CR     6f3-      -0.0000   -0.0000   -0.0000   -0.0000    0.0000    0.0000    0.0000    0.0000   -0.0000    0.0001
       84 CR     7f3-       0.0000    0.0000    0.0000    0.0000   -0.0000   -0.0000   -0.0000   -0.0001    0.0000    0.0001
       85 CR     8f3-      -0.0000   -0.0000   -0.0000   -0.0000    0.0000    0.0000   -0.0000   -0.0000    0.0000    0.0000
       86 CR     9f3-       0.0000    0.0000    0.0000    0.0000   -0.0000   -0.0000    0.0000    0.0000    0.0000   -0.0000
       87 CR     4f2-      -0.0000   -0.0000   -0.0000   -0.0000    0.0000   -0.0000   -0.0000   -0.0000   -0.0000    0.0288
       88 CR     5f2-       0.0000    0.0000    0.0000    0.0000    0.0000    0.0000   -0.0000   -0.0000    0.0000    0.0125
       89 CR     6f2-      -0.0000   -0.0000   -0.0000   -0.0000   -0.0000   -0.0000    0.0000    0.0000   -0.0000   -0.0035
       90 CR     7f2-       0.0000   -0.0000    0.0000    0.0000    0.0000   -0.0000    0.0000    0.0000    0.0000   -0.0033
       91 CR     8f2-      -0.0000    0.0000    0.0000    0.0000   -0.0000    0.0000    0.0000    0.0000   -0.0000   -0.0005
       92 CR     9f2-       0.0000   -0.0000    0.0000    0.0000    0.0000   -0.0000    0.0000    0.0000    0.0000    0.0010
       93 CR     4f1-      -0.0000   -0.0000    0.0000    0.0000   -0.0000    0.0000    0.0000    0.0000   -0.0000    0.0003
       94 CR     5f1-       0.0000    0.0000   -0.0000   -0.0000    0.0000   -0.0000   -0.0000   -0.0000    0.0000    0.0002
       95 CR     6f1-      -0.0000   -0.0000    0.0000    0.0000   -0.0000    0.0000   -0.0000   -0.0000   -0.0000   -0.0000
       96 CR     7f1-       0.0000    0.0000   -0.0000   -0.0000    0.0000   -0.0000    0.0000    0.0000    0.0000   -0.0000
       97 CR     8f1-      -0.0000   -0.0000    0.0000    0.0000   -0.0000    0.0000    0.0000    0.0000   -0.0000   -0.0000
       98 CR     9f1-      -0.0000    0.0000   -0.0000   -0.0000    0.0000   -0.0000   -0.0000   -0.0000    0.0000    0.0000
       99 CR     4f0       -0.0000    0.0000    0.0000   -0.0000    0.0000    0.0000    0.0001   -0.0000    0.0000    0.0000
      100 CR     5f0        0.0000   -0.0000   -0.0000    0.0000   -0.0000    0.0000   -0.0001    0.0000    0.0000    0.0000
      101 CR     6f0       -0.0000   -0.0000    0.0000   -0.0000    0.0000   -0.0000   -0.0000    0.0000   -0.0000   -0.0000
      102 CR     7f0        0.0000   -0.0000   -0.0000    0.0000   -0.0000   -0.0000    0.0000   -0.0000   -0.0000   -0.0000
      103 CR     8f0        0.0000   -0.0000    0.0000   -0.0000   -0.0000   -0.0000    0.0000   -0.0000   -0.0000   -0.0000
      104 CR     9f0        0.0000   -0.0000   -0.0000    0.0000   -0.0000   -0.0000   -0.0000    0.0000   -0.0000    0.0000
      105 CR     4f1+       0.0000   -0.0000    0.0000   -0.0000    0.0000   -0.0001    0.0000   -0.0000    0.0001   -0.0000
      106 CR     5f1+      -0.0000    0.0000   -0.0000    0.0000   -0.0000   -0.0000    0.0000   -0.0000   -0.0001   -0.0000
      107 CR     6f1+       0.0000   -0.0000   -0.0000    0.0000    0.0000    0.0000   -0.0000    0.0000   -0.0000    0.0000
      108 CR     7f1+      -0.0000   -0.0000    0.0000   -0.0000   -0.0000    0.0000   -0.0000    0.0000    0.0001    0.0000
      109 CR     8f1+       0.0000    0.0000   -0.0000    0.0000    0.0000   -0.0000   -0.0000    0.0000    0.0000    0.0000
      110 CR     9f1+      -0.0000   -0.0000   -0.0000    0.0000   -0.0000   -0.0000   -0.0000    0.0000   -0.0000   -0.0000
      111 CR     4f2+      -0.0000    0.0000   -0.0000    0.0000    0.0000    0.0000   -0.0001    0.0000    0.0000   -0.0000
      112 CR     5f2+       0.0000   -0.0000    0.0000   -0.0000    0.0000    0.0000    0.0001   -0.0000    0.0000   -0.0000
      113 CR     6f2+      -0.0000   -0.0000   -0.0000    0.0000   -0.0000   -0.0000    0.0000   -0.0000   -0.0000    0.0000
      114 CR     7f2+       0.0000   -0.0000    0.0000   -0.0000    0.0000   -0.0000   -0.0001    0.0000   -0.0000    0.0000
      115 CR     8f2+      -0.0000   -0.0000   -0.0000    0.0000   -0.0000   -0.0000   -0.0000    0.0000   -0.0000    0.0000
      116 CR     9f2+       0.0000   -0.0000    0.0000   -0.0000   -0.0000   -0.0000    0.0000   -0.0000   -0.0000   -0.0000
      117 CR     4f3+      -0.0000    0.0000    0.0000   -0.0000   -0.0000    0.0001    0.0000   -0.0000   -0.0001   -0.0000
      118 CR     5f3+       0.0000   -0.0000   -0.0000    0.0000    0.0000    0.0000    0.0000   -0.0000    0.0001   -0.0000
      119 CR     6f3+      -0.0000    0.0000    0.0000   -0.0000   -0.0000   -0.0000   -0.0000    0.0000    0.0000    0.0000
      120 CR     7f3+       0.0000    0.0000   -0.0000    0.0000    0.0000   -0.0000   -0.0000    0.0000   -0.0001    0.0000
      121 CR     8f3+      -0.0000   -0.0000   -0.0000    0.0000   -0.0000    0.0000   -0.0000    0.0000   -0.0000    0.0000
      122 CR     9f3+       0.0000    0.0000   -0.0000    0.0000    0.0000    0.0000   -0.0000    0.0000    0.0000   -0.0000
      123 CR     5g4-      -0.0000   -0.0000    0.0000    0.0000   -0.0000    0.0000    0.0000    0.0001   -0.0000    0.0000
      124 CR     6g4-       0.0000    0.0000   -0.0000   -0.0000    0.0000    0.0000    0.0000    0.0001   -0.0000   -0.0000
      125 CR     7g4-      -0.0000   -0.0000    0.0000    0.0000   -0.0000   -0.0000    0.0000    0.0000    0.0000   -0.0000
      126 CR     8g4-       0.0000    0.0000    0.0000    0.0000    0.0000    0.0000   -0.0000   -0.0000   -0.0000   -0.0000
      127 CR     5g3-       0.0000    0.0000   -0.0000   -0.0000   -0.0000    0.0000   -0.0000   -0.0000   -0.0000    0.0001
      128 CR     6g3-      -0.0000   -0.0000    0.0000    0.0000    0.0000   -0.0000   -0.0000   -0.0000    0.0000    0.0006
      129 CR     7g3-       0.0000    0.0000   -0.0000   -0.0000   -0.0000    0.0000   -0.0000   -0.0000   -0.0000    0.0006
      130 CR     8g3-      -0.0000   -0.0000   -0.0000   -0.0000    0.0000   -0.0000   -0.0000   -0.0000   -0.0000    0.0003
      131 CR     5g2-      -0.0000   -0.0000   -0.0000   -0.0000    0.0000   -0.0000   -0.0000   -0.0000   -0.0000   -0.0000
      132 CR     6g2-       0.0000    0.0000    0.0000    0.0000   -0.0000   -0.0000   -0.0000   -0.0000    0.0000    0.0000
      133 CR     7g2-      -0.0000   -0.0000   -0.0000   -0.0000   -0.0000    0.0000   -0.0000   -0.0000   -0.0000    0.0000
      134 CR     8g2-       0.0000    0.0000   -0.0000   -0.0000    0.0000   -0.0000    0.0000    0.0000   -0.0000    0.0000
      135 CR     5g1-      -0.0000   -0.0000    0.0000    0.0000   -0.0000    0.0000    0.0000    0.0000    0.0000   -0.0000
      136 CR     6g1-       0.0000    0.0000    0.0000    0.0000   -0.0000   -0.0000    0.0000    0.0000   -0.0000   -0.0002
      137 CR     7g1-      -0.0000   -0.0000   -0.0000   -0.0000    0.0000    0.0000    0.0000    0.0000    0.0000   -0.0002
      138 CR     8g1-       0.0000    0.0000    0.0000    0.0000    0.0000   -0.0000    0.0000    0.0000   -0.0000   -0.0001
      139 CR     5g0        0.0000   -0.0000   -0.0000    0.0000    0.0000   -0.0000   -0.0000    0.0000    0.0000    0.0000
      140 CR     6g0        0.0000    0.0000    0.0000   -0.0000   -0.0000   -0.0000   -0.0000    0.0000    0.0000    0.0000
      141 CR     7g0       -0.0000   -0.0000   -0.0000    0.0000    0.0000    0.0000   -0.0000    0.0000    0.0000    0.0000
      142 CR     8g0       -0.0000    0.0000   -0.0000    0.0000    0.0000    0.0000   -0.0000    0.0000   -0.0000    0.0000
      143 CR     5g1+      -0.0000    0.0000   -0.0000    0.0000    0.0000    0.0000   -0.0001    0.0000    0.0000   -0.0000
      144 CR     6g1+      -0.0000   -0.0000    0.0000   -0.0000    0.0000    0.0000   -0.0000    0.0000    0.0000    0.0000
      145 CR     7g1+       0.0000    0.0000   -0.0000    0.0000    0.0000    0.0000   -0.0000    0.0000    0.0000    0.0000
      146 CR     8g1+       0.0000   -0.0000   -0.0000    0.0000    0.0000   -0.0000    0.0000   -0.0000    0.0000    0.0000
      147 CR     5g2+      -0.0000    0.0000    0.0000   -0.0000   -0.0000    0.0000    0.0000   -0.0000   -0.0001   -0.0000
      148 CR     6g2+      -0.0000   -0.0000   -0.0000    0.0000    0.0000    0.0000    0.0000   -0.0000   -0.0000   -0.0000
      149 CR     7g2+       0.0000    0.0000    0.0000   -0.0000   -0.0000   -0.0000    0.0000   -0.0000   -0.0000   -0.0000
      150 CR     8g2+       0.0000   -0.0000    0.0000   -0.0000   -0.0000   -0.0000    0.0000   -0.0000    0.0000   -0.0000
      151 CR     5g3+      -0.0000    0.0000    0.0000   -0.0000    0.0000    0.0000    0.0001   -0.0000    0.0000    0.0000
      152 CR     6g3+      -0.0000   -0.0000   -0.0000    0.0000   -0.0000    0.0000    0.0000   -0.0000    0.0000   -0.0000
      153 CR     7g3+       0.0000    0.0000    0.0000   -0.0000    0.0000    0.0000    0.0000   -0.0000    0.0000   -0.0000
      154 CR     8g3+       0.0000   -0.0000    0.0000   -0.0000    0.0000   -0.0000   -0.0000    0.0000    0.0000   -0.0000
      155 CR     5g4+       0.0000   -0.0000    0.0000   -0.0000    0.0000   -0.0000    0.0000   -0.0000    0.0001   -0.0000
      156 CR     6g4+       0.0000    0.0000   -0.0000    0.0000   -0.0000   -0.0000    0.0000   -0.0000    0.0001   -0.0000
      157 CR     7g4+      -0.0000   -0.0000    0.0000   -0.0000    0.0000    0.0000    0.0000   -0.0000    0.0000   -0.0000
      158 CR     8g4+      -0.0000    0.0000    0.0000   -0.0000    0.0000    0.0000    0.0000   -0.0000   -0.0000   -0.0000
      159 CR     6h5-      -0.0000   -0.0000   -0.0000   -0.0000   -0.0000    0.0000   -0.0000   -0.0000   -0.0000    0.0000
      160 CR     7h5-       0.0000    0.0000    0.0000    0.0000    0.0000   -0.0000   -0.0000   -0.0000   -0.0000    0.0000
      161 CR     6h4-      -0.0000   -0.0000    0.0000    0.0000   -0.0000    0.0000    0.0000    0.0000   -0.0000    0.0001
      162 CR     7h4-       0.0000    0.0000   -0.0000   -0.0000    0.0000    0.0000    0.0000    0.0000   -0.0000    0.0001
      163 CR     6h3-      -0.0000   -0.0000    0.0000    0.0000   -0.0000    0.0000    0.0000    0.0000    0.0000   -0.0000
      164 CR     7h3-       0.0000    0.0000   -0.0000   -0.0000    0.0000   -0.0000    0.0000    0.0000   -0.0000   -0.0000
      165 CR     6h2-      -0.0000    0.0000    0.0000    0.0000   -0.0000    0.0000    0.0000    0.0000   -0.0000   -0.0000
      166 CR     7h2-       0.0000   -0.0000   -0.0000   -0.0000    0.0000    0.0000    0.0000    0.0000   -0.0000   -0.0001
      167 CR     6h1-      -0.0000   -0.0000   -0.0000   -0.0000   -0.0000    0.0000   -0.0000   -0.0000    0.0000   -0.0000
      168 CR     7h1-       0.0000    0.0000    0.0000    0.0000    0.0000   -0.0000   -0.0000   -0.0000   -0.0000   -0.0000
      169 CR     6h0        0.0000   -0.0000   -0.0000    0.0000   -0.0000   -0.0000   -0.0000    0.0000   -0.0000    0.0000
      170 CR     7h0        0.0000   -0.0000    0.0000   -0.0000    0.0000   -0.0000   -0.0000    0.0000   -0.0000    0.0000
      171 CR     6h1+       0.0000    0.0000    0.0000   -0.0000   -0.0000   -0.0000    0.0000   -0.0000   -0.0000    0.0000
      172 CR     7h1+       0.0000   -0.0000   -0.0000    0.0000    0.0000   -0.0000    0.0000   -0.0000   -0.0000    0.0000
      173 CR     6h2+      -0.0000    0.0000    0.0000   -0.0000    0.0000    0.0000    0.0000   -0.0000    0.0000   -0.0000
      174 CR     7h2+      -0.0000    0.0000   -0.0000    0.0000   -0.0000    0.0000    0.0000   -0.0000    0.0000   -0.0000
      175 CR     6h3+       0.0000   -0.0000    0.0000   -0.0000    0.0000    0.0000    0.0000   -0.0000    0.0000   -0.0000
      176 CR     7h3+      -0.0000    0.0000   -0.0000    0.0000   -0.0000    0.0000    0.0000   -0.0000    0.0000   -0.0000
      177 CR     6h4+      -0.0000    0.0000   -0.0000    0.0000    0.0000    0.0000   -0.0000    0.0000    0.0000    0.0000
      178 CR     7h4+      -0.0000    0.0000    0.0000   -0.0000   -0.0000    0.0000   -0.0000    0.0000    0.0000    0.0000
      179 CR     6h5+      -0.0000    0.0000    0.0000   -0.0000   -0.0000   -0.0000    0.0000   -0.0000   -0.0000   -0.0000
      180 CR     7h5+       0.0000   -0.0000   -0.0000    0.0000    0.0000   -0.0000    0.0000   -0.0000   -0.0000   -0.0000

          Orbital           11        12        13        14    
          Energy            1.3160    1.3199    1.3199    1.3214
          Occ. No.          0.0000    0.0000    0.0000    0.0000

        1 CR     1s        -0.0000    0.0000    0.0000   -0.0000
        2 CR     2s         0.0000   -0.0000    0.0000    0.0000
        3 CR     3s         0.0000   -0.0000    0.0000    0.0024
        4 CR     4s         0.0000   -0.0000    0.0000    0.0059
        5 CR     5s        -0.0000    0.0000   -0.0000   -0.0014
        6 CR     6s        -0.0000    0.0000   -0.0000   -0.0020
        7 CR     7s         0.0000   -0.0000    0.0000    0.0004
        8 CR     8s         0.0000   -0.0000    0.0000    0.0006
        9 CR     9s         0.0000    0.0000   -0.0000    0.0001
       10 CR    10s        -0.0000    0.0000   -0.0000   -0.0000
       11 CR     2px       -0.0000    0.0000   -0.0000   -0.0004
       12 CR     3px       -0.0000    0.0001   -0.0000   -0.0332
       13 CR     4px        0.0000   -0.0001    0.0000    0.0475
       14 CR     5px       -0.0000    0.0001   -0.0000   -0.0358
       15 CR     6px       -0.0000    0.0000   -0.0000   -0.0070
       16 CR     7px        0.0000   -0.0000    0.0000    0.0104
       17 CR     8px        0.0000   -0.0000    0.0000    0.0019
       18 CR     9px       -0.0000    0.0000   -0.0000   -0.0028
       19 CR    10px       -0.0000    0.0000   -0.0000   -0.0012
       20 CR    11px       -0.0000    0.0000   -0.0000   -0.0001
       21 CR     2py        0.0000   -0.0000   -0.0003   -0.0000
       22 CR     3py        0.0000   -0.0000   -0.0282   -0.0000
       23 CR     4py       -0.0000    0.0000    0.0387    0.0000
       24 CR     5py        0.0000   -0.0000   -0.0302   -0.0000
       25 CR     6py        0.0000   -0.0000   -0.0055   -0.0000
       26 CR     7py       -0.0000    0.0000    0.0089    0.0000
       27 CR     8py       -0.0000    0.0000    0.0015    0.0000
       28 CR     9py        0.0000   -0.0000   -0.0025   -0.0000
       29 CR    10py        0.0000   -0.0000   -0.0010   -0.0000
       30 CR    11py        0.0000   -0.0000   -0.0001   -0.0000
       31 CR     2pz       -0.0000   -0.0003    0.0000   -0.0000
       32 CR     3pz       -0.0007   -0.0282    0.0000   -0.0001
       33 CR     4pz        0.0011    0.0387   -0.0000    0.0001
       34 CR     5pz       -0.0008   -0.0302    0.0000   -0.0001
       35 CR     6pz       -0.0002   -0.0055    0.0000   -0.0000
       36 CR     7pz        0.0002    0.0089   -0.0000    0.0000
       37 CR     8pz        0.0000    0.0015   -0.0000    0.0000
       38 CR     9pz       -0.0001   -0.0025    0.0000   -0.0000
       39 CR    10pz       -0.0000   -0.0010    0.0000   -0.0000
       40 CR    11pz       -0.0000   -0.0001    0.0000   -0.0000
       41 CR     3d2-      -0.0000    0.0000    0.9443    0.0000
       42 CR     4d2-       0.0000   -0.0000   -0.3190   -0.0000
       43 CR     5d2-      -0.0000   -0.0000   -0.0005   -0.0000
       44 CR     6d2-      -0.0000    0.0000    0.0183    0.0000
       45 CR     7d2-      -0.0000    0.0000    0.0154    0.0000
       46 CR     8d2-       0.0000   -0.0000   -0.0049   -0.0000
       47 CR     9d2-       0.0000   -0.0000   -0.0042   -0.0000
       48 CR    10d2-       0.0000   -0.0000   -0.0003    0.0000
       49 CR     3d1-       0.0000    0.0000    0.0278    0.0000
       50 CR     4d1-      -0.0000   -0.0000   -0.0097   -0.0000
       51 CR     5d1-      -0.0000   -0.0000   -0.0001   -0.0000
       52 CR     6d1-       0.0000    0.0000    0.0006    0.0000
       53 CR     7d1-       0.0000    0.0000    0.0005    0.0000
       54 CR     8d1-      -0.0000   -0.0000   -0.0001   -0.0000
       55 CR     9d1-      -0.0000   -0.0000   -0.0001   -0.0000
       56 CR    10d1-      -0.0000   -0.0000   -0.0000    0.0000
       57 CR     3d0        0.8184   -0.0195    0.0000   -0.4723
       58 CR     4d0       -0.2799    0.0069   -0.0000    0.1588
       59 CR     5d0       -0.0011    0.0001   -0.0000    0.0000
       60 CR     6d0        0.0168   -0.0004    0.0000   -0.0090
       61 CR     7d0        0.0139   -0.0004    0.0000   -0.0076
       62 CR     8d0       -0.0045    0.0001   -0.0000    0.0024
       63 CR     9d0       -0.0041    0.0001   -0.0000    0.0020
       64 CR    10d0       -0.0004    0.0000   -0.0000    0.0001
       65 CR     3d1+       0.0242    0.9444   -0.0000    0.0027
       66 CR     4d1+      -0.0080   -0.3190    0.0000   -0.0009
       67 CR     5d1+       0.0000   -0.0005    0.0000   -0.0000
       68 CR     6d1+       0.0005    0.0183   -0.0000    0.0001
       69 CR     7d1+       0.0004    0.0154   -0.0000    0.0000
       70 CR     8d1+      -0.0001   -0.0049    0.0000   -0.0000
       71 CR     9d1+      -0.0001   -0.0042    0.0000   -0.0000
       72 CR    10d1+      -0.0000   -0.0003    0.0000   -0.0000
       73 CR     3d2+       0.4726   -0.0144    0.0000    0.8178
       74 CR     4d2+      -0.1617    0.0050   -0.0000   -0.2749
       75 CR     5d2+      -0.0007    0.0000   -0.0000   -0.0001
       76 CR     6d2+       0.0097   -0.0003    0.0000    0.0155
       77 CR     7d2+       0.0081   -0.0003    0.0000    0.0131
       78 CR     8d2+      -0.0026    0.0001   -0.0000   -0.0042
       79 CR     9d2+      -0.0023    0.0001   -0.0000   -0.0035
       80 CR    10d2+      -0.0002    0.0000   -0.0000   -0.0002
       81 CR     4f3-      -0.0000    0.0000    0.0360    0.0000
       82 CR     5f3-      -0.0000    0.0000    0.0161    0.0000
       83 CR     6f3-       0.0000   -0.0000   -0.0040   -0.0000
       84 CR     7f3-       0.0000   -0.0000   -0.0041   -0.0000
       85 CR     8f3-       0.0000   -0.0000   -0.0007   -0.0000
       86 CR     9f3-      -0.0000    0.0000    0.0011    0.0000
       87 CR     4f2-       0.0000    0.0000    0.0008    0.0000
       88 CR     5f2-       0.0000    0.0000    0.0002    0.0000
       89 CR     6f2-      -0.0000   -0.0000   -0.0002   -0.0000
       90 CR     7f2-      -0.0000   -0.0000   -0.0001   -0.0000
       91 CR     8f2-      -0.0000   -0.0000   -0.0000    0.0000
       92 CR     9f2-       0.0000    0.0000    0.0001    0.0000
       93 CR     4f1-       0.0000   -0.0000   -0.0093   -0.0000
       94 CR     5f1-       0.0000   -0.0000   -0.0042   -0.0000
       95 CR     6f1-      -0.0000    0.0000    0.0010    0.0000
       96 CR     7f1-      -0.0000    0.0000    0.0011    0.0000
       97 CR     8f1-      -0.0000    0.0000    0.0002   -0.0000
       98 CR     9f1-       0.0000   -0.0000   -0.0003   -0.0000
       99 CR     4f0       -0.0006   -0.0228    0.0000   -0.0000
      100 CR     5f0       -0.0003   -0.0102    0.0000    0.0000
      101 CR     6f0        0.0000    0.0025   -0.0000    0.0000
      102 CR     7f0        0.0001    0.0026   -0.0000    0.0000
      103 CR     8f0        0.0000    0.0005   -0.0000    0.0000
      104 CR     9f0       -0.0000   -0.0007    0.0000   -0.0000
      105 CR     4f1+       0.0227   -0.0004    0.0000   -0.0243
      106 CR     5f1+       0.0099   -0.0001    0.0000   -0.0109
      107 CR     6f1+      -0.0028    0.0002   -0.0000    0.0027
      108 CR     7f1+      -0.0026    0.0001   -0.0000    0.0028
      109 CR     8f1+      -0.0004    0.0000   -0.0000    0.0005
      110 CR     9f1+       0.0008   -0.0000    0.0000   -0.0007
      111 CR     4f2+       0.0008    0.0294   -0.0000    0.0001
      112 CR     5f2+       0.0004    0.0131   -0.0000    0.0001
      113 CR     6f2+      -0.0000   -0.0033    0.0000    0.0000
      114 CR     7f2+      -0.0001   -0.0033    0.0000    0.0000
      115 CR     8f2+      -0.0000   -0.0006    0.0000   -0.0000
      116 CR     9f2+       0.0000    0.0009   -0.0000   -0.0000
      117 CR     4f3+       0.0176   -0.0005    0.0000    0.0314
      118 CR     5f3+       0.0077   -0.0001    0.0000    0.0141
      119 CR     6f3+      -0.0021    0.0001   -0.0000   -0.0035
      120 CR     7f3+      -0.0020    0.0001   -0.0000   -0.0036
      121 CR     8f3+      -0.0003    0.0000   -0.0000   -0.0007
      122 CR     9f3+       0.0006   -0.0000    0.0000    0.0010
      123 CR     5g4-       0.0000    0.0000    0.0002    0.0000
      124 CR     6g4-      -0.0000    0.0000    0.0009    0.0000
      125 CR     7g4-      -0.0000    0.0000    0.0009    0.0000
      126 CR     8g4-      -0.0000    0.0000    0.0005    0.0000
      127 CR     5g3-       0.0000   -0.0000   -0.0000   -0.0000
      128 CR     6g3-       0.0000   -0.0000   -0.0001    0.0000
      129 CR     7g3-       0.0000   -0.0000   -0.0001    0.0000
      130 CR     8g3-       0.0000   -0.0000   -0.0001    0.0000
      131 CR     5g2-      -0.0000   -0.0000   -0.0001   -0.0000
      132 CR     6g2-       0.0000   -0.0000   -0.0003   -0.0000
      133 CR     7g2-       0.0000   -0.0000   -0.0003   -0.0000
      134 CR     8g2-       0.0000   -0.0000   -0.0002   -0.0000
      135 CR     5g1-      -0.0000    0.0000    0.0001    0.0000
      136 CR     6g1-      -0.0000    0.0000    0.0001   -0.0000
      137 CR     7g1-      -0.0000    0.0000    0.0001    0.0000
      138 CR     8g1-      -0.0000    0.0000    0.0000   -0.0000
      139 CR     5g0       -0.0001   -0.0000    0.0000    0.0001
      140 CR     6g0       -0.0004   -0.0000    0.0000    0.0003
      141 CR     7g0       -0.0003   -0.0000    0.0000    0.0003
      142 CR     8g0       -0.0002   -0.0000    0.0000    0.0002
      143 CR     5g1+       0.0000   -0.0001    0.0000    0.0000
      144 CR     6g1+      -0.0000   -0.0007    0.0000    0.0000
      145 CR     7g1+      -0.0000   -0.0007    0.0000    0.0000
      146 CR     8g1+      -0.0000   -0.0004    0.0000    0.0000
      147 CR     5g2+       0.0001    0.0000   -0.0000   -0.0001
      148 CR     6g2+       0.0003    0.0001   -0.0000   -0.0005
      149 CR     7g2+       0.0003    0.0001   -0.0000   -0.0005
      150 CR     8g2+       0.0002    0.0001   -0.0000   -0.0003
      151 CR     5g3+      -0.0000    0.0001   -0.0000    0.0000
      152 CR     6g3+       0.0000    0.0006   -0.0000    0.0000
      153 CR     7g3+       0.0000    0.0006   -0.0000    0.0000
      154 CR     8g3+       0.0000    0.0003   -0.0000    0.0000
      155 CR     5g4+       0.0001    0.0000   -0.0000    0.0001
      156 CR     6g4+       0.0004    0.0001   -0.0000    0.0007
      157 CR     7g4+       0.0004    0.0001   -0.0000    0.0007
      158 CR     8g4+       0.0002    0.0001   -0.0000    0.0003
      159 CR     6h5-       0.0000    0.0000    0.0001   -0.0000
      160 CR     7h5-       0.0000    0.0000    0.0002   -0.0000
      161 CR     6h4-       0.0000   -0.0000   -0.0000   -0.0000
      162 CR     7h4-       0.0000   -0.0000   -0.0000    0.0000
      163 CR     6h3-      -0.0000   -0.0000   -0.0001   -0.0000
      164 CR     7h3-      -0.0000   -0.0000   -0.0001   -0.0000
      165 CR     6h2-      -0.0000    0.0000    0.0000   -0.0000
      166 CR     7h2-      -0.0000    0.0000    0.0000    0.0000
      167 CR     6h1-      -0.0000    0.0000    0.0000   -0.0000
      168 CR     7h1-      -0.0000    0.0000    0.0000   -0.0000
      169 CR     6h0       -0.0000    0.0001   -0.0000   -0.0000
      170 CR     7h0       -0.0000    0.0001   -0.0000   -0.0000
      171 CR     6h1+      -0.0001    0.0000   -0.0000    0.0001
      172 CR     7h1+      -0.0001    0.0000   -0.0000    0.0001
      173 CR     6h2+       0.0000   -0.0001    0.0000    0.0000
      174 CR     7h2+       0.0000   -0.0001    0.0000    0.0000
      175 CR     6h3+       0.0000    0.0000   -0.0000   -0.0001
      176 CR     7h3+       0.0000    0.0000   -0.0000   -0.0001
      177 CR     6h4+      -0.0000    0.0001   -0.0000    0.0000
      178 CR     7h4+      -0.0000    0.0001   -0.0000    0.0000
      179 CR     6h5+       0.0001    0.0000   -0.0000    0.0001
      180 CR     7h5+       0.0001    0.0000   -0.0000    0.0001
--


++    Molecular charges:
      ------------------

      Mulliken charges per centre and basis function type
      ---------------------------------------------------

                CR    
      1s       2.0000
      2s       2.0000
      2px      2.0000
      2pz      2.0000
      2py      2.0000
      3s       1.9816
      3px      1.9599
      3pz      1.9617
      3py      1.9617
      4s       0.0053
      3d2+     0.0024
      3d1+     0.0023
      3d0      0.0008
      3d1-     0.0000
      3d2-     0.0023
      4px      0.0165
      4pz      0.0164
      4py      0.0164
      5s       0.0114
      4d2+     0.0001
      4d1+     0.0001
      4d0      0.0000
      4d1-     0.0000
      4d2-     0.0001
      5px      0.0192
      5pz      0.0189
      5py      0.0189
      6s       0.0019
      4f3+     0.0000
      4f2+     0.0000
      4f1+     0.0000
      4f0      0.0000
      4f1-     0.0000
      4f2-     0.0000
      4f3-     0.0000
      5d2+     0.0000
      5d1+     0.0000
      5d0      0.0000
      5d1-     0.0000
      5d2-     0.0000
      6px      0.0000
      6pz      0.0000
      6py      0.0000
      7s       0.0002
      5f3+     0.0000
      5f2+     0.0000
      5f1+     0.0000
      5f0      0.0000
      5f1-     0.0000
      5f2-     0.0000
      5f3-     0.0000
      6d2+     0.0000
      6d1+     0.0000
      6d0      0.0000
      6d1-     0.0000
      6d2-     0.0000
      7px      0.0005
      7pz      0.0005
      7py      0.0005
      5g4+     0.0000
      5g3+     0.0000
      5g2+     0.0000
      5g1+     0.0000
      5g0      0.0000
      5g1-     0.0000
      5g2-     0.0000
      5g3-     0.0000
      5g4-     0.0000
      6f3+     0.0000
      6f2+     0.0000
      6f1+     0.0000
      6f0      0.0000
      6f1-     0.0000
      6f2-     0.0000
      6f3-     0.0000
      6g4+     0.0000
      6g3+     0.0000
      6g2+     0.0000
      6g1+     0.0000
      6g0      0.0000
      6g1-     0.0000
      6g2-     0.0000
      6g3-     0.0000
      6g4-     0.0000
      6h5+     0.0000
      6h4+     0.0000
      6h3+     0.0000
      6h2+     0.0000
      6h1+     0.0000
      6h0      0.0000
      6h1-     0.0000
      6h2-     0.0000
      6h3-     0.0000
      6h4-     0.0000
      6h5-     0.0000
      7d2+     0.0000
      7d1+     0.0000
      7d0      0.0000
      7d1-     0.0000
      7d2-     0.0000
      7f3+     0.0000
      7f2+     0.0000
      7f1+     0.0000
      7f0      0.0000
      7f1-     0.0000
      7f2-     0.0000
      7f3-     0.0000
      7g4+     0.0000
      7g3+     0.0000
      7g2+     0.0000
      7g1+     0.0000
      7g0      0.0000
      7g1-     0.0000
      7g2-     0.0000
      7g3-     0.0000
      7g4-     0.0000
      7h5+     0.0000
      7h4+     0.0000
      7h3+     0.0000
      7h2+     0.0000
      7h1+     0.0000
      7h0      0.0000
      7h1-     0.0000
      7h2-     0.0000
      7h3-     0.0000
      7h4-     0.0000
      7h5-     0.0000
      8s       0.0001
      8px      0.0000
      8pz      0.0000
      8py      0.0000
      8d2+     0.0000
      8d1+     0.0000
      8d0      0.0000
      8d1-     0.0000
      8d2-     0.0000
      8f3+     0.0000
      8f2+     0.0000
      8f1+     0.0000
      8f0      0.0000
      8f1-     0.0000
      8f2-     0.0000
      8f3-     0.0000
      8g4+     0.0000
      8g3+     0.0000
      8g2+     0.0000
      8g1+     0.0000
      8g0      0.0000
      8g1-     0.0000
      8g2-     0.0000
      8g3-     0.0000
      8g4-     0.0000
      9s       0.0000
      9px      0.0000
      9pz      0.0000
      9py      0.0000
      9d2+     0.0000
      9d1+     0.0000
      9d0      0.0000
      9d1-     0.0000
      9d2-     0.0000
      9f3+     0.0000
      9f2+     0.0000
      9f1+     0.0000
      9f0      0.0000
      9f1-     0.0000
      9f2-     0.0000
      9f3-     0.0000
     10s       0.0000
     10px      0.0000
     10pz      0.0000
     10py      0.0000
     10d2+     0.0000
     10d1+     0.0000
     10d0      0.0000
     10d1-     0.0000
     10d2-     0.0000
     11px      0.0000
     11pz      0.0000
     11py      0.0000
      Total   18.0000

      N-E      6.0000

      Total electronic charge=   18.000000

      Total            charge=    6.000000
--

 Sorry, Molden does not know how to handle
 functions with angular momentum larger than g

++    Static properties:
      ------------------


      LoProp Charges per center


                   CR    
      Nuclear     24.0000
      Electronic -18.0000

      Total        6.0000
--


++    Molecular properties:
      ---------------------

      Charge (e):
                      =    6.0000
      Dipole Moment (Debye):
      Origin of the operator (Ang)=    0.0000    0.0000    0.0000
                   X= -5.4325E-01               Y= -3.5994E-14               Z=  1.3325E-01           Total=  5.5936E-01
      Center of Charge (Ang)
                     X=   -0.01885034               Y=   -0.00000000               Z=    0.00462373
      Quadrupole Moment (Debye*Ang):
      Origin of the operator (Ang)=   -0.0000   -0.0000    0.0046
                  XX= -3.4394E+00              XY= -7.1998E-15              XZ=  1.2904E-05              YY= -3.4408E+00
                  YZ=  5.3360E-15              ZZ= -3.4408E+00
      In traceless form (Debye*Ang)
                  XX=  1.4690E-03              XY= -1.0800E-14              XZ=  1.9356E-05              YY= -7.3379E-04
                  YZ=  8.0040E-15              ZZ= -7.3523E-04
--

 Sorry, Molden does not know how to handle
 functions with angular momentum larger than g
 ###############################################################################
 ###############################################################################
 ###                                                                         ###
 ###                                                                         ###
 ###    WARNING: RunFile label nBas                                          ###
 ###    was used       62 times                                              ###
 ###                                                                         ###
 ###                                                                         ###
 ###############################################################################
 ###############################################################################
Note: The following floating-point exceptions are signalling: IEEE_UNDERFLOW_FLAG IEEE_DENORMAL
--- Stop Module: scf at Thu Mar 27 00:10:41 2025 /rc=_RC_ALL_IS_WELL_ ---
*** files: chromium_so_cf.LprOrb chromium_so_cf.ScfOrb xmldump
    saved to directory /home4/s4752295/Internship/Initial_simulations/Point_charge_model/1_electron/Madelung_charges_9_active_space/Cr
--- Module scf spent 7 seconds ---

*** symbolic link created: INPORB -> chromium_so_cf.ScfOrb
--- Start Module: rasscf at Thu Mar 27 00:10:42 2025 ---

()()()()()()()()()()()()()()()()()()()()()()()()()()()()()()()()()()()()()()()()()()()()()()()()()()

                                              &RASSCF

                                   only a single process is used
                       available to each process: 4.1 GB of memory, 1 thread?
                                            pid: 1937755
()()()()()()()()()()()()()()()()()()()()()()()()()()()()()()()()()()()()()()()()()()()()()()()()()()


      Header of the ONEINT file:
      --------------------------
      
      Integrals generated by seward 4.2.0  , Thu Mar 27 00:10:26 2025


      OrdInt status: non-squared


      Cartesian coordinates in Angstrom:
      -----------------------------------------------------
      No.  Label        X            Y            Z        
      -----------------------------------------------------
       1   CR        -0.00000000  -0.00000000   0.00463220
      -----------------------------------------------------
      Nuclear repulsion energy = -109.78764101

++    Wave function specifications:
      -----------------------------

      Number of closed shell electrons          18
      Number of electrons in active shells       1
      Max number of holes in RAS1 space          0
      Max nr of electrons in RAS3 space          0
      Number of inactive orbitals                9
      Number of active orbitals                  9
      Number of secondary orbitals             162
      Spin quantum number                      0.5
      State symmetry                             1
--

++    Orbital specifications:
      -----------------------

      Symmetry species                           1
                                                 a
      Frozen orbitals                            0
      Inactive orbitals                          9
      Active orbitals                            9
      RAS1 orbitals                              0
      RAS2 orbitals                              9
      RAS3 orbitals                              0
      Secondary orbitals                       162
      Deleted orbitals                           0
      Number of basis functions                180
--

++    CI expansion specifications:
      ----------------------------

      Number of CSFs                             9
      Number of determinants                     9
      Number of root(s) required                 9
      Root chosen for geometry opt.              9
      CI roots used                              1     2     3     4     5     6     7     8     9
      weights                                0.111 0.111 0.111 0.111 0.111 0.111 0.111 0.111 0.111
      highest root included in the CI            9
      max. size of the explicit Hamiltonian      9
--

++    Optimization specifications:
      ----------------------------

      RASSCF algorithm: Conventional
      Maximum number of macro iterations       200
      Maximum number of SX iterations          100
      Threshold for RASSCF energy            0.100E-07
      Threshold for max MO rotation          0.100E+00
      Threshold for max BLB element          0.100E-03
      Level shift parameter                  0.500E+00
      Make Quasi-Newton update
--

      The MO-coefficients are taken from the file:
      INPORB                                                                                                                          
      Title: SCF orbitals                                                                  

      Total molecular charge    5.00

      ************************************************************************************************************************
      *                                                                                                                      *
      *                                            Wave function control section                                             *
      *                                                                                                                      *
      ************************************************************************************************************************


                                         RASSCF iterations: Energy and convergence statistics
                                         ----------------------------------------------------

      Iter CI   SX   CI       RASSCF       Energy    max ROT     max BLB   max BLB  Level Ln srch  Step   QN   Walltime
          iter iter root      energy       change     param      element    value   shift minimum  type update hh:mm:ss
 Nr of preliminary CI iterations:   1
      Total energies have been shifted. Add                -1000.00 au
        1   1    6    0   -65.86710997    0.00E+00   0.15E-01    8  81 1 -0.11E+00*  0.00   0.00    SX    NO    0:00:03
        2   1    6    0   -65.88157405   -0.14E-01*  0.11E-01    8 126 1 -0.22E-01*  0.00   0.00    SX    NO    0:00:01
        3   1    6    0   -65.88192554   -0.35E-03* -0.76E-02    5 171 1  0.41E-02*  0.00   0.00    SX    NO    0:00:01
        4   1    6    0   -65.88195880   -0.33E-04* -0.76E-02    6 111 1  0.14E-02*  0.00   0.00    SX    NO    0:00:01
        5   1    6    0   -65.88196541   -0.66E-05*  0.41E-02   14  19 1  0.63E-03*  0.00   0.60    QN   YES    0:00:01
        6   1    5    0   -65.88197168   -0.63E-05*  0.16E-02    9 128 1  0.16E-03*  0.00   1.03    QN   YES    0:00:01
        7   1    5    0   -65.88197220   -0.52E-06*  0.22E-02   18  19 1  0.91E-04   0.00   1.13    QN   YES    0:00:01
        8   1    5    0   -65.88197258   -0.38E-06*  0.12E-02    6 111 1  0.77E-04   0.00   1.54    LS   YES    0:00:01
        9   1    5    0   -65.88197263   -0.52E-07*  0.57E-03    9 128 1 -0.84E-04   0.00   1.00    QN   YES    0:00:01
       10   1    4    0   -65.88197268   -0.53E-07*  0.26E-03   16  20 1 -0.14E-04   0.00   1.03    QN   YES    0:00:01
       11   1    4    0   -65.88197270   -0.19E-07*  0.18E-03    7 127 1  0.21E-04   0.00   1.29    QN   YES    0:00:01
       12   1    4    0   -65.88197271   -0.39E-08   0.31E-04   10  28 1  0.26E-05   0.00   0.99    QN   YES    0:00:01
      Convergence after 12 iterations
       13   1    4    0   -65.88197271   -0.39E-09   0.31E-04   10  28 1 -0.11E-05   0.00   0.99    QN   YES    0:00:01

      ************************************************************************************************************************
                                                      Wave function printout:
                       occupation of active orbitals, and spin coupling of open shells (u,d: Spin up or down)
      ************************************************************************************************************************

      Note: transformation to natural orbitals
      has been made, which may change the order of the CSFs.

      printout of CI-coefficients larger than  0.05 for root  1
      energy=   -1066.396473
      conf/sym  111111111     Coeff  Weight
             1  u00000000   0.70351 0.49492
             2  0u0000000  -0.17548 0.03079
             3  00u000000  -0.50665 0.25670
             6  00000u000   0.34443 0.11863
             8  0000000u0   0.25314 0.06408
             9  00000000u  -0.18305 0.03351

      printout of CI-coefficients larger than  0.05 for root  2
      energy=   -1066.396472
      conf/sym  111111111     Coeff  Weight
             1  u00000000   0.08856 0.00784
             2  0u0000000   0.70639 0.49899
             3  00u000000   0.09871 0.00974
             9  00000000u  -0.69339 0.48080

      printout of CI-coefficients larger than  0.05 for root  3
      energy=   -1066.392312
      conf/sym  111111111     Coeff  Weight
             1  u00000000   0.51043 0.26054
             2  0u0000000   0.23635 0.05586
             3  00u000000   0.48208 0.23240
             6  00000u000   0.30335 0.09202
             7  000000u00   0.19188 0.03682
             8  0000000u0  -0.42884 0.18391
             9  00000000u   0.36836 0.13569

      printout of CI-coefficients larger than  0.05 for root  4
      energy=   -1066.392309
[...]
    2         0.000000       1 0.5  1.0000    9 0.5  0.0000    8 0.5  0.0000    7 0.5  0.0000    6 0.5  0.0000
    3         0.000001       2 0.5  1.0000    9 0.5  0.0000    8 0.5  0.0000    7 0.5  0.0000    6 0.5  0.0000
    4         0.000001       2 0.5  1.0000    9 0.5  0.0000    8 0.5  0.0000    7 0.5  0.0000    6 0.5  0.0000
    5         0.004161       3 0.5  1.0000    9 0.5  0.0000    8 0.5  0.0000    7 0.5  0.0000    6 0.5  0.0000
    6         0.004161       3 0.5  1.0000    9 0.5  0.0000    8 0.5  0.0000    7 0.5  0.0000    6 0.5  0.0000
    7         0.004165       4 0.5  1.0000    9 0.5  0.0000    8 0.5  0.0000    7 0.5  0.0000    6 0.5  0.0000
    8         0.004165       4 0.5  1.0000    9 0.5  0.0000    8 0.5  0.0000    7 0.5  0.0000    6 0.5  0.0000
    9         0.005831       5 0.5  1.0000    9 0.5  0.0000    8 0.5  0.0000    7 0.5  0.0000    6 0.5  0.0000
   10         0.005831       5 0.5  1.0000    9 0.5  0.0000    8 0.5  0.0000    7 0.5  0.0000    6 0.5  0.0000
   11         0.856698       6 0.5  1.0000    9 0.5  0.0000    8 0.5  0.0000    7 0.5  0.0000    5 0.5  0.0000
   12         0.856698       6 0.5  1.0000    9 0.5  0.0000    8 0.5  0.0000    7 0.5  0.0000    5 0.5  0.0000
   13         1.220362       7 0.5  1.0000    9 0.5  0.0000    8 0.5  0.0000    6 0.5  0.0000    5 0.5  0.0000
   14         1.220362       7 0.5  1.0000    9 0.5  0.0000    8 0.5  0.0000    6 0.5  0.0000    5 0.5  0.0000
   15         1.220499       8 0.5  1.0000    9 0.5  0.0000    7 0.5  0.0000    6 0.5  0.0000    5 0.5  0.0000
   16         1.220499       8 0.5  1.0000    9 0.5  0.0000    7 0.5  0.0000    6 0.5  0.0000    5 0.5  0.0000
   17         1.318789       9 0.5  1.0000    8 0.5  0.0000    7 0.5  0.0000    6 0.5  0.0000    5 0.5  0.0000
   18         1.318789       9 0.5  1.0000    8 0.5  0.0000    7 0.5  0.0000    6 0.5  0.0000    5 0.5  0.0000
 -------------------------------------------------------------------------------------------------------


      ****************************************************************************************************
      *                                                                                                  *
      *                                    Special properties section                                    *
      *                                                                                                  *
      ****************************************************************************************************


++ Dipole transition strengths (SO states):
   ----------------------------------------
    for osc. strength at least    1.0000000000000001E-005

      From   To        Osc. strength     Einstein coefficients Ax, Ay, Az (sec-1)    Total A (sec-1)
     -----------------------------------------------------------------------------------------------
         1   11       1.11618373E-05  1.80344965E-13  2.63208856E+05  7.66240790E-10  2.63208856E+05
         1   13       2.65573352E-02  8.91789619E-09  1.27078228E+09  4.72799293E-06  1.27078228E+09
         1   15       2.66498558E-02  3.08794989E+06  4.73357947E-06  1.27240783E+09  1.27549578E+09
         2   12       1.11618373E-05  1.80344965E-13  2.63208856E+05  7.66240790E-10  2.63208856E+05
         2   14       2.65573352E-02  8.91789619E-09  1.27078228E+09  4.72799293E-06  1.27078228E+09
         2   16       2.66498558E-02  3.08794989E+06  4.73357947E-06  1.27240783E+09  1.27549578E+09
         3   13       2.66103218E-02  2.50119446E+06  4.72776615E-06  1.27081390E+09  1.27331509E+09
         3   15       2.65845908E-02  1.10669312E-08  1.27236949E+09  4.73377641E-06  1.27236949E+09
         4   14       2.66103218E-02  2.50119446E+06  4.72776615E-06  1.27081390E+09  1.27331509E+09
         4   16       2.65845908E-02  1.10669312E-08  1.27236949E+09  4.73377641E-06  1.27236949E+09
         5   11       1.18173787E-02  3.12025528E+03  1.41752804E-08  2.75963637E+08  2.75966757E+08
         5   13       4.92885995E-02  2.34233158E+09  1.76921977E-11  9.71213040E+04  2.34242870E+09
         5   17       8.90484730E-04  7.52466582E+03  2.52700037E-09  4.94396711E+07  4.94471958E+07
         6   12       1.18173787E-02  3.12025528E+03  1.41752804E-08  2.75963637E+08  2.75966757E+08
         6   14       4.92885995E-02  2.34233158E+09  1.76921977E-11  9.71213040E+04  2.34242870E+09
         6   18       8.90484730E-04  7.52466582E+03  2.52700037E-09  4.94396711E+07  4.94471958E+07
         7   11       1.18090392E-02  2.43283852E-13  2.75769684E+08  1.41905438E-08  2.75769684E+08
         7   15       4.92848553E-02  2.34254812E+09  1.29686305E-11  2.16543614E+05  2.34276466E+09
         7   17       8.85872367E-04  3.39526333E-13  4.91908099E+07  2.54239813E-09  4.91908099E+07
         8   12       1.18090392E-02  2.43283852E-13  2.75769684E+08  1.41905438E-08  2.75769684E+08
         8   16       4.92848553E-02  2.34254812E+09  1.29686305E-11  2.16543614E+05  2.34276466E+09
         8   18       8.85872367E-04  3.39526333E-13  4.91908099E+07  2.54239813E-09  4.91908099E+07
         9   11       2.33746986E-02  5.43722721E+08  8.59635283E-16  1.85947543E+03  5.43724580E+08
         9   13       2.85276672E-03  1.24028610E+04  8.78399494E-12  1.35192664E+08  1.35205067E+08
         9   15       2.85625930E-03  1.85381318E-15  1.35401138E+08  7.44824510E-12  1.35401138E+08
         9   17       2.31409704E-02  1.28171796E+09  1.53637392E-17  1.43376604E+03  1.28171939E+09
        10   12       2.33746986E-02  5.43722721E+08  8.59635283E-16  1.85947543E+03  5.43724580E+08
        10   14       2.85276672E-03  1.24028610E+04  8.78399494E-12  1.35192664E+08  1.35205067E+08
        10   16       2.85625930E-03  1.85381318E-15  1.35401138E+08  7.44824510E-12  1.35401138E+08
        10   18       2.31409704E-02  1.28171796E+09  1.53637392E-17  1.43376604E+03  1.28171939E+09
        11   13       3.20381810E-01  6.45395912E+01  8.13720223E-11  1.36137494E+09  1.36137500E+09
        11   15       3.20325154E-01  1.53298633E-14  1.36216002E+09  8.15236187E-11  1.36216002E+09
        11   17       3.07419840E-01  2.10909845E+09  3.68314358E-14  1.55426311E+02  2.10909860E+09
        12   14       3.20381810E-01  6.45395912E+01  8.13720223E-11  1.36137494E+09  1.36137500E+09
        12   16       3.20325154E-01  1.53298633E-14  1.36216002E+09  8.15236187E-11  1.36216002E+09
        12   18       3.07419840E-01  2.10909845E+09  3.68314358E-14  1.55426311E+02  2.10909860E+09
        13   17       5.36628864E-03  1.01047523E+01  1.00780759E-13  1.67036875E+06  1.67037885E+06
        14   18       5.36628864E-03  1.01047523E+01  1.00780759E-13  1.67036875E+06  1.67037885E+06
        15   17       5.42956230E-03  1.20812728E-16  1.68537256E+06  1.00128268E-13  1.68537256E+06
        16   18       5.42956230E-03  1.20812728E-16  1.68537256E+06  1.00128268E-13  1.68537256E+06
     -----------------------------------------------------------------------------------------------
--

++ Velocity transition strengths (SO states):
   ------------------------------------------
    for osc. strength at least    1.0000000000000001E-005

      From   To        Osc. strength     Einstein coefficients Ax, Ay, Az (sec-1)    Total A (sec-1)
     -----------------------------------------------------------------------------------------------
         1    3       1.10076340E-04  2.43417149E-23  5.57168045E-06  1.30979234E-22  5.57168045E-06
         1    5       4.33380239E-03  7.11108150E-18  2.41106120E+03  1.11192235E-11  2.41106120E+03
         1    7       4.32928793E-03  2.87993951E-05  1.11388416E-11  2.41270765E+03  2.41270767E+03
         1   13       2.33436911E-02  7.98930688E-09  1.11701162E+09  4.15567893E-06  1.11701162E+09
         1   15       2.34261294E-02  2.76419114E+06  4.16090138E-06  1.11844386E+09  1.12120805E+09
         2    4       1.10076340E-04  2.43417149E-23  5.57168045E-06  1.30979234E-22  5.57168045E-06
         2    6       4.33380239E-03  7.11108150E-18  2.41106120E+03  1.11192235E-11  2.41106120E+03
         2    8       4.32928793E-03  2.87993951E-05  1.11388416E-11  2.41270765E+03  2.41270767E+03
         2   14       2.33436911E-02  7.98930688E-09  1.11701162E+09  4.15567893E-06  1.11701162E+09
         2   16       2.34261294E-02  2.76419114E+06  4.16090138E-06  1.11844386E+09  1.12120805E+09
         3    5       4.33159788E-03  1.58325102E-03  1.11218337E-11  2.40837962E+03  2.40838121E+03
         3    7       4.33267338E-03  2.38869398E-20  2.41313922E+03  1.11280837E-11  2.41313922E+03
         3   13       2.33911433E-02  2.24108157E+06  4.15567430E-06  1.11703886E+09  1.11927994E+09
         3   15       2.33674950E-02  9.91043858E-09  1.11839943E+09  4.16096293E-06  1.11839943E+09
         4    6       4.33159788E-03  1.58325102E-03  1.11218337E-11  2.40837962E+03  2.40838121E+03
         4    8       4.33267338E-03  2.38869398E-20  2.41313922E+03  1.11280837E-11  2.41313922E+03
         4   14       2.33911433E-02  2.24108157E+06  4.15567430E-06  1.11703886E+09  1.11927994E+09
         4   16       2.33674950E-02  9.91043858E-09  1.11839943E+09  4.16096293E-06  1.11839943E+09
         5    9       3.29620867E-02  6.10571160E-04  1.51746912E-13  2.95210790E+03  2.95210851E+03
         5   11       1.01115689E-02  2.70224847E+03  1.21348655E-08  2.36129747E+08  2.36132449E+08
         5   13       4.37753543E-02  2.08034268E+09  1.45978569E-11  7.76204759E+04  2.08042030E+09
         5   17       8.18788829E-04  6.86758178E+03  2.32549447E-09  4.54593274E+07  4.54661949E+07
         6   10       3.29620867E-02  6.10571160E-04  1.51746912E-13  2.95210790E+03  2.95210851E+03
         6   12       1.01115689E-02  2.70224847E+03  1.21348655E-08  2.36129747E+08  2.36132449E+08
         6   14       4.37753543E-02  2.08034268E+09  1.45978569E-11  7.76204759E+04  2.08042030E+09
         6   18       8.18788829E-04  6.86758178E+03  2.32549447E-09  4.54593274E+07  4.54661949E+07
         7    9       3.30178209E-02  1.80046315E-18  2.94439568E+03  1.51469392E-13  2.94439568E+03
         7   11       1.01042681E-02  1.97971361E-13  2.35959968E+08  1.21422818E-08  2.35959968E+08
         7   15       4.37710646E-02  2.08049463E+09  1.05896760E-11  1.78210578E+05  2.08067284E+09
         7   17       8.14520845E-04  3.07635806E-13  4.52289527E+07  2.33734328E-09  4.52289527E+07
         8   10       3.30178209E-02  1.80046315E-18  2.94439568E+03  1.51469392E-13  2.94439568E+03
         8   12       1.01042681E-02  1.97971361E-13  2.35959968E+08  1.21422818E-08  2.35959968E+08
         8   16       4.37710646E-02  2.08049463E+09  1.05896760E-11  1.78210578E+05  2.08067284E+09
         8   18       8.14520845E-04  3.07635806E-13  4.52289527E+07  2.33734328E-09  4.52289527E+07
         9   11       2.02396362E-02  4.70799170E+08  6.09233112E-15  1.59488930E+03  4.70800765E+08
         9   13       2.39929158E-03  1.10297288E+04  7.28745146E-12  1.13702267E+08  1.13713296E+08
         9   15       2.40243851E-03  1.05455848E-14  1.13888133E+08  6.16915229E-12  1.13888133E+08
         9   17       2.12589931E-02  1.17748426E+09  1.62419738E-16  1.30362175E+03  1.17748556E+09
        10   12       2.02396362E-02  4.70799170E+08  6.09233112E-15  1.59488930E+03  4.70800765E+08
        10   14       2.39929158E-03  1.10297288E+04  7.28745146E-12  1.13702267E+08  1.13713296E+08
        10   16       2.40243851E-03  1.05455848E-14  1.13888133E+08  6.16915229E-12  1.13888133E+08
        10   18       2.12589931E-02  1.17748426E+09  1.62419738E-16  1.30362175E+03  1.17748556E+09
        11   13       3.22703809E-01  7.00712139E+01  8.19854834E-11  1.37124640E+09  1.37124647E+09
        11   15       3.22641065E-01  2.45256613E-14  1.37201303E+09  8.21641743E-11  1.37201303E+09
        11   17       2.89931137E-01  1.98912160E+09  2.33025986E-14  1.19903546E+02  1.98912172E+09
        12   14       3.22703809E-01  7.00712139E+01  8.19854834E-11  1.37124640E+09  1.37124647E+09
        12   16       3.22641065E-01  2.45256613E-14  1.37201303E+09  8.21641743E-11  1.37201303E+09
        12   18       2.89931137E-01  1.98912160E+09  2.33025986E-14  1.19903546E+02  1.98912172E+09
        13   17       2.09415763E-05  4.07295855E+00  4.17077634E-16  6.51448952E+03  6.51856248E+03
        14   18       2.09415763E-05  4.07295855E+00  4.17077634E-16  6.51448952E+03  6.51856248E+03
        15   17       2.34157910E-05  1.28206276E-17  7.26844387E+03  3.26951541E-16  7.26844387E+03
        16   18       2.34157910E-05  1.28206276E-17  7.26844387E+03  3.26951541E-16  7.26844387E+03
     -----------------------------------------------------------------------------------------------
--

++ Length and velocity gauge comparison (SO states):

 --------------------------------------------------
 A comparison between the dipole oscillator strengths in 
 length and velocity gauge will be performed

 All dipole oscillator differences above the tolerance of   0.10000000000000001       will be printed 

 Due to basis set deficiency these oscillator may be problematic 

 The tolerance is defined as ABS(1-O_l/O_v) 
 O_l : dipole oscillator strength in length gauge
 O_p : dipole oscillator strength in velocity gauge
 --------------------------------------------------

  Problematic transitions have been found

      From   To       Difference (%) Osc. st. (len.) Osc. st. (vel.)
     ---------------------------------------------------------------
         1    3      --------------- below threshold  1.10076340E-04
         1    5      --------------- below threshold  4.33380239E-03
         1    7      --------------- below threshold  4.32928793E-03
         1   11      ---------------  1.11618373E-05 below threshold
         1   13            13.766649  2.65573352E-02  2.33436911E-02
         1   15            13.761242  2.66498558E-02  2.34261294E-02
         2    4      --------------- below threshold  1.10076340E-04
         2    6      --------------- below threshold  4.33380239E-03
         2    8      --------------- below threshold  4.32928793E-03
         2   12      ---------------  1.11618373E-05 below threshold
         2   14            13.766649  2.65573352E-02  2.33436911E-02
         2   16            13.761242  2.66498558E-02  2.34261294E-02
         3    5      --------------- below threshold  4.33159788E-03
         3    7      --------------- below threshold  4.33267338E-03
         3   13            13.762382  2.66103218E-02  2.33911433E-02
         3   15            13.767397  2.65845908E-02  2.33674950E-02
         4    6      --------------- below threshold  4.33159788E-03
         4    8      --------------- below threshold  4.33267338E-03
         4   14            13.762382  2.66103218E-02  2.33911433E-02
         4   16            13.767397  2.65845908E-02  2.33674950E-02
         5    9      --------------- below threshold  3.29620867E-02
         5   11            16.869883  1.18173787E-02  1.01115689E-02
         5   13            12.594404  4.92885995E-02  4.37753543E-02
         6   10      --------------- below threshold  3.29620867E-02
         6   12            16.869883  1.18173787E-02  1.01115689E-02
         6   14            12.594404  4.92885995E-02  4.37753543E-02
         7    9      --------------- below threshold  3.30178209E-02
         7   11            16.871792  1.18090392E-02  1.01042681E-02
         7   15            12.596885  4.92848553E-02  4.37710646E-02
         8   10      --------------- below threshold  3.30178209E-02
         8   12            16.871792  1.18090392E-02  1.01042681E-02
         8   16            12.596885  4.92848553E-02  4.37710646E-02
         9   11            15.489717  2.33746986E-02  2.02396362E-02
         9   13            18.900377  2.85276672E-03  2.39929158E-03
         9   15            18.890006  2.85625930E-03  2.40243851E-03
        10   12            15.489717  2.33746986E-02  2.02396362E-02
        10   14            18.900377  2.85276672E-03  2.39929158E-03
        10   16            18.890006  2.85625930E-03  2.40243851E-03
        13   17         25525.046427  5.36628864E-03  2.09415763E-05
        14   18         25525.046427  5.36628864E-03  2.09415763E-05
        15   17         23087.610016  5.42956230E-03  2.34157910E-05
        16   18         23087.610016  5.42956230E-03  2.34157910E-05
     ---------------------------------------------------------------

 Number of problematic transitions =                    42

--

 Electric-dipole - electric-octupole not included
++ I/O STATISTICS
 
  I. General I/O information
  - - - - - - - - - - - - - - - - - - - - - - - - - - - - - - - - - - - - - - - - - - -
  Unit  Name          Flsize      Write/Read            MBytes           Write/Read
                      (MBytes)       Calls              In/Out           Time, sec.
  - - - - - - - - - - - - - - - - - - - - - - - - - - - - - - - - - - - - - - - - - - -
   1  SCRATCH           0.00 .       9/      45 .      0.0/      0.0 .       0/       0
   2  ANNI              0.00 .       0/       0 .      0.0/      0.0 .       0/       0
   3  RUNFILE          14.88 .     322/   10733 .      2.3/     77.8 .       0/       0
   4  ONEINT            5.58 .       0/   23543 .      0.0/   3739.9 .       0/       0
   5  JOBIPH            6.48 .       0/      92 .      0.0/      0.8 .       0/       0
   6  ORDINT          506.53 .       1/    4053 .      0.0/   1013.0 .       0/       0
  - - - - - - - - - - - - - - - - - - - - - - - - - - - - - - - - - - - - - - - - - - -
   *  TOTAL           533.47 .     332/   38466 .      2.3/   4831.6 .       0/       0
  - - - - - - - - - - - - - - - - - - - - - - - - - - - - - - - - - - - - - - - - - - -
 
  II. I/O Access Patterns
  - - - - - - - - - - - - - - - - - - - -
  Unit  Name               % of random
                         Write/Read calls
  - - - - - - - - - - - - - - - - - - - -
   1  SCRATCH             88.9/ 100.0
   2  ANNI                 0.0/   0.0
   3  RUNFILE             28.6/  10.8
   4  ONEINT               0.0/  16.4
   5  JOBIPH               0.0/  76.1
   6  ORDINT             100.0/   0.0
  - - - - - - - - - - - - - - - - - - - -
--
--- Stop Module: rassi at Thu Mar 27 00:11:22 2025 /rc=_RC_ALL_IS_WELL_ ---
*** files: xmldump
    saved to directory /home4/s4752295/Internship/Initial_simulations/Point_charge_model/1_electron/Madelung_charges_9_active_space/Cr
--- Module rassi spent 2 seconds ---

.##################.
.# Happy landing! #.
.##################.

    Timing: Wall=53.54 User=43.29 System=9.12

###############################################################################
Hbrk Cluster
Job 15913431 for user s4752295
Finished at: Thu Mar 27 00:11:26 CET 2025

Job details:
============

Job ID                         : 15913431
Name                           : Cr_no_SO
User                           : s4752295
Partition                      : regularmedium
Nodes                          : node101
Number of Nodes                : 1
Cores                          : 1
Number of Tasks                : 1
State                          : COMPLETED  
Submit                         : 2025-03-27T00:09:55
Start                          : 2025-03-27T00:10:22
End                            : 2025-03-27T00:11:22
Reserved walltime              : 15:00:00
Used walltime                  : 00:01:00
Used CPU time                  : 00:00:54 (Efficiency: 89.19%)
% User (Computation)           : 82.54%
% System (I/O)                 : 17.46%
Total memory reserved          : 25000M
Maximum memory used            : 2.03G

Acknowledgements:
=================

Please see this page for information about acknowledging Hbrk in your publications:

https://wiki.hpc.rug.nl/habrok/introduction/scientific_output

################################################################################
