   This run of MOLCAS is using the pymolcas driver

                             OPE
                             OPE          NMOL  CASOP  ENMOLC A   SO
                 OPE        NMOLC        AS  OP EN  MO LC     AS  OP
                OPENM       OL CA        SO  PE NM  OL CA     SOP EN
                OP EN      MO   LC       AS  OP ENMOL  CASO   PENMOL
                OP  EN     MO   LC       AS  OP EN     MO     LC ASO
               OP   E  NMOL  C  AS       OP  EN MO     LC     AS  OP
               OP  E   NMO   LC AS        OPEN  MO     LCASOP EN   M
               O  PEN   MO  LCA  SO
            OPE   NMO   L   CAS    OP
        OPENMOL  CASOP     ENMOL   CASOPE
     OPENMOLCA   SOPENMOLCASOPEN   MOLCASOPE
    OPENMOLCAS   OP           EN   MOL    CAS
    OPENMOLCAS       OP  ENM        O     LCA
    OPENMOLCAS    OPEN  MOLCASO     P  E  NMO
    OPENMOLCAS     OP               E  N  MOL
    OPENMOLCA   SO           PENM   O  L  CAS    OPEN    MO    LCAS
    OPENMOLCA   SOP           ENM   O  L  CAS   OP  EN  MOLC  AS   O
    OPENMOLCA   SOPE           NM      O  LCA   S      OP  EN MO
    OPENMOLC                AS         O  PEN   M      OL  CA  SOPE
    OPENMO        LCASOPE  NMOL        C  ASO   P      ENMOLC     AS
    OPE     NMO      LCA  SO     P     E   NM   OL  CA SO  PE N   MO
          OPENMOLCA            SOPE   NMO        LCAS  O    P  ENMO
     OPENMOLCASOPENMOLCASOPENMOLCASOPENMOLCA
        OPENMOLCASOPENMOLCASOPENMOLCASOPE
            OPENMOLCASOPENMOLCASOPENM
               OPENMOLCASOPENMOLCA        version: o91e1abe7de707b ?
                   OPENMOLCASO
                       OPE                tag:

 OpenMolcas is free software; you can redistribute it and/or modify it
 under the terms of the GNU Lesser General Public License version 2.1.
 OpenMolcas is distributed in the hope that it will be useful, but it
 is provided "as is" and without any express or implied warranties.
 For more details see the full text of the license in the file
 LICENSE or in <http://www.gnu.org/licenses/>.

                 Copyright (C) The OpenMolcas Authors
           For the author list and the recommended citation,
                   consult the file CONTRIBUTORS.md

           *************************************************
           * pymolcas version py2.10                       *
           *   build 3068ae8b88c9345ec6cfef6fef7f1169      *
           *   (after the EMIL interpreter by V. Veryazov) *
           *************************************************

configuration info
------------------
Host name: login1 (Linux)
C Compiler ID: GNU
C flags: -std=gnu99
Fortran Compiler ID: GNU
Fortran flags: -fno-aggressive-loop-optimizations -cpp -fdefault-integer-8 -fmax-stack-var-size=1048576
Definitions: _MOLCAS_;_I8_;_LINUX_;_MKL_
Parallel: OFF (GA=OFF)


   -----------------------------------------------------------------------------------------------------------------------------------
  |
  |           Project: molybdenum_so_cf
  |    Submitted from: /home4/s4752295/Internship/Initial_simulations/Point_charge_model/1_electron/Madelung_charges_9_active_space/Mo
  |      Scratch area: /tmp/molybdenum_so_cf
  |   Save outputs to: /home4/s4752295/Internship/Initial_simulations/Point_charge_model/1_electron/Madelung_charges_9_active_space/Mo
  |            Molcas: /home4/s4752295/Internship/Molcas/recomp_try/OpenMolcas-master/build
  |
  | Scratch area is empty
  |
  |    MOLCAS_DRIVER = /home4/s4752295/Internship/Molcas/bin/pymolcas
  |    MOLCAS_NPROCS = 1
  |    MOLCAS_SOURCE = /home4/s4752295/Internship/Molcas/recomp_try/OpenMolcas-master
  | MOLCAS_STRUCTURE = 0
  |
   -----------------------------------------------------------------------------------------------------------------------------------

++ ---------   Input file   ---------

&SEWARD
AMFi

CLIG
$R

Basis Set
Mo.ANO-rcc.Roos.21s18p13d6f4g2h.10s9p9d6f4g2h.
Spherical d
Mo           -1.0658140267135469e-14    -3.5527134223784897e-15 0.008753588724385739
End of Basis

Xfield

414
-0.800440216,-0.30800000000000005,0.1778238     -0.625931
-0.800440216,-0.0,-0.3556478    -0.625931
-0.800440216,0.30800000000000005,0.1778238      -0.625931
-0.7990692140000001,0.0,0.0     1.892092
0.5318359380000001,-0.30800000000000005,-0.1778238      2.515516
0.5318359380000001,0.0,0.3556478        2.515516
0.5318359380000001,0.30800000000000005,-0.1778238       2.515516
0.712597656,-0.6160000000000001,0.0     0.004632
0.712597656,-0.30800000000000005,-0.5334716     0.004632
0.712597656,-0.30800000000000005,0.5334716      0.004632
0.712597656,0.30800000000000005,-0.5334716      0.004632
0.712597656,0.30800000000000005,0.5334716       0.004632
0.712597656,0.6160000000000001,0.0      0.004632
0.8258300780000001,-0.30800000000000005,0.1778238       -2.519484
0.8258300780000001,-0.0,-0.3556478      -2.519484
0.8258300780000001,0.30800000000000005,0.1778238        -2.519484
-0.5866210940000001,-0.0,-0.0   -3.142907
-0.9950195320000002,-0.6160000000000001,-0.3556478      -0.625931
-0.9950195320000002,0.0,0.7112954       -0.625931
-0.9950195320000002,0.6160000000000001,-0.3556478       -0.625931
-1.3218750000000001,-0.6160000000000001,0.0     1.892092
-1.3218750000000001,-0.30800000000000005,-0.5334716     1.892092
-1.3218750000000001,-0.30800000000000005,0.5334716      1.892092
-1.3218750000000001,0.30800000000000005,-0.5334716      1.892092
-1.3218750000000001,0.30800000000000005,0.5334716       1.892092
-1.3218750000000001,0.6160000000000001,0.0      1.892092
5.034375000000001,-0.6160000000000001,0.3556478 2.515516
5.034375000000001,-0.0,-0.7112954       2.515516
5.034375000000001,0.6160000000000001,0.3556478  2.515516
0.727734376,-0.6160000000000001,-0.3556478      -2.519484
0.727734376,0.0,0.7112954       -2.519484
0.727734376,0.6160000000000001,-0.3556478       -2.519484
-0.6464843760000001,-0.6160000000000001,-0.0    -3.142907
-0.6464843760000001,-0.30800000000000005,-0.5334716     -3.142907
-0.6464843760000001,-0.30800000000000005,0.5334716      -3.142907
-0.6464843760000001,0.30800000000000005,-0.5334716      -3.142907
-0.6464843760000001,0.30800000000000005,0.5334716       -3.142907
-0.6464843760000001,0.6160000000000001,-0.0     -3.142907
-1.9046875,-0.6160000000000001,0.7112954        -0.625931
-1.9046875,0.6160000000000001,0.7112954 -0.625931
-1.9046875,-0.924,0.1778238     -0.625931
-1.9046875,0.924,0.1778238      -0.625931
-1.9046875,-0.30800000000000005,-0.8891194000000001     -0.625931
-1.9046875,0.30800000000000005,-0.8891194000000001      -0.625931
1.2015625,-0.30800000000000005,-0.1778238       4.409069
1.2015625,0.30800000000000005,-0.1778238        4.409069
1.2015625,0.0,0.3556478 4.409069
-35.050000000000004,-0.0,-0.0   -5.030367
-35.050000000000004,0.0,0.0     5.039632
2.703515624,-0.6160000000000001,-0.7112954      2.515516
2.703515624,0.6160000000000001,-0.7112954       2.515516
2.703515624,-0.924,-0.1778238   2.515516
2.703515624,0.924,-0.1778238    2.515516
2.703515624,-0.30800000000000005,0.8891194000000001     2.515516
2.703515624,0.30800000000000005,0.8891194000000001      2.515516
3.8078125000000003,-0.924,-0.5334716    0.004632
3.8078125000000003,-0.924,0.5334716     0.004632
3.8078125000000003,0.924,-0.5334716     0.004632
3.8078125000000003,0.924,0.5334716      0.004632
3.8078125000000003,-0.0,-1.0669432      0.004632
3.8078125000000003,0.0,1.0669432        0.004632
9.615625000000001,-0.6160000000000001,0.7112954 -2.519484
9.615625000000001,0.6160000000000001,0.7112954  -2.519484
9.615625000000001,-0.924,0.1778238      -2.519484
9.615625000000001,0.924,0.1778238       -2.519484
9.615625000000001,-0.30800000000000005,-0.8891194000000001      -2.519484
9.615625000000001,0.30800000000000005,-0.8891194000000001       -2.519484
-29.175,-0.924,-0.5334716       1.892092
-29.175,-0.924,0.5334716        1.892092
-29.175,0.924,-0.5334716        1.892092
-29.175,0.924,0.5334716 1.892092
-29.175,-0.0,-1.0669432 1.892092
-29.175,0.0,1.0669432   1.892092
-23.55,-0.6160000000000001,0.3556478    4.409069
-23.55,-0.0,-0.7112954  4.409069
-23.55,0.6160000000000001,0.3556478     4.409069
-17.8,-0.6160000000000001,-0.0  -5.030367
-17.8,-0.30800000000000005,-0.5334716   -5.030367
-17.8,-0.30800000000000005,0.5334716    -5.030367
-17.8,0.30800000000000005,-0.5334716    -5.030367
-17.8,-0.6160000000000001,0.0   5.039632
-17.8,0.6160000000000001,-0.0   -5.030367
-17.8,0.30800000000000005,0.5334716     -5.030367
-17.8,-0.30800000000000005,-0.5334716   5.039632
-17.8,-0.30800000000000005,0.5334716    5.039632
-17.8,0.30800000000000005,-0.5334716    5.039632
-17.8,0.6160000000000001,0.0    5.039632
-17.8,0.30800000000000005,0.5334716     5.039632
-9.325000000000001,-0.30800000000000005,-0.1778238      -5.660931
-9.325000000000001,0.0,0.3556478        -5.660931
-9.325000000000001,0.30800000000000005,-0.1778238       -5.660931
0.1765625,-1.2319998,0.0        0.004632
0.1765625,-0.6160000000000001,-1.0669432        0.004632
0.1765625,-0.6160000000000001,1.0669432 0.004632
0.1765625,0.6160000000000001,-1.0669432 0.004632
0.1765625,1.2319998,0.0 0.004632
0.1765625,0.6160000000000001,1.0669432  0.004632
13.5875,-0.924,0.5334716        -3.142907
13.5875,-0.924,-0.5334716       -3.142907
13.5875,0.924,-0.5334716        -3.142907
13.5875,0.924,0.5334716 -3.142907
13.5875,-0.0,-1.0669432 -3.142907
13.5875,0.0,1.0669432   -3.142907
17.275000000000002,-1.2319998,-0.3556478        -0.625931
17.275000000000002,-0.924,-0.8891194000000001   -0.625931
17.275000000000002,-0.30800000000000005,1.2447670000000002      -0.625931
17.275000000000002,0.924,-0.8891194000000001    -0.625931
17.275000000000002,1.2319998,-0.3556478 -0.625931
17.275000000000002,0.30800000000000005,1.2447670000000002       -0.625931
0.23945312400000002,-1.2319998,0.0      1.892092
0.23945312400000002,-0.6160000000000001,-1.0669432      1.892092
0.23945312400000002,-0.6160000000000001,1.0669432       1.892092
0.23945312400000002,0.6160000000000001,-1.0669432       1.892092
0.23945312400000002,1.2319998,0.0       1.892092
0.23945312400000002,0.6160000000000001,1.0669432        1.892092
6.768750000000001,-0.6160000000000001,-0.7112954        4.409069
6.768750000000001,0.6160000000000001,-0.7112954 4.409069
6.768750000000001,-0.924,-0.1778238     4.409069
6.768750000000001,0.924,-0.1778238      4.409069
6.768750000000001,-0.30800000000000005,0.8891194000000001       4.409069
6.768750000000001,0.30800000000000005,0.8891194000000001        4.409069
32.48125,-0.6160000000000001,0.3556478  -5.660931
32.48125,-0.0,-0.7112954        -5.660931
32.48125,0.6160000000000001,0.3556478   -5.660931
0.06875,-1.2319998,0.3556478    2.515516
0.06875,-0.30800000000000005,-1.2447670000000002        2.515516
0.06875,-0.924,0.8891194000000001       2.515516
0.06875,0.30800000000000005,-1.2447670000000002 2.515516
0.06875,1.2319998,0.3556478     2.515516
0.06875,0.924,0.8891194000000001        2.515516
-18.837500000000002,-1.2319998,-0.3556478       -2.519484
-18.837500000000002,-0.924,-0.8891194000000001  -2.519484
-18.837500000000002,-0.30800000000000005,1.2447670000000002     -2.519484
-18.837500000000002,0.924,-0.8891194000000001   -2.519484
-18.837500000000002,0.30800000000000005,1.2447670000000002      -2.519484
-18.837500000000002,1.2319998,-0.3556478        -2.519484
-4.4140625,-1.2319998,-0.0      -3.142907
-4.4140625,-0.6160000000000001,-1.0669432       -3.142907
-4.4140625,-0.6160000000000001,1.0669432        -3.142907
-4.4140625,0.6160000000000001,-1.0669432        -3.142907
-4.4140625,0.6160000000000001,1.0669432 -3.142907
-4.4140625,1.2319998,-0.0       -3.142907
121.30000000000001,0.0,0.0      6.927092
64.65,-1.2319998,0.7112954      -0.625931
64.65,1.2319998,0.7112954       -0.625931
64.65,-0.0,-1.4225910000000002  -0.625931
-1.084375,-0.924,0.5334716      -5.030367
-1.084375,-0.924,-0.5334716     -5.030367
-1.084375,-0.924,0.5334716      5.039632
-1.084375,-0.924,-0.5334716     5.039632
-1.084375,0.924,-0.5334716      -5.030367
-1.084375,0.924,0.5334716       -5.030367
-1.084375,0.924,-0.5334716      5.039632
-1.084375,0.924,0.5334716       5.039632
-1.084375,-0.0,-1.0669432       -5.030367
-1.084375,0.0,1.0669432 -5.030367
-1.084375,-0.0,-1.0669432       5.039632
-1.084375,0.0,1.0669432 5.039632
18.3625,-0.6160000000000001,-0.7112954  -5.660931
18.3625,0.6160000000000001,-0.7112954   -5.660931
18.3625,-0.924,-0.1778238       -5.660931
18.3625,0.924,-0.1778238        -5.660931
18.3625,-0.30800000000000005,0.8891194000000001 -5.660931
18.3625,0.30800000000000005,0.8891194000000001  -5.660931
60.1,-1.2319998,-0.7112954      2.515516
60.1,1.2319998,-0.7112954       2.515516
60.1,0.0,1.4225910000000002     2.515516
-103.45,-1.2319998,0.7112954    -2.519484
-103.45,1.2319998,0.7112954     -2.519484
-103.45,-0.0,-1.4225910000000002        -2.519484
10.7125,-0.6160000000000001,0.0 6.927092
10.7125,-0.30800000000000005,-0.5334716 6.927092
10.7125,-0.30800000000000005,0.5334716  6.927092
10.7125,0.30800000000000005,-0.5334716  6.927092
10.7125,0.30800000000000005,0.5334716   6.927092
10.7125,0.6160000000000001,0.0  6.927092
-11.05,-0.30800000000000005,0.1778238   7.550516
-11.05,0.0,-0.3556478   7.550516
-11.05,0.30800000000000005,0.1778238    7.550516
3.10625,-0.30800000000000005,-0.1778238 -7.554483
3.10625,0.30800000000000005,-0.1778238  -7.554483
3.10625,-0.0,0.3556478  -7.554483
-24.975,-1.5399998000000001,0.1778238   -0.625931
-24.975,-0.924,1.2447670000000002       -0.625931
-24.975,-0.6160000000000001,-1.4225910000000002 -0.625931
-24.975,0.6160000000000001,-1.4225910000000002  -0.625931
-24.975,1.5399998000000001,0.1778238    -0.625931
-24.975,0.924,1.2447670000000002        -0.625931
-13.4875,-1.2319998,0.3556478   4.409069
-13.4875,-0.924,0.8891194000000001      4.409069
-13.4875,-0.30800000000000005,-1.2447670000000002       4.409069
-13.4875,0.30800000000000005,-1.2447670000000002        4.409069
-13.4875,0.924,0.8891194000000001       4.409069
-13.4875,1.2319998,0.3556478    4.409069
9.83125,-1.2319998,-0.0 -5.030367
9.83125,-0.6160000000000001,-1.0669432  -5.030367
9.83125,-0.6160000000000001,1.0669432   -5.030367
9.83125,-1.2319998,0.0  5.039632
9.83125,-0.6160000000000001,-1.0669432  5.039632
9.83125,0.6160000000000001,-1.0669432   -5.030367
9.83125,0.6160000000000001,1.0669432    -5.030367
9.83125,1.2319998,-0.0  -5.030367
9.83125,-0.6160000000000001,1.0669432   5.039632
9.83125,0.6160000000000001,-1.0669432   5.039632
9.83125,1.2319998,0.0   5.039632
9.83125,0.6160000000000001,1.0669432    5.039632
36.15,-1.5399998000000001,-0.1778238    2.515516
36.15,-0.924,-1.2447670000000002        2.515516
36.15,-0.6160000000000001,1.4225910000000002    2.515516
36.15,0.924,-1.2447670000000002 2.515516
36.15,1.5399998000000001,-0.1778238     2.515516
36.15,0.6160000000000001,1.4225910000000002     2.515516
-4.66875,-1.5399998000000001,-0.5334716 0.004632
-4.66875,-1.5399998000000001,0.5334716  0.004632
-4.66875,-1.2319998,-1.0669432  0.004632
-4.66875,-1.2319998,1.0669432   0.004632
-4.66875,-0.30800000000000005,-1.6004148000000002       0.004632
-4.66875,0.30800000000000005,-1.6004148000000002        0.004632
-4.66875,-0.30800000000000005,1.6004148000000002        0.004632
-4.66875,1.2319998,-1.0669432   0.004632
-4.66875,0.30800000000000005,1.6004148000000002 0.004632
-4.66875,1.5399998000000001,-0.5334716  0.004632
-4.66875,1.5399998000000001,0.5334716   0.004632
-4.66875,1.2319998,1.0669432    0.004632
-28.625,-1.5399998000000001,0.1778238   -2.519484
-28.625,-0.924,1.2447670000000002       -2.519484
-28.625,-0.6160000000000001,-1.4225910000000002 -2.519484
-28.625,0.6160000000000001,-1.4225910000000002  -2.519484
-28.625,1.5399998000000001,0.1778238    -2.519484
-28.625,0.924,1.2447670000000002        -2.519484
606.4,-0.0,-0.0 -8.177907
-23.200000000000003,-0.6160000000000001,-0.3556478      7.550516
-23.200000000000003,0.0,0.7112954       7.550516
-23.200000000000003,0.6160000000000001,-0.3556478       7.550516
-120.7,-0.6160000000000001,0.3556478    -7.554483
-120.7,-0.0,-0.7112954  -7.554483
-120.7,0.6160000000000001,0.3556478     -7.554483
9.78125,-1.5399998000000001,0.5334716   1.892092
9.78125,-1.5399998000000001,-0.5334716  1.892092
9.78125,-1.2319998,-1.0669432   1.892092
9.78125,-1.2319998,1.0669432    1.892092
9.78125,-0.30800000000000005,-1.6004148000000002        1.892092
9.78125,0.30800000000000005,-1.6004148000000002 1.892092
9.78125,-0.30800000000000005,1.6004148000000002 1.892092
9.78125,1.2319998,-1.0669432    1.892092
9.78125,0.30800000000000005,1.6004148000000002  1.892092
9.78125,1.5399998000000001,-0.5334716   1.892092
9.78125,1.5399998000000001,0.5334716    1.892092
9.78125,1.2319998,1.0669432     1.892092
-101.0,-1.2319998,-0.7112954    4.409069
-101.0,1.2319998,-0.7112954     4.409069
-101.0,0.0,1.4225910000000002   4.409069
5.1640625,-1.2319998,0.3556478  -5.660931
5.1640625,-0.30800000000000005,-1.2447670000000002      -5.660931
5.1640625,-0.924,0.8891194000000001     -5.660931
5.1640625,0.30800000000000005,-1.2447670000000002       -5.660931
5.1640625,0.924,0.8891194000000001      -5.660931
5.1640625,1.2319998,0.3556478   -5.660931
-11.637500000000001,-1.2319998,-1.0669432       -3.142907
-11.637500000000001,-1.5399998000000001,0.5334716       -3.142907
-11.637500000000001,-1.5399998000000001,-0.5334716      -3.142907
-11.637500000000001,-1.2319998,1.0669432        -3.142907
-11.637500000000001,-0.30800000000000005,-1.6004148000000002    -3.142907
-11.637500000000001,0.30800000000000005,-1.6004148000000002     -3.142907
-11.637500000000001,-0.30800000000000005,1.6004148000000002     -3.142907
-11.637500000000001,1.5399998000000001,-0.5334716       -3.142907
-11.637500000000001,1.2319998,-1.0669432        -3.142907
-11.637500000000001,0.30800000000000005,1.6004148000000002      -3.142907
-11.637500000000001,1.5399998000000001,0.5334716        -3.142907
-11.637500000000001,1.2319998,1.0669432 -3.142907
13.08125,-0.924,-0.5334716      6.927092
13.08125,-0.924,0.5334716       6.927092
13.08125,0.924,-0.5334716       6.927092
13.08125,0.924,0.5334716        6.927092
13.08125,-0.0,-1.0669432        6.927092
13.08125,0.0,1.0669432  6.927092
-16.650000000000002,-0.6160000000000001,-0.0    -8.177907
-16.650000000000002,-0.30800000000000005,0.5334716      -8.177907
-16.650000000000002,-0.30800000000000005,-0.5334716     -8.177907
-16.650000000000002,0.30800000000000005,-0.5334716      -8.177907
-16.650000000000002,0.6160000000000001,-0.0     -8.177907
-16.650000000000002,0.30800000000000005,0.5334716       -8.177907
-18.181250000000002,-0.6160000000000001,0.7112954       7.550516
-18.181250000000002,0.6160000000000001,0.7112954        7.550516
-18.181250000000002,-0.924,0.1778238    7.550516
-18.181250000000002,0.924,0.1778238     7.550516
-18.181250000000002,-0.30800000000000005,-0.8891194000000001    7.550516
-18.181250000000002,0.30800000000000005,-0.8891194000000001     7.550516
-9.137500000000001,-0.6160000000000001,-0.7112954       -7.554483
-9.137500000000001,0.6160000000000001,-0.7112954        -7.554483
-9.137500000000001,-0.924,-0.1778238    -7.554483
-9.137500000000001,0.924,-0.1778238     -7.554483
-9.137500000000001,-0.30800000000000005,0.8891194000000001      -7.554483
-9.137500000000001,0.30800000000000005,0.8891194000000001       -7.554483
-100.05000000000001,0.0,1.7782386       -0.625931
-100.05000000000001,-1.5399998000000001,-0.8891194000000001     -0.625931
-100.05000000000001,1.5399998000000001,-0.8891194000000001      -0.625931
-53.95,-1.5399998000000001,-0.1778238   4.409069
-53.95,-0.924,-1.2447670000000002       4.409069
-53.95,-0.6160000000000001,1.4225910000000002   4.409069
-53.95,0.924,-1.2447670000000002        4.409069
-53.95,1.5399998000000001,-0.1778238    4.409069
-53.95,0.6160000000000001,1.4225910000000002    4.409069
62.075,-1.2319998,-0.7112954    -5.660931
62.075,1.2319998,-0.7112954     -5.660931
62.075,0.0,1.4225910000000002   -5.660931
117.4,-0.0,-1.7782386   2.515516
117.4,-1.5399998000000001,0.8891194000000001    2.515516
117.4,1.5399998000000001,0.8891194000000001     2.515516
-18.775000000000002,-1.8479998,-0.0     0.004632
-18.775000000000002,0.924,-1.6004148000000002   0.004632
-18.775000000000002,-0.924,1.6004148000000002   0.004632
-18.775000000000002,1.8479998,-0.0      0.004632
-18.775000000000002,-0.924,-1.6004148000000002  0.004632
-18.775000000000002,0.924,1.6004148000000002    0.004632
-77.15,0.0,1.7782386    -2.519484
-77.15,-1.5399998000000001,-0.8891194000000001  -2.519484
-77.15,1.5399998000000001,-0.8891194000000001   -2.519484
45.6,-1.2319998,0.0     6.927092
45.6,-0.6160000000000001,-1.0669432     6.927092
45.6,-0.6160000000000001,1.0669432      6.927092
45.6,0.6160000000000001,-1.0669432      6.927092
45.6,1.2319998,0.0      6.927092
45.6,0.6160000000000001,1.0669432       6.927092
42.375,-1.8479998,-0.3556478    -0.625931
42.375,-0.6160000000000001,1.7782386    -0.625931
42.375,-1.2319998,-1.4225910000000002   -0.625931
42.375,1.2319998,-1.4225910000000002    -0.625931
42.375,0.6160000000000001,1.7782386     -0.625931
42.375,1.8479998,-0.3556478     -0.625931
22.387500000000003,-1.8479998,0.0       1.892092
22.387500000000003,-0.924,-1.6004148000000002   1.892092
22.387500000000003,-0.924,1.6004148000000002    1.892092
22.387500000000003,0.924,-1.6004148000000002    1.892092
22.387500000000003,1.8479998,0.0        1.892092
22.387500000000003,0.924,1.6004148000000002     1.892092
-0.8640625000000001,-1.5399998000000001,0.5334716       -5.030367
-0.8640625000000001,-1.5399998000000001,-0.5334716      -5.030367
-0.8640625000000001,-1.2319998,-1.0669432       -5.030367
-0.8640625000000001,-1.2319998,1.0669432        -5.030367
-0.8640625000000001,-1.5399998000000001,0.5334716       5.039632
-0.8640625000000001,0.30800000000000005,-1.6004148000000002     -5.030367
-0.8640625000000001,-0.30800000000000005,-1.6004148000000002    -5.030367
-0.8640625000000001,-1.5399998000000001,-0.5334716      5.039632
-0.8640625000000001,-1.2319998,-1.0669432       5.039632
-0.8640625000000001,-0.30800000000000005,1.6004148000000002     -5.030367
-0.8640625000000001,0.30800000000000005,-1.6004148000000002     5.039632
-0.8640625000000001,-1.2319998,1.0669432        5.039632
-0.8640625000000001,-0.30800000000000005,-1.6004148000000002    5.039632
-0.8640625000000001,1.2319998,-1.0669432        -5.030367
-0.8640625000000001,0.30800000000000005,1.6004148000000002      -5.030367
-0.8640625000000001,1.5399998000000001,-0.5334716       -5.030367
-0.8640625000000001,1.5399998000000001,0.5334716        -5.030367
-0.8640625000000001,1.2319998,1.0669432 -5.030367
-0.8640625000000001,-0.30800000000000005,1.6004148000000002     5.039632
-0.8640625000000001,1.2319998,-1.0669432        5.039632
-0.8640625000000001,1.5399998000000001,-0.5334716       5.039632
-0.8640625000000001,0.30800000000000005,1.6004148000000002      5.039632
-0.8640625000000001,1.5399998000000001,0.5334716        5.039632
-0.8640625000000001,1.2319998,1.0669432 5.039632
-0.1375,-1.5399998000000001,-0.1778238  -5.660931
-0.1375,-0.924,-1.2447670000000002      -5.660931
-0.1375,-0.6160000000000001,1.4225910000000002  -5.660931
-0.1375,0.924,-1.2447670000000002       -5.660931
-0.1375,0.6160000000000001,1.4225910000000002   -5.660931
-0.1375,1.5399998000000001,-0.1778238   -5.660931
23.200000000000003,-0.30800000000000005,0.1778238       9.444068
23.200000000000003,0.0,-0.3556478       9.444068
23.200000000000003,0.30800000000000005,0.1778238        9.444068
10.262500000000001,-1.8479998,0.3556478 2.515516
10.262500000000001,-0.6160000000000001,-1.7782386       2.515516
10.262500000000001,0.6160000000000001,-1.7782386        2.515516
10.262500000000001,-1.2319998,1.4225910000000002        2.515516
10.262500000000001,1.8479998,0.3556478  2.515516
10.262500000000001,1.2319998,1.4225910000000002 2.515516
31.375,-1.8479998,-0.3556478    -2.519484
31.375,-0.6160000000000001,1.7782386    -2.519484
31.375,-1.2319998,-1.4225910000000002   -2.519484
31.375,1.2319998,-1.4225910000000002    -2.519484
31.375,1.8479998,-0.3556478     -2.519484
31.375,0.6160000000000001,1.7782386     -2.519484
43.925000000000004,-1.8479998,-0.0      -3.142907
43.925000000000004,-0.924,-1.6004148000000002   -3.142907
43.925000000000004,-0.924,1.6004148000000002    -3.142907
43.925000000000004,0.924,-1.6004148000000002    -3.142907
43.925000000000004,1.8479998,-0.0       -3.142907
43.925000000000004,0.924,1.6004148000000002     -3.142907
1.729101562,-0.924,-0.5334716   -8.177907
1.729101562,-0.924,0.5334716    -8.177907
1.729101562,0.924,0.5334716     -8.177907
1.729101562,0.924,-0.5334716    -8.177907
1.729101562,-0.0,-1.0669432     -8.177907
1.729101562,0.0,1.0669432       -8.177907
50.375,-0.924,-0.8891194000000001       7.550516
50.375,-1.2319998,-0.3556478    7.550516
50.375,-0.30800000000000005,1.2447670000000002  7.550516
50.375,0.924,-0.8891194000000001        7.550516
50.375,0.30800000000000005,1.2447670000000002   7.550516
50.375,1.2319998,-0.3556478     7.550516
-69.60000000000001,-0.924,0.8891194000000001    -7.554483
-69.60000000000001,-1.2319998,0.3556478 -7.554483
-69.60000000000001,-0.30800000000000005,-1.2447670000000002     -7.554483
-69.60000000000001,0.30800000000000005,-1.2447670000000002      -7.554483
-69.60000000000001,1.2319998,0.3556478  -7.554483
-69.60000000000001,0.924,0.8891194000000001     -7.554483
14.253125,-1.5399998000000001,1.2447670000000002        -0.625931
14.253125,-1.8479998,0.7112954  -0.625931
14.253125,-0.30800000000000005,-1.9560626       -0.625931
14.253125,0.30800000000000005,-1.9560626        -0.625931
14.253125,1.8479998,0.7112954   -0.625931
14.253125,1.5399998000000001,1.2447670000000002 -0.625931
-96.75,-0.0,-1.7782386  4.409069
-96.75,-1.5399998000000001,0.8891194000000001   4.409069
-96.75,1.5399998000000001,0.8891194000000001    4.409069

End of input

&SCF
Occupied
9
Iterations
   50  100
End of Input

&RASSCF
LumOrb
Symmetry
1
Spin
2
Nactel
1 0 0
CIRoot
9 9 1
inactive
9
ras2
9
End of Input

>>> COPY molybdenum_so_cf.JobIph $SLURM_SUBMIT_DIR/molybdenum_so_cf.doublet.JobIph

>>> COPY $SLURM_SUBMIT_DIR/molybdenum_so_cf.doublet.JobIph ./JOB002

&RASSI
NROFJobIph
1 All
SpinOrbit
End of Input

EOF

-- ----------------------------------

--- Start Module: seward at Tue Mar 25 14:29:43 2025 ---

()()()()()()()()()()()()()()()()()()()()()()()()()()()()()()()()()()()()()()()()()()()()()()()()()()

                                              &SEWARD

                                   only a single process is used
                       available to each process: 4.1 GB of memory, 1 thread?
                                            pid: 1838263
()()()()()()()()()()()()()()()()()()()()()()()()()()()()()()()()()()()()()()()()()()()()()()()()()()

 The speed of LIGHT in this CALCULATION =   137.03599917700001     
               SEWARD will generate:
                  Multipole Moment integrals up to order  2
                  Kinetic Energy integrals
                  Nuclear Attraction integrals (point charge)
                  One-Electron Hamiltonian integrals
                  Velocity integrals
                  Relativistic Douglas-Kroll-Hess integrals:
                    - Parametrization         : EXP
                    - DKH order of Hamiltonian: 2
                    - DKH order of Properties : 0
                         - multipole moment operators
                         - electric potential operators
                         - contact operators
                  External field from   414 point(s) added to the one-electron Hamiltonian
                  Orbital angular momentum around (-0.0000 -0.0000  0.0088 )
                  Velocity quadrupole around (-0.0000 -0.0000  0.0088 )
                  Atomic mean-field integrals
                  Two-Electron Repulsion integrals

                   Integrals are discarded if absolute value <: 0.10E-13
                   Integral cutoff threshold is set to       <: 0.10E-15

++    Symmetry information:
      ---------------------

                    Character Table for C1 

                             E  
                    a        1  x, y, xy, Rz, z, xz, Ry, yz, Rx, I
--


++    Basis set information:
      ----------------------


      Basis set label: MO.ANO-RCC.ROOS.21S18P13D6F4G2H.10S9P9D6F4G2H......

      Electronic valence basis set:
      ------------------
      Associated Effective Charge  42.000000 au
      Associated Actual Charge     42.000000 au
      Nuclear Model: Point charge

      Shell  nPrim  nBasis  Cartesian Spherical Contaminant
         s      21      10        X                  
         p      18       9        X                  
         d      13       9                 X         
         f       6       6                 X         
         g       4       4                 X         
         h       2       2                 X         
--


++    Molecular structure info:
      -------------------------

                    ************************************************ 
                    **** Cartesian Coordinates / Bohr, Angstrom **** 
                    ************************************************ 

     Center  Label                x              y              z                     x              y              z
        1      MO              -0.000000      -0.000000       0.008754             -0.000000      -0.000000       0.004632
--


++    Operator info:
      --------------


  Net charge from external field:   -39.268449999999902     
--


            Nuclear Potential Energy              0.00000000 au

                    Nuclear-External Field Potential Energy   -1921.26187119 au
                    External Field Potential Energy            8028.18450693 au 


            Total Nuclear Potential Energy          -1921.26187119 au


      Basis set specifications :
      Symmetry species         a  
      Basis functions          182

 Sorry, Molden does not know how to handle
 functions with angular momentum larger than g
Note: The following floating-point exceptions are signalling: IEEE_UNDERFLOW_FLAG IEEE_DENORMAL
--- Stop Module: seward at Tue Mar 25 14:29:55 2025 /rc=_RC_ALL_IS_WELL_ ---
*** files: molybdenum_so_cf.GssOrb xmldump
    saved to directory /home4/s4752295/Internship/Initial_simulations/Point_charge_model/1_electron/Madelung_charges_9_active_space/Mo
--- Module seward spent 11 seconds ---

*** symbolic link created: INPORB -> molybdenum_so_cf.GssOrb
--- Start Module: scf at Tue Mar 25 14:29:55 2025 ---

()()()()()()()()()()()()()()()()()()()()()()()()()()()()()()()()()()()()()()()()()()()()()()()()()()

                                                &SCF

                                   only a single process is used
                       available to each process: 4.1 GB of memory, 1 thread?
                                            pid: 1838273
()()()()()()()()()()()()()()()()()()()()()()()()()()()()()()()()()()()()()()()()()()()()()()()()()()

++    Input section:
      --------------

      Header of the integral files:
      
       Integrals generated by seward 4.2.0  , Tue Mar 25 14:29:43 2025


      Cartesian coordinates in Angstrom:
      -----------------------------------------------------
      No.  Label        X            Y            Z        
      -----------------------------------------------------
       1   MO        -0.00000000  -0.00000000   0.00463220
      -----------------------------------------------------
      Nuclear repulsion energy =-1921.26187119
--

++    Orbital specifications:
      -----------------------

      Symmetry species               1
                                     a
      Frozen orbitals                0
      Occupied orbitals              9
      Secondary orbitals           173
      Deleted orbitals               0
      Total number of orbitals     182
      Number of basis functions    182
--

      Molecular charge                          24.000

++    Optimization specifications:
      ----------------------------

      SCF Algorithm: Conventional
      Minimized density differences are used
      Number of density matrices in core                5
      Maximum number of NDDO SCF iterations            50
      Maximum number of HF SCF iterations             100
      Threshold for SCF energy change            0.10E-08
      Threshold for density matrix               0.10E-03
      Threshold for Fock matrix                  0.15E-03
      Threshold for linear dependence            0.10E-08
      Threshold at which DIIS is turned on       0.15E+00
      Threshold at which QNR/C2DIIS is turned on 0.75E-01
      Threshold for Norm(delta) (QNR/C2DIIS)     0.20E-04
      DIIS extrapolation of the SCF procedure
      All orbitals punched on: SCFORB
--

      Detected guessorb starting orbitals                                             


++ Convergence information
                                   SCF        iterations: Energy and convergence statistics

Iter     Tot. SCF        One-elec.       Two-elec.     Energy      Max Dij or  Max Fij      DNorm      TNorm      AccCon     Time
         Energy          Energy          Energy        Change      Delta Norm                                                in Sec.

 The total and one-electron energies are shifted by a value of      4000. a.u.

   1  -775.430433362   524.721149723   621.110288109   0.00E+00    0.69E+00*   0.44E+01*    0.60E+01   0.35E+03   None         1.
   2  -796.251258182   556.105845301   568.904767711  -0.21E+02*   0.46E-01*   0.79E+00*    0.43E+01   0.33E+03   EDIIS        1.
   3  -794.722973140   466.644391073   659.894506981   0.15E+01*   0.11E+00*   0.77E-01*    0.28E+01   0.36E+03   EDIIS        1.
   4  -796.519155750   554.255350872   570.487364573  -0.18E+01*   0.80E+00*   0.52E-01*    0.33E+00   0.33E+03   EDIIS        1.
   5  -796.198641693   507.731587202   617.331642299   0.32E+00*   0.37E+00*   0.23E-01*    0.16E+01   0.34E+03   EDIIS        1.
   6  -796.575375083   539.606415918   585.080080194  -0.38E+00*   0.23E+00*   0.22E-01*    0.15E-01   0.33E+03   EDIIS        1.
   7  -796.568528429   546.595620344   578.097722422   0.68E-02*   0.62E-01*   0.92E-02*    0.10E-01   0.33E+03   EDIIS        1.
   8  -796.575960974   543.263929688   581.421980532  -0.74E-02*   0.16E-01*   0.50E-02*    0.83E-03   0.33E+03   c2DIIS       1.
   9  -796.576768544   541.122960768   583.562141883  -0.81E-03*   0.37E-01*   0.52E-02*    0.16E-03   0.33E+03   QNRc2DIIS    1.
  10  -796.575838725   543.372903541   581.313128928   0.93E-03*   0.28E-01*   0.17E-01*    0.22E-03   0.33E+03   QNRc2DIIS    1.
  11  -796.576853889   541.676668767   583.008348539  -0.10E-02*   0.57E-03*   0.46E-03*    0.13E-04   0.33E+03   QNRc2DIIS    1.
  12  -796.576854547   541.643235604   583.041781044  -0.66E-06*   0.23E-03*   0.13E-03     0.61E-03   0.33E+03   QNRc2DIIS    1.
  13  -796.576854599   541.629946069   583.055070526  -0.52E-07*   0.14E-04    0.88E-05     0.47E-05   0.33E+03   QNRc2DIIS    1.
  14  -796.576854599   541.630783605   583.054232990  -0.26E-09    0.57E-06    0.36E-06     0.13E-01   0.33E+03   QNRc2DIIS    1.

       Convergence after 14 Macro Iterations
--

 *****************************************************************************************************************************
 *                                                                                                                           *
 *                                             SCF/KS-DFT Program, Final results                                             *
 *                                                                                                                           *
 *                                                                                                                           *
 *                                                                                                                           *
 *                                                       Final Results                                                       *
 *                                                                                                                           *
 *****************************************************************************************************************************

::    Total SCF energy                              -4796.5768545991
      One-electron energy                           -3458.3692163948
      Two-electron energy                             583.0542329900
      Nuclear repulsion energy                      -1921.2618711943
      Kinetic energy (interpolated)                  4000.9271796154
      Virial theorem                                    1.1988663225
      Total spin, S(S+1)                                0.0000000000
      Total spin, S                                     0.0000000000
      Max non-diagonal density matrix element           0.0000011086
      Max non-diagonal Fock matrix element              0.0000002817


      All orbitals with orbital energies smaller than  E(LUMO)+0.5 are printed

++    Molecular orbitals:
      -------------------

      Title: SCF orbitals

      Molecular orbitals for symmetry species 1: a  

          Orbital            1         2         3         4         5         6         7         8         9        10    
          Energy         -737.4861 -104.2316  -93.0086  -93.0086  -92.7571  -11.0880   -6.1446   -6.1306   -2.2750   -2.1315
          Occ. No.          2.0000    2.0000    2.0000    2.0000    2.0000    2.0000    2.0000    2.0000    2.0000    0.0000

        1 MO     1s         1.0000    0.0002   -0.0000    0.0000   -0.0002    0.0000   -0.0000   -0.0000   -0.0000    0.0001
        2 MO     2s        -0.0002    0.9973   -0.0000    0.0003   -0.0708    0.0101    0.0000    0.0000    0.0042   -0.0103
        3 MO     3s         0.0000   -0.0146    0.0000   -0.0000    0.0061    0.8254    0.0019    0.0000    0.1842   -0.4468
        4 MO     4s        -0.0000    0.0036   -0.0000    0.0000   -0.0014   -0.0793   -0.0003    0.0000   -0.0215    0.0538
        5 MO     5s         0.0000   -0.0008    0.0000   -0.0000    0.0003    0.0168    0.0001   -0.0000    0.1164    0.0336
        6 MO     6s        -0.0000    0.0010   -0.0000    0.0000   -0.0004   -0.0199   -0.0001   -0.0000    0.2939    0.1384
        7 MO     7s         0.0000   -0.0031    0.0000   -0.0000    0.0012    0.0532    0.0003   -0.0000    0.1493    0.0113
        8 MO     8s        -0.0000    0.0029   -0.0000    0.0000   -0.0011   -0.0391   -0.0003   -0.0000    0.1108    0.0886
        9 MO     9s         0.0000   -0.0031    0.0000   -0.0000    0.0011    0.0326    0.0003   -0.0000    0.0869   -0.0058
       10 MO    10s        -0.0000    0.0038   -0.0000    0.0000   -0.0011   -0.0184   -0.0001   -0.0000    0.0008    0.0345
       11 MO     2px        0.0001    0.0710    0.0000   -0.0102    0.9972    0.0039   -0.0001    0.0000   -0.0036    0.0088
       12 MO     3px       -0.0001    0.0046   -0.0000    0.0002   -0.0163    0.5387   -0.0039   -0.0000   -0.2415    0.5883
       13 MO     4px        0.0000   -0.0011    0.0000   -0.0000    0.0037   -0.0525    0.0002   -0.0000    0.0266   -0.0735
       14 MO     5px       -0.0000    0.0004   -0.0000    0.0000   -0.0013    0.0159   -0.0001   -0.0000    0.1453    0.0871
       15 MO     6px        0.0000   -0.0010    0.0000   -0.0000    0.0033   -0.0349    0.0001   -0.0000    0.2164    0.0261
       16 MO     7px       -0.0000    0.0009   -0.0000    0.0000   -0.0030    0.0244   -0.0001   -0.0000    0.2983    0.1736
       17 MO     8px        0.0000   -0.0011    0.0000   -0.0000    0.0037   -0.0190    0.0001    0.0000    0.2897    0.0684
       18 MO     9px       -0.0000    0.0010   -0.0000    0.0000   -0.0035    0.0078   -0.0000   -0.0000    0.1608    0.1037
       19 MO    10px        0.0001   -0.0009    0.0000   -0.0000    0.0031    0.0028    0.0002   -0.0000    0.0452    0.0001
       20 MO     2py       -0.0000    0.0000    0.9998    0.0000   -0.0000   -0.0000    0.0000    0.0137    0.0000   -0.0000
       21 MO     3py        0.0000   -0.0000   -0.0160   -0.0000    0.0000   -0.0000    0.0000    0.9112   -0.0000    0.0000
       22 MO     4py       -0.0000    0.0000    0.0036    0.0000   -0.0000   -0.0000   -0.0000   -0.0968   -0.0000   -0.0000
       23 MO     5py        0.0000   -0.0000   -0.0013   -0.0000    0.0000    0.0000    0.0000    0.0310   -0.0000    0.0000
       24 MO     6py       -0.0000    0.0000    0.0032    0.0000   -0.0000   -0.0000   -0.0000   -0.0717    0.0000   -0.0000
       25 MO     7py        0.0000   -0.0000   -0.0029   -0.0000    0.0000   -0.0000    0.0000    0.0573    0.0000    0.0000
       26 MO     8py       -0.0000    0.0000    0.0037    0.0000   -0.0000   -0.0000   -0.0000   -0.0574    0.0000   -0.0000
       27 MO     9py        0.0000   -0.0000   -0.0035   -0.0000    0.0000    0.0000    0.0000    0.0422   -0.0000    0.0000
       28 MO    10py       -0.0000    0.0000    0.0033    0.0000   -0.0000   -0.0000   -0.0000   -0.0195    0.0000    0.0000
       29 MO     2pz        0.0000    0.0004   -0.0000    0.9998    0.0102    0.0000    0.0137   -0.0000   -0.0000    0.0000
       30 MO     3pz       -0.0000    0.0000    0.0000   -0.0160   -0.0002    0.0009    0.9100   -0.0000   -0.0009    0.0021
       31 MO     4pz        0.0000   -0.0000   -0.0000    0.0036    0.0000   -0.0001   -0.0969    0.0000    0.0002   -0.0004
       32 MO     5pz       -0.0000    0.0000    0.0000   -0.0013   -0.0000    0.0001    0.0310   -0.0000   -0.0001    0.0001
       33 MO     6pz        0.0000   -0.0000   -0.0000    0.0032    0.0000   -0.0001   -0.0718    0.0000    0.0001   -0.0003
       34 MO     7pz       -0.0000    0.0000    0.0000   -0.0029   -0.0000    0.0001    0.0573   -0.0000   -0.0002    0.0002
       35 MO     8pz        0.0000   -0.0000   -0.0000    0.0036    0.0000   -0.0002   -0.0574    0.0000    0.0000   -0.0002
       36 MO     9pz       -0.0000    0.0000    0.0000   -0.0035   -0.0000    0.0001    0.0420   -0.0000   -0.0001    0.0001
       37 MO    10pz        0.0000   -0.0000   -0.0000    0.0033    0.0000    0.0000   -0.0193    0.0000   -0.0000   -0.0000
       38 MO     3d2-       0.0000    0.0000    0.0051    0.0000   -0.0000   -0.0000    0.0000    0.3760    0.0000    0.0000
       39 MO     4d2-      -0.0000   -0.0000   -0.0009   -0.0000    0.0000    0.0000   -0.0000   -0.0309   -0.0000   -0.0000
       40 MO     5d2-       0.0000    0.0000    0.0010    0.0000   -0.0000    0.0000    0.0000    0.0312   -0.0000    0.0000
       41 MO     6d2-      -0.0000   -0.0000   -0.0010   -0.0000    0.0000    0.0000   -0.0000   -0.0245   -0.0000   -0.0000
       42 MO     7d2-       0.0000    0.0000    0.0010    0.0000   -0.0000   -0.0000    0.0000    0.0179    0.0000    0.0000
       43 MO     8d2-      -0.0000   -0.0000   -0.0012   -0.0000    0.0000   -0.0000   -0.0000   -0.0133    0.0000   -0.0000
       44 MO     9d2-       0.0000    0.0000    0.0011    0.0000   -0.0000   -0.0000    0.0000    0.0051    0.0000   -0.0000
       45 MO    10d2-       0.0000   -0.0000   -0.0014   -0.0000    0.0000    0.0000    0.0000    0.0026   -0.0000    0.0000
       46 MO    11d2-      -0.0000    0.0000    0.0006    0.0000   -0.0000   -0.0000   -0.0000   -0.0022    0.0000   -0.0000
       47 MO     3d1-       0.0000   -0.0000    0.0000    0.0000   -0.0000   -0.0000   -0.0000   -0.0078    0.0000    0.0000
       48 MO     4d1-       0.0000    0.0000   -0.0000   -0.0000    0.0000   -0.0000    0.0000    0.0027   -0.0000   -0.0000
       49 MO     5d1-       0.0000   -0.0000    0.0000    0.0000   -0.0000    0.0000   -0.0000   -0.0027    0.0000    0.0000
       50 MO     6d1-      -0.0000    0.0000   -0.0000   -0.0000    0.0000    0.0000    0.0000    0.0020   -0.0000    0.0000
       51 MO     7d1-       0.0000   -0.0000    0.0000    0.0000   -0.0000   -0.0000   -0.0000   -0.0012    0.0000   -0.0000
       52 MO     8d1-      -0.0000    0.0000   -0.0000   -0.0000    0.0000   -0.0000    0.0000    0.0003   -0.0000   -0.0000
       53 MO     9d1-       0.0000   -0.0000    0.0000    0.0000   -0.0000   -0.0000    0.0000    0.0006    0.0000    0.0000
       54 MO    10d1-      -0.0000    0.0000   -0.0000   -0.0000    0.0000    0.0000   -0.0000   -0.0017   -0.0000   -0.0000
       55 MO    11d1-       0.0000   -0.0000    0.0000    0.0000   -0.0000    0.0000   -0.0000   -0.0004    0.0000    0.0000
       56 MO     3d0       -0.0000    0.0005   -0.0000    0.0001   -0.0035   -0.0498    0.0095    0.0000    0.1080   -0.2607
       57 MO     4d0        0.0000   -0.0001    0.0000   -0.0000    0.0007    0.0046   -0.0024    0.0000   -0.0211    0.0177
       58 MO     5d0       -0.0000    0.0001   -0.0000    0.0000   -0.0008   -0.0045    0.0024   -0.0000   -0.0405   -0.0439
       59 MO     6d0        0.0000   -0.0001    0.0000   -0.0000    0.0007    0.0035   -0.0018    0.0000   -0.1405   -0.0359
       60 MO     7d0       -0.0000    0.0001   -0.0000    0.0000   -0.0007   -0.0019    0.0011    0.0000   -0.2009   -0.1002
       61 MO     8d0        0.0000   -0.0001    0.0000   -0.0000    0.0009    0.0003   -0.0004   -0.0000   -0.1590   -0.0510
       62 MO     9d0        0.0000    0.0001   -0.0000    0.0000   -0.0009    0.0017   -0.0004    0.0000   -0.0644   -0.0353
       63 MO    10d0       -0.0000   -0.0001    0.0000   -0.0000    0.0011   -0.0046    0.0013   -0.0000   -0.0040    0.0017
       64 MO    11d0        0.0000   -0.0000   -0.0000   -0.0000   -0.0006    0.0010    0.0003    0.0000   -0.0002    0.0008
       65 MO     3d1+       0.0000   -0.0000   -0.0000    0.0051    0.0001   -0.0004    0.3786   -0.0000   -0.0025    0.0061
       66 MO     4d1+       0.0000    0.0000    0.0000   -0.0009   -0.0000   -0.0001   -0.0312    0.0000    0.0003   -0.0006
       67 MO     5d1+      -0.0000   -0.0000   -0.0000    0.0010    0.0000    0.0001    0.0315   -0.0000   -0.0003    0.0006
       68 MO     6d1+       0.0000    0.0000    0.0000   -0.0010   -0.0000   -0.0001   -0.0247    0.0000    0.0001   -0.0006
       69 MO     7d1+      -0.0000   -0.0000   -0.0000    0.0010    0.0000    0.0001    0.0180   -0.0000   -0.0005    0.0003
       70 MO     8d1+       0.0000    0.0000    0.0000   -0.0012   -0.0000   -0.0001   -0.0133    0.0000   -0.0003   -0.0006
       71 MO     9d1+      -0.0000   -0.0000   -0.0000    0.0011    0.0000    0.0001    0.0050   -0.0000   -0.0006    0.0000
       72 MO    10d1+       0.0000    0.0000    0.0000   -0.0014   -0.0000   -0.0001    0.0029   -0.0000   -0.0002   -0.0001
       73 MO    11d1+      -0.0000   -0.0000   -0.0000    0.0006    0.0000   -0.0001   -0.0022    0.0000    0.0000   -0.0001
       74 MO     3d2+       0.0000   -0.0009    0.0000   -0.0000    0.0061    0.0870    0.0028   -0.0000   -0.1897    0.4580
       75 MO     4d2+      -0.0000    0.0002   -0.0000    0.0000   -0.0011   -0.0082   -0.0013    0.0000    0.0366   -0.0310
       76 MO     5d2+       0.0000   -0.0002    0.0000   -0.0000    0.0013    0.0081    0.0013   -0.0000    0.0701    0.0763
       77 MO     6d2+      -0.0000    0.0002   -0.0000    0.0000   -0.0012   -0.0063   -0.0010   -0.0000    0.2435    0.0618
       78 MO     7d2+       0.0000   -0.0002    0.0000   -0.0000    0.0012    0.0035    0.0007   -0.0000    0.3480    0.1737
       79 MO     8d2+      -0.0000    0.0002   -0.0000    0.0000   -0.0016   -0.0007   -0.0002   -0.0000    0.2755    0.0883
       80 MO     9d2+      -0.0000   -0.0002    0.0000   -0.0000    0.0015   -0.0029   -0.0003    0.0000    0.1115    0.0612
       81 MO    10d2+       0.0000    0.0002   -0.0000    0.0000   -0.0019    0.0081    0.0008   -0.0000    0.0070   -0.0028
       82 MO    11d2+      -0.0000    0.0000    0.0000   -0.0000    0.0011   -0.0017    0.0001   -0.0000    0.0004   -0.0012
       83 MO     4f3-       0.0000   -0.0000   -0.0000   -0.0000    0.0000    0.0000    0.0000    0.0017    0.0000    0.0000
       84 MO     5f3-       0.0000   -0.0000   -0.0000   -0.0000   -0.0000    0.0000    0.0000    0.0022   -0.0000    0.0000
       85 MO     6f3-      -0.0000    0.0000    0.0000    0.0000    0.0000   -0.0000   -0.0000   -0.0031   -0.0000   -0.0000
       86 MO     7f3-       0.0000   -0.0000   -0.0000   -0.0000    0.0000    0.0000    0.0000    0.0043    0.0000    0.0000
       87 MO     8f3-       0.0000   -0.0000   -0.0000   -0.0000    0.0000    0.0000    0.0000    0.0037    0.0000    0.0000
       88 MO     9f3-      -0.0000    0.0000    0.0002    0.0000   -0.0000   -0.0000   -0.0000   -0.0225   -0.0000   -0.0000
       89 MO     4f2-      -0.0000   -0.0000   -0.0000   -0.0000    0.0000    0.0000   -0.0000   -0.0019    0.0000   -0.0000
       90 MO     5f2-      -0.0000   -0.0000   -0.0000   -0.0000    0.0000    0.0000   -0.0000   -0.0024    0.0000   -0.0000
       91 MO     6f2-       0.0000    0.0000    0.0000    0.0000   -0.0000   -0.0000    0.0000    0.0028   -0.0000    0.0000
       92 MO     7f2-      -0.0000   -0.0000   -0.0000   -0.0000    0.0000    0.0000   -0.0000   -0.0030    0.0000   -0.0000
       93 MO     8f2-      -0.0000   -0.0000   -0.0000   -0.0000    0.0000    0.0000   -0.0000   -0.0020    0.0000   -0.0000
       94 MO     9f2-       0.0000    0.0000    0.0001    0.0000   -0.0000   -0.0000    0.0000    0.0096   -0.0000    0.0000
       95 MO     4f1-      -0.0000    0.0000    0.0000    0.0000   -0.0000    0.0000   -0.0000   -0.0005   -0.0000   -0.0000
       96 MO     5f1-       0.0000    0.0000    0.0000    0.0000   -0.0000    0.0000   -0.0000   -0.0006    0.0000   -0.0000
       97 MO     6f1-      -0.0000   -0.0000   -0.0000   -0.0000    0.0000   -0.0000    0.0000    0.0008    0.0000    0.0000
       98 MO     7f1-      -0.0000    0.0000    0.0000    0.0000   -0.0000    0.0000   -0.0000   -0.0011   -0.0000   -0.0000
       99 MO     8f1-      -0.0000   -0.0000    0.0000    0.0000   -0.0000    0.0000   -0.0000   -0.0009   -0.0000   -0.0000
      100 MO     9f1-       0.0000   -0.0000   -0.0000   -0.0000    0.0000   -0.0000    0.0000    0.0057    0.0000    0.0000
      101 MO     4f0       -0.0000   -0.0000   -0.0000    0.0000    0.0000   -0.0006   -0.0014    0.0000   -0.0015    0.0030
      102 MO     5f0        0.0000   -0.0000   -0.0000    0.0000    0.0000   -0.0005   -0.0018    0.0000   -0.0018    0.0033
      103 MO     6f0       -0.0000   -0.0000    0.0000   -0.0000   -0.0000    0.0002    0.0024   -0.0000    0.0014   -0.0030
      104 MO     7f0        0.0000    0.0000   -0.0000    0.0000    0.0000    0.0003   -0.0031    0.0000   -0.0015    0.0022
      105 MO     8f0       -0.0000    0.0000   -0.0000    0.0000    0.0000    0.0004   -0.0026    0.0000    0.0001    0.0015
      106 MO     9f0        0.0000   -0.0000    0.0000   -0.0001   -0.0001   -0.0025    0.0153   -0.0000    0.0017   -0.0043
      107 MO     4f1+      -0.0000    0.0000   -0.0000    0.0000    0.0000    0.0006    0.0013   -0.0000   -0.0007   -0.0054
      108 MO     5f1+      -0.0000    0.0000   -0.0000    0.0000    0.0000    0.0007    0.0016   -0.0000    0.0189    0.0018
      109 MO     6f1+       0.0000   -0.0000    0.0000   -0.0000   -0.0000   -0.0005   -0.0019    0.0000    0.0363    0.0212
      110 MO     7f1+      -0.0000    0.0000   -0.0000    0.0000    0.0000    0.0000    0.0021   -0.0000    0.0770    0.0255
      111 MO     8f1+      -0.0000   -0.0000   -0.0000    0.0000    0.0000   -0.0001    0.0014    0.0000   -0.1491   -0.0654
      112 MO     9f1+       0.0000    0.0001    0.0000   -0.0000   -0.0003    0.0028   -0.0069    0.0000   -0.0250    0.0099
      113 MO     4f2+       0.0000   -0.0000    0.0000   -0.0000    0.0000   -0.0006    0.0015   -0.0000   -0.0012    0.0026
      114 MO     5f2+       0.0000   -0.0000    0.0000   -0.0000    0.0000   -0.0006    0.0020   -0.0000   -0.0015    0.0028
      115 MO     6f2+      -0.0000   -0.0000   -0.0000    0.0000   -0.0000    0.0003   -0.0028    0.0000    0.0013   -0.0026
      116 MO     7f2+       0.0000    0.0000    0.0000   -0.0000    0.0000    0.0000    0.0038   -0.0000   -0.0012    0.0020
      117 MO     8f2+      -0.0000    0.0000    0.0000   -0.0000    0.0000    0.0002    0.0032   -0.0000   -0.0000    0.0013
      118 MO     9f2+       0.0000   -0.0000   -0.0000    0.0001   -0.0000   -0.0019   -0.0193    0.0000    0.0016   -0.0041
      119 MO     4f3+       0.0000   -0.0000   -0.0000    0.0000   -0.0000   -0.0006    0.0011   -0.0000    0.0008    0.0072
      120 MO     5f3+       0.0000   -0.0000   -0.0000    0.0000   -0.0000   -0.0007    0.0014   -0.0000   -0.0246   -0.0020
      121 MO     6f3+      -0.0000    0.0000    0.0000   -0.0000    0.0000    0.0005   -0.0016    0.0000   -0.0467   -0.0277
      122 MO     7f3+       0.0000    0.0000   -0.0000    0.0000   -0.0000    0.0002    0.0017   -0.0000   -0.0995   -0.0326
      123 MO     8f3+       0.0000    0.0000   -0.0000    0.0000   -0.0001    0.0003    0.0012   -0.0000    0.1924    0.0846
      124 MO     9f3+      -0.0000   -0.0001    0.0000   -0.0000    0.0004   -0.0046   -0.0058    0.0000    0.0327   -0.0139
      125 MO     5g4-      -0.0000    0.0000    0.0000    0.0000   -0.0000    0.0000   -0.0000   -0.0010    0.0000    0.0000
      126 MO     6g4-       0.0000    0.0000   -0.0000   -0.0000    0.0000   -0.0000    0.0000    0.0005    0.0000   -0.0000
      127 MO     7g4-      -0.0000    0.0000    0.0000    0.0000   -0.0000    0.0000    0.0000    0.0006   -0.0000   -0.0000
      128 MO     8g4-      -0.0000   -0.0000   -0.0000   -0.0000    0.0000    0.0000   -0.0000   -0.0016    0.0000   -0.0000
      129 MO     5g3-      -0.0000    0.0000   -0.0000   -0.0000    0.0000    0.0000   -0.0000   -0.0028    0.0000    0.0000
      130 MO     6g3-       0.0000   -0.0000    0.0000    0.0000   -0.0000   -0.0000    0.0000    0.0035    0.0000    0.0000
      131 MO     7g3-      -0.0000    0.0000   -0.0000   -0.0000    0.0000    0.0000   -0.0000   -0.0046   -0.0000   -0.0000
      132 MO     8g3-       0.0000   -0.0000    0.0000    0.0000   -0.0000   -0.0000    0.0000    0.0056    0.0000    0.0000
      133 MO     5g2-       0.0000   -0.0000   -0.0000   -0.0000    0.0000   -0.0000    0.0000    0.0004   -0.0000    0.0000
      134 MO     6g2-       0.0000    0.0000    0.0000    0.0000   -0.0000    0.0000   -0.0000   -0.0003   -0.0000   -0.0000
      135 MO     7g2-      -0.0000   -0.0000   -0.0000   -0.0000    0.0000    0.0000   -0.0000   -0.0001   -0.0000    0.0000
      136 MO     8g2-       0.0000    0.0000    0.0000    0.0000   -0.0000   -0.0000    0.0000    0.0004    0.0000   -0.0000
      137 MO     5g1-      -0.0000    0.0000   -0.0000    0.0000    0.0000    0.0000   -0.0000   -0.0008    0.0000    0.0000
      138 MO     6g1-      -0.0000    0.0000   -0.0000   -0.0000    0.0000   -0.0000    0.0000    0.0005    0.0000    0.0000
      139 MO     7g1-       0.0000   -0.0000    0.0000    0.0000   -0.0000    0.0000   -0.0000    0.0000   -0.0000   -0.0000
      140 MO     8g1-      -0.0000    0.0000   -0.0000   -0.0000    0.0000    0.0000   -0.0000   -0.0008   -0.0000    0.0000
      141 MO     5g0        0.0000   -0.0000    0.0000   -0.0000    0.0000    0.0001   -0.0024    0.0000    0.0008   -0.0011
      142 MO     6g0       -0.0000    0.0000   -0.0000    0.0000   -0.0000    0.0001    0.0028   -0.0000    0.0006    0.0019
      143 MO     7g0        0.0000   -0.0000    0.0000   -0.0000    0.0000   -0.0004   -0.0033    0.0000    0.0039   -0.0004
      144 MO     8g0       -0.0000    0.0000   -0.0000    0.0000   -0.0000    0.0006    0.0036   -0.0000    0.0016    0.0028
      145 MO     5g1+      -0.0000    0.0000    0.0000   -0.0000    0.0000    0.0004    0.0007   -0.0000   -0.0003    0.0004
      146 MO     6g1+       0.0000   -0.0000   -0.0000    0.0000   -0.0000   -0.0008   -0.0002    0.0000    0.0005   -0.0006
      147 MO     7g1+      -0.0000    0.0000    0.0000   -0.0000    0.0000    0.0016   -0.0008    0.0000   -0.0005    0.0009
      148 MO     8g1+       0.0000   -0.0000   -0.0000    0.0000   -0.0000   -0.0025    0.0017   -0.0000    0.0007   -0.0013
      149 MO     5g2+      -0.0000    0.0000   -0.0000    0.0000   -0.0000   -0.0002   -0.0001    0.0000   -0.0012    0.0016
      150 MO     6g2+       0.0000   -0.0000    0.0000   -0.0000    0.0000    0.0000   -0.0002    0.0000   -0.0008   -0.0028
      151 MO     7g2+      -0.0000    0.0000   -0.0000    0.0000   -0.0000    0.0003    0.0008   -0.0000   -0.0058    0.0005
      152 MO     8g2+       0.0000   -0.0000    0.0000   -0.0000    0.0000   -0.0007   -0.0016    0.0000   -0.0024   -0.0040
      153 MO     5g3+      -0.0000    0.0000   -0.0000    0.0000    0.0000    0.0005   -0.0007    0.0000   -0.0003    0.0005
      154 MO     6g3+       0.0000   -0.0000    0.0000   -0.0000   -0.0000   -0.0009    0.0003   -0.0000    0.0005   -0.0006
      155 MO     7g3+      -0.0000    0.0000   -0.0000    0.0000    0.0000    0.0019    0.0005   -0.0000   -0.0007    0.0010
      156 MO     8g3+       0.0000   -0.0000    0.0000   -0.0000   -0.0000   -0.0029   -0.0013    0.0000    0.0008   -0.0016
      157 MO     5g4+       0.0000   -0.0000   -0.0000    0.0000    0.0000    0.0004    0.0013   -0.0000    0.0016   -0.0021
      158 MO     6g4+      -0.0000    0.0000    0.0000   -0.0000   -0.0000   -0.0001   -0.0018    0.0000    0.0011    0.0036
      159 MO     7g4+       0.0000   -0.0000   -0.0000    0.0000    0.0000   -0.0002    0.0026   -0.0000    0.0075   -0.0005
      160 MO     8g4+      -0.0000    0.0000    0.0000   -0.0000   -0.0000    0.0006   -0.0035    0.0000    0.0033    0.0050
      161 MO     6h5-      -0.0000   -0.0000    0.0000    0.0000   -0.0000   -0.0000    0.0000    0.0009   -0.0000   -0.0000
      162 MO     7h5-       0.0000    0.0000   -0.0000   -0.0000    0.0000    0.0000   -0.0000   -0.0009    0.0000    0.0000
      163 MO     6h4-      -0.0000   -0.0000   -0.0000   -0.0000    0.0000    0.0000   -0.0000   -0.0012   -0.0000   -0.0000
      164 MO     7h4-       0.0000    0.0000    0.0000    0.0000   -0.0000   -0.0000    0.0000    0.0012    0.0000    0.0000
      165 MO     6h3-      -0.0000   -0.0000   -0.0000   -0.0000   -0.0000    0.0000   -0.0000   -0.0004   -0.0000   -0.0000
      166 MO     7h3-       0.0000    0.0000    0.0000    0.0000    0.0000   -0.0000    0.0000    0.0004    0.0000    0.0000
      167 MO     6h2-       0.0000   -0.0000    0.0000    0.0000   -0.0000   -0.0000    0.0000    0.0003   -0.0000    0.0000
      168 MO     7h2-      -0.0000   -0.0000   -0.0000   -0.0000    0.0000   -0.0000   -0.0000   -0.0004   -0.0000   -0.0000
      169 MO     6h1-      -0.0000   -0.0000    0.0000    0.0000   -0.0000   -0.0000    0.0000    0.0001   -0.0000   -0.0000
      170 MO     7h1-       0.0000    0.0000    0.0000    0.0000    0.0000    0.0000   -0.0000   -0.0000    0.0000    0.0000
      171 MO     6h0        0.0000   -0.0000   -0.0000    0.0000   -0.0000   -0.0006    0.0005   -0.0000    0.0000    0.0002
      172 MO     7h0       -0.0000    0.0000    0.0000   -0.0000    0.0000    0.0007   -0.0006    0.0000    0.0001   -0.0000
      173 MO     6h1+       0.0000    0.0000    0.0000   -0.0000   -0.0000    0.0001   -0.0009    0.0000   -0.0001   -0.0001
      174 MO     7h1+      -0.0000   -0.0000   -0.0000    0.0000    0.0000    0.0000    0.0009   -0.0000    0.0003    0.0002
      175 MO     6h2+       0.0000    0.0000    0.0000   -0.0000    0.0000    0.0004   -0.0007    0.0000   -0.0000   -0.0001
      176 MO     7h2+       0.0000   -0.0000   -0.0000    0.0000   -0.0000   -0.0004    0.0007   -0.0000   -0.0000    0.0001
      177 MO     6h3+      -0.0000   -0.0000   -0.0000    0.0000    0.0000   -0.0001    0.0001    0.0000    0.0002    0.0001
      178 MO     7h3+       0.0000    0.0000    0.0000   -0.0000   -0.0000    0.0000   -0.0001   -0.0000   -0.0004   -0.0002
      179 MO     6h4+      -0.0000    0.0000   -0.0000    0.0000    0.0000    0.0010    0.0006   -0.0000   -0.0000   -0.0003
      180 MO     7h4+       0.0000   -0.0000    0.0000   -0.0000   -0.0000   -0.0011   -0.0006    0.0000   -0.0001    0.0001
      181 MO     6h5+       0.0000    0.0000   -0.0000    0.0000   -0.0000    0.0002    0.0007   -0.0000   -0.0002   -0.0001
      182 MO     7h5+      -0.0000   -0.0000    0.0000   -0.0000    0.0000   -0.0001   -0.0008    0.0000    0.0005    0.0002
--


++    Molecular charges:
      ------------------

      Mulliken charges per centre and basis function type
      ---------------------------------------------------

                MO    
      1s       2.0000
      2s       1.9996
      2px      1.9992
      2pz      1.9997
      2py      1.9997
      3s       1.4309
      3px      0.6976
      3pz      1.6568
      3py      1.6611
      4s       0.0135
      3d2+     0.0872
      3d1+     0.2867
      3d0      0.0285
      3d1-     0.0001
      3d2-     0.2828
      4px      0.0070
      4pz      0.0188
      4py      0.0188
      5s       0.0276
      4d2+     0.0028
      4d1+     0.0020
      4d0      0.0009
      4d1-     0.0000
      4d2-     0.0019
      5px      0.0427
      5pz      0.0019
      5py      0.0019
      6s       0.1736
      4f3+     0.0000
      4f2+     0.0000
      4f1+     0.0000
      4f0      0.0000
      4f1-     0.0000
      4f2-     0.0000
      4f3-     0.0000
      5d2+     0.0100
      5d1+     0.0020
      5d0      0.0033
      5d1-     0.0000
      5d2-     0.0020
      6px      0.0961
      6pz      0.0103
      6py      0.0103
      7s       0.0502
      5f3+     0.0012
      5f2+     0.0000
      5f1+     0.0007
      5f0      0.0000
      5f1-     0.0000
      5f2-     0.0000
      5f3-     0.0000
      6d2+     0.1186
      6d1+     0.0012
      6d0      0.0395
      6d1-     0.0000
      6d2-     0.0012
      7px      0.1792
      7pz      0.0066
      7py      0.0066
      5g4+     0.0000
      5g3+     0.0000
      5g2+     0.0000
      5g1+     0.0000
      5g0      0.0000
      5g1-     0.0000
      5g2-     0.0000
      5g3-     0.0000
      5g4-     0.0000
      6f3+     0.0044
      6f2+     0.0000
      6f1+     0.0026
      6f0      0.0000
      6f1-     0.0000
      6f2-     0.0000
      6f3-     0.0000
      6g4+     0.0000
      6g3+     0.0000
      6g2+     0.0000
      6g1+     0.0000
      6g0      0.0000
      6g1-     0.0000
      6g2-     0.0000
      6g3-     0.0000
      6g4-     0.0000
      6h5+     0.0000
      6h4+     0.0000
      6h3+     0.0000
      6h2+     0.0000
      6h1+     0.0000
      6h0      0.0000
      6h1-     0.0000
      6h2-     0.0000
      6h3-     0.0000
      6h4-     0.0000
      6h5-     0.0000
      7d2+     0.2422
      7d1+     0.0007
      7d0      0.0808
      7d1-     0.0000
      7d2-     0.0006
      7f3+     0.0198
      7f2+     0.0000
      7f1+     0.0119
      7f0      0.0000
      7f1-     0.0000
      7f2-     0.0000
      7f3-     0.0000
      7g4+     0.0001
      7g3+     0.0000
      7g2+     0.0001
      7g1+     0.0000
      7g0      0.0001
      7g1-     0.0000
      7g2-     0.0000
      7g3-     0.0000
      7g4-     0.0000
      7h5+     0.0000
      7h4+     0.0000
      7h3+     0.0000
      7h2+     0.0000
      7h1+     0.0000
      7h0      0.0000
      7h1-     0.0000
      7h2-     0.0000
      7h3-     0.0000
      7h4-     0.0000
      7h5-     0.0000
      8s       0.0276
      8px      0.1686
      8pz      0.0066
      8py      0.0066
      8d2+     0.1518
      8d1+     0.0004
      8d0      0.0506
      8d1-     0.0000
      8d2-     0.0004
      8f3+     0.0741
      8f2+     0.0000
      8f1+     0.0445
      8f0      0.0000
      8f1-     0.0000
      8f2-     0.0000
      8f3-     0.0000
      8g4+     0.0000
      8g3+     0.0000
      8g2+     0.0000
      8g1+     0.0000
      8g0      0.0000
      8g1-     0.0000
      8g2-     0.0000
      8g3-     0.0001
      8g4-     0.0000
      9s       0.0172
      9px      0.0518
      9pz      0.0036
      9py      0.0036
      9d2+     0.0249
      9d1+     0.0001
      9d0      0.0083
      9d1-     0.0000
      9d2-     0.0001
      9f3+     0.0022
      9f2+     0.0008
      9f1+     0.0014
      9f0      0.0005
      9f1-     0.0001
      9f2-     0.0002
      9f3-     0.0010
     10s       0.0007
     10px      0.0041
     10pz      0.0008
     10py      0.0008
     10d2+     0.0002
     10d1+     0.0000
     10d0      0.0001
     10d1-     0.0000
     10d2-     0.0000
     11d2+     0.0000
     11d1+     0.0000
     11d0      0.0000
     11d1-     0.0000
     11d2-     0.0000
      Total   18.0000

      N-E     24.0000

      Total electronic charge=   18.000000

      Total            charge=   24.000000
--

 Sorry, Molden does not know how to handle
 functions with angular momentum larger than g

++    Static properties:
      ------------------


      LoProp Charges per center


                   MO    
      Nuclear     42.0000
      Electronic -18.0000

      Total       24.0000
--


++    Molecular properties:
      ---------------------

      Charge (e):
                      =   24.0000
      Dipole Moment (Debye):
      Origin of the operator (Ang)=    0.0000    0.0000    0.0000
                   X= -2.6643E+01               Y= -2.5162E-13               Z=  5.3447E-01           Total=  2.6648E+01
      Center of Charge (Ang)
                     X=   -0.23111845               Y=   -0.00000000               Z=    0.00463643
      Quadrupole Moment (Debye*Ang):
      Origin of the operator (Ang)=   -0.0000   -0.0000    0.0046
                  XX= -1.2348E+02              XY= -6.0210E-14              XZ=  5.3350E-02              YY= -2.1632E+01
                  YZ= -4.6898E-16              ZZ= -2.1632E+01
      In traceless form (Debye*Ang)
                  XX= -1.0185E+02              XY= -9.0314E-14              XZ=  8.0024E-02              YY=  5.0924E+01
                  YZ= -7.0347E-16              ZZ=  5.0924E+01
--

 Sorry, Molden does not know how to handle
 functions with angular momentum larger than g
 ###############################################################################
 ###############################################################################
 ###                                                                         ###
 ###                                                                         ###
 ###    WARNING: RunFile label nBas                                          ###
 ###    was used       62 times                                              ###
 ###                                                                         ###
 ###                                                                         ###
 ###############################################################################
 ###############################################################################
Note: The following floating-point exceptions are signalling: IEEE_UNDERFLOW_FLAG IEEE_DENORMAL
--- Stop Module: scf at Tue Mar 25 14:30:12 2025 /rc=_RC_ALL_IS_WELL_ ---
*** files: molybdenum_so_cf.LprOrb molybdenum_so_cf.ScfOrb xmldump
    saved to directory /home4/s4752295/Internship/Initial_simulations/Point_charge_model/1_electron/Madelung_charges_9_active_space/Mo
--- Module scf spent 17 seconds ---

*** symbolic link created: INPORB -> molybdenum_so_cf.ScfOrb
--- Start Module: rasscf at Tue Mar 25 14:30:12 2025 ---

()()()()()()()()()()()()()()()()()()()()()()()()()()()()()()()()()()()()()()()()()()()()()()()()()()

                                              &RASSCF

                                   only a single process is used
                       available to each process: 4.1 GB of memory, 1 thread?
                                            pid: 1838300
()()()()()()()()()()()()()()()()()()()()()()()()()()()()()()()()()()()()()()()()()()()()()()()()()()


      Header of the ONEINT file:
      --------------------------
      
      Integrals generated by seward 4.2.0  , Tue Mar 25 14:29:43 2025


      OrdInt status: non-squared


      Cartesian coordinates in Angstrom:
      -----------------------------------------------------
      No.  Label        X            Y            Z        
      -----------------------------------------------------
       1   MO        -0.00000000  -0.00000000   0.00463220
      -----------------------------------------------------
      Nuclear repulsion energy =-1921.26187119

++    Wave function specifications:
      -----------------------------

      Number of closed shell electrons          18
      Number of electrons in active shells       1
      Max number of holes in RAS1 space          0
      Max nr of electrons in RAS3 space          0
      Number of inactive orbitals                9
      Number of active orbitals                  9
      Number of secondary orbitals             164
      Spin quantum number                      0.5
      State symmetry                             1
--

++    Orbital specifications:
      -----------------------

      Symmetry species                           1
                                                 a
      Frozen orbitals                            0
      Inactive orbitals                          9
      Active orbitals                            9
      RAS1 orbitals                              0
      RAS2 orbitals                              9
      RAS3 orbitals                              0
      Secondary orbitals                       164
      Deleted orbitals                           0
      Number of basis functions                182
--

++    CI expansion specifications:
      ----------------------------

      Number of CSFs                             9
      Number of determinants                     9
      Number of root(s) required                 9
      Root chosen for geometry opt.              9
      CI roots used                              1     2     3     4     5     6     7     8     9
      weights                                0.111 0.111 0.111 0.111 0.111 0.111 0.111 0.111 0.111
      highest root included in the CI            9
      max. size of the explicit Hamiltonian      9
--

++    Optimization specifications:
      ----------------------------

      RASSCF algorithm: Conventional
      Maximum number of macro iterations       200
      Maximum number of SX iterations          100
      Threshold for RASSCF energy            0.100E-07
      Threshold for max MO rotation          0.100E+00
      Threshold for max BLB element          0.100E-03
      Level shift parameter                  0.500E+00
      Make Quasi-Newton update
--

      The MO-coefficients are taken from the file:
      INPORB                                                                                                                          
      Title: SCF orbitals                                                                  

      Total molecular charge   23.00

      ************************************************************************************************************************
      *                                                                                                                      *
      *                                            Wave function control section                                             *
      *                                                                                                                      *
      ************************************************************************************************************************


                                         RASSCF iterations: Energy and convergence statistics
                                         ----------------------------------------------------

      Iter CI   SX   CI       RASSCF       Energy    max ROT     max BLB   max BLB  Level Ln srch  Step   QN   Walltime
          iter iter root      energy       change     param      element    value   shift minimum  type update hh:mm:ss
 Nr of preliminary CI iterations:   1
      Total energies have been shifted. Add                -4000.00 au
        1   1    6    0  -793.88644278    0.00E+00   0.30E+00*   9  10 1 -0.96E+00*  0.00   0.00    SX    NO    0:00:04
        2   1    5    0  -794.22344578   -0.34E+00*  0.66E-01    9  10 1 -0.17E+00*  0.00   0.00    SX    NO    0:00:02
        3   1    5    0  -794.24094380   -0.17E-01* -0.15E-01    9  10 1 -0.38E-01*  0.00   0.00    SX    NO    0:00:02
        4   1    4    0  -794.24164815   -0.70E-03*  0.31E-02    9  10 1 -0.82E-02*  0.00   0.00    SX    NO    0:00:02
        5   1    4    0  -794.24168010   -0.32E-04*  0.17E-02    9  10 1 -0.18E-02*  0.00   1.24    QN   YES    0:00:02
        6   1    4    0  -794.24168024   -0.14E-06*  0.45E-02   10  20 1 -0.11E-02*  0.00   0.51    SX   YES    0:00:02
        7   1    4    0  -794.24167224    0.80E-05*  0.81E-02   10  20 1  0.29E-02*  0.00   0.29    SX   YES    0:00:02
        8   1    4    0  -794.24166133    0.11E-04* -0.12E-01   10  20 1 -0.43E-02*  0.00   0.41    SX   YES    0:00:02
        9   1    4    0  -794.24163840    0.23E-04*  0.17E-01   10  20 1  0.62E-02*  0.00   0.41    SX   YES    0:00:02
       10   1    4    0  -794.24159291    0.45E-04* -0.24E-01   10  20 1 -0.89E-02*  0.00   0.41    SX   YES    0:00:02
       11   1    4    0  -794.24150853    0.84E-04*  0.33E-01   10  20 1  0.12E-01*  0.00   0.42    SX   YES    0:00:02
       12   1    4    0  -794.24136519    0.14E-03*  0.43E-01   10  20 1 -0.17E-01*  0.00   0.43    SX   YES    0:00:02
       13   1    4    0  -794.24114739    0.22E-03*  0.55E-01   10  20 1  0.22E-01*  0.00   0.43    SX   YES    0:00:02
       14   1    4    0  -794.24085760    0.29E-03*  0.66E-01   10  20 1 -0.27E-01*  0.00   0.45    SX   YES    0:00:02
       15   1    4    0  -794.24052387    0.33E-03*  0.77E-01   10  20 1  0.32E-01*  0.00   0.46    SX   YES    0:00:02
       16   1    4    0  -794.24019069    0.33E-03*  0.85E-01   10  20 1 -0.36E-01*  0.00   0.47    SX   YES    0:00:02
       17   1    4    0  -794.23989511    0.30E-03*  0.91E-01   10  20 1  0.39E-01*  0.00   0.48    SX   YES    0:00:02
       18   1    4    0  -794.23965076    0.24E-03*  0.94E-01   10  20 1 -0.41E-01*  0.00   0.48    SX   YES    0:00:02
       19   1    5    0  -794.23944462    0.21E-03*  0.96E-01   10  20 1  0.42E-01*  0.00   0.49    SX   YES    0:00:02
       20   1    5    0  -794.23924660    0.20E-03*  0.95E-01   10  20 1 -0.42E-01*  0.00   0.49    SX   YES    0:00:02
       21   1    5    0  -794.23901395    0.23E-03*  0.92E-01   10  20 1  0.42E-01*  0.00   0.49    SX   YES    0:00:02
       22   1    5    0  -794.23870228    0.31E-03*  0.86E-01   10  20 1 -0.40E-01*  0.00   0.49    SX   YES    0:00:02
       23   1    5    0  -794.23827930    0.42E-03*  0.11E+00*  10  19 1  0.40E-01*  0.00   0.48    SX   YES    0:00:02
       24   1    5    0  -794.23775764    0.52E-03*  0.12E+00*  10  19 1 -0.48E-01*  0.00   0.48    SX   YES    0:00:02
       25   1    5    0  -794.23720670    0.55E-03*  0.14E+00*  10  19 1  0.56E-01*  0.00   0.48    SX   YES    0:00:02
       26   1    5    0  -794.23672370    0.48E-03*  0.15E+00*  10  19 1 -0.61E-01*  0.00   0.49    SX   YES    0:00:02
       27   1    5    0  -794.23636800    0.36E-03*  0.16E+00*  10  19 1  0.65E-01*  0.00   0.49    SX   YES    0:00:02
       28   1    5    0  -794.23614176    0.23E-03* -0.16E+00*  10  19 1 -0.67E-01*  0.00   0.49    SX   YES    0:00:02
       29   1    5    0  -794.23601153    0.13E-03*  0.16E+00*  10  19 1  0.68E-01*  0.00   0.50    SX   YES    0:00:02
       30   1    5    0  -794.23594172    0.70E-04* -0.16E+00*  10  19 1 -0.69E-01*  0.00   0.50    SX   YES    0:00:02
       31   1    5    0  -794.23590561    0.36E-04*  0.17E+00*  10  19 1  0.69E-01*  0.00   0.50    SX   YES    0:00:02
       32   1    5    0  -794.23588753    0.18E-04* -0.17E+00*  10  19 1 -0.69E-01*  0.00   0.50    SX   YES    0:00:02
       33   1    5    0  -794.23587852    0.90E-05*  0.17E+00*  10  19 1  0.69E-01*  0.00   0.50    SX   YES    0:00:02
       34   1    5    0  -794.23587414    0.44E-05* -0.17E+00*  10  19 1 -0.69E-01*  0.00   0.50    SX   YES    0:00:02
       35   1    5    0  -794.23587198    0.22E-05*  0.17E+00*  10  19 1  0.69E-01*  0.00   0.50    SX   YES    0:00:02
       36   1    5    0  -794.23587094    0.10E-05* -0.17E+00*  10  19 1 -0.70E-01*  0.00   0.50    SX   YES    0:00:02
       37   1    5    0  -794.23587043    0.51E-06*  0.17E+00*  10  19 1  0.70E-01*  0.00   0.50    SX   YES    0:00:02
       38   1    5    0  -794.23587019    0.24E-06* -0.17E+00*  10  19 1 -0.70E-01*  0.00   0.50    SX   YES    0:00:02
       39   1    5    0  -794.23587007    0.12E-06*  0.17E+00*  10  19 1  0.70E-01*  0.00   0.50    SX   YES    0:00:02
       40   1    5    0  -794.23587001    0.58E-07* -0.17E+00*  10  19 1 -0.70E-01*  0.00   0.50    SX   YES    0:00:02
       41   1    5    0  -794.23586999    0.25E-07*  0.17E+00*  10  19 1  0.70E-01*  0.00   0.50    SX   YES    0:00:02
       42   1    5    0  -794.23586997    0.16E-07* -0.17E+00*  10  19 1 -0.70E-01*  0.00   0.50    SX   YES    0:00:02
       43   1    5    0  -794.23586997    0.33E-08  -0.17E+00*  10  19 1  0.70E-01*  0.00   0.50    SX   YES    0:00:02
       44   1    5    0  -794.23586996    0.65E-08  -0.17E+00*  10  19 1 -0.70E-01*  0.00   0.50    SX   YES    0:00:02
       45   1    5    0  -794.23586996   -0.21E-08  -0.21E+00*  10  19 1  0.70E-01*  0.00   0.50    SX   YES    0:00:02
       46   1    5    0  -794.22864863    0.72E-02* -0.52E+00*  10  19 1 -0.10E+00*  0.00   0.50    SX   YES    0:00:02
 ###############################################################################
 ###############################################################################
 ###                                                                         ###
 ###                                                                         ###
 ###    WARNING: Large orbital rotation.                                     ###
 ###                                                                         ###
 ###                                                                         ###
 ###############################################################################
 ###############################################################################
      Molecular orbital  10 of symmetry 1 MO space 2  weight is    0.253062
 ###############################################################################
 ###############################################################################
 ###                                                                         ###
 ###                                                                         ###
 ###    WARNING: Large orbital rotation.                                     ###
 ###                                                                         ###
 ###                                                                         ###
 ###############################################################################
 ###############################################################################
      Molecular orbital  19 of symmetry 1 MO space 3  weight is    0.253107
       47   1    7    0  -794.10479426    0.12E+00*  0.86E+00*  10  19 1  0.31E+00*  0.00   0.50    SX   YES    0:00:02
 ###############################################################################
 ###############################################################################
 ###                                                                         ###
 ###                                                                         ###
 ###    WARNING: Large orbital rotation.                                     ###
 ###                                                                         ###
 ###                                                                         ###
 ###############################################################################
[...]
      6f3-     0.0000
      6g4+     0.0000
      6g3+     0.0000
      6g2+     0.0000
      6g1+     0.0000
      6g0      0.0000
      6g1-    -0.0000
      6g2-    -0.0000
      6g3-     0.0000
      6g4-    -0.0000
      6h5+     0.0000
      6h4+     0.0000
      6h3+     0.0000
      6h2+     0.0000
      6h1+     0.0000
      6h0      0.0000
      6h1-     0.0000
      6h2-    -0.0000
      6h3-     0.0000
      6h4-    -0.0000
      6h5-     0.0000
      7d2+     0.0050
      7d1+     0.0000
      7d0      0.0017
      7d1-    -0.0000
      7d2-     0.0000
      7f3+     0.0006
      7f2+     0.0000
      7f1+     0.0003
      7f0      0.0000
      7f1-    -0.0000
      7f2-    -0.0000
      7f3-    -0.0000
      7g4+     0.0000
      7g3+     0.0000
      7g2+     0.0000
      7g1+     0.0000
      7g0      0.0000
      7g1-    -0.0000
      7g2-     0.0000
      7g3-    -0.0000
      7g4-     0.0000
      7h5+     0.0000
      7h4+     0.0000
      7h3+     0.0000
      7h2+     0.0000
      7h1+     0.0000
      7h0      0.0000
      7h1-     0.0000
      7h2-    -0.0000
      7h3-     0.0000
      7h4-    -0.0000
      7h5-    -0.0000
      8s       0.0009
      8px      0.0041
      8pz      0.0000
      8py      0.0000
      8d2+     0.0067
      8d1+     0.0000
      8d0      0.0023
      8d1-    -0.0000
      8d2-    -0.0000
      8f3+     0.0003
      8f2+     0.0000
      8f1+     0.0001
      8f0      0.0000
      8f1-     0.0000
      8f2-    -0.0000
      8f3-     0.0000
      8g4+     0.0000
      8g3+     0.0000
      8g2+     0.0000
      8g1+     0.0000
      8g0      0.0000
      8g1-     0.0000
      8g2-    -0.0000
      8g3-    -0.0000
      8g4-    -0.0000
      9s       0.0009
      9px      0.0027
      9pz      0.0000
      9py     -0.0000
      9d2+     0.0046
      9d1+     0.0000
      9d0      0.0016
      9d1-    -0.0000
      9d2-     0.0000
      9f3+     0.0076
      9f2+     0.0000
      9f1+     0.0045
      9f0      0.0000
      9f1-     0.0000
      9f2-     0.0000
      9f3-     0.0000
     10s       0.0005
     10px      0.0011
     10pz      0.0000
     10py      0.0000
     10d2+     0.0061
     10d1+     0.0000
     10d0      0.0020
     10d1-    -0.0000
     10d2-    -0.0000
     11d2+     0.0004
     11d1+     0.0000
     11d0      0.0001
     11d1-     0.0000
     11d2-     0.0000
      Total    1.0000

      Total electronic spin=    1.000000
--



      LoProp population analysis for root number:  8
      -----------------------------------------------


++    LoProp analysis:
      ----------------


 Sorry, Molden does not know how to handle
 functions with angular momentum larger than g

++    Static properties:
      ------------------


      LoProp Charges per center


                   MO    
      Nuclear     42.0000
      Electronic -19.0000

      Total       23.0000
--


      Natural Bond Order analysis for root number:  8
--

      Von Neumann Entropy (Root  9) =  0.50000


      Mulliken population analysis for root number:  9
      -----------------------------------------------


++    Molecular charges:
      ------------------

      Mulliken charges per centre and basis function type
      ---------------------------------------------------

                MO    
      1s       2.0000
      2s       1.9996
      2px      1.9992
      2pz      1.9997
      2py      1.9997
      3s       1.3565
      3px      0.5891
      3pz      1.6551
      3py      1.6594
      4s       0.0118
      3d2+     0.0160
      3d1+     0.2923
      3d0      0.0054
      3d1-     0.0001
      3d2-     0.2884
      4px      0.0054
      4pz      0.0176
      4py      0.0176
      5s       0.0295
      4d2+     0.0011
      4d1+     0.0019
      4d0      0.0004
      4d1-     0.0004
      4d2-     0.0019
      5px      0.0564
      5pz      0.0018
      5py      0.0018
      6s       0.2111
      4f3+     0.0000
      4f2+     0.0000
      4f1+     0.0000
      4f0      0.0000
      4f1-     0.0000
      4f2-     0.0000
      4f3-     0.0000
      5d2+     0.0177
      5d1+     0.0019
      5d0      0.0059
      5d1-     0.0089
      5d2-     0.0019
      6px      0.0906
      6pz      0.0096
      6py      0.0096
      7s       0.0458
      5f3+     0.0011
      5f2+     0.0000
      5f1+     0.0007
      5f0      0.0000
      5f1-     0.0000
      5f2-     0.0004
      5f3-     0.0000
      6d2+     0.1237
      6d1+     0.0012
      6d0      0.0412
      6d1-     0.0849
      6d2-     0.0011
      7px      0.2344
      7pz      0.0060
      7py      0.0060
      5g4+     0.0000
      5g3+     0.0000
      5g2+     0.0000
      5g1+     0.0000
      5g0      0.0000
      5g1-     0.0000
      5g2-     0.0000
      5g3-     0.0000
      5g4-     0.0000
      6f3+     0.0057
      6f2+     0.0000
      6f1+     0.0035
      6f0      0.0000
      6f1-     0.0000
      6f2-     0.0027
      6f3-     0.0000
      6g4+     0.0000
      6g3+     0.0000
      6g2+     0.0000
      6g1+     0.0000
      6g0      0.0000
      6g1-     0.0000
      6g2-     0.0000
      6g3-     0.0000
      6g4-     0.0000
      6h5+     0.0000
      6h4+     0.0000
      6h3+     0.0000
      6h2+     0.0000
      6h1+     0.0000
      6h0      0.0000
      6h1-     0.0000
      6h2-     0.0000
      6h3-     0.0000
      6h4-     0.0000
      6h5-     0.0000
      7d2+     0.3009
      7d1+     0.0006
      7d0      0.1003
      7d1-     0.3239
      7d2-     0.0006
      7f3+     0.0217
      7f2+     0.0000
      7f1+     0.0130
      7f0      0.0000
      7f1-     0.0000
      7f2-     0.0120
      7f3-     0.0000
      7g4+     0.0001
      7g3+     0.0000
      7g2+     0.0001
      7g1+     0.0000
      7g0      0.0000
      7g1-     0.0000
      7g2-     0.0000
      7g3-     0.0001
      7g4-     0.0000
      7h5+     0.0000
      7h4+     0.0000
      7h3+     0.0000
      7h2+     0.0000
      7h1+     0.0000
      7h0      0.0000
      7h1-     0.0000
      7h2-     0.0000
      7h3-     0.0000
      7h4-     0.0000
      7h5-     0.0000
      8s       0.0398
      8px      0.1736
      8pz      0.0060
      8py      0.0060
      8d2+     0.1672
      8d1+     0.0003
      8d0      0.0557
      8d1-     0.3368
      8d2-     0.0003
      8f3+     0.0880
      8f2+     0.0000
      8f1+     0.0528
      8f0      0.0000
      8f1-     0.0000
      8f2-     0.0461
      8f3-     0.0000
      8g4+     0.0001
      8g3+     0.0000
      8g2+     0.0000
      8g1+     0.0000
      8g0      0.0000
      8g1-     0.0000
      8g2-     0.0000
      8g3-     0.0001
      8g4-     0.0000
      9s       0.0142
      9px      0.0707
      9pz      0.0032
      9py      0.0032
      9d2+     0.0324
      9d1+     0.0000
      9d0      0.0108
      9d1-     0.1750
      9d2-     0.0000
      9f3+     0.0014
      9f2+     0.0008
      9f1+     0.0009
      9f0      0.0005
      9f1-     0.0001
      9f2-     0.0008
      9f3-     0.0011
     10s       0.0010
     10px      0.0035
     10pz      0.0007
     10py      0.0007
     10d2+     0.0002
     10d1+     0.0000
     10d0      0.0001
     10d1-     0.0082
     10d2-     0.0000
     11d2+     0.0000
     11d1+     0.0000
     11d0      0.0000
     11d1-     0.0001
     11d2-     0.0000
      Total   19.0000

      N-E     23.0000

      Total electronic charge=   19.000000

      Total            charge=   23.000000
--



      Expectation values of various properties for root number:  9
      -----------------------------------------------------------


++    Molecular properties:
      ---------------------

      Charge (e):
                      =   23.0000
      Dipole Moment (Debye):
      Origin of the operator (Ang)=    0.0000    0.0000    0.0000
                   X= -3.2585E+01               Y= -3.4761E-11               Z=  4.6460E-01           Total=  3.2588E+01
      Center of Charge (Ang)
                     X=   -0.29495327               Y=   -0.00000000               Z=    0.00420552
      Quadrupole Moment (Debye*Ang):
      Origin of the operator (Ang)=   -0.0000   -0.0000    0.0046
                  XX= -1.6394E+02              XY= -2.1112E-10              XZ= -9.9443E-02              YY= -8.1009E+01
                  YZ= -1.5516E-12              ZZ= -8.1008E+01
      In traceless form (Debye*Ang)
                  XX= -8.2930E+01              XY= -3.1669E-10              XZ= -1.4917E-01              YY=  4.1464E+01
                  YZ= -2.3274E-12              ZZ=  4.1465E+01
--


      Mulliken spin population analysis for root number:  9
      ---------------------------------------------------


++    Molecular charges:
      ------------------

      Mulliken spin population per centre and basis function type
      ---------------------------------------------------

                MO    
      1s       0.0000
      2s       0.0000
      2px      0.0000
      2pz      0.0000
      2py      0.0000
      3s       0.0000
      3px      0.0000
      3pz      0.0000
      3py      0.0000
      4s       0.0000
      3d2+     0.0000
      3d1+     0.0000
      3d0      0.0000
      3d1-     0.0000
      3d2-     0.0000
      4px      0.0000
      4pz      0.0000
      4py      0.0000
      5s       0.0000
      4d2+     0.0000
      4d1+     0.0000
      4d0      0.0000
      4d1-     0.0004
      4d2-     0.0000
      5px      0.0000
      5pz      0.0000
      5py      0.0000
      6s       0.0000
      4f3+     0.0000
      4f2+     0.0000
      4f1+     0.0000
      4f0      0.0000
      4f1-     0.0000
      4f2-     0.0000
      4f3-     0.0000
      5d2+     0.0000
      5d1+     0.0000
      5d0      0.0000
      5d1-     0.0088
      5d2-     0.0000
      6px      0.0000
      6pz      0.0000
      6py      0.0000
      7s       0.0000
      5f3+     0.0000
      5f2+     0.0000
      5f1+     0.0000
      5f0      0.0000
      5f1-     0.0000
      5f2-     0.0004
      5f3-     0.0000
      6d2+     0.0000
      6d1+     0.0000
      6d0      0.0000
      6d1-     0.0849
      6d2-     0.0000
      7px      0.0000
      7pz      0.0000
      7py      0.0000
      5g4+     0.0000
      5g3+     0.0000
      5g2+     0.0000
      5g1+     0.0000
      5g0      0.0000
      5g1-     0.0000
      5g2-     0.0000
      5g3-     0.0000
      5g4-     0.0000
      6f3+     0.0000
      6f2+     0.0000
      6f1+     0.0000
      6f0      0.0000
      6f1-     0.0000
      6f2-     0.0027
      6f3-     0.0000
      6g4+     0.0000
      6g3+     0.0000
      6g2+     0.0000
      6g1+     0.0000
      6g0      0.0000
      6g1-     0.0000
      6g2-     0.0000
      6g3-     0.0000
      6g4-     0.0000
      6h5+     0.0000
      6h4+     0.0000
      6h3+     0.0000
      6h2+     0.0000
      6h1+     0.0000
      6h0      0.0000
      6h1-     0.0000
      6h2-     0.0000
      6h3-     0.0000
      6h4-     0.0000
      6h5-     0.0000
      7d2+     0.0000
      7d1+     0.0000
      7d0      0.0000
      7d1-     0.3239
      7d2-     0.0000
      7f3+     0.0000
      7f2+     0.0000
      7f1+     0.0000
      7f0      0.0000
      7f1-     0.0000
      7f2-     0.0120
      7f3-     0.0000
      7g4+     0.0000
      7g3+     0.0000
      7g2+     0.0000
      7g1+     0.0000
      7g0      0.0000
      7g1-     0.0000
      7g2-     0.0000
      7g3-     0.0000
      7g4-     0.0000
      7h5+     0.0000
      7h4+     0.0000
      7h3+     0.0000
      7h2+     0.0000
      7h1+     0.0000
      7h0      0.0000
      7h1-     0.0000
      7h2-     0.0000
      7h3-     0.0000
      7h4-     0.0000
      7h5-     0.0000
      8s       0.0000
      8px      0.0000
      8pz      0.0000
      8py      0.0000
      8d2+     0.0000
      8d1+     0.0000
      8d0      0.0000
      8d1-     0.3368
      8d2-     0.0000
      8f3+     0.0000
      8f2+     0.0000
      8f1+     0.0000
      8f0      0.0000
      8f1-     0.0000
      8f2-     0.0461
      8f3-     0.0000
      8g4+     0.0000
      8g3+     0.0000
      8g2+     0.0000
      8g1+     0.0000
      8g0      0.0000
      8g1-     0.0000
      8g2-     0.0000
      8g3-     0.0000
      8g4-     0.0000
      9s       0.0000
      9px      0.0000
      9pz      0.0000
      9py      0.0000
      9d2+     0.0000
      9d1+     0.0000
      9d0      0.0000
      9d1-     0.1750
      9d2-     0.0000
      9f3+     0.0000
      9f2+     0.0000
      9f1+     0.0000
      9f0      0.0000
      9f1-     0.0000
      9f2-     0.0006
      9f3-     0.0000
     10s       0.0000
     10px      0.0000
     10pz      0.0000
     10py      0.0000
     10d2+     0.0000
     10d1+     0.0000
     10d0      0.0000
     10d1-     0.0082
     10d2-     0.0000
     11d2+     0.0000
     11d1+     0.0000
     11d0      0.0000
     11d1-     0.0001
     11d2-     0.0000
      Total    1.0000

      Total electronic spin=    1.000000
--



      LoProp population analysis for root number:  9
      -----------------------------------------------


++    LoProp analysis:
      ----------------


 Sorry, Molden does not know how to handle
 functions with angular momentum larger than g

++    Static properties:
      ------------------


      LoProp Charges per center


                   MO    
      Nuclear     42.0000
      Electronic -19.0000

      Total       23.0000
--


      Natural Bond Order analysis for root number:  9
--

 Sorry, Molden does not know how to handle
 functions with angular momentum larger than g
 Sorry, Molden does not know how to handle
 functions with angular momentum larger than g
 Sorry, Molden does not know how to handle
 functions with angular momentum larger than g
 Sorry, Molden does not know how to handle
 functions with angular momentum larger than g
 Sorry, Molden does not know how to handle
 functions with angular momentum larger than g
 Sorry, Molden does not know how to handle
 functions with angular momentum larger than g
 Sorry, Molden does not know how to handle
 functions with angular momentum larger than g
 Sorry, Molden does not know how to handle
 functions with angular momentum larger than g
 Sorry, Molden does not know how to handle
 functions with angular momentum larger than g
 Sorry, Molden does not know how to handle
 functions with angular momentum larger than g
      Average orbitals are written to the RASORB file
      Natural orbitals for root   1 are written to the RASORB.1 file
      Natural orbitals for root   2 are written to the RASORB.2 file
      Natural orbitals for root   3 are written to the RASORB.3 file
      Natural orbitals for root   4 are written to the RASORB.4 file
      Natural orbitals for root   5 are written to the RASORB.5 file
      Natural orbitals for root   6 are written to the RASORB.6 file
      Natural orbitals for root   7 are written to the RASORB.7 file
      Natural orbitals for root   8 are written to the RASORB.8 file
      Natural orbitals for root   9 are written to the RASORB.9 file
      Spin density orbitals for root   1 are written to the SPDORB.1 file
      Spin density orbitals for root   2 are written to the SPDORB.2 file
      Spin density orbitals for root   3 are written to the SPDORB.3 file
      Spin density orbitals for root   4 are written to the SPDORB.4 file
      Spin density orbitals for root   5 are written to the SPDORB.5 file
      Spin density orbitals for root   6 are written to the SPDORB.6 file
      Spin density orbitals for root   7 are written to the SPDORB.7 file
      Spin density orbitals for root   8 are written to the SPDORB.8 file
      Spin density orbitals for root   9 are written to the SPDORB.9 file

 ###############################################################################
 ###############################################################################
 ###                                                                         ###
 ###                                                                         ###
 ###    WARNING: RunFile label BirthCertificate                              ###
 ###    was used      247 times                                              ###
 ###                                                                         ###
 ###                                                                         ###
 ###############################################################################
 ###############################################################################
 ###############################################################################
 ###############################################################################
 ###                                                                         ###
 ###                                                                         ###
 ###    WARNING: RunFile label nBas                                          ###
 ###    was used       41 times                                              ###
 ###                                                                         ###
 ###                                                                         ###
 ###############################################################################
 ###############################################################################
[ process      0]: xquit (rc =     96): _NOT_CONVERGED_
Note: The following floating-point exceptions are signalling: IEEE_INVALID_FLAG IEEE_DIVIDE_BY_ZERO IEEE_UNDERFLOW_FLAG IEEE_DENORMAL
--- Stop Module: rasscf at Tue Mar 25 14:38:11 2025 /rc=_RC_NOT_CONVERGED_ ---
*** files: molybdenum_so_cf.LprOrb molybdenum_so_cf.RasOrb molybdenum_so_cf.RasOrb.1 molybdenum_so_cf.RasOrb.2 molybdenum_so_cf.RasOrb.3 molybdenum_so_cf.RasOrb.4
           molybdenum_so_cf.RasOrb.5 molybdenum_so_cf.RasOrb.6 molybdenum_so_cf.RasOrb.7 molybdenum_so_cf.RasOrb.8 molybdenum_so_cf.RasOrb.9 molybdenum_so_cf.SpdOrb.1
           molybdenum_so_cf.SpdOrb.2 molybdenum_so_cf.SpdOrb.3 molybdenum_so_cf.SpdOrb.4 molybdenum_so_cf.SpdOrb.5 molybdenum_so_cf.SpdOrb.6 molybdenum_so_cf.SpdOrb.7
           molybdenum_so_cf.SpdOrb.8 molybdenum_so_cf.SpdOrb.9 xmldump
    saved to directory /home4/s4752295/Internship/Initial_simulations/Point_charge_model/1_electron/Madelung_charges_9_active_space/Mo
--- Module rasscf spent 7 minutes 59 seconds ---

.#######################.
.# Convergence problem #.
.#######################.

    Timing: Wall=508.34 User=366.98 System=98.79

###############################################################################
Hbrk Cluster
Job 15897492 for user s4752295
Finished at: Tue Mar 25 14:38:16 CET 2025

Job details:
============

Job ID                         : 15897492
Name                           : Mo_no_SO
User                           : s4752295
Partition                      : regularmedium
Nodes                          : node91
Number of Nodes                : 1
Cores                          : 1
Number of Tasks                : 1
State                          : FAILED  
Submit                         : 2025-03-25T14:28:13
Start                          : 2025-03-25T14:29:39
End                            : 2025-03-25T14:38:12
Reserved walltime              : 15:00:00
Used walltime                  : 00:08:33
Used CPU time                  : 00:07:47 (Efficiency: 91.06%)
% User (Computation)           : 78.78%
% System (I/O)                 : 21.22%
Total memory reserved          : 25000M
Maximum memory used            : 2.12G
Hints and tips      :
 1) You requested much more CPU memory than your program used.
    Please reduce the requested amount of memory.
 *) For more information on these issues see:
    https://wiki.hpc.rug.nl/habrok/additional_information/job_hints

Acknowledgements:
=================

Please see this page for information about acknowledging Hbrk in your publications:

https://wiki.hpc.rug.nl/habrok/introduction/scientific_output

################################################################################
