   This run of MOLCAS is using the pymolcas driver

                             OPE
                             OPE          NMOL  CASOP  ENMOLC A   SO
                 OPE        NMOLC        AS  OP EN  MO LC     AS  OP
                OPENM       OL CA        SO  PE NM  OL CA     SOP EN
                OP EN      MO   LC       AS  OP ENMOL  CASO   PENMOL
                OP  EN     MO   LC       AS  OP EN     MO     LC ASO
               OP   E  NMOL  C  AS       OP  EN MO     LC     AS  OP
               OP  E   NMO   LC AS        OPEN  MO     LCASOP EN   M
               O  PEN   MO  LCA  SO
            OPE   NMO   L   CAS    OP
        OPENMOL  CASOP     ENMOL   CASOPE
     OPENMOLCA   SOPENMOLCASOPEN   MOLCASOPE
    OPENMOLCAS   OP           EN   MOL    CAS
    OPENMOLCAS       OP  ENM        O     LCA
    OPENMOLCAS    OPEN  MOLCASO     P  E  NMO
    OPENMOLCAS     OP               E  N  MOL
    OPENMOLCA   SO           PENM   O  L  CAS    OPEN    MO    LCAS
    OPENMOLCA   SOP           ENM   O  L  CAS   OP  EN  MOLC  AS   O
    OPENMOLCA   SOPE           NM      O  LCA   S      OP  EN MO
    OPENMOLC                AS         O  PEN   M      OL  CA  SOPE
    OPENMO        LCASOPE  NMOL        C  ASO   P      ENMOLC     AS
    OPE     NMO      LCA  SO     P     E   NM   OL  CA SO  PE N   MO
          OPENMOLCA            SOPE   NMO        LCAS  O    P  ENMO
     OPENMOLCASOPENMOLCASOPENMOLCASOPENMOLCA
        OPENMOLCASOPENMOLCASOPENMOLCASOPE
            OPENMOLCASOPENMOLCASOPENM
               OPENMOLCASOPENMOLCA        version: o91e1abe7de707b ?
                   OPENMOLCASO
                       OPE                tag:

 OpenMolcas is free software; you can redistribute it and/or modify it
 under the terms of the GNU Lesser General Public License version 2.1.
 OpenMolcas is distributed in the hope that it will be useful, but it
 is provided "as is" and without any express or implied warranties.
 For more details see the full text of the license in the file
 LICENSE or in <http://www.gnu.org/licenses/>.

                 Copyright (C) The OpenMolcas Authors
           For the author list and the recommended citation,
                   consult the file CONTRIBUTORS.md

           *************************************************
           * pymolcas version py2.10                       *
           *   build 3068ae8b88c9345ec6cfef6fef7f1169      *
           *   (after the EMIL interpreter by V. Veryazov) *
           *************************************************

configuration info
------------------
Host name: login1 (Linux)
C Compiler ID: GNU
C flags: -std=gnu99
Fortran Compiler ID: GNU
Fortran flags: -fno-aggressive-loop-optimizations -cpp -fdefault-integer-8 -fmax-stack-var-size=1048576
Definitions: _MOLCAS_;_I8_;_LINUX_;_MKL_
Parallel: OFF (GA=OFF)


   -----------------------------------------------------------------------------------------------------------------------------------
  |
  |           Project: molybdenum_so_cf
  |    Submitted from: /home4/s4752295/Internship/Initial_simulations/Point_charge_model/1_electron/Madelung_charges_9_active_space/Mo
  |      Scratch area: /tmp/molybdenum_so_cf
  |   Save outputs to: /home4/s4752295/Internship/Initial_simulations/Point_charge_model/1_electron/Madelung_charges_9_active_space/Mo
  |            Molcas: /home4/s4752295/Internship/Molcas/recomp_try/OpenMolcas-master/build
  |
  | Scratch area is empty
  |
  |    MOLCAS_DRIVER = /home4/s4752295/Internship/Molcas/bin/pymolcas
  |    MOLCAS_NPROCS = 1
  |    MOLCAS_SOURCE = /home4/s4752295/Internship/Molcas/recomp_try/OpenMolcas-master
  | MOLCAS_STRUCTURE = 0
  |
   -----------------------------------------------------------------------------------------------------------------------------------

++ ---------   Input file   ---------

&SEWARD
AMFi

CLIG
$R

Basis Set
Mo.ANO-rcc.Roos.21s18p13d6f4g2h.10s9p9d6f4g2h.
Spherical d
Mo           -1.0658140267135469e-14    -3.5527134223784897e-15 0.008753588724385739
End of Basis

Xfield

414
-2.8015407559999996,-1.0779999999999998,0.6223833       -0.625931
-2.8015407559999996,-0.0,-1.2447673     -0.625931
-2.8015407559999996,1.0779999999999998,0.6223833        -0.625931
-2.796742249,0.0,0.0    1.892092
1.861425783,-1.0779999999999998,-0.6223833      2.515516
1.861425783,0.0,1.2447673       2.515516
1.861425783,1.0779999999999998,-0.6223833       2.515516
2.4940917959999997,-2.1559999999999997,0.0      0.004632
2.4940917959999997,-1.0779999999999998,-1.8671506       0.004632
2.4940917959999997,-1.0779999999999998,1.8671506        0.004632
2.4940917959999997,1.0779999999999998,-1.8671506        0.004632
2.4940917959999997,1.0779999999999998,1.8671506 0.004632
2.4940917959999997,2.1559999999999997,0.0       0.004632
2.8904052730000003,-1.0779999999999998,0.6223833        -2.519484
2.8904052730000003,-0.0,-1.2447673      -2.519484
2.8904052730000003,1.0779999999999998,0.6223833 -2.519484
-2.053173829,-0.0,-0.0  -3.142907
-3.482568362,-2.1559999999999997,-1.2447673     -0.625931
-3.482568362,0.0,2.4895339      -0.625931
-3.482568362,2.1559999999999997,-1.2447673      -0.625931
-4.6265624999999995,-2.1559999999999997,0.0     1.892092
-4.6265624999999995,-1.0779999999999998,-1.8671506      1.892092
-4.6265624999999995,-1.0779999999999998,1.8671506       1.892092
-4.6265624999999995,1.0779999999999998,-1.8671506       1.892092
-4.6265624999999995,1.0779999999999998,1.8671506        1.892092
-4.6265624999999995,2.1559999999999997,0.0      1.892092
17.620312499999997,-2.1559999999999997,1.2447673        2.515516
17.620312499999997,-0.0,-2.4895339      2.515516
17.620312499999997,2.1559999999999997,1.2447673 2.515516
2.5470703159999997,-2.1559999999999997,-1.2447673       -2.519484
2.5470703159999997,0.0,2.4895339        -2.519484
2.5470703159999997,2.1559999999999997,-1.2447673        -2.519484
-2.262695316,-2.1559999999999997,-0.0   -3.142907
-2.262695316,-1.0779999999999998,-1.8671506     -3.142907
-2.262695316,-1.0779999999999998,1.8671506      -3.142907
-2.262695316,1.0779999999999998,-1.8671506      -3.142907
-2.262695316,1.0779999999999998,1.8671506       -3.142907
-2.262695316,2.1559999999999997,-0.0    -3.142907
-6.66640625,-2.1559999999999997,2.4895339       -0.625931
-6.66640625,2.1559999999999997,2.4895339        -0.625931
-6.66640625,-3.234,0.6223833    -0.625931
-6.66640625,3.234,0.6223833     -0.625931
-6.66640625,-1.0779999999999998,-3.1119179      -0.625931
-6.66640625,1.0779999999999998,-3.1119179       -0.625931
4.20546875,-1.0779999999999998,-0.6223833       4.409069
4.20546875,1.0779999999999998,-0.6223833        4.409069
4.20546875,0.0,1.2447673        4.409069
-122.675,-0.0,-0.0      -5.030367
-122.675,0.0,0.0        5.039632
9.462304684,-2.1559999999999997,-2.4895339      2.515516
9.462304684,2.1559999999999997,-2.4895339       2.515516
9.462304684,-3.234,-0.6223833   2.515516
9.462304684,3.234,-0.6223833    2.515516
9.462304684,-1.0779999999999998,3.1119179       2.515516
9.462304684,1.0779999999999998,3.1119179        2.515516
13.327343749999999,-3.234,-1.8671506    0.004632
13.327343749999999,-3.234,1.8671506     0.004632
13.327343749999999,3.234,-1.8671506     0.004632
13.327343749999999,3.234,1.8671506      0.004632
13.327343749999999,-0.0,-3.7343012      0.004632
13.327343749999999,0.0,3.7343012        0.004632
33.654687499999994,-2.1559999999999997,2.4895339        -2.519484
33.654687499999994,2.1559999999999997,2.4895339 -2.519484
33.654687499999994,-3.234,0.6223833     -2.519484
33.654687499999994,3.234,0.6223833      -2.519484
33.654687499999994,-1.0779999999999998,-3.1119179       -2.519484
33.654687499999994,1.0779999999999998,-3.1119179        -2.519484
-102.1125,-3.234,-1.8671506     1.892092
-102.1125,-3.234,1.8671506      1.892092
-102.1125,3.234,-1.8671506      1.892092
-102.1125,3.234,1.8671506       1.892092
-102.1125,-0.0,-3.7343012       1.892092
-102.1125,0.0,3.7343012 1.892092
-82.425,-2.1559999999999997,1.2447673   4.409069
-82.425,-0.0,-2.4895339 4.409069
-82.425,2.1559999999999997,1.2447673    4.409069
-62.3,-2.1559999999999997,-0.0  -5.030367
-62.3,-1.0779999999999998,-1.8671506    -5.030367
-62.3,-1.0779999999999998,1.8671506     -5.030367
-62.3,1.0779999999999998,-1.8671506     -5.030367
-62.3,-2.1559999999999997,0.0   5.039632
-62.3,2.1559999999999997,-0.0   -5.030367
-62.3,1.0779999999999998,1.8671506      -5.030367
-62.3,-1.0779999999999998,-1.8671506    5.039632
-62.3,-1.0779999999999998,1.8671506     5.039632
-62.3,1.0779999999999998,-1.8671506     5.039632
-62.3,2.1559999999999997,0.0    5.039632
-62.3,1.0779999999999998,1.8671506      5.039632
-32.637499999999996,-1.0779999999999998,-0.6223833      -5.660931
-32.637499999999996,0.0,1.2447673       -5.660931
-32.637499999999996,1.0779999999999998,-0.6223833       -5.660931
0.61796875,-4.3119993,0.0       0.004632
0.61796875,-2.1559999999999997,-3.7343012       0.004632
0.61796875,-2.1559999999999997,3.7343012        0.004632
0.61796875,2.1559999999999997,-3.7343012        0.004632
0.61796875,4.3119993,0.0        0.004632
0.61796875,2.1559999999999997,3.7343012 0.004632
47.55625,-3.234,1.8671506       -3.142907
47.55625,-3.234,-1.8671506      -3.142907
47.55625,3.234,-1.8671506       -3.142907
47.55625,3.234,1.8671506        -3.142907
47.55625,-0.0,-3.7343012        -3.142907
47.55625,0.0,3.7343012  -3.142907
60.4625,-4.3119993,-1.2447673   -0.625931
60.4625,-3.234,-3.1119179       -0.625931
60.4625,-1.0779999999999998,4.3566845   -0.625931
60.4625,3.234,-3.1119179        -0.625931
60.4625,4.3119993,-1.2447673    -0.625931
60.4625,1.0779999999999998,4.3566845    -0.625931
0.838085934,-4.3119993,0.0      1.892092
0.838085934,-2.1559999999999997,-3.7343012      1.892092
0.838085934,-2.1559999999999997,3.7343012       1.892092
0.838085934,2.1559999999999997,-3.7343012       1.892092
0.838085934,4.3119993,0.0       1.892092
0.838085934,2.1559999999999997,3.7343012        1.892092
23.690624999999997,-2.1559999999999997,-2.4895339       4.409069
23.690624999999997,2.1559999999999997,-2.4895339        4.409069
23.690624999999997,-3.234,-0.6223833    4.409069
23.690624999999997,3.234,-0.6223833     4.409069
23.690624999999997,-1.0779999999999998,3.1119179        4.409069
23.690624999999997,1.0779999999999998,3.1119179 4.409069
113.68437499999999,-2.1559999999999997,1.2447673        -5.660931
113.68437499999999,-0.0,-2.4895339      -5.660931
113.68437499999999,2.1559999999999997,1.2447673 -5.660931
0.24062499999999998,-4.3119993,1.2447673        2.515516
0.24062499999999998,-1.0779999999999998,-4.3566845      2.515516
0.24062499999999998,-3.234,3.1119179    2.515516
0.24062499999999998,1.0779999999999998,-4.3566845       2.515516
0.24062499999999998,4.3119993,1.2447673 2.515516
0.24062499999999998,3.234,3.1119179     2.515516
-65.93124999999999,-4.3119993,-1.2447673        -2.519484
-65.93124999999999,-3.234,-3.1119179    -2.519484
-65.93124999999999,-1.0779999999999998,4.3566845        -2.519484
-65.93124999999999,3.234,-3.1119179     -2.519484
-65.93124999999999,1.0779999999999998,4.3566845 -2.519484
-65.93124999999999,4.3119993,-1.2447673 -2.519484
-15.449218749999998,-4.3119993,-0.0     -3.142907
-15.449218749999998,-2.1559999999999997,-3.7343012      -3.142907
-15.449218749999998,-2.1559999999999997,3.7343012       -3.142907
-15.449218749999998,2.1559999999999997,-3.7343012       -3.142907
-15.449218749999998,2.1559999999999997,3.7343012        -3.142907
-15.449218749999998,4.3119993,-0.0      -3.142907
424.54999999999995,0.0,0.0      6.927092
226.27499999999998,-4.3119993,2.4895339 -0.625931
226.27499999999998,4.3119993,2.4895339  -0.625931
226.27499999999998,-0.0,-4.9790685      -0.625931
-3.7953124999999996,-3.234,1.8671506    -5.030367
-3.7953124999999996,-3.234,-1.8671506   -5.030367
-3.7953124999999996,-3.234,1.8671506    5.039632
-3.7953124999999996,-3.234,-1.8671506   5.039632
-3.7953124999999996,3.234,-1.8671506    -5.030367
-3.7953124999999996,3.234,1.8671506     -5.030367
-3.7953124999999996,3.234,-1.8671506    5.039632
-3.7953124999999996,3.234,1.8671506     5.039632
-3.7953124999999996,-0.0,-3.7343012     -5.030367
-3.7953124999999996,0.0,3.7343012       -5.030367
-3.7953124999999996,-0.0,-3.7343012     5.039632
-3.7953124999999996,0.0,3.7343012       5.039632
64.26875,-2.1559999999999997,-2.4895339 -5.660931
64.26875,2.1559999999999997,-2.4895339  -5.660931
64.26875,-3.234,-0.6223833      -5.660931
64.26875,3.234,-0.6223833       -5.660931
64.26875,-1.0779999999999998,3.1119179  -5.660931
64.26875,1.0779999999999998,3.1119179   -5.660931
210.35,-4.3119993,-2.4895339    2.515516
210.35,4.3119993,-2.4895339     2.515516
210.35,0.0,4.9790685    2.515516
-362.075,-4.3119993,2.4895339   -2.519484
-362.075,4.3119993,2.4895339    -2.519484
-362.075,-0.0,-4.9790685        -2.519484
37.49375,-2.1559999999999997,0.0        6.927092
37.49375,-1.0779999999999998,-1.8671506 6.927092
37.49375,-1.0779999999999998,1.8671506  6.927092
37.49375,1.0779999999999998,-1.8671506  6.927092
37.49375,1.0779999999999998,1.8671506   6.927092
37.49375,2.1559999999999997,0.0 6.927092
-38.675,-1.0779999999999998,0.6223833   7.550516
-38.675,0.0,-1.2447673  7.550516
-38.675,1.0779999999999998,0.6223833    7.550516
10.871875,-1.0779999999999998,-0.6223833        -7.554483
10.871875,1.0779999999999998,-0.6223833 -7.554483
10.871875,-0.0,1.2447673        -7.554483
-87.4125,-5.3899992999999995,0.6223833  -0.625931
-87.4125,-3.234,4.3566845       -0.625931
-87.4125,-2.1559999999999997,-4.9790685 -0.625931
-87.4125,2.1559999999999997,-4.9790685  -0.625931
-87.4125,5.3899992999999995,0.6223833   -0.625931
-87.4125,3.234,4.3566845        -0.625931
-47.20625,-4.3119993,1.2447673  4.409069
-47.20625,-3.234,3.1119179      4.409069
-47.20625,-1.0779999999999998,-4.3566845        4.409069
-47.20625,1.0779999999999998,-4.3566845 4.409069
-47.20625,3.234,3.1119179       4.409069
-47.20625,4.3119993,1.2447673   4.409069
34.409375,-4.3119993,-0.0       -5.030367
34.409375,-2.1559999999999997,-3.7343012        -5.030367
34.409375,-2.1559999999999997,3.7343012 -5.030367
34.409375,-4.3119993,0.0        5.039632
34.409375,-2.1559999999999997,-3.7343012        5.039632
34.409375,2.1559999999999997,-3.7343012 -5.030367
34.409375,2.1559999999999997,3.7343012  -5.030367
34.409375,4.3119993,-0.0        -5.030367
34.409375,-2.1559999999999997,3.7343012 5.039632
34.409375,2.1559999999999997,-3.7343012 5.039632
34.409375,4.3119993,0.0 5.039632
34.409375,2.1559999999999997,3.7343012  5.039632
126.52499999999999,-5.3899992999999995,-0.6223833       2.515516
126.52499999999999,-3.234,-4.3566845    2.515516
126.52499999999999,-2.1559999999999997,4.9790685        2.515516
126.52499999999999,3.234,-4.3566845     2.515516
126.52499999999999,5.3899992999999995,-0.6223833        2.515516
126.52499999999999,2.1559999999999997,4.9790685 2.515516
-16.340625,-5.3899992999999995,-1.8671506       0.004632
-16.340625,-5.3899992999999995,1.8671506        0.004632
-16.340625,-4.3119993,-3.7343012        0.004632
-16.340625,-4.3119993,3.7343012 0.004632
-16.340625,-1.0779999999999998,-5.6014517999999995      0.004632
-16.340625,1.0779999999999998,-5.6014517999999995       0.004632
-16.340625,-1.0779999999999998,5.6014517999999995       0.004632
-16.340625,4.3119993,-3.7343012 0.004632
-16.340625,1.0779999999999998,5.6014517999999995        0.004632
-16.340625,5.3899992999999995,-1.8671506        0.004632
-16.340625,5.3899992999999995,1.8671506 0.004632
-16.340625,4.3119993,3.7343012  0.004632
-100.1875,-5.3899992999999995,0.6223833 -2.519484
-100.1875,-3.234,4.3566845      -2.519484
-100.1875,-2.1559999999999997,-4.9790685        -2.519484
-100.1875,2.1559999999999997,-4.9790685 -2.519484
-100.1875,5.3899992999999995,0.6223833  -2.519484
-100.1875,3.234,4.3566845       -2.519484
2122.4,-0.0,-0.0        -8.177907
-81.19999999999999,-2.1559999999999997,-1.2447673       7.550516
-81.19999999999999,0.0,2.4895339        7.550516
-81.19999999999999,2.1559999999999997,-1.2447673        7.550516
-422.45,-2.1559999999999997,1.2447673   -7.554483
-422.45,-0.0,-2.4895339 -7.554483
-422.45,2.1559999999999997,1.2447673    -7.554483
34.234375,-5.3899992999999995,1.8671506 1.892092
34.234375,-5.3899992999999995,-1.8671506        1.892092
34.234375,-4.3119993,-3.7343012 1.892092
34.234375,-4.3119993,3.7343012  1.892092
34.234375,-1.0779999999999998,-5.6014517999999995       1.892092
34.234375,1.0779999999999998,-5.6014517999999995        1.892092
34.234375,-1.0779999999999998,5.6014517999999995        1.892092
34.234375,4.3119993,-3.7343012  1.892092
34.234375,1.0779999999999998,5.6014517999999995 1.892092
34.234375,5.3899992999999995,-1.8671506 1.892092
34.234375,5.3899992999999995,1.8671506  1.892092
34.234375,4.3119993,3.7343012   1.892092
-353.5,-4.3119993,-2.4895339    4.409069
-353.5,4.3119993,-2.4895339     4.409069
-353.5,0.0,4.9790685    4.409069
18.07421875,-4.3119993,1.2447673        -5.660931
18.07421875,-1.0779999999999998,-4.3566845      -5.660931
18.07421875,-3.234,3.1119179    -5.660931
18.07421875,1.0779999999999998,-4.3566845       -5.660931
18.07421875,3.234,3.1119179     -5.660931
18.07421875,4.3119993,1.2447673 -5.660931
-40.731249999999996,-4.3119993,-3.7343012       -3.142907
-40.731249999999996,-5.3899992999999995,1.8671506       -3.142907
-40.731249999999996,-5.3899992999999995,-1.8671506      -3.142907
-40.731249999999996,-4.3119993,3.7343012        -3.142907
-40.731249999999996,-1.0779999999999998,-5.6014517999999995     -3.142907
-40.731249999999996,1.0779999999999998,-5.6014517999999995      -3.142907
-40.731249999999996,-1.0779999999999998,5.6014517999999995      -3.142907
-40.731249999999996,5.3899992999999995,-1.8671506       -3.142907
-40.731249999999996,4.3119993,-3.7343012        -3.142907
-40.731249999999996,1.0779999999999998,5.6014517999999995       -3.142907
-40.731249999999996,5.3899992999999995,1.8671506        -3.142907
-40.731249999999996,4.3119993,3.7343012 -3.142907
45.784375,-3.234,-1.8671506     6.927092
45.784375,-3.234,1.8671506      6.927092
45.784375,3.234,-1.8671506      6.927092
45.784375,3.234,1.8671506       6.927092
45.784375,-0.0,-3.7343012       6.927092
45.784375,0.0,3.7343012 6.927092
-58.275,-2.1559999999999997,-0.0        -8.177907
-58.275,-1.0779999999999998,1.8671506   -8.177907
-58.275,-1.0779999999999998,-1.8671506  -8.177907
-58.275,1.0779999999999998,-1.8671506   -8.177907
-58.275,2.1559999999999997,-0.0 -8.177907
-58.275,1.0779999999999998,1.8671506    -8.177907
-63.634375,-2.1559999999999997,2.4895339        7.550516
-63.634375,2.1559999999999997,2.4895339 7.550516
-63.634375,-3.234,0.6223833     7.550516
-63.634375,3.234,0.6223833      7.550516
-63.634375,-1.0779999999999998,-3.1119179       7.550516
-63.634375,1.0779999999999998,-3.1119179        7.550516
-31.98125,-2.1559999999999997,-2.4895339        -7.554483
-31.98125,2.1559999999999997,-2.4895339 -7.554483
-31.98125,-3.234,-0.6223833     -7.554483
-31.98125,3.234,-0.6223833      -7.554483
-31.98125,-1.0779999999999998,3.1119179 -7.554483
-31.98125,1.0779999999999998,3.1119179  -7.554483
-350.17499999999995,0.0,6.2238351       -0.625931
-350.17499999999995,-5.3899992999999995,-3.1119179      -0.625931
-350.17499999999995,5.3899992999999995,-3.1119179       -0.625931
-188.825,-5.3899992999999995,-0.6223833 4.409069
-188.825,-3.234,-4.3566845      4.409069
-188.825,-2.1559999999999997,4.9790685  4.409069
-188.825,3.234,-4.3566845       4.409069
-188.825,5.3899992999999995,-0.6223833  4.409069
-188.825,2.1559999999999997,4.9790685   4.409069
217.2625,-4.3119993,-2.4895339  -5.660931
217.2625,4.3119993,-2.4895339   -5.660931
217.2625,0.0,4.9790685  -5.660931
410.9,-0.0,-6.2238351   2.515516
410.9,-5.3899992999999995,3.1119179     2.515516
410.9,5.3899992999999995,3.1119179      2.515516
-65.71249999999999,-6.467999299999999,-0.0      0.004632
-65.71249999999999,3.234,-5.6014517999999995    0.004632
-65.71249999999999,-3.234,5.6014517999999995    0.004632
-65.71249999999999,6.467999299999999,-0.0       0.004632
-65.71249999999999,-3.234,-5.6014517999999995   0.004632
-65.71249999999999,3.234,5.6014517999999995     0.004632
-270.025,0.0,6.2238351  -2.519484
-270.025,-5.3899992999999995,-3.1119179 -2.519484
-270.025,5.3899992999999995,-3.1119179  -2.519484
159.6,-4.3119993,0.0    6.927092
159.6,-2.1559999999999997,-3.7343012    6.927092
159.6,-2.1559999999999997,3.7343012     6.927092
159.6,2.1559999999999997,-3.7343012     6.927092
159.6,4.3119993,0.0     6.927092
159.6,2.1559999999999997,3.7343012      6.927092
148.3125,-6.467999299999999,-1.2447673  -0.625931
148.3125,-2.1559999999999997,6.2238351  -0.625931
148.3125,-4.3119993,-4.9790685  -0.625931
148.3125,4.3119993,-4.9790685   -0.625931
148.3125,2.1559999999999997,6.2238351   -0.625931
148.3125,6.467999299999999,-1.2447673   -0.625931
78.35624999999999,-6.467999299999999,0.0        1.892092
78.35624999999999,-3.234,-5.6014517999999995    1.892092
78.35624999999999,-3.234,5.6014517999999995     1.892092
78.35624999999999,3.234,-5.6014517999999995     1.892092
78.35624999999999,6.467999299999999,0.0 1.892092
78.35624999999999,3.234,5.6014517999999995      1.892092
-3.0242187499999997,-5.3899992999999995,1.8671506       -5.030367
-3.0242187499999997,-5.3899992999999995,-1.8671506      -5.030367
-3.0242187499999997,-4.3119993,-3.7343012       -5.030367
-3.0242187499999997,-4.3119993,3.7343012        -5.030367
-3.0242187499999997,-5.3899992999999995,1.8671506       5.039632
-3.0242187499999997,1.0779999999999998,-5.6014517999999995      -5.030367
-3.0242187499999997,-1.0779999999999998,-5.6014517999999995     -5.030367
-3.0242187499999997,-5.3899992999999995,-1.8671506      5.039632
-3.0242187499999997,-4.3119993,-3.7343012       5.039632
-3.0242187499999997,-1.0779999999999998,5.6014517999999995      -5.030367
-3.0242187499999997,1.0779999999999998,-5.6014517999999995      5.039632
-3.0242187499999997,-4.3119993,3.7343012        5.039632
-3.0242187499999997,-1.0779999999999998,-5.6014517999999995     5.039632
-3.0242187499999997,4.3119993,-3.7343012        -5.030367
-3.0242187499999997,1.0779999999999998,5.6014517999999995       -5.030367
-3.0242187499999997,5.3899992999999995,-1.8671506       -5.030367
-3.0242187499999997,5.3899992999999995,1.8671506        -5.030367
-3.0242187499999997,4.3119993,3.7343012 -5.030367
-3.0242187499999997,-1.0779999999999998,5.6014517999999995      5.039632
-3.0242187499999997,4.3119993,-3.7343012        5.039632
-3.0242187499999997,5.3899992999999995,-1.8671506       5.039632
-3.0242187499999997,1.0779999999999998,5.6014517999999995       5.039632
-3.0242187499999997,5.3899992999999995,1.8671506        5.039632
-3.0242187499999997,4.3119993,3.7343012 5.039632
-0.48124999999999996,-5.3899992999999995,-0.6223833     -5.660931
-0.48124999999999996,-3.234,-4.3566845  -5.660931
-0.48124999999999996,-2.1559999999999997,4.9790685      -5.660931
-0.48124999999999996,3.234,-4.3566845   -5.660931
-0.48124999999999996,2.1559999999999997,4.9790685       -5.660931
-0.48124999999999996,5.3899992999999995,-0.6223833      -5.660931
81.19999999999999,-1.0779999999999998,0.6223833 9.444068
81.19999999999999,0.0,-1.2447673        9.444068
81.19999999999999,1.0779999999999998,0.6223833  9.444068
35.918749999999996,-6.467999299999999,1.2447673 2.515516
35.918749999999996,-2.1559999999999997,-6.2238351       2.515516
35.918749999999996,2.1559999999999997,-6.2238351        2.515516
35.918749999999996,-4.3119993,4.9790685 2.515516
35.918749999999996,6.467999299999999,1.2447673  2.515516
35.918749999999996,4.3119993,4.9790685  2.515516
109.8125,-6.467999299999999,-1.2447673  -2.519484
109.8125,-2.1559999999999997,6.2238351  -2.519484
109.8125,-4.3119993,-4.9790685  -2.519484
109.8125,4.3119993,-4.9790685   -2.519484
109.8125,6.467999299999999,-1.2447673   -2.519484
109.8125,2.1559999999999997,6.2238351   -2.519484
153.73749999999998,-6.467999299999999,-0.0      -3.142907
153.73749999999998,-3.234,-5.6014517999999995   -3.142907
153.73749999999998,-3.234,5.6014517999999995    -3.142907
153.73749999999998,3.234,-5.6014517999999995    -3.142907
153.73749999999998,6.467999299999999,-0.0       -3.142907
153.73749999999998,3.234,5.6014517999999995     -3.142907
6.051855466999999,-3.234,-1.8671506     -8.177907
6.051855466999999,-3.234,1.8671506      -8.177907
6.051855466999999,3.234,1.8671506       -8.177907
6.051855466999999,3.234,-1.8671506      -8.177907
6.051855466999999,-0.0,-3.7343012       -8.177907
6.051855466999999,0.0,3.7343012 -8.177907
176.3125,-3.234,-3.1119179      7.550516
176.3125,-4.3119993,-1.2447673  7.550516
176.3125,-1.0779999999999998,4.3566845  7.550516
176.3125,3.234,-3.1119179       7.550516
176.3125,1.0779999999999998,4.3566845   7.550516
176.3125,4.3119993,-1.2447673   7.550516
-243.6,-3.234,3.1119179 -7.554483
-243.6,-4.3119993,1.2447673     -7.554483
-243.6,-1.0779999999999998,-4.3566845   -7.554483
-243.6,1.0779999999999998,-4.3566845    -7.554483
-243.6,4.3119993,1.2447673      -7.554483
-243.6,3.234,3.1119179  -7.554483
49.8859375,-5.3899992999999995,4.3566845        -0.625931
49.8859375,-6.467999299999999,2.4895339 -0.625931
49.8859375,-1.0779999999999998,-6.846219099999999       -0.625931
49.8859375,1.0779999999999998,-6.846219099999999        -0.625931
49.8859375,6.467999299999999,2.4895339  -0.625931
49.8859375,5.3899992999999995,4.3566845 -0.625931
-338.625,-0.0,-6.2238351        4.409069
-338.625,-5.3899992999999995,3.1119179  4.409069
-338.625,5.3899992999999995,3.1119179   4.409069

End of input

&SCF
Occupied
9
Iterations
   50  100
End of Input

&RASSCF
LumOrb
Symmetry
1
Spin
2
Nactel
1 0 0
CIRoot
9 9 1
inactive
9
ras2
9
End of Input

>>> COPY molybdenum_so_cf.JobIph $SLURM_SUBMIT_DIR/molybdenum_so_cf.doublet.JobIph

>>> COPY $SLURM_SUBMIT_DIR/molybdenum_so_cf.doublet.JobIph ./JOB002

&RASSI
NROFJobIph
1 All
SpinOrbit
End of Input

EOF

-- ----------------------------------

--- Start Module: seward at Wed Mar 26 12:01:06 2025 ---

()()()()()()()()()()()()()()()()()()()()()()()()()()()()()()()()()()()()()()()()()()()()()()()()()()

                                              &SEWARD

                                   only a single process is used
                       available to each process: 4.1 GB of memory, 1 thread?
                                            pid: 3924117
()()()()()()()()()()()()()()()()()()()()()()()()()()()()()()()()()()()()()()()()()()()()()()()()()()

 The speed of LIGHT in this CALCULATION =   137.03599917700001     
               SEWARD will generate:
                  Multipole Moment integrals up to order  2
                  Kinetic Energy integrals
                  Nuclear Attraction integrals (point charge)
                  One-Electron Hamiltonian integrals
                  Velocity integrals
                  Relativistic Douglas-Kroll-Hess integrals:
                    - Parametrization         : EXP
                    - DKH order of Hamiltonian: 2
                    - DKH order of Properties : 0
                         - multipole moment operators
                         - electric potential operators
                         - contact operators
                  External field from   414 point(s) added to the one-electron Hamiltonian
                  Orbital angular momentum around (-0.0000 -0.0000  0.0088 )
                  Velocity quadrupole around (-0.0000 -0.0000  0.0088 )
                  Atomic mean-field integrals
                  Two-Electron Repulsion integrals

                   Integrals are discarded if absolute value <: 0.10E-13
                   Integral cutoff threshold is set to       <: 0.10E-15

++    Symmetry information:
      ---------------------

                    Character Table for C1 

                             E  
                    a        1  x, y, xy, Rz, z, xz, Ry, yz, Rx, I
--


++    Basis set information:
      ----------------------


      Basis set label: MO.ANO-RCC.ROOS.21S18P13D6F4G2H.10S9P9D6F4G2H......

      Electronic valence basis set:
      ------------------
      Associated Effective Charge  42.000000 au
      Associated Actual Charge     42.000000 au
      Nuclear Model: Point charge

      Shell  nPrim  nBasis  Cartesian Spherical Contaminant
         s      21      10        X                  
         p      18       9        X                  
         d      13       9                 X         
         f       6       6                 X         
         g       4       4                 X         
         h       2       2                 X         
--


++    Molecular structure info:
      -------------------------

                    ************************************************ 
                    **** Cartesian Coordinates / Bohr, Angstrom **** 
                    ************************************************ 

     Center  Label                x              y              z                     x              y              z
        1      MO              -0.000000      -0.000000       0.008754             -0.000000      -0.000000       0.004632
--


++    Operator info:
      --------------


  Net charge from external field:   -39.268449999999902     
--


            Nuclear Potential Energy              0.00000000 au

                    Nuclear-External Field Potential Energy    -548.93775336 au
                    External Field Potential Energy            2293.76700198 au 


            Total Nuclear Potential Energy           -548.93775336 au


      Basis set specifications :
      Symmetry species         a  
      Basis functions          182

 Sorry, Molden does not know how to handle
 functions with angular momentum larger than g
Note: The following floating-point exceptions are signalling: IEEE_UNDERFLOW_FLAG IEEE_DENORMAL
--- Stop Module: seward at Wed Mar 26 12:01:16 2025 /rc=_RC_ALL_IS_WELL_ ---
*** files: molybdenum_so_cf.GssOrb xmldump
    saved to directory /home4/s4752295/Internship/Initial_simulations/Point_charge_model/1_electron/Madelung_charges_9_active_space/Mo
--- Module seward spent 9 seconds ---

*** symbolic link created: INPORB -> molybdenum_so_cf.GssOrb
--- Start Module: scf at Wed Mar 26 12:01:16 2025 ---

()()()()()()()()()()()()()()()()()()()()()()()()()()()()()()()()()()()()()()()()()()()()()()()()()()

                                                &SCF

                                   only a single process is used
                       available to each process: 4.1 GB of memory, 1 thread?
                                            pid: 3924168
()()()()()()()()()()()()()()()()()()()()()()()()()()()()()()()()()()()()()()()()()()()()()()()()()()

++    Input section:
      --------------

      Header of the integral files:
      
       Integrals generated by seward 4.2.0  , Wed Mar 26 12:01:06 2025


      Cartesian coordinates in Angstrom:
      -----------------------------------------------------
      No.  Label        X            Y            Z        
      -----------------------------------------------------
       1   MO        -0.00000000  -0.00000000   0.00463220
      -----------------------------------------------------
      Nuclear repulsion energy = -548.93775336
--

++    Orbital specifications:
      -----------------------

      Symmetry species               1
                                     a
      Frozen orbitals                0
      Occupied orbitals              9
      Secondary orbitals           173
      Deleted orbitals               0
      Total number of orbitals     182
      Number of basis functions    182
--

      Molecular charge                          24.000

++    Optimization specifications:
      ----------------------------

      SCF Algorithm: Conventional
      Minimized density differences are used
      Number of density matrices in core                5
      Maximum number of NDDO SCF iterations            50
      Maximum number of HF SCF iterations             100
      Threshold for SCF energy change            0.10E-08
      Threshold for density matrix               0.10E-03
      Threshold for Fock matrix                  0.15E-03
      Threshold for linear dependence            0.10E-08
      Threshold at which DIIS is turned on       0.15E+00
      Threshold at which QNR/C2DIIS is turned on 0.75E-01
      Threshold for Norm(delta) (QNR/C2DIIS)     0.20E-04
      DIIS extrapolation of the SCF procedure
      All orbitals punched on: SCFORB
--

      Detected guessorb starting orbitals                                             


++ Convergence information
                                   SCF        iterations: Energy and convergence statistics

Iter     Tot. SCF        One-elec.       Two-elec.     Energy      Max Dij or  Max Fij      DNorm      TNorm      AccCon     Time
         Energy          Energy          Energy        Change      Delta Norm                                                in Sec.

 The total and one-electron energies are shifted by a value of      3000. a.u.

   1  -991.333330620 -1063.505865373   621.110288109   0.00E+00    0.31E+00*   0.30E+01*    0.60E+01   0.35E+03   None         1.
   2  -997.413528586 -1106.074607302   657.598832072  -0.61E+01*   0.13E-01*   0.27E+00*    0.14E+01   0.36E+03   EDIIS        1.
   3  -997.434292205 -1104.230049497   655.733510648  -0.21E-01*   0.24E-02*   0.14E-01*    0.57E-01   0.36E+03   EDIIS        1.
   4  -997.434420688 -1104.355371744   655.858704412  -0.13E-03*   0.17E-03*   0.20E-02*    0.45E-02   0.36E+03   c2DIIS       1.
   5  -997.434422666 -1104.348524650   655.851855339  -0.20E-05*   0.24E-04*   0.15E-03*    0.19E-03   0.36E+03   QNRc2DIIS    1.
   6  -997.434422677 -1104.348424327   655.851755006  -0.11E-07*   0.44E-05    0.25E-04     0.32E-04   0.36E+03   QNRc2DIIS    1.
   7  -997.434422677 -1104.348426121   655.851756800  -0.46E-09    0.19E-05    0.55E-05     0.64E-05   0.36E+03   QNRc2DIIS    1.

       Convergence after  7 Macro Iterations
--

 *****************************************************************************************************************************
 *                                                                                                                           *
 *                                             SCF/KS-DFT Program, Final results                                             *
 *                                                                                                                           *
 *                                                                                                                           *
 *                                                                                                                           *
 *                                                       Final Results                                                       *
 *                                                                                                                           *
 *****************************************************************************************************************************

::    Total SCF energy                              -3997.4344226775
      One-electron energy                           -4104.3484261213
      Two-electron energy                             655.8517567999
      Nuclear repulsion energy                       -548.9377533560
      Kinetic energy (interpolated)                  4119.1993476660
      Virial theorem                                    0.9704396620
      Total spin, S(S+1)                                0.0000000000
      Total spin, S                                     0.0000000000
      Max non-diagonal density matrix element           0.0000024941
      Max non-diagonal Fock matrix element              0.0000037607


      All orbitals with orbital energies smaller than  E(LUMO)+0.5 are printed

++    Molecular orbitals:
      -------------------

      Title: SCF orbitals

      Molecular orbitals for symmetry species 1: a  

          Orbital            1         2         3         4         5         6         7         8         9        10    
          Energy         -764.0882 -131.8934 -120.5096 -120.5096 -120.5066  -37.7264  -33.7143  -33.7143  -33.6599  -26.5422
          Occ. No.          2.0000    2.0000    2.0000    2.0000    2.0000    2.0000    2.0000    2.0000    2.0000    0.0000

        1 MO     1s         1.0000   -0.0001    0.0000   -0.0000   -0.0000    0.0001   -0.0000    0.0000    0.0000    0.0000
        2 MO     2s         0.0001    0.9999    0.0000   -0.0000   -0.0048    0.0128    0.0000   -0.0000   -0.0016   -0.0000
        3 MO     3s        -0.0001   -0.0122   -0.0000    0.0000    0.0006    0.9856    0.0001   -0.0000   -0.0810   -0.0000
        4 MO     4s         0.0000    0.0030    0.0000   -0.0000   -0.0001   -0.0986   -0.0000    0.0000    0.0129    0.0000
        5 MO     5s        -0.0000   -0.0007   -0.0000    0.0000    0.0000    0.0213    0.0000   -0.0000   -0.0028   -0.0000
        6 MO     6s         0.0000    0.0008    0.0000   -0.0000   -0.0000   -0.0249   -0.0000    0.0000    0.0033    0.0000
        7 MO     7s        -0.0000   -0.0025   -0.0000    0.0000    0.0001    0.0687    0.0000   -0.0000   -0.0093   -0.0000
        8 MO     8s         0.0000    0.0023    0.0000   -0.0000   -0.0001   -0.0526   -0.0000    0.0000    0.0072    0.0000
        9 MO     9s        -0.0000   -0.0025   -0.0000    0.0000    0.0001    0.0461    0.0000   -0.0000   -0.0063   -0.0000
       10 MO    10s         0.0001    0.0029    0.0000   -0.0000   -0.0001   -0.0314   -0.0000    0.0000    0.0042    0.0000
       11 MO     2px        0.0000    0.0048   -0.0039    0.0000    0.9999    0.0006   -0.0000    0.0000    0.0145    0.0000
       12 MO     3px       -0.0000    0.0004    0.0001   -0.0000   -0.0137    0.0830   -0.0028    0.0000    0.9802    0.0000
       13 MO     4px        0.0000   -0.0001   -0.0000    0.0000    0.0030   -0.0058    0.0003   -0.0000   -0.1070   -0.0000
       14 MO     5px       -0.0000    0.0000    0.0000   -0.0000   -0.0010    0.0018   -0.0001    0.0000    0.0342    0.0000
       15 MO     6px        0.0000   -0.0001   -0.0000    0.0000    0.0026   -0.0039    0.0002   -0.0000   -0.0790   -0.0000
       16 MO     7px       -0.0000    0.0001    0.0000   -0.0000   -0.0024    0.0029   -0.0002    0.0000    0.0631    0.0000
       17 MO     8px        0.0000   -0.0001   -0.0000    0.0000    0.0029   -0.0025    0.0002   -0.0000   -0.0632   -0.0000
       18 MO     9px       -0.0000    0.0001    0.0000   -0.0000   -0.0027    0.0016   -0.0001    0.0000    0.0465    0.0000
       19 MO    10px        0.0000   -0.0001   -0.0000    0.0000    0.0022   -0.0006    0.0001   -0.0000   -0.0212   -0.0000
       20 MO     2py        0.0000    0.0000    0.0000    0.9999   -0.0000    0.0000    0.0000    0.0145    0.0000    0.0000
       21 MO     3py        0.0000   -0.0000   -0.0000   -0.0136    0.0000    0.0000    0.0000    0.9843    0.0000    0.0005
       22 MO     4py       -0.0000    0.0000    0.0000    0.0030   -0.0000   -0.0000   -0.0000   -0.1068   -0.0000   -0.0001
       23 MO     5py        0.0000   -0.0000   -0.0000   -0.0010    0.0000    0.0000    0.0000    0.0341    0.0000    0.0000
       24 MO     6py       -0.0000    0.0000    0.0000    0.0026   -0.0000   -0.0000   -0.0000   -0.0788   -0.0000   -0.0001
       25 MO     7py        0.0000   -0.0000   -0.0000   -0.0023    0.0000    0.0000    0.0000    0.0629    0.0000    0.0001
       26 MO     8py       -0.0000    0.0000    0.0000    0.0029   -0.0000   -0.0000   -0.0000   -0.0629   -0.0000   -0.0001
       27 MO     9py        0.0000   -0.0000   -0.0000   -0.0027    0.0000    0.0000    0.0000    0.0462    0.0000    0.0000
       28 MO    10py       -0.0000    0.0000    0.0000    0.0022   -0.0000   -0.0000   -0.0000   -0.0211   -0.0000   -0.0000
       29 MO     2pz        0.0000    0.0000    0.9999   -0.0000    0.0039    0.0000    0.0145   -0.0000    0.0000    0.0000
       30 MO     3pz       -0.0000    0.0000   -0.0136    0.0000   -0.0001    0.0001    0.9842   -0.0000    0.0028    0.0000
       31 MO     4pz        0.0000   -0.0000    0.0030   -0.0000    0.0000   -0.0000   -0.1068    0.0000   -0.0003   -0.0000
       32 MO     5pz       -0.0000    0.0000   -0.0010    0.0000   -0.0000    0.0000    0.0341   -0.0000    0.0001    0.0000
       33 MO     6pz        0.0000   -0.0000    0.0026   -0.0000    0.0000   -0.0000   -0.0788    0.0000   -0.0002   -0.0000
       34 MO     7pz       -0.0000    0.0000   -0.0023    0.0000   -0.0000    0.0000    0.0629   -0.0000    0.0002    0.0000
       35 MO     8pz        0.0000   -0.0000    0.0029   -0.0000    0.0000   -0.0000   -0.0629    0.0000   -0.0002   -0.0000
       36 MO     9pz       -0.0000    0.0000   -0.0027    0.0000   -0.0000    0.0000    0.0462   -0.0000    0.0001    0.0000
       37 MO    10pz        0.0000   -0.0000    0.0022   -0.0000    0.0000   -0.0000   -0.0211    0.0000   -0.0001   -0.0000
       38 MO     3d2-       0.0000    0.0000    0.0000    0.0004   -0.0000    0.0000    0.0000    0.0418    0.0000   -0.0130
       39 MO     4d2-      -0.0000   -0.0000   -0.0000   -0.0001    0.0000   -0.0000   -0.0000   -0.0024   -0.0000    0.0013
       40 MO     5d2-       0.0000    0.0000    0.0000    0.0001   -0.0000    0.0000    0.0000    0.0023    0.0000   -0.0014
       41 MO     6d2-      -0.0000   -0.0000   -0.0000   -0.0001    0.0000   -0.0000   -0.0000   -0.0017   -0.0000    0.0012
       42 MO     7d2-       0.0000    0.0000    0.0000    0.0001   -0.0000    0.0000    0.0000    0.0011    0.0000   -0.0010
       43 MO     8d2-       0.0000   -0.0000   -0.0000   -0.0001    0.0000   -0.0000   -0.0000   -0.0008   -0.0000    0.0010
       44 MO     9d2-      -0.0000    0.0000    0.0000    0.0001   -0.0000   -0.0000    0.0000    0.0003    0.0000   -0.0008
       45 MO    10d2-       0.0000   -0.0000   -0.0000   -0.0001    0.0000   -0.0000    0.0000    0.0001    0.0000    0.0008
       46 MO    11d2-      -0.0000    0.0000    0.0000    0.0000   -0.0000    0.0000   -0.0000   -0.0001   -0.0000   -0.0001
       47 MO     3d1-       0.0000   -0.0000    0.0000    0.0000   -0.0000   -0.0000    0.0000    0.0000   -0.0000    0.9757
       48 MO     4d1-      -0.0000    0.0000   -0.0000   -0.0000    0.0000    0.0000   -0.0000   -0.0000    0.0000   -0.0979
       49 MO     5d1-       0.0000   -0.0000    0.0000    0.0000   -0.0000   -0.0000    0.0000    0.0000   -0.0000    0.1043
       50 MO     6d1-      -0.0000    0.0000   -0.0000   -0.0000    0.0000    0.0000   -0.0000   -0.0000    0.0000   -0.0886
       51 MO     7d1-       0.0000   -0.0000    0.0000    0.0000   -0.0000   -0.0000    0.0000    0.0000   -0.0000    0.0772
       52 MO     8d1-      -0.0000    0.0000   -0.0000   -0.0000    0.0000    0.0000   -0.0000   -0.0000    0.0000   -0.0791
       53 MO     9d1-       0.0000   -0.0000    0.0000    0.0000   -0.0000    0.0000    0.0000    0.0000   -0.0000    0.0602
       54 MO    10d1-      -0.0000    0.0000   -0.0000   -0.0000    0.0000   -0.0000   -0.0000   -0.0000    0.0000   -0.0590
       55 MO    11d1-       0.0000   -0.0000    0.0000    0.0000    0.0000    0.0000   -0.0000   -0.0000    0.0000    0.0088
       56 MO     3d0        0.0000    0.0000    0.0000   -0.0000   -0.0002   -0.0001    0.0001   -0.0000   -0.0251   -0.0000
       57 MO     4d0       -0.0000   -0.0000   -0.0000    0.0000    0.0000    0.0000   -0.0000    0.0000    0.0014    0.0000
       58 MO     5d0        0.0000    0.0000    0.0000   -0.0000   -0.0000   -0.0000    0.0000   -0.0000   -0.0013   -0.0000
       59 MO     6d0       -0.0000   -0.0000   -0.0000    0.0000    0.0000    0.0000   -0.0000    0.0000    0.0010    0.0000
       60 MO     7d0        0.0000    0.0000    0.0000   -0.0000   -0.0000   -0.0000    0.0000   -0.0000   -0.0007   -0.0000
       61 MO     8d0       -0.0000   -0.0000   -0.0000    0.0000    0.0000    0.0000   -0.0000    0.0000    0.0005    0.0000
       62 MO     9d0        0.0000    0.0000    0.0000   -0.0000   -0.0000    0.0000    0.0000   -0.0000   -0.0002   -0.0000
       63 MO    10d0       -0.0000   -0.0000   -0.0000    0.0000    0.0001    0.0000    0.0000   -0.0000   -0.0000    0.0000
       64 MO    11d0        0.0000    0.0000    0.0000   -0.0000   -0.0000    0.0000   -0.0000    0.0000    0.0000   -0.0000
       65 MO     3d1+      -0.0000   -0.0000    0.0004   -0.0000    0.0000   -0.0000    0.0419   -0.0000    0.0002   -0.0000
       66 MO     4d1+       0.0000    0.0000   -0.0001    0.0000   -0.0000    0.0000   -0.0024    0.0000   -0.0000    0.0000
       67 MO     5d1+      -0.0000   -0.0000    0.0001   -0.0000    0.0000    0.0000    0.0023   -0.0000    0.0000   -0.0000
       68 MO     6d1+       0.0000    0.0000   -0.0001    0.0000   -0.0000   -0.0000   -0.0017    0.0000   -0.0000    0.0000
       69 MO     7d1+      -0.0000   -0.0000    0.0001   -0.0000    0.0000    0.0000    0.0011   -0.0000    0.0000   -0.0000
       70 MO     8d1+       0.0000    0.0000   -0.0001    0.0000   -0.0000   -0.0000   -0.0008    0.0000   -0.0000    0.0000
       71 MO     9d1+      -0.0000   -0.0000    0.0001   -0.0000    0.0000    0.0000    0.0003   -0.0000    0.0000   -0.0000
       72 MO    10d1+       0.0000    0.0000   -0.0001    0.0000   -0.0000   -0.0000    0.0001   -0.0000    0.0000    0.0000
       73 MO    11d1+      -0.0000   -0.0000    0.0000   -0.0000    0.0000    0.0000   -0.0001    0.0000   -0.0000   -0.0000
       74 MO     3d2+      -0.0000   -0.0000   -0.0000    0.0000    0.0004    0.0001   -0.0001    0.0000    0.0434   -0.0000
       75 MO     4d2+       0.0000    0.0000    0.0000   -0.0000   -0.0001   -0.0000    0.0000   -0.0000   -0.0024    0.0000
       76 MO     5d2+      -0.0000   -0.0000   -0.0000    0.0000    0.0001   -0.0000   -0.0000    0.0000    0.0023   -0.0000
       77 MO     6d2+       0.0000    0.0000    0.0000   -0.0000   -0.0001   -0.0000    0.0000   -0.0000   -0.0017    0.0000
       78 MO     7d2+      -0.0000   -0.0000   -0.0000    0.0000    0.0001    0.0000   -0.0000    0.0000    0.0011   -0.0000
       79 MO     8d2+       0.0000    0.0000    0.0000   -0.0000   -0.0001   -0.0000    0.0000   -0.0000   -0.0008    0.0000
       80 MO     9d2+      -0.0000   -0.0000   -0.0000    0.0000    0.0001   -0.0000   -0.0000    0.0000    0.0003   -0.0000
       81 MO    10d2+       0.0000    0.0000    0.0000   -0.0000   -0.0001   -0.0000   -0.0000   -0.0000    0.0000    0.0000
       82 MO    11d2+      -0.0000   -0.0000   -0.0000    0.0000    0.0000   -0.0000    0.0000   -0.0000   -0.0001   -0.0000
       83 MO     4f3-      -0.0000   -0.0000   -0.0000   -0.0000    0.0000    0.0000   -0.0000   -0.0000   -0.0000   -0.0001
       84 MO     5f3-      -0.0000   -0.0000   -0.0000   -0.0000    0.0000    0.0000   -0.0000   -0.0001    0.0000   -0.0001
       85 MO     6f3-       0.0000    0.0000    0.0000    0.0000   -0.0000   -0.0000    0.0000    0.0001    0.0000    0.0001
       86 MO     7f3-      -0.0000   -0.0000   -0.0000   -0.0000    0.0000    0.0000   -0.0000   -0.0001   -0.0000   -0.0000
       87 MO     8f3-       0.0000   -0.0000   -0.0000   -0.0000    0.0000    0.0000   -0.0000   -0.0000   -0.0000   -0.0000
       88 MO     9f3-      -0.0000    0.0000    0.0000    0.0000   -0.0000   -0.0000    0.0000    0.0002    0.0000    0.0001
       89 MO     4f2-       0.0000   -0.0000   -0.0000   -0.0000    0.0000   -0.0000   -0.0000   -0.0000   -0.0000    0.0026
       90 MO     5f2-       0.0000   -0.0000   -0.0000   -0.0000    0.0000   -0.0000   -0.0000   -0.0000   -0.0000    0.0030
       91 MO     6f2-      -0.0000    0.0000    0.0000    0.0000   -0.0000    0.0000    0.0000    0.0000    0.0000   -0.0030
       92 MO     7f2-       0.0000   -0.0000   -0.0000   -0.0000    0.0000   -0.0000   -0.0000   -0.0000   -0.0000    0.0027
       93 MO     8f2-       0.0000   -0.0000   -0.0000   -0.0000    0.0000   -0.0000   -0.0000   -0.0000   -0.0000    0.0016
       94 MO     9f2-       0.0000    0.0000    0.0000    0.0000   -0.0000    0.0000    0.0000    0.0000    0.0000   -0.0067
       95 MO     4f1-       0.0000    0.0000    0.0000    0.0000   -0.0000    0.0000    0.0000    0.0000    0.0000    0.0000
       96 MO     5f1-       0.0000    0.0000    0.0000    0.0000   -0.0000    0.0000    0.0000    0.0000    0.0000    0.0000
       97 MO     6f1-      -0.0000   -0.0000   -0.0000   -0.0000    0.0000   -0.0000   -0.0000   -0.0000   -0.0000   -0.0000
       98 MO     7f1-       0.0000    0.0000    0.0000    0.0000   -0.0000    0.0000    0.0000    0.0000    0.0000    0.0000
       99 MO     8f1-       0.0000    0.0000    0.0000    0.0000   -0.0000    0.0000    0.0000    0.0000    0.0000    0.0000
      100 MO     9f1-       0.0000   -0.0000   -0.0000   -0.0000    0.0000   -0.0000   -0.0000   -0.0000   -0.0000   -0.0000
      101 MO     4f0       -0.0000   -0.0000    0.0000   -0.0000    0.0000    0.0000    0.0000   -0.0000    0.0000    0.0000
      102 MO     5f0        0.0000    0.0000    0.0000   -0.0000    0.0000    0.0000    0.0000   -0.0000    0.0000    0.0000
      103 MO     6f0        0.0000    0.0000   -0.0000    0.0000   -0.0000    0.0000   -0.0000    0.0000   -0.0000   -0.0000
      104 MO     7f0       -0.0000   -0.0000    0.0000   -0.0000    0.0000    0.0000    0.0000   -0.0000    0.0000    0.0000
      105 MO     8f0        0.0000    0.0000    0.0000   -0.0000    0.0000    0.0000    0.0000   -0.0000    0.0000    0.0000
      106 MO     9f0        0.0000    0.0000   -0.0000    0.0000   -0.0000   -0.0000   -0.0001    0.0000   -0.0000   -0.0000
      107 MO     4f1+       0.0000   -0.0000    0.0000    0.0000    0.0000   -0.0000    0.0000   -0.0000    0.0001   -0.0000
      108 MO     5f1+      -0.0000   -0.0000    0.0000    0.0000    0.0000   -0.0000    0.0000   -0.0000    0.0001   -0.0000
      109 MO     6f1+      -0.0000    0.0000   -0.0000   -0.0000   -0.0000    0.0000   -0.0000    0.0000   -0.0001    0.0000
      110 MO     7f1+       0.0000   -0.0000    0.0000    0.0000    0.0000   -0.0000    0.0000   -0.0000    0.0001   -0.0000
      111 MO     8f1+       0.0000   -0.0000    0.0000    0.0000    0.0000   -0.0000    0.0000   -0.0000    0.0000   -0.0000
      112 MO     9f1+      -0.0000    0.0000   -0.0000   -0.0000   -0.0000    0.0001   -0.0000    0.0000   -0.0001    0.0000
      113 MO     4f2+      -0.0000   -0.0000   -0.0000    0.0000    0.0000    0.0000   -0.0000    0.0000    0.0000   -0.0000
      114 MO     5f2+       0.0000    0.0000   -0.0000    0.0000    0.0000    0.0000   -0.0000    0.0000    0.0000   -0.0000
      115 MO     6f2+       0.0000    0.0000    0.0000   -0.0000   -0.0000   -0.0000    0.0001   -0.0000   -0.0000    0.0000
      116 MO     7f2+      -0.0000   -0.0000   -0.0000    0.0000    0.0000    0.0000   -0.0001    0.0000    0.0000   -0.0000
      117 MO     8f2+       0.0000    0.0000   -0.0000    0.0000   -0.0000    0.0000   -0.0000    0.0000    0.0000   -0.0000
      118 MO     9f2+       0.0000   -0.0000    0.0000   -0.0000    0.0000   -0.0000    0.0001   -0.0000   -0.0000    0.0000
      119 MO     4f3+      -0.0000    0.0000    0.0000   -0.0000   -0.0000    0.0000    0.0000   -0.0000   -0.0001   -0.0000
      120 MO     5f3+       0.0000    0.0000    0.0000   -0.0000   -0.0000    0.0000    0.0000   -0.0000   -0.0001   -0.0000
      121 MO     6f3+       0.0000   -0.0000   -0.0000    0.0000    0.0000   -0.0000   -0.0000    0.0000    0.0001    0.0000
      122 MO     7f3+      -0.0000    0.0000    0.0000   -0.0000   -0.0000    0.0000    0.0000   -0.0000   -0.0001   -0.0000
      123 MO     8f3+      -0.0000    0.0000    0.0000   -0.0000   -0.0000    0.0000    0.0000   -0.0000   -0.0000   -0.0000
      124 MO     9f3+       0.0000   -0.0000   -0.0000    0.0000    0.0000   -0.0001   -0.0000    0.0000    0.0002    0.0000
      125 MO     5g4-      -0.0000    0.0000    0.0000    0.0000   -0.0000    0.0000    0.0000    0.0000    0.0000    0.0000
      126 MO     6g4-       0.0000   -0.0000   -0.0000   -0.0000    0.0000   -0.0000   -0.0000   -0.0000   -0.0000   -0.0000
      127 MO     7g4-      -0.0000    0.0000    0.0000    0.0000   -0.0000    0.0000    0.0000    0.0000    0.0000    0.0000
      128 MO     8g4-       0.0000   -0.0000   -0.0000   -0.0000    0.0000   -0.0000   -0.0000   -0.0000   -0.0000   -0.0000
      129 MO     5g3-       0.0000    0.0000   -0.0000   -0.0000    0.0000    0.0000   -0.0000   -0.0000   -0.0000   -0.0000
      130 MO     6g3-      -0.0000   -0.0000    0.0000    0.0000   -0.0000   -0.0000    0.0000    0.0000    0.0000    0.0001
      131 MO     7g3-       0.0000    0.0000   -0.0000   -0.0000    0.0000    0.0000   -0.0000   -0.0000   -0.0000   -0.0001
      132 MO     8g3-      -0.0000   -0.0000    0.0000    0.0000   -0.0000   -0.0000    0.0000    0.0000    0.0000    0.0001
      133 MO     5g2-      -0.0000   -0.0000   -0.0000   -0.0000    0.0000   -0.0000   -0.0000   -0.0000   -0.0000   -0.0000
      134 MO     6g2-       0.0000    0.0000    0.0000    0.0000   -0.0000    0.0000    0.0000    0.0000    0.0000    0.0000
      135 MO     7g2-      -0.0000   -0.0000   -0.0000   -0.0000    0.0000   -0.0000   -0.0000   -0.0000   -0.0000   -0.0000
      136 MO     8g2-       0.0000    0.0000    0.0000    0.0000   -0.0000    0.0000    0.0000    0.0000    0.0000    0.0000
      137 MO     5g1-       0.0000   -0.0000    0.0000    0.0000    0.0000    0.0000    0.0000    0.0000   -0.0000    0.0000
      138 MO     6g1-      -0.0000    0.0000   -0.0000   -0.0000    0.0000   -0.0000   -0.0000   -0.0000   -0.0000   -0.0000
      139 MO     7g1-       0.0000   -0.0000    0.0000    0.0000   -0.0000   -0.0000    0.0000    0.0000   -0.0000    0.0000
      140 MO     8g1-      -0.0000    0.0000   -0.0000   -0.0000   -0.0000   -0.0000   -0.0000   -0.0000    0.0000   -0.0000
      141 MO     5g0        0.0000    0.0000   -0.0000    0.0000    0.0000   -0.0000   -0.0000    0.0000    0.0000   -0.0000
      142 MO     6g0        0.0000    0.0000    0.0000   -0.0000   -0.0000    0.0000    0.0000   -0.0000   -0.0000    0.0000
      143 MO     7g0        0.0000    0.0000   -0.0000    0.0000    0.0000   -0.0000   -0.0000    0.0000    0.0000   -0.0000
      144 MO     8g0        0.0000    0.0000    0.0000   -0.0000   -0.0000    0.0000    0.0000   -0.0000   -0.0000    0.0000
      145 MO     5g1+      -0.0000   -0.0000   -0.0000    0.0000    0.0000    0.0000   -0.0000    0.0000    0.0000   -0.0000
      146 MO     6g1+      -0.0000   -0.0000    0.0000   -0.0000   -0.0000   -0.0000    0.0000   -0.0000   -0.0000    0.0000
      147 MO     7g1+      -0.0000    0.0000   -0.0000    0.0000    0.0000    0.0000   -0.0000    0.0000    0.0000   -0.0000
      148 MO     8g1+       0.0000    0.0000    0.0000   -0.0000   -0.0000   -0.0000    0.0000   -0.0000   -0.0000    0.0000
      149 MO     5g2+      -0.0000   -0.0000    0.0000   -0.0000   -0.0000    0.0000    0.0000   -0.0000   -0.0000    0.0000
      150 MO     6g2+      -0.0000   -0.0000   -0.0000    0.0000    0.0000   -0.0000   -0.0000    0.0000    0.0000   -0.0000
      151 MO     7g2+      -0.0000   -0.0000    0.0000   -0.0000   -0.0000    0.0000    0.0000   -0.0000   -0.0000    0.0000
      152 MO     8g2+      -0.0000   -0.0000   -0.0000    0.0000    0.0000   -0.0000   -0.0000    0.0000    0.0000   -0.0000
      153 MO     5g3+      -0.0000   -0.0000    0.0000   -0.0000    0.0000    0.0000    0.0000   -0.0000    0.0000    0.0000
      154 MO     6g3+      -0.0000   -0.0000   -0.0000    0.0000   -0.0000   -0.0000   -0.0000    0.0000   -0.0000   -0.0000
      155 MO     7g3+      -0.0000    0.0000    0.0000   -0.0000    0.0000    0.0000    0.0000   -0.0000    0.0000    0.0000
      156 MO     8g3+       0.0000    0.0000   -0.0000    0.0000   -0.0000   -0.0000   -0.0000    0.0000   -0.0000   -0.0000
      157 MO     5g4+       0.0000    0.0000    0.0000    0.0000    0.0000   -0.0000    0.0000   -0.0000    0.0000    0.0000
      158 MO     6g4+       0.0000    0.0000   -0.0000    0.0000   -0.0000    0.0000   -0.0000    0.0000   -0.0000   -0.0000
      159 MO     7g4+       0.0000    0.0000    0.0000   -0.0000    0.0000   -0.0000    0.0000   -0.0000    0.0000    0.0000
      160 MO     8g4+       0.0000    0.0000   -0.0000   -0.0000   -0.0000    0.0000   -0.0000    0.0000   -0.0000   -0.0000
      161 MO     6h5-      -0.0000   -0.0000   -0.0000   -0.0000   -0.0000   -0.0000   -0.0000   -0.0000    0.0000    0.0000
      162 MO     7h5-       0.0000    0.0000    0.0000    0.0000    0.0000    0.0000    0.0000    0.0000   -0.0000   -0.0000
      163 MO     6h4-       0.0000    0.0000    0.0000    0.0000   -0.0000   -0.0000    0.0000    0.0000    0.0000    0.0000
      164 MO     7h4-      -0.0000   -0.0000   -0.0000   -0.0000    0.0000   -0.0000   -0.0000   -0.0000   -0.0000   -0.0000
      165 MO     6h3-      -0.0000   -0.0000    0.0000    0.0000   -0.0000   -0.0000    0.0000    0.0000    0.0000   -0.0000
      166 MO     7h3-       0.0000    0.0000   -0.0000   -0.0000    0.0000    0.0000   -0.0000   -0.0000   -0.0000    0.0000
      167 MO     6h2-       0.0000    0.0000    0.0000    0.0000   -0.0000    0.0000    0.0000    0.0000    0.0000   -0.0000
      168 MO     7h2-      -0.0000   -0.0000   -0.0000   -0.0000    0.0000    0.0000   -0.0000   -0.0000   -0.0000    0.0000
      169 MO     6h1-      -0.0000   -0.0000   -0.0000   -0.0000   -0.0000   -0.0000   -0.0000   -0.0000    0.0000   -0.0000
      170 MO     7h1-       0.0000    0.0000    0.0000    0.0000    0.0000    0.0000    0.0000    0.0000    0.0000    0.0000
      171 MO     6h0        0.0000    0.0000   -0.0000    0.0000   -0.0000   -0.0000   -0.0000    0.0000   -0.0000    0.0000
      172 MO     7h0        0.0000    0.0000    0.0000   -0.0000    0.0000    0.0000    0.0000   -0.0000    0.0000   -0.0000
      173 MO     6h1+       0.0000    0.0000    0.0000   -0.0000   -0.0000   -0.0000    0.0000   -0.0000   -0.0000    0.0000
      174 MO     7h1+       0.0000    0.0000   -0.0000    0.0000    0.0000    0.0000   -0.0000    0.0000    0.0000   -0.0000
      175 MO     6h2+      -0.0000   -0.0000    0.0000   -0.0000    0.0000    0.0000    0.0000   -0.0000    0.0000   -0.0000
      176 MO     7h2+      -0.0000   -0.0000   -0.0000    0.0000   -0.0000   -0.0000   -0.0000    0.0000   -0.0000    0.0000
      177 MO     6h3+      -0.0000   -0.0000    0.0000   -0.0000    0.0000   -0.0000    0.0000   -0.0000    0.0000   -0.0000
      178 MO     7h3+      -0.0000   -0.0000   -0.0000    0.0000   -0.0000   -0.0000   -0.0000    0.0000   -0.0000    0.0000
      179 MO     6h4+      -0.0000   -0.0000   -0.0000    0.0000    0.0000    0.0000   -0.0000    0.0000    0.0000    0.0000
      180 MO     7h4+      -0.0000   -0.0000    0.0000   -0.0000   -0.0000   -0.0000    0.0000   -0.0000   -0.0000   -0.0000
      181 MO     6h5+       0.0000    0.0000   -0.0000    0.0000   -0.0000    0.0000    0.0000   -0.0000   -0.0000   -0.0000
      182 MO     7h5+       0.0000    0.0000   -0.0000    0.0000    0.0000    0.0000   -0.0000    0.0000    0.0000    0.0000

          Orbital           11        12        13        14    
          Energy          -26.5422  -26.5180  -26.5180  -26.5081
          Occ. No.          0.0000    0.0000    0.0000    0.0000

        1 MO     1s        -0.0000    0.0000    0.0000   -0.0000
        2 MO     2s         0.0000   -0.0000   -0.0000    0.0001
        3 MO     3s         0.0000   -0.0000   -0.0000    0.0038
        4 MO     4s        -0.0000   -0.0000    0.0000   -0.0010
        5 MO     5s         0.0000    0.0000    0.0000    0.0002
        6 MO     6s        -0.0000   -0.0000    0.0000   -0.0003
        7 MO     7s         0.0000    0.0000   -0.0000    0.0007
        8 MO     8s        -0.0000   -0.0000    0.0000   -0.0006
        9 MO     9s         0.0000   -0.0000   -0.0000    0.0005
       10 MO    10s        -0.0000    0.0000    0.0000   -0.0003
       11 MO     2px       -0.0000    0.0000    0.0000   -0.0012
       12 MO     3px       -0.0000    0.0002    0.0000   -0.0478
       13 MO     4px        0.0000   -0.0000   -0.0000    0.0093
       14 MO     5px       -0.0000    0.0000    0.0000   -0.0030
       15 MO     6px        0.0000   -0.0000   -0.0000    0.0070
       16 MO     7px       -0.0000    0.0000    0.0000   -0.0056
       17 MO     8px        0.0000   -0.0000   -0.0000    0.0056
       18 MO     9px       -0.0000    0.0000    0.0000   -0.0041
       19 MO    10px        0.0000   -0.0000   -0.0000    0.0016
       20 MO     2py        0.0000    0.0000   -0.0010   -0.0000
       21 MO     3py        0.0000    0.0000   -0.0400   -0.0000
       22 MO     4py       -0.0000   -0.0000    0.0077    0.0000
       23 MO     5py        0.0000    0.0000   -0.0025   -0.0000
       24 MO     6py       -0.0000   -0.0000    0.0058    0.0000
       25 MO     7py        0.0000    0.0000   -0.0047   -0.0000
       26 MO     8py       -0.0000   -0.0000    0.0047    0.0000
       27 MO     9py        0.0000    0.0000   -0.0034   -0.0000
       28 MO    10py       -0.0000   -0.0000    0.0014    0.0000
       29 MO     2pz       -0.0000   -0.0010   -0.0000   -0.0000
       30 MO     3pz       -0.0003   -0.0400   -0.0000   -0.0002
       31 MO     4pz        0.0001    0.0077    0.0000    0.0000
       32 MO     5pz       -0.0000   -0.0025   -0.0000   -0.0000
       33 MO     6pz        0.0000    0.0058    0.0000    0.0000
       34 MO     7pz       -0.0000   -0.0047   -0.0000   -0.0000
       35 MO     8pz        0.0000    0.0047    0.0000    0.0000
       36 MO     9pz       -0.0000   -0.0034   -0.0000   -0.0000
       37 MO    10pz        0.0000    0.0014    0.0000    0.0000
       38 MO     3d2-      -0.0000   -0.0000    0.9747    0.0000
       39 MO     4d2-       0.0000    0.0000   -0.0980   -0.0000
       40 MO     5d2-      -0.0000   -0.0000    0.1045    0.0000
       41 MO     6d2-       0.0000    0.0000   -0.0888   -0.0000
       42 MO     7d2-      -0.0000   -0.0000    0.0774    0.0000
       43 MO     8d2-       0.0000    0.0000   -0.0794   -0.0000
       44 MO     9d2-      -0.0000   -0.0000    0.0605    0.0000
       45 MO    10d2-       0.0000    0.0000   -0.0593   -0.0000
       46 MO    11d2-      -0.0000   -0.0000    0.0089    0.0000
       47 MO     3d1-       0.0000   -0.0000    0.0130    0.0000
       48 MO     4d1-      -0.0000    0.0000   -0.0013   -0.0000
       49 MO     5d1-       0.0000   -0.0000    0.0014    0.0000
       50 MO     6d1-      -0.0000    0.0000   -0.0012   -0.0000
       51 MO     7d1-       0.0000   -0.0000    0.0010    0.0000
       52 MO     8d1-      -0.0000    0.0000   -0.0011   -0.0000
       53 MO     9d1-       0.0000   -0.0000    0.0008    0.0000
       54 MO    10d1-      -0.0000    0.0000   -0.0008   -0.0000
       55 MO    11d1-       0.0000   -0.0000    0.0001    0.0000
       56 MO     3d0        0.8450   -0.0031   -0.0000   -0.4873
       57 MO     4d0       -0.0847    0.0003    0.0000    0.0491
       58 MO     5d0        0.0903   -0.0003   -0.0000   -0.0523
       59 MO     6d0       -0.0768    0.0003    0.0000    0.0445
       60 MO     7d0        0.0669   -0.0003   -0.0000   -0.0388
       61 MO     8d0       -0.0685    0.0003    0.0000    0.0398
       62 MO     9d0        0.0521   -0.0002   -0.0000   -0.0303
       63 MO    10d0       -0.0511    0.0002    0.0000    0.0297
       64 MO    11d0        0.0077   -0.0000   -0.0000   -0.0045
       65 MO     3d1+       0.0066    0.9747    0.0000    0.0052
       66 MO     4d1+      -0.0006   -0.0980   -0.0000   -0.0005
       67 MO     5d1+       0.0007    0.1045    0.0000    0.0006
       68 MO     6d1+      -0.0006   -0.0889   -0.0000   -0.0005
       69 MO     7d1+       0.0005    0.0774    0.0000    0.0004
       70 MO     8d1+      -0.0005   -0.0794   -0.0000   -0.0004
       71 MO     9d1+       0.0004    0.0605    0.0000    0.0003
       72 MO    10d1+      -0.0004   -0.0593   -0.0000   -0.0003
       73 MO    11d1+       0.0001    0.0089    0.0000    0.0000
       74 MO     3d2+       0.4880   -0.0077   -0.0000    0.8437
       75 MO     4d2+      -0.0489    0.0008    0.0000   -0.0850
       76 MO     5d2+       0.0522   -0.0008   -0.0000    0.0906
       77 MO     6d2+      -0.0443    0.0007    0.0000   -0.0770
       78 MO     7d2+       0.0386   -0.0006   -0.0000    0.0672
       79 MO     8d2+      -0.0396    0.0006    0.0000   -0.0689
       80 MO     9d2+       0.0301   -0.0005   -0.0000    0.0525
       81 MO    10d2+      -0.0295    0.0005    0.0000   -0.0514
       82 MO    11d2+       0.0044   -0.0001   -0.0000    0.0077
       83 MO     4f3-      -0.0000   -0.0000    0.0033    0.0000
       84 MO     5f3-      -0.0000   -0.0000    0.0038    0.0000
       85 MO     6f3-       0.0000    0.0000   -0.0038   -0.0000
       86 MO     7f3-      -0.0000   -0.0000    0.0034    0.0000
       87 MO     8f3-      -0.0000   -0.0000    0.0020    0.0000
       88 MO     9f3-       0.0000    0.0000   -0.0083   -0.0000
       89 MO     4f2-       0.0000   -0.0000    0.0000    0.0000
       90 MO     5f2-       0.0000   -0.0000    0.0000    0.0000
       91 MO     6f2-      -0.0000    0.0000   -0.0000   -0.0000
       92 MO     7f2-       0.0000   -0.0000    0.0000    0.0000
       93 MO     8f2-       0.0000   -0.0000    0.0000    0.0000
       94 MO     9f2-      -0.0000    0.0000   -0.0001   -0.0000
       95 MO     4f1-       0.0000    0.0000   -0.0009   -0.0000
       96 MO     5f1-       0.0000    0.0000   -0.0010   -0.0000
       97 MO     6f1-      -0.0000   -0.0000    0.0010    0.0000
       98 MO     7f1-       0.0000    0.0000   -0.0009   -0.0000
       99 MO     8f1-       0.0000    0.0000   -0.0005   -0.0000
      100 MO     9f1-      -0.0000   -0.0000    0.0022    0.0000
      101 MO     4f0       -0.0000   -0.0021   -0.0000   -0.0000
      102 MO     5f0       -0.0000   -0.0024   -0.0000   -0.0000
      103 MO     6f0        0.0000    0.0024    0.0000    0.0000
      104 MO     7f0       -0.0000   -0.0021   -0.0000   -0.0000
      105 MO     8f0       -0.0000   -0.0013   -0.0000   -0.0000
      106 MO     9f0        0.0000    0.0053    0.0000    0.0000
      107 MO     4f1+       0.0021    0.0000    0.0000   -0.0022
      108 MO     5f1+       0.0024    0.0000    0.0000   -0.0026
      109 MO     6f1+      -0.0024   -0.0000   -0.0000    0.0026
      110 MO     7f1+       0.0021    0.0000    0.0000   -0.0023
      111 MO     8f1+       0.0013    0.0000    0.0000   -0.0014
      112 MO     9f1+      -0.0053   -0.0000   -0.0000    0.0056
      113 MO     4f2+       0.0000    0.0027    0.0000    0.0000
      114 MO     5f2+       0.0000    0.0031    0.0000    0.0000
      115 MO     6f2+      -0.0000   -0.0031   -0.0000   -0.0000
      116 MO     7f2+       0.0000    0.0028    0.0000    0.0000
      117 MO     8f2+       0.0000    0.0017    0.0000    0.0000
      118 MO     9f2+      -0.0001   -0.0068   -0.0000   -0.0000
      119 MO     4f3+       0.0016   -0.0000   -0.0000    0.0029
      120 MO     5f3+       0.0019   -0.0000   -0.0000    0.0034
      121 MO     6f3+      -0.0018    0.0000    0.0000   -0.0033
      122 MO     7f3+       0.0017   -0.0000   -0.0000    0.0030
      123 MO     8f3+       0.0010   -0.0000   -0.0000    0.0018
      124 MO     9f3+      -0.0041    0.0001    0.0000   -0.0073
      125 MO     5g4-       0.0000    0.0000   -0.0001   -0.0000
      126 MO     6g4-      -0.0000   -0.0000    0.0001    0.0000
      127 MO     7g4-       0.0000    0.0000   -0.0001   -0.0000
      128 MO     8g4-      -0.0000   -0.0000    0.0002    0.0000
      129 MO     5g3-      -0.0000    0.0000   -0.0000   -0.0000
      130 MO     6g3-       0.0000   -0.0000    0.0000    0.0000
      131 MO     7g3-      -0.0000    0.0000   -0.0000   -0.0000
      132 MO     8g3-       0.0000   -0.0000    0.0000    0.0000
      133 MO     5g2-      -0.0000   -0.0000    0.0000    0.0000
      134 MO     6g2-       0.0000    0.0000   -0.0000   -0.0000
      135 MO     7g2-      -0.0000   -0.0000    0.0001    0.0000
      136 MO     8g2-       0.0000    0.0000   -0.0001   -0.0000
      137 MO     5g1-       0.0000   -0.0000    0.0000    0.0000
      138 MO     6g1-      -0.0000    0.0000   -0.0000    0.0000
      139 MO     7g1-       0.0000   -0.0000    0.0000    0.0000
      140 MO     8g1-      -0.0000    0.0000   -0.0000    0.0000
      141 MO     5g0        0.0000   -0.0000   -0.0000   -0.0000
      142 MO     6g0       -0.0000    0.0000    0.0000    0.0001
      143 MO     7g0        0.0001    0.0000    0.0000   -0.0001
      144 MO     8g0       -0.0001   -0.0000   -0.0000    0.0001
      145 MO     5g1+       0.0000    0.0001    0.0000    0.0000
      146 MO     6g1+      -0.0000   -0.0001   -0.0000   -0.0000
      147 MO     7g1+       0.0000    0.0001    0.0000    0.0000
      148 MO     8g1+      -0.0000   -0.0001   -0.0000   -0.0000
      149 MO     5g2+      -0.0000    0.0000    0.0000    0.0001
      150 MO     6g2+       0.0000   -0.0000   -0.0000   -0.0001
      151 MO     7g2+      -0.0000    0.0000    0.0000    0.0001
      152 MO     8g2+       0.0001   -0.0000   -0.0000   -0.0001
      153 MO     5g3+      -0.0000   -0.0001   -0.0000   -0.0000
      154 MO     6g3+       0.0000    0.0001    0.0000    0.0000
      155 MO     7g3+      -0.0000   -0.0001   -0.0000   -0.0000
      156 MO     8g3+       0.0000    0.0001    0.0000    0.0000
      157 MO     5g4+      -0.0000    0.0000    0.0000   -0.0001
      158 MO     6g4+       0.0000   -0.0000   -0.0000    0.0001
      159 MO     7g4+      -0.0001    0.0000    0.0000   -0.0001
      160 MO     8g4+       0.0001   -0.0000   -0.0000    0.0002
      161 MO     6h5-       0.0000   -0.0000    0.0000   -0.0000
      162 MO     7h5-      -0.0000    0.0000   -0.0000    0.0000
      163 MO     6h4-       0.0000    0.0000   -0.0000   -0.0000
      164 MO     7h4-      -0.0000   -0.0000    0.0000   -0.0000
      165 MO     6h3-      -0.0000    0.0000   -0.0000   -0.0000
      166 MO     7h3-       0.0000   -0.0000    0.0000    0.0000
      167 MO     6h2-      -0.0000   -0.0000    0.0000    0.0000
      168 MO     7h2-       0.0000    0.0000   -0.0000    0.0000
      169 MO     6h1-      -0.0000   -0.0000    0.0000   -0.0000
      170 MO     7h1-       0.0000    0.0000   -0.0000    0.0000
      171 MO     6h0       -0.0000    0.0000    0.0000   -0.0000
      172 MO     7h0        0.0000   -0.0000   -0.0000    0.0000
      173 MO     6h1+      -0.0000   -0.0000   -0.0000    0.0000
      174 MO     7h1+       0.0000    0.0000    0.0000   -0.0000
      175 MO     6h2+       0.0000   -0.0000   -0.0000    0.0000
      176 MO     7h2+      -0.0000    0.0000    0.0000   -0.0000
      177 MO     6h3+       0.0000    0.0000    0.0000   -0.0000
      178 MO     7h3+      -0.0000   -0.0000   -0.0000    0.0000
      179 MO     6h4+      -0.0000    0.0000    0.0000    0.0000
      180 MO     7h4+       0.0000   -0.0000   -0.0000   -0.0000
      181 MO     6h5+       0.0000    0.0000    0.0000    0.0000
      182 MO     7h5+      -0.0000   -0.0000   -0.0000   -0.0000
--


++    Molecular charges:
      ------------------

      Mulliken charges per centre and basis function type
      ---------------------------------------------------

                MO    
      1s       2.0000
      2s       2.0000
      2px      2.0000
      2pz      2.0000
      2py      2.0000
      3s       1.9564
      3px      1.9359
      3pz      1.9379
      3py      1.9379
      4s       0.0198
      3d2+     0.0038
      3d1+     0.0035
      3d0      0.0013
      3d1-     0.0000
      3d2-     0.0035
      4px      0.0230
      4pz      0.0228
      4py      0.0228
      5s       0.0009
      4d2+     0.0000
      4d1+     0.0000
      4d0      0.0000
      4d1-     0.0000
      4d2-     0.0000
      5px      0.0023
      5pz      0.0023
      5py      0.0023
      6s       0.0013
      4f3+     0.0000
      4f2+     0.0000
      4f1+     0.0000
      4f0      0.0000
      4f1-     0.0000
      4f2-     0.0000
      4f3-     0.0000
      5d2+     0.0000
      5d1+     0.0000
      5d0      0.0000
      5d1-     0.0000
      5d2-     0.0000
      6px      0.0125
      6pz      0.0124
      6py      0.0124
      7s       0.0096
      5f3+     0.0000
      5f2+     0.0000
      5f1+     0.0000
      5f0      0.0000
      5f1-     0.0000
      5f2-     0.0000
      5f3-     0.0000
      6d2+     0.0000
      6d1+     0.0000
      6d0      0.0000
      6d1-     0.0000
      6d2-     0.0000
      7px      0.0080
      7pz      0.0079
      7py      0.0079
      5g4+     0.0000
      5g3+     0.0000
      5g2+     0.0000
      5g1+     0.0000
      5g0      0.0000
      5g1-     0.0000
      5g2-     0.0000
      5g3-     0.0000
      5g4-     0.0000
      6f3+     0.0000
      6f2+     0.0000
      6f1+     0.0000
      6f0      0.0000
      6f1-     0.0000
      6f2-     0.0000
      6f3-     0.0000
      6g4+     0.0000
      6g3+     0.0000
      6g2+     0.0000
      6g1+     0.0000
      6g0      0.0000
      6g1-     0.0000
      6g2-     0.0000
      6g3-     0.0000
      6g4-     0.0000
      6h5+     0.0000
      6h4+     0.0000
      6h3+     0.0000
      6h2+     0.0000
      6h1+     0.0000
      6h0      0.0000
      6h1-     0.0000
      6h2-     0.0000
      6h3-     0.0000
      6h4-     0.0000
      6h5-     0.0000
      7d2+     0.0000
      7d1+     0.0000
      7d0      0.0000
      7d1-     0.0000
      7d2-     0.0000
      7f3+     0.0000
      7f2+     0.0000
      7f1+     0.0000
      7f0      0.0000
      7f1-     0.0000
      7f2-     0.0000
      7f3-     0.0000
      7g4+     0.0000
      7g3+     0.0000
      7g2+     0.0000
      7g1+     0.0000
      7g0      0.0000
      7g1-     0.0000
      7g2-     0.0000
      7g3-     0.0000
      7g4-     0.0000
      7h5+     0.0000
      7h4+     0.0000
      7h3+     0.0000
      7h2+     0.0000
      7h1+     0.0000
      7h0      0.0000
      7h1-     0.0000
      7h2-     0.0000
      7h3-     0.0000
      7h4-     0.0000
      7h5-     0.0000
      8s       0.0056
      8px      0.0080
      8pz      0.0079
      8py      0.0079
      8d2+     0.0000
      8d1+     0.0000
      8d0      0.0000
      8d1-     0.0000
      8d2-     0.0000
      8f3+     0.0000
      8f2+     0.0000
      8f1+     0.0000
      8f0      0.0000
      8f1-     0.0000
      8f2-     0.0000
      8f3-     0.0000
      8g4+     0.0000
      8g3+     0.0000
      8g2+     0.0000
      8g1+     0.0000
      8g0      0.0000
      8g1-     0.0000
      8g2-     0.0000
      8g3-     0.0000
      8g4-     0.0000
      9s       0.0043
      9px      0.0043
      9pz      0.0043
      9py      0.0043
      9d2+     0.0000
      9d1+     0.0000
      9d0      0.0000
      9d1-     0.0000
      9d2-     0.0000
      9f3+     0.0000
      9f2+     0.0000
      9f1+     0.0000
      9f0      0.0000
      9f1-     0.0000
      9f2-     0.0000
      9f3-     0.0000
     10s       0.0020
     10px      0.0009
     10pz      0.0009
     10py      0.0009
     10d2+     0.0000
     10d1+     0.0000
     10d0      0.0000
     10d1-     0.0000
     10d2-     0.0000
     11d2+     0.0000
     11d1+     0.0000
     11d0      0.0000
     11d1-     0.0000
     11d2-     0.0000
      Total   18.0000

      N-E     24.0000

      Total electronic charge=   18.000000

      Total            charge=   24.000000
--

 Sorry, Molden does not know how to handle
 functions with angular momentum larger than g

++    Static properties:
      ------------------


      LoProp Charges per center


                   MO    
      Nuclear     42.0000
      Electronic -18.0000

      Total       24.0000
--


++    Molecular properties:
      ---------------------

      Charge (e):
                      =   24.0000
      Dipole Moment (Debye):
      Origin of the operator (Ang)=    0.0000    0.0000    0.0000
                   X= -2.4744E-01               Y= -1.8891E-13               Z=  5.3367E-01           Total=  5.8824E-01
      Center of Charge (Ang)
                     X=   -0.00214648               Y=   -0.00000000               Z=    0.00462942
      Quadrupole Moment (Debye*Ang):
      Origin of the operator (Ang)=   -0.0000   -0.0000    0.0046
                  XX= -6.7744E-01              XY=  5.8053E-17              XZ=  7.7757E-06              YY= -6.7891E-01
                  YZ=  6.3066E-16              ZZ= -6.7891E-01
      In traceless form (Debye*Ang)
                  XX=  1.4697E-03              XY=  8.7079E-17              XZ=  1.1664E-05              YY= -7.3474E-04
                  YZ=  9.4599E-16              ZZ= -7.3500E-04
--

 Sorry, Molden does not know how to handle
 functions with angular momentum larger than g
 ###############################################################################
 ###############################################################################
 ###                                                                         ###
 ###                                                                         ###
 ###    WARNING: RunFile label nBas                                          ###
 ###    was used       62 times                                              ###
 ###                                                                         ###
 ###                                                                         ###
 ###############################################################################
 ###############################################################################
Note: The following floating-point exceptions are signalling: IEEE_UNDERFLOW_FLAG IEEE_DENORMAL
--- Stop Module: scf at Wed Mar 26 12:01:23 2025 /rc=_RC_ALL_IS_WELL_ ---
*** files: molybdenum_so_cf.LprOrb molybdenum_so_cf.ScfOrb xmldump
    saved to directory /home4/s4752295/Internship/Initial_simulations/Point_charge_model/1_electron/Madelung_charges_9_active_space/Mo
--- Module scf spent 7 seconds ---

*** symbolic link created: INPORB -> molybdenum_so_cf.ScfOrb
--- Start Module: rasscf at Wed Mar 26 12:01:23 2025 ---

()()()()()()()()()()()()()()()()()()()()()()()()()()()()()()()()()()()()()()()()()()()()()()()()()()

                                              &RASSCF

                                   only a single process is used
                       available to each process: 4.1 GB of memory, 1 thread?
                                            pid: 3924179
()()()()()()()()()()()()()()()()()()()()()()()()()()()()()()()()()()()()()()()()()()()()()()()()()()


      Header of the ONEINT file:
      --------------------------
      
      Integrals generated by seward 4.2.0  , Wed Mar 26 12:01:06 2025


      OrdInt status: non-squared


      Cartesian coordinates in Angstrom:
      -----------------------------------------------------
      No.  Label        X            Y            Z        
      -----------------------------------------------------
       1   MO        -0.00000000  -0.00000000   0.00463220
      -----------------------------------------------------
      Nuclear repulsion energy = -548.93775336

++    Wave function specifications:
      -----------------------------

      Number of closed shell electrons          18
      Number of electrons in active shells       1
      Max number of holes in RAS1 space          0
      Max nr of electrons in RAS3 space          0
      Number of inactive orbitals                9
      Number of active orbitals                  9
      Number of secondary orbitals             164
      Spin quantum number                      0.5
      State symmetry                             1
--

++    Orbital specifications:
      -----------------------

      Symmetry species                           1
                                                 a
      Frozen orbitals                            0
      Inactive orbitals                          9
[...]
     6             0.0246768863        0.6714922849           5415.9505         2.1
     7             0.0246929102        0.6719283165           5419.4674         2.1
     8             0.0246929102        0.6719283165           5419.4674         2.1
     9             0.0347254241        0.9449269286           7621.3497         2.1
    10             0.0347254241        0.9449269286           7621.3497         2.1
    11            15.5124881305      422.1163061540        3404597.6140         0.7
    12            15.5124881305      422.1163061540        3404597.6140         0.7
    13            17.0982736142      465.2677274558        3752637.2984         1.3
    14            17.0982736142      465.2677274558        3752637.2984         1.3
    15            17.0985375181      465.2749086453        3752695.2186         1.3
    16            17.0985375181      465.2749086453        3752695.2186         1.3
    17            17.4894889189      475.9132382178        3838499.1332         1.2
    18            17.4894889189      475.9132382178        3838499.1332         1.2


 Weights of the five most important spin-orbit-free states for each spin-orbit state.

 SO State  Total energy (au)           Spin-free states, spin, and weights
 -------------------------------------------------------------------------------------------------------
    1         0.000000       1 0.5  1.0000    9 0.5  0.0000    8 0.5  0.0000    7 0.5  0.0000    6 0.5  0.0000
    2         0.000000       1 0.5  1.0000    9 0.5  0.0000    8 0.5  0.0000    7 0.5  0.0000    6 0.5  0.0000
    3         0.000007       2 0.5  1.0000    9 0.5  0.0000    8 0.5  0.0000    7 0.5  0.0000    6 0.5  0.0000
    4         0.000007       2 0.5  1.0000    9 0.5  0.0000    8 0.5  0.0000    7 0.5  0.0000    6 0.5  0.0000
    5         0.024677       3 0.5  1.0000    9 0.5  0.0000    8 0.5  0.0000    7 0.5  0.0000    6 0.5  0.0000
    6         0.024677       3 0.5  1.0000    9 0.5  0.0000    8 0.5  0.0000    7 0.5  0.0000    6 0.5  0.0000
    7         0.024693       4 0.5  1.0000    9 0.5  0.0000    8 0.5  0.0000    7 0.5  0.0000    6 0.5  0.0000
    8         0.024693       4 0.5  1.0000    9 0.5  0.0000    8 0.5  0.0000    7 0.5  0.0000    6 0.5  0.0000
    9         0.034725       5 0.5  1.0000    9 0.5  0.0000    8 0.5  0.0000    7 0.5  0.0000    6 0.5  0.0000
   10         0.034725       5 0.5  1.0000    9 0.5  0.0000    8 0.5  0.0000    7 0.5  0.0000    6 0.5  0.0000
   11        15.512488       6 0.5  1.0000    9 0.5  0.0000    8 0.5  0.0000    7 0.5  0.0000    5 0.5  0.0000
   12        15.512488       6 0.5  1.0000    9 0.5  0.0000    8 0.5  0.0000    7 0.5  0.0000    5 0.5  0.0000
   13        17.098274       7 0.5  1.0000    9 0.5  0.0000    8 0.5  0.0000    6 0.5  0.0000    5 0.5  0.0000
   14        17.098274       7 0.5  1.0000    9 0.5  0.0000    8 0.5  0.0000    6 0.5  0.0000    5 0.5  0.0000
   15        17.098538       8 0.5  1.0000    9 0.5  0.0000    7 0.5  0.0000    6 0.5  0.0000    5 0.5  0.0000
   16        17.098538       8 0.5  1.0000    9 0.5  0.0000    7 0.5  0.0000    6 0.5  0.0000    5 0.5  0.0000
   17        17.489489       9 0.5  1.0000    8 0.5  0.0000    7 0.5  0.0000    6 0.5  0.0000    5 0.5  0.0000
   18        17.489489       9 0.5  1.0000    8 0.5  0.0000    7 0.5  0.0000    6 0.5  0.0000    5 0.5  0.0000
 -------------------------------------------------------------------------------------------------------


      ****************************************************************************************************
      *                                                                                                  *
      *                                    Special properties section                                    *
      *                                                                                                  *
      ****************************************************************************************************


++ Dipole transition strengths (SO states):
   ----------------------------------------
    for osc. strength at least    1.0000000000000001E-005

      From   To        Osc. strength     Einstein coefficients Ax, Ay, Az (sec-1)    Total A (sec-1)
     -----------------------------------------------------------------------------------------------
         1   13       1.48132846E-02  8.38361333E-08  1.39144251E+11  6.68901843E-04  1.39144251E+11
         1   15       1.48233310E-02  4.95562321E+07  6.69261684E-04  1.39193360E+11  1.39242917E+11
         2   14       1.48132846E-02  8.38361333E-08  1.39144251E+11  6.68901843E-04  1.39144251E+11
         2   16       1.48233310E-02  4.95562321E+07  6.69261684E-04  1.39193360E+11  1.39242917E+11
         3   13       1.48130263E-02  1.84000974E+07  6.69003947E-04  1.39123317E+11  1.39141717E+11
         3   15       1.48184821E-02  2.28665382E-07  1.39197262E+11  6.69236445E-04  1.39197262E+11
         4   14       1.48130263E-02  1.84000974E+07  6.69003947E-04  1.39123317E+11  1.39141717E+11
         4   16       1.48184821E-02  2.28665382E-07  1.39197262E+11  6.69236445E-04  1.39197262E+11
         5   11       2.33195951E-03  5.21894245E+05  5.88003767E-08  1.79720601E+10  1.79725820E+10
         5   13       1.89788604E-02  1.77757866E+11  5.51261807E-11  2.92684828E+05  1.77758159E+11
         5   17       9.74747158E-03  2.95534696E+06  3.12452489E-07  9.55247142E+10  9.55276696E+10
         6   12       2.33195951E-03  5.21894245E+05  5.88003767E-08  1.79720601E+10  1.79725820E+10
         6   14       1.89788604E-02  1.77757866E+11  5.51261807E-11  2.92684828E+05  1.77758159E+11
         6   18       9.74747158E-03  2.95534696E+06  3.12452489E-07  9.55247142E+10  9.55276696E+10
         7   11       2.32885917E-03  4.63595206E-12  1.79486503E+10  5.88750915E-08  1.79486503E+10
         7   15       1.89688683E-02  1.77658368E+11  8.05427561E-11  1.13626016E+07  1.77669731E+11
         7   17       9.74204465E-03  2.73711685E-11  9.54743092E+10  3.13124082E-07  9.54743092E+10
         8   12       2.32885917E-03  4.63595206E-12  1.79486503E+10  5.88750915E-08  1.79486503E+10
         8   16       1.89688683E-02  1.77658368E+11  8.05427561E-11  1.13626016E+07  1.77669731E+11
         8   18       9.74204465E-03  2.73711685E-11  9.54743092E+10  3.13124082E-07  9.54743092E+10
         9   11       3.57709538E-03  2.75327680E+10  5.05079500E-13  4.04903446E+05  2.75331729E+10
         9   13       3.86683755E-03  2.15169255E+06  1.10706921E-08  3.61724691E+10  3.61746208E+10
         9   15       3.86742810E-03  7.81721166E-12  3.61812646E+10  1.10140647E-08  3.61812646E+10
         9   17       2.19525604E-02  2.14891094E+11  1.97500036E-12  2.01611510E+06  2.14893111E+11
        10   12       3.57709538E-03  2.75327680E+10  5.05079500E-13  4.04903446E+05  2.75331729E+10
        10   14       3.86683755E-03  2.15169255E+06  1.10706921E-08  3.61724691E+10  3.61746208E+10
        10   16       3.86742810E-03  7.81721166E-12  3.61812646E+10  1.10140647E-08  3.61812646E+10
        10   18       2.19525604E-02  2.14891094E+11  1.97500036E-12  2.01611510E+06  2.14893111E+11
        11   13       1.81826455E-01  3.52485106E+04  4.47715653E-09  1.46910988E+10  1.46911341E+10
        11   15       1.81814476E-01  7.53860816E-15  1.46950560E+10  4.48041911E-09  1.46950560E+10
        11   17       1.51451344E-01  1.90193163E+10  2.87703226E-16  5.65068509E+04  1.90193728E+10
        12   14       1.81826455E-01  3.52485106E+04  4.47715653E-09  1.46910988E+10  1.46911341E+10
        12   16       1.81814476E-01  7.53860816E-15  1.46950560E+10  4.48041911E-09  1.46950560E+10
        12   18       1.51451344E-01  1.90193163E+10  2.87703226E-16  5.65068509E+04  1.90193728E+10
        13   17       7.52885785E-03  2.51695569E+02  1.13222064E-11  3.70226236E+07  3.70228753E+07
        14   18       7.52885785E-03  2.51695569E+02  1.13222064E-11  3.70226236E+07  3.70228753E+07
        15   17       7.53914413E-03  1.24996681E-16  3.70234569E+07  1.12720953E-11  3.70234569E+07
        16   18       7.53914413E-03  1.24996681E-16  3.70234569E+07  1.12720953E-11  3.70234569E+07
     -----------------------------------------------------------------------------------------------
--

++ Velocity transition strengths (SO states):
   ------------------------------------------
    for osc. strength at least    1.0000000000000001E-005

      From   To        Osc. strength     Einstein coefficients Ax, Ay, Az (sec-1)    Total A (sec-1)
     -----------------------------------------------------------------------------------------------
         1    3       3.12249959E-05  1.05285502E-21  4.29175475E-05  7.34204857E-21  4.29175475E-05
         1    5       5.36854567E-04  4.46371991E-16  1.05038438E+04  5.22953858E-11  1.05038438E+04
         1    7       5.36243603E-04  4.21361623E-03  5.23453027E-11  1.05055160E+04  1.05055202E+04
         1   13       1.41315891E-02  7.34123551E-08  1.32741405E+11  6.38129770E-04  1.32741405E+11
         1   15       1.41406415E-02  4.44695460E+07  6.38472209E-04  1.32786067E+11  1.32830536E+11
         2    4       3.12249959E-05  1.05285502E-21  4.29175475E-05  7.34204857E-21  4.29175475E-05
         2    6       5.36854567E-04  4.46371991E-16  1.05038438E+04  5.22953858E-11  1.05038438E+04
         2    8       5.36243603E-04  4.21361623E-03  5.23453027E-11  1.05055160E+04  1.05055202E+04
         2   14       1.41315891E-02  7.34123551E-08  1.32741405E+11  6.38129770E-04  1.32741405E+11
         2   16       1.41406415E-02  4.44695460E+07  6.38472209E-04  1.32786067E+11  1.32830536E+11
         3    5       5.36551430E-04  3.45469759E-02  5.23089029E-11  1.04923141E+04  1.04923487E+04
         3    7       5.36736899E-04  2.48134787E-18  1.05096147E+04  5.22901264E-11  1.05096147E+04
         3   13       1.41313078E-02  1.61152485E+07  6.38225949E-04  1.32722546E+11  1.32738661E+11
         3   15       1.41366115E-02  2.05384599E-07  1.32792579E+11  6.38436410E-04  1.32792579E+11
         4    6       5.36551430E-04  3.45469759E-02  5.23089029E-11  1.04923141E+04  1.04923487E+04
         4    8       5.36736899E-04  2.48134787E-18  1.05096147E+04  5.22901264E-11  1.05096147E+04
         4   14       1.41313078E-02  1.61152485E+07  6.38225949E-04  1.32722546E+11  1.32738661E+11
         4   16       1.41366115E-02  2.05384599E-07  1.32792579E+11  6.38436410E-04  1.32792579E+11
         5    9       4.35378411E-03  2.63012696E-02  4.69007163E-14  1.41248130E+04  1.41248393E+04
         5   11       2.24479984E-03  4.95837499E+05  5.66161807E-08  1.73004004E+10  1.73008962E+10
         5   13       1.76613112E-02  1.65417991E+11  5.89853083E-11  4.27813093E+05  1.65418419E+11
         5   17       9.40690551E-03  2.73147993E+06  3.01963020E-07  9.21876256E+10  9.21903571E+10
         6   10       4.35378411E-03  2.63012696E-02  4.69007163E-14  1.41248130E+04  1.41248393E+04
         6   12       2.24479984E-03  4.95837499E+05  5.66161807E-08  1.73004004E+10  1.73008962E+10
         6   14       1.76613112E-02  1.65417991E+11  5.89853083E-11  4.27813093E+05  1.65418419E+11
         6   18       9.40690551E-03  2.73147993E+06  3.01963020E-07  9.21876256E+10  9.21903571E+10
         7    9       4.35870941E-03  2.03556929E-17  1.40957550E+04  4.52812111E-14  1.40957550E+04
         7   11       2.24209217E-03  4.81743237E-12  1.72799922E+10  5.66680994E-08  1.72799922E+10
         7   15       1.76531064E-02  1.65334625E+11  8.52016821E-11  1.17477107E+07  1.65346373E+11
         7   17       9.40211112E-03  2.37994791E-11  9.21432017E+10  3.02011096E-07  9.21432017E+10
         8   10       4.35870941E-03  2.03556929E-17  1.40957550E+04  4.52812111E-14  1.40957550E+04
         8   12       2.24209217E-03  4.81743237E-12  1.72799922E+10  5.66680994E-08  1.72799922E+10
         8   16       1.76531064E-02  1.65334625E+11  8.52016821E-11  1.17477107E+07  1.65346373E+11
         8   18       9.40211112E-03  2.37994791E-11  9.21432017E+10  3.02011096E-07  9.21432017E+10
         9   11       3.39352422E-03  2.61199150E+10  5.27514106E-13  3.87691702E+05  2.61203027E+10
         9   13       3.77535482E-03  1.99854231E+06  1.07856273E-08  3.53169158E+10  3.53189143E+10
         9   15       3.77552376E-03  7.86919588E-12  3.53215873E+10  1.07296948E-08  3.53215873E+10
         9   17       2.01553492E-02  1.97299019E+11  1.53630174E-12  1.91805617E+06  1.97300937E+11
        10   12       3.39352422E-03  2.61199150E+10  5.27514106E-13  3.87691702E+05  2.61203027E+10
        10   14       3.77535482E-03  1.99854231E+06  1.07856273E-08  3.53169158E+10  3.53189143E+10
        10   16       3.77552376E-03  7.86919588E-12  3.53215873E+10  1.07296948E-08  3.53215873E+10
        10   18       2.01553492E-02  1.97299019E+11  1.53630174E-12  1.91805617E+06  1.97300937E+11
        11   13       1.70193936E-01  3.28971207E+04  4.19520587E-09  1.37512698E+10  1.37513027E+10
        11   15       1.70183302E-01  1.34845114E-14  1.37550206E+10  4.19479564E-09  1.37550206E+10
        11   17       1.41154328E-01  1.77262746E+10  3.63170826E-16  5.28763830E+04  1.77263275E+10
        12   14       1.70193936E-01  3.28971207E+04  4.19520587E-09  1.37512698E+10  1.37513027E+10
        12   16       1.70183302E-01  1.34845114E-14  1.37550206E+10  4.19479564E-09  1.37550206E+10
        12   18       1.41154328E-01  1.77262746E+10  3.63170826E-16  5.28763830E+04  1.77263275E+10
        13   17       9.00014123E-03  2.46311125E+02  1.33567231E-11  4.42577636E+07  4.42580099E+07
        14   18       9.00014123E-03  2.46311125E+02  1.33567231E-11  4.42577636E+07  4.42580099E+07
        15   17       9.01113144E-03  6.96827825E-16  4.42522906E+07  1.33490581E-11  4.42522906E+07
        16   18       9.01113144E-03  6.96827825E-16  4.42522906E+07  1.33490581E-11  4.42522906E+07
     -----------------------------------------------------------------------------------------------
--

++ Length and velocity gauge comparison (SO states):

 --------------------------------------------------
 A comparison between the dipole oscillator strengths in 
 length and velocity gauge will be performed

 All dipole oscillator differences above the tolerance of   0.10000000000000001       will be printed 

 Due to basis set deficiency these oscillator may be problematic 

 The tolerance is defined as ABS(1-O_l/O_v) 
 O_l : dipole oscillator strength in length gauge
 O_p : dipole oscillator strength in velocity gauge
 --------------------------------------------------

  Problematic transitions have been found

      From   To       Difference (%) Osc. st. (len.) Osc. st. (vel.)
     ---------------------------------------------------------------
         1    3      --------------- below threshold  3.12249959E-05
         1    5      --------------- below threshold  5.36854567E-04
         1    7      --------------- below threshold  5.36243603E-04
         2    4      --------------- below threshold  3.12249959E-05
         2    6      --------------- below threshold  5.36854567E-04
         2    8      --------------- below threshold  5.36243603E-04
         3    5      --------------- below threshold  5.36551430E-04
         3    7      --------------- below threshold  5.36736899E-04
         4    6      --------------- below threshold  5.36551430E-04
         4    8      --------------- below threshold  5.36736899E-04
         5    9      --------------- below threshold  4.35378411E-03
         6   10      --------------- below threshold  4.35378411E-03
         7    9      --------------- below threshold  4.35870941E-03
         8   10      --------------- below threshold  4.35870941E-03
        13   17            16.347337  7.52885785E-03  9.00014123E-03
        14   18            16.347337  7.52885785E-03  9.00014123E-03
        15   17            16.335211  7.53914413E-03  9.01113144E-03
        16   18            16.335211  7.53914413E-03  9.01113144E-03
     ---------------------------------------------------------------

 Number of problematic transitions =                    18

--

 Electric-dipole - electric-octupole not included
++ Total transition strengths for the second-order expansion of the wave vector (SO states):
   -----------------------------------------------------------------------------------------
    for osc. strength at least    1.0000000000000001E-005

      From   To        Osc. strength
     -------------------------------
         9   11       1.00794722E-05
        10   12       1.00794722E-05
     -------------------------------
--

++ I/O STATISTICS
 
  I. General I/O information
  - - - - - - - - - - - - - - - - - - - - - - - - - - - - - - - - - - - - - - - - - - -
  Unit  Name          Flsize      Write/Read            MBytes           Write/Read
                      (MBytes)       Calls              In/Out           Time, sec.
  - - - - - - - - - - - - - - - - - - - - - - - - - - - - - - - - - - - - - - - - - - -
   1  SCRATCH           0.00 .       9/      45 .      0.0/      0.0 .       0/       0
   2  ANNI              0.00 .       0/       0 .      0.0/      0.0 .       0/       0
   3  RUNFILE          14.92 .     322/   10733 .      2.3/     77.8 .       0/       0
   4  ONEINT            5.68 .       0/   24849 .      0.0/   3743.6 .       0/       0
   5  JOBIPH            6.59 .       0/      92 .      0.0/      0.8 .       0/       0
   6  ORDINT          529.03 .       1/    4233 .      0.0/   1058.0 .       0/       0
  - - - - - - - - - - - - - - - - - - - - - - - - - - - - - - - - - - - - - - - - - - -
   *  TOTAL           556.23 .     332/   39952 .      2.3/   4880.2 .       0/       0
  - - - - - - - - - - - - - - - - - - - - - - - - - - - - - - - - - - - - - - - - - - -
 
  II. I/O Access Patterns
  - - - - - - - - - - - - - - - - - - - -
  Unit  Name               % of random
                         Write/Read calls
  - - - - - - - - - - - - - - - - - - - -
   1  SCRATCH             88.9/ 100.0
   2  ANNI                 0.0/   0.0
   3  RUNFILE             28.6/  10.8
   4  ONEINT               0.0/  15.5
   5  JOBIPH               0.0/  76.1
   6  ORDINT             100.0/   0.0
  - - - - - - - - - - - - - - - - - - - -
--
--- Stop Module: rassi at Wed Mar 26 12:02:01 2025 /rc=_RC_ALL_IS_WELL_ ---
*** files: xmldump
    saved to directory /home4/s4752295/Internship/Initial_simulations/Point_charge_model/1_electron/Madelung_charges_9_active_space/Mo
--- Module rassi spent 2 seconds ---

.##################.
.# Happy landing! #.
.##################.

    Timing: Wall=55.18 User=45.15 System=8.78

###############################################################################
Hbrk Cluster
Job 15905640 for user s4752295
Finished at: Wed Mar 26 12:02:05 CET 2025

Job details:
============

Job ID                         : 15905640
Name                           : Mo_no_SO
User                           : s4752295
Partition                      : regularmedium
Nodes                          : node100
Number of Nodes                : 1
Cores                          : 1
Number of Tasks                : 1
State                          : COMPLETED  
Submit                         : 2025-03-26T12:00:01
Start                          : 2025-03-26T12:01:03
End                            : 2025-03-26T12:02:01
Reserved walltime              : 15:00:00
Used walltime                  : 00:00:58
Used CPU time                  : 00:00:55 (Efficiency: 94.90%)
% User (Computation)           : 83.64%
% System (I/O)                 : 16.36%
Total memory reserved          : 25000M
Maximum memory used            : 2.12G

Acknowledgements:
=================

Please see this page for information about acknowledging Hbrk in your publications:

https://wiki.hpc.rug.nl/habrok/introduction/scientific_output

################################################################################
