   This run of MOLCAS is using the pymolcas driver

                             OPE
                             OPE          NMOL  CASOP  ENMOLC A   SO
                 OPE        NMOLC        AS  OP EN  MO LC     AS  OP
                OPENM       OL CA        SO  PE NM  OL CA     SOP EN
                OP EN      MO   LC       AS  OP ENMOL  CASO   PENMOL
                OP  EN     MO   LC       AS  OP EN     MO     LC ASO
               OP   E  NMOL  C  AS       OP  EN MO     LC     AS  OP
               OP  E   NMO   LC AS        OPEN  MO     LCASOP EN   M
               O  PEN   MO  LCA  SO
            OPE   NMO   L   CAS    OP
        OPENMOL  CASOP     ENMOL   CASOPE
     OPENMOLCA   SOPENMOLCASOPEN   MOLCASOPE
    OPENMOLCAS   OP           EN   MOL    CAS
    OPENMOLCAS       OP  ENM        O     LCA
    OPENMOLCAS    OPEN  MOLCASO     P  E  NMO
    OPENMOLCAS     OP               E  N  MOL
    OPENMOLCA   SO           PENM   O  L  CAS    OPEN    MO    LCAS
    OPENMOLCA   SOP           ENM   O  L  CAS   OP  EN  MOLC  AS   O
    OPENMOLCA   SOPE           NM      O  LCA   S      OP  EN MO
    OPENMOLC                AS         O  PEN   M      OL  CA  SOPE
    OPENMO        LCASOPE  NMOL        C  ASO   P      ENMOLC     AS
    OPE     NMO      LCA  SO     P     E   NM   OL  CA SO  PE N   MO
          OPENMOLCA            SOPE   NMO        LCAS  O    P  ENMO
     OPENMOLCASOPENMOLCASOPENMOLCASOPENMOLCA
        OPENMOLCASOPENMOLCASOPENMOLCASOPE
            OPENMOLCASOPENMOLCASOPENM
               OPENMOLCASOPENMOLCA        version: o91e1abe7de707b ?
                   OPENMOLCASO
                       OPE                tag:

 OpenMolcas is free software; you can redistribute it and/or modify it
 under the terms of the GNU Lesser General Public License version 2.1.
 OpenMolcas is distributed in the hope that it will be useful, but it
 is provided "as is" and without any express or implied warranties.
 For more details see the full text of the license in the file
 LICENSE or in <http://www.gnu.org/licenses/>.

                 Copyright (C) The OpenMolcas Authors
           For the author list and the recommended citation,
                   consult the file CONTRIBUTORS.md

           *************************************************
           * pymolcas version py2.10                       *
           *   build 3068ae8b88c9345ec6cfef6fef7f1169      *
           *   (after the EMIL interpreter by V. Veryazov) *
           *************************************************

configuration info
------------------
Host name: login1 (Linux)
C Compiler ID: GNU
C flags: -std=gnu99
Fortran Compiler ID: GNU
Fortran flags: -fno-aggressive-loop-optimizations -cpp -fdefault-integer-8 -fmax-stack-var-size=1048576
Definitions: _MOLCAS_;_I8_;_LINUX_;_MKL_
Parallel: OFF (GA=OFF)


   -----------------------------------------------------------------------------------------------------------------------------------
  |
  |           Project: molybdenum_so_cf
  |    Submitted from: /home4/s4752295/Internship/Initial_simulations/Point_charge_model/1_electron/Madelung_charges_9_active_space/Mo
  |      Scratch area: /tmp/molybdenum_so_cf
  |   Save outputs to: /home4/s4752295/Internship/Initial_simulations/Point_charge_model/1_electron/Madelung_charges_9_active_space/Mo
  |            Molcas: /home4/s4752295/Internship/Molcas/recomp_try/OpenMolcas-master/build
  |
  | Scratch area is empty
  |
  |    MOLCAS_DRIVER = /home4/s4752295/Internship/Molcas/bin/pymolcas
  |    MOLCAS_NPROCS = 1
  |    MOLCAS_SOURCE = /home4/s4752295/Internship/Molcas/recomp_try/OpenMolcas-master
  | MOLCAS_STRUCTURE = 0
  |
   -----------------------------------------------------------------------------------------------------------------------------------

++ ---------   Input file   ---------

&SEWARD
AMFi

CLIG
$R

Basis Set
Mo.ANO-rcc.Roos.21s18p13d6f4g2h.10s9p9d6f4g2h.
Spherical d
Mo           -1.0658140267135469e-14    -3.5527134223784897e-15 0.008753588724385739
End of Basis

Xfield

414
-1.200660324,-0.46199999999999997,0.26673569999999996   -0.625931
-1.200660324,-0.0,-0.5334717    -0.625931
-1.200660324,0.46199999999999997,0.26673569999999996    -0.625931
-1.198603821,0.0,0.0    1.892092
0.797753907,-0.46199999999999997,-0.26673569999999996   2.515516
0.797753907,0.0,0.5334717       2.515516
0.797753907,0.46199999999999997,-0.26673569999999996    2.515516
1.068896484,-0.9239999999999999,0.0     0.004632
1.068896484,-0.46199999999999997,-0.8002074     0.004632
1.068896484,-0.46199999999999997,0.8002074      0.004632
1.068896484,0.46199999999999997,-0.8002074      0.004632
1.068896484,0.46199999999999997,0.8002074       0.004632
1.068896484,0.9239999999999999,0.0      0.004632
1.2387451170000001,-0.46199999999999997,0.26673569999999996     -2.519484
1.2387451170000001,-0.0,-0.5334717      -2.519484
1.2387451170000001,0.46199999999999997,0.26673569999999996      -2.519484
-0.879931641,-0.0,-0.0  -3.142907
-1.492529298,-0.9239999999999999,-0.5334717     -0.625931
-1.492529298,0.0,1.0669431      -0.625931
-1.492529298,0.9239999999999999,-0.5334717      -0.625931
-1.9828124999999999,-0.9239999999999999,0.0     1.892092
-1.9828124999999999,-0.46199999999999997,-0.8002074     1.892092
-1.9828124999999999,-0.46199999999999997,0.8002074      1.892092
-1.9828124999999999,0.46199999999999997,-0.8002074      1.892092
-1.9828124999999999,0.46199999999999997,0.8002074       1.892092
-1.9828124999999999,0.9239999999999999,0.0      1.892092
7.551562499999999,-0.9239999999999999,0.5334717 2.515516
7.551562499999999,-0.0,-1.0669431       2.515516
7.551562499999999,0.9239999999999999,0.5334717  2.515516
1.0916015639999999,-0.9239999999999999,-0.5334717       -2.519484
1.0916015639999999,0.0,1.0669431        -2.519484
1.0916015639999999,0.9239999999999999,-0.5334717        -2.519484
-0.9697265639999999,-0.9239999999999999,-0.0    -3.142907
-0.9697265639999999,-0.46199999999999997,-0.8002074     -3.142907
-0.9697265639999999,-0.46199999999999997,0.8002074      -3.142907
-0.9697265639999999,0.46199999999999997,-0.8002074      -3.142907
-0.9697265639999999,0.46199999999999997,0.8002074       -3.142907
-0.9697265639999999,0.9239999999999999,-0.0     -3.142907
-2.85703125,-0.9239999999999999,1.0669431       -0.625931
-2.85703125,0.9239999999999999,1.0669431        -0.625931
-2.85703125,-1.386,0.26673569999999996  -0.625931
-2.85703125,1.386,0.26673569999999996   -0.625931
-2.85703125,-0.46199999999999997,-1.3336791000000001    -0.625931
-2.85703125,0.46199999999999997,-1.3336791000000001     -0.625931
1.80234375,-0.46199999999999997,-0.26673569999999996    4.409069
1.80234375,0.46199999999999997,-0.26673569999999996     4.409069
1.80234375,0.0,0.5334717        4.409069
-52.574999999999996,-0.0,-0.0   -5.030367
-52.574999999999996,0.0,0.0     5.039632
4.055273435999999,-0.9239999999999999,-1.0669431        2.515516
4.055273435999999,0.9239999999999999,-1.0669431 2.515516
4.055273435999999,-1.386,-0.26673569999999996   2.515516
4.055273435999999,1.386,-0.26673569999999996    2.515516
4.055273435999999,-0.46199999999999997,1.3336791000000001       2.515516
4.055273435999999,0.46199999999999997,1.3336791000000001        2.515516
5.71171875,-1.386,-0.8002074    0.004632
5.71171875,-1.386,0.8002074     0.004632
5.71171875,1.386,-0.8002074     0.004632
5.71171875,1.386,0.8002074      0.004632
5.71171875,-0.0,-1.6004148      0.004632
5.71171875,0.0,1.6004148        0.004632
14.423437499999999,-0.9239999999999999,1.0669431        -2.519484
14.423437499999999,0.9239999999999999,1.0669431 -2.519484
14.423437499999999,-1.386,0.26673569999999996   -2.519484
14.423437499999999,1.386,0.26673569999999996    -2.519484
14.423437499999999,-0.46199999999999997,-1.3336791000000001     -2.519484
14.423437499999999,0.46199999999999997,-1.3336791000000001      -2.519484
-43.762499999999996,-1.386,-0.8002074   1.892092
-43.762499999999996,-1.386,0.8002074    1.892092
-43.762499999999996,1.386,-0.8002074    1.892092
-43.762499999999996,1.386,0.8002074     1.892092
-43.762499999999996,-0.0,-1.6004148     1.892092
-43.762499999999996,0.0,1.6004148       1.892092
-35.324999999999996,-0.9239999999999999,0.5334717       4.409069
-35.324999999999996,-0.0,-1.0669431     4.409069
-35.324999999999996,0.9239999999999999,0.5334717        4.409069
-26.7,-0.9239999999999999,-0.0  -5.030367
-26.7,-0.46199999999999997,-0.8002074   -5.030367
-26.7,-0.46199999999999997,0.8002074    -5.030367
-26.7,0.46199999999999997,-0.8002074    -5.030367
-26.7,-0.9239999999999999,0.0   5.039632
-26.7,0.9239999999999999,-0.0   -5.030367
-26.7,0.46199999999999997,0.8002074     -5.030367
-26.7,-0.46199999999999997,-0.8002074   5.039632
-26.7,-0.46199999999999997,0.8002074    5.039632
-26.7,0.46199999999999997,-0.8002074    5.039632
-26.7,0.9239999999999999,0.0    5.039632
-26.7,0.46199999999999997,0.8002074     5.039632
-13.987499999999999,-0.46199999999999997,-0.26673569999999996   -5.660931
-13.987499999999999,0.0,0.5334717       -5.660931
-13.987499999999999,0.46199999999999997,-0.26673569999999996    -5.660931
0.26484375,-1.8479997,0.0       0.004632
0.26484375,-0.9239999999999999,-1.6004148       0.004632
0.26484375,-0.9239999999999999,1.6004148        0.004632
0.26484375,0.9239999999999999,-1.6004148        0.004632
0.26484375,1.8479997,0.0        0.004632
0.26484375,0.9239999999999999,1.6004148 0.004632
20.381249999999998,-1.386,0.8002074     -3.142907
20.381249999999998,-1.386,-0.8002074    -3.142907
20.381249999999998,1.386,-0.8002074     -3.142907
20.381249999999998,1.386,0.8002074      -3.142907
20.381249999999998,-0.0,-1.6004148      -3.142907
20.381249999999998,0.0,1.6004148        -3.142907
25.912499999999998,-1.8479997,-0.5334717        -0.625931
25.912499999999998,-1.386,-1.3336791000000001   -0.625931
25.912499999999998,-0.46199999999999997,1.8671505       -0.625931
25.912499999999998,1.386,-1.3336791000000001    -0.625931
25.912499999999998,1.8479997,-0.5334717 -0.625931
25.912499999999998,0.46199999999999997,1.8671505        -0.625931
0.359179686,-1.8479997,0.0      1.892092
0.359179686,-0.9239999999999999,-1.6004148      1.892092
0.359179686,-0.9239999999999999,1.6004148       1.892092
0.359179686,0.9239999999999999,-1.6004148       1.892092
0.359179686,1.8479997,0.0       1.892092
0.359179686,0.9239999999999999,1.6004148        1.892092
10.153125,-0.9239999999999999,-1.0669431        4.409069
10.153125,0.9239999999999999,-1.0669431 4.409069
10.153125,-1.386,-0.26673569999999996   4.409069
10.153125,1.386,-0.26673569999999996    4.409069
10.153125,-0.46199999999999997,1.3336791000000001       4.409069
10.153125,0.46199999999999997,1.3336791000000001        4.409069
48.721875,-0.9239999999999999,0.5334717 -5.660931
48.721875,-0.0,-1.0669431       -5.660931
48.721875,0.9239999999999999,0.5334717  -5.660931
0.103125,-1.8479997,0.5334717   2.515516
0.103125,-0.46199999999999997,-1.8671505        2.515516
0.103125,-1.386,1.3336791000000001      2.515516
0.103125,0.46199999999999997,-1.8671505 2.515516
0.103125,1.8479997,0.5334717    2.515516
0.103125,1.386,1.3336791000000001       2.515516
-28.256249999999998,-1.8479997,-0.5334717       -2.519484
-28.256249999999998,-1.386,-1.3336791000000001  -2.519484
-28.256249999999998,-0.46199999999999997,1.8671505      -2.519484
-28.256249999999998,1.386,-1.3336791000000001   -2.519484
-28.256249999999998,0.46199999999999997,1.8671505       -2.519484
-28.256249999999998,1.8479997,-0.5334717        -2.519484
-6.62109375,-1.8479997,-0.0     -3.142907
-6.62109375,-0.9239999999999999,-1.6004148      -3.142907
-6.62109375,-0.9239999999999999,1.6004148       -3.142907
-6.62109375,0.9239999999999999,-1.6004148       -3.142907
-6.62109375,0.9239999999999999,1.6004148        -3.142907
-6.62109375,1.8479997,-0.0      -3.142907
181.95,0.0,0.0  6.927092
96.975,-1.8479997,1.0669431     -0.625931
96.975,1.8479997,1.0669431      -0.625931
96.975,-0.0,-2.1338865  -0.625931
-1.6265625,-1.386,0.8002074     -5.030367
-1.6265625,-1.386,-0.8002074    -5.030367
-1.6265625,-1.386,0.8002074     5.039632
-1.6265625,-1.386,-0.8002074    5.039632
-1.6265625,1.386,-0.8002074     -5.030367
-1.6265625,1.386,0.8002074      -5.030367
-1.6265625,1.386,-0.8002074     5.039632
-1.6265625,1.386,0.8002074      5.039632
-1.6265625,-0.0,-1.6004148      -5.030367
-1.6265625,0.0,1.6004148        -5.030367
-1.6265625,-0.0,-1.6004148      5.039632
-1.6265625,0.0,1.6004148        5.039632
27.54375,-0.9239999999999999,-1.0669431 -5.660931
27.54375,0.9239999999999999,-1.0669431  -5.660931
27.54375,-1.386,-0.26673569999999996    -5.660931
27.54375,1.386,-0.26673569999999996     -5.660931
27.54375,-0.46199999999999997,1.3336791000000001        -5.660931
27.54375,0.46199999999999997,1.3336791000000001 -5.660931
90.14999999999999,-1.8479997,-1.0669431 2.515516
90.14999999999999,1.8479997,-1.0669431  2.515516
90.14999999999999,0.0,2.1338865 2.515516
-155.17499999999998,-1.8479997,1.0669431        -2.519484
-155.17499999999998,1.8479997,1.0669431 -2.519484
-155.17499999999998,-0.0,-2.1338865     -2.519484
16.068749999999998,-0.9239999999999999,0.0      6.927092
16.068749999999998,-0.46199999999999997,-0.8002074      6.927092
16.068749999999998,-0.46199999999999997,0.8002074       6.927092
16.068749999999998,0.46199999999999997,-0.8002074       6.927092
16.068749999999998,0.46199999999999997,0.8002074        6.927092
16.068749999999998,0.9239999999999999,0.0       6.927092
-16.575,-0.46199999999999997,0.26673569999999996        7.550516
-16.575,0.0,-0.5334717  7.550516
-16.575,0.46199999999999997,0.26673569999999996 7.550516
4.659375,-0.46199999999999997,-0.26673569999999996      -7.554483
4.659375,0.46199999999999997,-0.26673569999999996       -7.554483
4.659375,-0.0,0.5334717 -7.554483
-37.4625,-2.3099997,0.26673569999999996 -0.625931
-37.4625,-1.386,1.8671505       -0.625931
-37.4625,-0.9239999999999999,-2.1338865 -0.625931
-37.4625,0.9239999999999999,-2.1338865  -0.625931
-37.4625,2.3099997,0.26673569999999996  -0.625931
-37.4625,1.386,1.8671505        -0.625931
-20.23125,-1.8479997,0.5334717  4.409069
-20.23125,-1.386,1.3336791000000001     4.409069
-20.23125,-0.46199999999999997,-1.8671505       4.409069
-20.23125,0.46199999999999997,-1.8671505        4.409069
-20.23125,1.386,1.3336791000000001      4.409069
-20.23125,1.8479997,0.5334717   4.409069
14.746875,-1.8479997,-0.0       -5.030367
14.746875,-0.9239999999999999,-1.6004148        -5.030367
14.746875,-0.9239999999999999,1.6004148 -5.030367
14.746875,-1.8479997,0.0        5.039632
14.746875,-0.9239999999999999,-1.6004148        5.039632
14.746875,0.9239999999999999,-1.6004148 -5.030367
14.746875,0.9239999999999999,1.6004148  -5.030367
14.746875,1.8479997,-0.0        -5.030367
14.746875,-0.9239999999999999,1.6004148 5.039632
14.746875,0.9239999999999999,-1.6004148 5.039632
14.746875,1.8479997,0.0 5.039632
14.746875,0.9239999999999999,1.6004148  5.039632
54.225,-2.3099997,-0.26673569999999996  2.515516
54.225,-1.386,-1.8671505        2.515516
54.225,-0.9239999999999999,2.1338865    2.515516
54.225,1.386,-1.8671505 2.515516
54.225,2.3099997,-0.26673569999999996   2.515516
54.225,0.9239999999999999,2.1338865     2.515516
-7.003125,-2.3099997,-0.8002074 0.004632
-7.003125,-2.3099997,0.8002074  0.004632
-7.003125,-1.8479997,-1.6004148 0.004632
-7.003125,-1.8479997,1.6004148  0.004632
-7.003125,-0.46199999999999997,-2.4006222       0.004632
-7.003125,0.46199999999999997,-2.4006222        0.004632
-7.003125,-0.46199999999999997,2.4006222        0.004632
-7.003125,1.8479997,-1.6004148  0.004632
-7.003125,0.46199999999999997,2.4006222 0.004632
-7.003125,2.3099997,-0.8002074  0.004632
-7.003125,2.3099997,0.8002074   0.004632
-7.003125,1.8479997,1.6004148   0.004632
-42.9375,-2.3099997,0.26673569999999996 -2.519484
-42.9375,-1.386,1.8671505       -2.519484
-42.9375,-0.9239999999999999,-2.1338865 -2.519484
-42.9375,0.9239999999999999,-2.1338865  -2.519484
-42.9375,2.3099997,0.26673569999999996  -2.519484
-42.9375,1.386,1.8671505        -2.519484
909.6,-0.0,-0.0 -8.177907
-34.8,-0.9239999999999999,-0.5334717    7.550516
-34.8,0.0,1.0669431     7.550516
-34.8,0.9239999999999999,-0.5334717     7.550516
-181.04999999999998,-0.9239999999999999,0.5334717       -7.554483
-181.04999999999998,-0.0,-1.0669431     -7.554483
-181.04999999999998,0.9239999999999999,0.5334717        -7.554483
14.671875,-2.3099997,0.8002074  1.892092
14.671875,-2.3099997,-0.8002074 1.892092
14.671875,-1.8479997,-1.6004148 1.892092
14.671875,-1.8479997,1.6004148  1.892092
14.671875,-0.46199999999999997,-2.4006222       1.892092
14.671875,0.46199999999999997,-2.4006222        1.892092
14.671875,-0.46199999999999997,2.4006222        1.892092
14.671875,1.8479997,-1.6004148  1.892092
14.671875,0.46199999999999997,2.4006222 1.892092
14.671875,2.3099997,-0.8002074  1.892092
14.671875,2.3099997,0.8002074   1.892092
14.671875,1.8479997,1.6004148   1.892092
-151.5,-1.8479997,-1.0669431    4.409069
-151.5,1.8479997,-1.0669431     4.409069
-151.5,0.0,2.1338865    4.409069
7.74609375,-1.8479997,0.5334717 -5.660931
7.74609375,-0.46199999999999997,-1.8671505      -5.660931
7.74609375,-1.386,1.3336791000000001    -5.660931
7.74609375,0.46199999999999997,-1.8671505       -5.660931
7.74609375,1.386,1.3336791000000001     -5.660931
7.74609375,1.8479997,0.5334717  -5.660931
-17.45625,-1.8479997,-1.6004148 -3.142907
-17.45625,-2.3099997,0.8002074  -3.142907
-17.45625,-2.3099997,-0.8002074 -3.142907
-17.45625,-1.8479997,1.6004148  -3.142907
-17.45625,-0.46199999999999997,-2.4006222       -3.142907
-17.45625,0.46199999999999997,-2.4006222        -3.142907
-17.45625,-0.46199999999999997,2.4006222        -3.142907
-17.45625,2.3099997,-0.8002074  -3.142907
-17.45625,1.8479997,-1.6004148  -3.142907
-17.45625,0.46199999999999997,2.4006222 -3.142907
-17.45625,2.3099997,0.8002074   -3.142907
-17.45625,1.8479997,1.6004148   -3.142907
19.621875,-1.386,-0.8002074     6.927092
19.621875,-1.386,0.8002074      6.927092
19.621875,1.386,-0.8002074      6.927092
19.621875,1.386,0.8002074       6.927092
19.621875,-0.0,-1.6004148       6.927092
19.621875,0.0,1.6004148 6.927092
-24.974999999999998,-0.9239999999999999,-0.0    -8.177907
-24.974999999999998,-0.46199999999999997,0.8002074      -8.177907
-24.974999999999998,-0.46199999999999997,-0.8002074     -8.177907
-24.974999999999998,0.46199999999999997,-0.8002074      -8.177907
-24.974999999999998,0.9239999999999999,-0.0     -8.177907
-24.974999999999998,0.46199999999999997,0.8002074       -8.177907
-27.271874999999998,-0.9239999999999999,1.0669431       7.550516
-27.271874999999998,0.9239999999999999,1.0669431        7.550516
-27.271874999999998,-1.386,0.26673569999999996  7.550516
-27.271874999999998,1.386,0.26673569999999996   7.550516
-27.271874999999998,-0.46199999999999997,-1.3336791000000001    7.550516
-27.271874999999998,0.46199999999999997,-1.3336791000000001     7.550516
-13.706249999999999,-0.9239999999999999,-1.0669431      -7.554483
-13.706249999999999,0.9239999999999999,-1.0669431       -7.554483
-13.706249999999999,-1.386,-0.26673569999999996 -7.554483
-13.706249999999999,1.386,-0.26673569999999996  -7.554483
-13.706249999999999,-0.46199999999999997,1.3336791000000001     -7.554483
-13.706249999999999,0.46199999999999997,1.3336791000000001      -7.554483
-150.075,0.0,2.6673579  -0.625931
-150.075,-2.3099997,-1.3336791000000001 -0.625931
-150.075,2.3099997,-1.3336791000000001  -0.625931
-80.925,-2.3099997,-0.26673569999999996 4.409069
-80.925,-1.386,-1.8671505       4.409069
-80.925,-0.9239999999999999,2.1338865   4.409069
-80.925,1.386,-1.8671505        4.409069
-80.925,2.3099997,-0.26673569999999996  4.409069
-80.925,0.9239999999999999,2.1338865    4.409069
93.1125,-1.8479997,-1.0669431   -5.660931
93.1125,1.8479997,-1.0669431    -5.660931
93.1125,0.0,2.1338865   -5.660931
176.1,-0.0,-2.6673579   2.515516
176.1,-2.3099997,1.3336791000000001     2.515516
176.1,2.3099997,1.3336791000000001      2.515516
-28.162499999999998,-2.7719997,-0.0     0.004632
-28.162499999999998,1.386,-2.4006222    0.004632
-28.162499999999998,-1.386,2.4006222    0.004632
-28.162499999999998,2.7719997,-0.0      0.004632
-28.162499999999998,-1.386,-2.4006222   0.004632
-28.162499999999998,1.386,2.4006222     0.004632
-115.725,0.0,2.6673579  -2.519484
-115.725,-2.3099997,-1.3336791000000001 -2.519484
-115.725,2.3099997,-1.3336791000000001  -2.519484
68.39999999999999,-1.8479997,0.0        6.927092
68.39999999999999,-0.9239999999999999,-1.6004148        6.927092
68.39999999999999,-0.9239999999999999,1.6004148 6.927092
68.39999999999999,0.9239999999999999,-1.6004148 6.927092
68.39999999999999,1.8479997,0.0 6.927092
68.39999999999999,0.9239999999999999,1.6004148  6.927092
63.5625,-2.7719997,-0.5334717   -0.625931
63.5625,-0.9239999999999999,2.6673579   -0.625931
63.5625,-1.8479997,-2.1338865   -0.625931
63.5625,1.8479997,-2.1338865    -0.625931
63.5625,0.9239999999999999,2.6673579    -0.625931
63.5625,2.7719997,-0.5334717    -0.625931
33.58125,-2.7719997,0.0 1.892092
33.58125,-1.386,-2.4006222      1.892092
33.58125,-1.386,2.4006222       1.892092
33.58125,1.386,-2.4006222       1.892092
33.58125,2.7719997,0.0  1.892092
33.58125,1.386,2.4006222        1.892092
-1.29609375,-2.3099997,0.8002074        -5.030367
-1.29609375,-2.3099997,-0.8002074       -5.030367
-1.29609375,-1.8479997,-1.6004148       -5.030367
-1.29609375,-1.8479997,1.6004148        -5.030367
-1.29609375,-2.3099997,0.8002074        5.039632
-1.29609375,0.46199999999999997,-2.4006222      -5.030367
-1.29609375,-0.46199999999999997,-2.4006222     -5.030367
-1.29609375,-2.3099997,-0.8002074       5.039632
-1.29609375,-1.8479997,-1.6004148       5.039632
-1.29609375,-0.46199999999999997,2.4006222      -5.030367
-1.29609375,0.46199999999999997,-2.4006222      5.039632
-1.29609375,-1.8479997,1.6004148        5.039632
-1.29609375,-0.46199999999999997,-2.4006222     5.039632
-1.29609375,1.8479997,-1.6004148        -5.030367
-1.29609375,0.46199999999999997,2.4006222       -5.030367
-1.29609375,2.3099997,-0.8002074        -5.030367
-1.29609375,2.3099997,0.8002074 -5.030367
-1.29609375,1.8479997,1.6004148 -5.030367
-1.29609375,-0.46199999999999997,2.4006222      5.039632
-1.29609375,1.8479997,-1.6004148        5.039632
-1.29609375,2.3099997,-0.8002074        5.039632
-1.29609375,0.46199999999999997,2.4006222       5.039632
-1.29609375,2.3099997,0.8002074 5.039632
-1.29609375,1.8479997,1.6004148 5.039632
-0.20625,-2.3099997,-0.26673569999999996        -5.660931
-0.20625,-1.386,-1.8671505      -5.660931
-0.20625,-0.9239999999999999,2.1338865  -5.660931
-0.20625,1.386,-1.8671505       -5.660931
-0.20625,0.9239999999999999,2.1338865   -5.660931
-0.20625,2.3099997,-0.26673569999999996 -5.660931
34.8,-0.46199999999999997,0.26673569999999996   9.444068
34.8,0.0,-0.5334717     9.444068
34.8,0.46199999999999997,0.26673569999999996    9.444068
15.393749999999999,-2.7719997,0.5334717 2.515516
15.393749999999999,-0.9239999999999999,-2.6673579       2.515516
15.393749999999999,0.9239999999999999,-2.6673579        2.515516
15.393749999999999,-1.8479997,2.1338865 2.515516
15.393749999999999,2.7719997,0.5334717  2.515516
15.393749999999999,1.8479997,2.1338865  2.515516
47.0625,-2.7719997,-0.5334717   -2.519484
47.0625,-0.9239999999999999,2.6673579   -2.519484
47.0625,-1.8479997,-2.1338865   -2.519484
47.0625,1.8479997,-2.1338865    -2.519484
47.0625,2.7719997,-0.5334717    -2.519484
47.0625,0.9239999999999999,2.6673579    -2.519484
65.8875,-2.7719997,-0.0 -3.142907
65.8875,-1.386,-2.4006222       -3.142907
65.8875,-1.386,2.4006222        -3.142907
65.8875,1.386,-2.4006222        -3.142907
65.8875,2.7719997,-0.0  -3.142907
65.8875,1.386,2.4006222 -3.142907
2.593652343,-1.386,-0.8002074   -8.177907
2.593652343,-1.386,0.8002074    -8.177907
2.593652343,1.386,0.8002074     -8.177907
2.593652343,1.386,-0.8002074    -8.177907
2.593652343,-0.0,-1.6004148     -8.177907
2.593652343,0.0,1.6004148       -8.177907
75.5625,-1.386,-1.3336791000000001      7.550516
75.5625,-1.8479997,-0.5334717   7.550516
75.5625,-0.46199999999999997,1.8671505  7.550516
75.5625,1.386,-1.3336791000000001       7.550516
75.5625,0.46199999999999997,1.8671505   7.550516
75.5625,1.8479997,-0.5334717    7.550516
-104.39999999999999,-1.386,1.3336791000000001   -7.554483
-104.39999999999999,-1.8479997,0.5334717        -7.554483
-104.39999999999999,-0.46199999999999997,-1.8671505     -7.554483
-104.39999999999999,0.46199999999999997,-1.8671505      -7.554483
-104.39999999999999,1.8479997,0.5334717 -7.554483
-104.39999999999999,1.386,1.3336791000000001    -7.554483
21.3796875,-2.3099997,1.8671505 -0.625931
21.3796875,-2.7719997,1.0669431 -0.625931
21.3796875,-0.46199999999999997,-2.9340938999999997     -0.625931
21.3796875,0.46199999999999997,-2.9340938999999997      -0.625931
21.3796875,2.7719997,1.0669431  -0.625931
21.3796875,2.3099997,1.8671505  -0.625931
-145.125,-0.0,-2.6673579        4.409069
-145.125,-2.3099997,1.3336791000000001  4.409069
-145.125,2.3099997,1.3336791000000001   4.409069

End of input

&SCF
Occupied
9
Iterations
   50  100
End of Input

&RASSCF
LumOrb
Symmetry
1
Spin
2
Nactel
1 0 0
CIRoot
9 9 1
inactive
9
ras2
9
End of Input

>>> COPY molybdenum_so_cf.JobIph $SLURM_SUBMIT_DIR/molybdenum_so_cf.doublet.JobIph

>>> COPY $SLURM_SUBMIT_DIR/molybdenum_so_cf.doublet.JobIph ./JOB002

&RASSI
NROFJobIph
1 All
SpinOrbit
End of Input

EOF

-- ----------------------------------

--- Start Module: seward at Tue Mar 25 16:52:48 2025 ---

()()()()()()()()()()()()()()()()()()()()()()()()()()()()()()()()()()()()()()()()()()()()()()()()()()

                                              &SEWARD

                                   only a single process is used
                       available to each process: 4.1 GB of memory, 1 thread?
                                            pid: 1188024
()()()()()()()()()()()()()()()()()()()()()()()()()()()()()()()()()()()()()()()()()()()()()()()()()()

 The speed of LIGHT in this CALCULATION =   137.03599917700001     
               SEWARD will generate:
                  Multipole Moment integrals up to order  2
                  Kinetic Energy integrals
                  Nuclear Attraction integrals (point charge)
                  One-Electron Hamiltonian integrals
                  Velocity integrals
                  Relativistic Douglas-Kroll-Hess integrals:
                    - Parametrization         : EXP
                    - DKH order of Hamiltonian: 2
                    - DKH order of Properties : 0
                         - multipole moment operators
                         - electric potential operators
                         - contact operators
                  External field from   414 point(s) added to the one-electron Hamiltonian
                  Orbital angular momentum around (-0.0000 -0.0000  0.0088 )
                  Velocity quadrupole around (-0.0000 -0.0000  0.0088 )
                  Atomic mean-field integrals
                  Two-Electron Repulsion integrals

                   Integrals are discarded if absolute value <: 0.10E-13
                   Integral cutoff threshold is set to       <: 0.10E-15

++    Symmetry information:
      ---------------------

                    Character Table for C1 

                             E  
                    a        1  x, y, xy, Rz, z, xz, Ry, yz, Rx, I
--


++    Basis set information:
      ----------------------


      Basis set label: MO.ANO-RCC.ROOS.21S18P13D6F4G2H.10S9P9D6F4G2H......

      Electronic valence basis set:
      ------------------
      Associated Effective Charge  42.000000 au
      Associated Actual Charge     42.000000 au
      Nuclear Model: Point charge

      Shell  nPrim  nBasis  Cartesian Spherical Contaminant
         s      21      10        X                  
         p      18       9        X                  
         d      13       9                 X         
         f       6       6                 X         
         g       4       4                 X         
         h       2       2                 X         
--


++    Molecular structure info:
      -------------------------

                    ************************************************ 
                    **** Cartesian Coordinates / Bohr, Angstrom **** 
                    ************************************************ 

     Center  Label                x              y              z                     x              y              z
        1      MO              -0.000000      -0.000000       0.008754             -0.000000      -0.000000       0.004632
--


++    Operator info:
      --------------


  Net charge from external field:   -39.268449999999902     
--


            Nuclear Potential Energy              0.00000000 au

                    Nuclear-External Field Potential Energy   -1280.84942014 au
                    External Field Potential Energy            5352.12300462 au 


            Total Nuclear Potential Energy          -1280.84942014 au


      Basis set specifications :
      Symmetry species         a  
      Basis functions          182

 Sorry, Molden does not know how to handle
 functions with angular momentum larger than g
Note: The following floating-point exceptions are signalling: IEEE_UNDERFLOW_FLAG IEEE_DENORMAL
--- Stop Module: seward at Tue Mar 25 16:53:00 2025 /rc=_RC_ALL_IS_WELL_ ---
*** files: molybdenum_so_cf.GssOrb xmldump
    saved to directory /home4/s4752295/Internship/Initial_simulations/Point_charge_model/1_electron/Madelung_charges_9_active_space/Mo
--- Module seward spent 11 seconds ---

*** symbolic link created: INPORB -> molybdenum_so_cf.GssOrb
--- Start Module: scf at Tue Mar 25 16:53:00 2025 ---

()()()()()()()()()()()()()()()()()()()()()()()()()()()()()()()()()()()()()()()()()()()()()()()()()()

                                                &SCF

                                   only a single process is used
                       available to each process: 4.1 GB of memory, 1 thread?
                                            pid: 1188032
()()()()()()()()()()()()()()()()()()()()()()()()()()()()()()()()()()()()()()()()()()()()()()()()()()

++    Input section:
      --------------

      Header of the integral files:
      
       Integrals generated by seward 4.2.0  , Tue Mar 25 16:52:48 2025


      Cartesian coordinates in Angstrom:
      -----------------------------------------------------
      No.  Label        X            Y            Z        
      -----------------------------------------------------
       1   MO        -0.00000000  -0.00000000   0.00463220
      -----------------------------------------------------
      Nuclear repulsion energy =-1280.84942014
--

++    Orbital specifications:
      -----------------------

      Symmetry species               1
                                     a
      Frozen orbitals                0
      Occupied orbitals              9
      Secondary orbitals           173
      Deleted orbitals               0
      Total number of orbitals     182
      Number of basis functions    182
--

      Molecular charge                          24.000

++    Optimization specifications:
      ----------------------------

      SCF Algorithm: Conventional
      Minimized density differences are used
      Number of density matrices in core                5
      Maximum number of NDDO SCF iterations            50
      Maximum number of HF SCF iterations             100
      Threshold for SCF energy change            0.10E-08
      Threshold for density matrix               0.10E-03
      Threshold for Fock matrix                  0.15E-03
      Threshold for linear dependence            0.10E-08
      Threshold at which DIIS is turned on       0.15E+00
      Threshold at which QNR/C2DIIS is turned on 0.75E-01
      Threshold for Norm(delta) (QNR/C2DIIS)     0.20E-04
      DIIS extrapolation of the SCF procedure
      All orbitals punched on: SCFORB
--

      Detected guessorb starting orbitals                                             


++ Convergence information
                                   SCF        iterations: Energy and convergence statistics

Iter     Tot. SCF        One-elec.       Two-elec.     Energy      Max Dij or  Max Fij      DNorm      TNorm      AccCon     Time
         Energy          Energy          Energy        Change      Delta Norm                                                in Sec.

 The total and one-electron energies are shifted by a value of      4000. a.u.

   1  -409.571383486   250.167748548   621.110288109   0.00E+00    0.55E+00*   0.30E+01*    0.60E+01   0.35E+03   None         1.
   2  -418.566093623   205.299188918   656.984137602  -0.90E+01*   0.53E-01*   0.55E+00*    0.22E+01   0.36E+03   EDIIS        1.
   3  -418.643823578   207.507926426   654.697670139  -0.78E-01*   0.11E-01*   0.56E-01*    0.12E+00   0.36E+03   EDIIS        1.
   4  -418.645008960   207.305589318   654.898821865  -0.12E-02*   0.12E-02*   0.71E-02*    0.11E-01   0.36E+03   c2DIIS       1.
   5  -418.645034625   207.321698511   654.882687006  -0.26E-04*   0.24E-03*   0.14E-02*    0.14E-02   0.36E+03   QNRc2DIIS    1.
   6  -418.645035794   207.322150537   654.882233813  -0.12E-05*   0.12E-03*   0.45E-03*    0.92E-04   0.36E+03   QNRc2DIIS    1.
   7  -418.645035929   207.322098919   654.882285295  -0.14E-06*   0.78E-06    0.80E-05     0.89E-05   0.36E+03   QNRc2DIIS    1.
   8  -418.645035929   207.322119919   654.882264295  -0.15E-10    0.65E-07    0.45E-06     0.12E-02   0.36E+03   QNRc2DIIS    1.

       Convergence after  8 Macro Iterations
--

 *****************************************************************************************************************************
 *                                                                                                                           *
 *                                             SCF/KS-DFT Program, Final results                                             *
 *                                                                                                                           *
 *                                                                                                                           *
 *                                                                                                                           *
 *                                                       Final Results                                                       *
 *                                                                                                                           *
 *****************************************************************************************************************************

::    Total SCF energy                              -4418.6450359292
      One-electron energy                           -3792.6778800813
      Two-electron energy                             654.8822642950
      Nuclear repulsion energy                      -1280.8494201429
      Kinetic energy (interpolated)                  4109.2176317884
      Virial theorem                                    1.0753008071
      Total spin, S(S+1)                                0.0000000000
      Total spin, S                                     0.0000000000
      Max non-diagonal density matrix element           0.0000000694
      Max non-diagonal Fock matrix element              0.0000000582


      All orbitals with orbital energies smaller than  E(LUMO)+0.5 are printed

++    Molecular orbitals:
      -------------------

      Title: SCF orbitals

      Molecular orbitals for symmetry species 1: a  

          Orbital            1         2         3         4         5         6         7         8         9        10    
          Energy         -746.9348 -114.5922 -103.2249 -103.2249 -103.1813  -21.0162  -16.7114  -16.7100  -15.8610   -9.3364
          Occ. No.          2.0000    2.0000    2.0000    2.0000    2.0000    2.0000    2.0000    2.0000    2.0000    0.0000

        1 MO     1s         1.0000   -0.0000    0.0000   -0.0000   -0.0001    0.0001   -0.0000    0.0000    0.0000    0.0000
        2 MO     2s         0.0000    0.9995    0.0002   -0.0000   -0.0276    0.0112    0.0000    0.0000   -0.0073   -0.0000
        3 MO     3s        -0.0000   -0.0124   -0.0000    0.0000    0.0032    0.9233    0.0008    0.0000   -0.3457   -0.0000
        4 MO     4s         0.0000    0.0030    0.0000   -0.0000   -0.0007   -0.0830   -0.0001    0.0000    0.0550    0.0000
        5 MO     5s        -0.0000   -0.0007   -0.0000    0.0000    0.0002    0.0177    0.0000    0.0000   -0.0122    0.0000
        6 MO     6s         0.0000    0.0009    0.0000   -0.0000   -0.0002   -0.0208   -0.0000   -0.0000    0.0145    0.0000
        7 MO     7s        -0.0000   -0.0026   -0.0000    0.0000    0.0006    0.0569    0.0001   -0.0000   -0.0405   -0.0000
        8 MO     8s         0.0000    0.0024    0.0000   -0.0000   -0.0005   -0.0434   -0.0001   -0.0000    0.0318   -0.0000
        9 MO     9s        -0.0000   -0.0025   -0.0000    0.0000    0.0005    0.0382    0.0001   -0.0000   -0.0283    0.0000
       10 MO    10s         0.0001    0.0030    0.0000   -0.0000   -0.0005   -0.0269   -0.0000   -0.0000    0.0186    0.0000
       11 MO     2px        0.0001    0.0276   -0.0083    0.0000    0.9995    0.0024   -0.0001   -0.0000    0.0135    0.0000
       12 MO     3px       -0.0001    0.0023    0.0001   -0.0000   -0.0140    0.3611   -0.0042   -0.0000    0.8733    0.0000
       13 MO     4px        0.0000   -0.0005   -0.0000    0.0000    0.0031   -0.0238    0.0004    0.0000   -0.0944   -0.0000
       14 MO     5px       -0.0000    0.0002    0.0000   -0.0000   -0.0011    0.0070   -0.0001   -0.0000    0.0302    0.0000
       15 MO     6px        0.0000   -0.0005   -0.0000    0.0000    0.0027   -0.0149    0.0003    0.0000   -0.0700   -0.0000
       16 MO     7px       -0.0000    0.0004    0.0000   -0.0000   -0.0024    0.0105   -0.0002   -0.0000    0.0564    0.0000
       17 MO     8px        0.0000   -0.0005   -0.0000    0.0000    0.0030   -0.0088    0.0003    0.0000   -0.0576   -0.0000
       18 MO     9px       -0.0000    0.0005    0.0000   -0.0000   -0.0028    0.0053   -0.0002   -0.0000    0.0438    0.0000
       19 MO    10px        0.0001   -0.0004   -0.0000    0.0000    0.0023   -0.0023    0.0001   -0.0000   -0.0218    0.0000
       20 MO     2py        0.0000    0.0000   -0.0000    0.9999   -0.0000    0.0000    0.0000    0.0137   -0.0000    0.0003
       21 MO     3py        0.0000   -0.0000    0.0000   -0.0136    0.0000    0.0000    0.0000    0.9661    0.0000    0.0127
       22 MO     4py       -0.0000    0.0000   -0.0000    0.0030   -0.0000   -0.0000   -0.0000   -0.0989   -0.0000   -0.0024
       23 MO     5py        0.0000   -0.0000    0.0000   -0.0010    0.0000    0.0000    0.0000    0.0315    0.0000    0.0008
       24 MO     6py       -0.0000    0.0000   -0.0000    0.0026   -0.0000   -0.0000   -0.0000   -0.0725   -0.0000   -0.0020
       25 MO     7py        0.0000   -0.0000    0.0000   -0.0024    0.0000    0.0000    0.0000    0.0578    0.0000    0.0017
       26 MO     8py       -0.0000    0.0000   -0.0000    0.0029   -0.0000   -0.0000   -0.0000   -0.0578   -0.0000   -0.0017
       27 MO     9py        0.0000   -0.0000    0.0000   -0.0027    0.0000    0.0000    0.0000    0.0427    0.0000    0.0011
       28 MO    10py       -0.0000    0.0000   -0.0000    0.0023   -0.0000   -0.0000   -0.0000   -0.0201   -0.0000   -0.0003
       29 MO     2pz        0.0000    0.0001    0.9998    0.0000    0.0083    0.0000    0.0137   -0.0000    0.0001    0.0000
       30 MO     3pz       -0.0000    0.0000   -0.0136   -0.0000   -0.0001    0.0008    0.9660   -0.0000    0.0040    0.0000
       31 MO     4pz        0.0000   -0.0000    0.0030    0.0000    0.0000   -0.0001   -0.0989    0.0000   -0.0005   -0.0000
       32 MO     5pz       -0.0000    0.0000   -0.0010   -0.0000   -0.0000    0.0000    0.0315   -0.0000    0.0001    0.0000
       33 MO     6pz        0.0000   -0.0000    0.0026    0.0000    0.0000   -0.0000   -0.0725    0.0000   -0.0003   -0.0000
       34 MO     7pz       -0.0000    0.0000   -0.0024   -0.0000   -0.0000    0.0000    0.0578   -0.0000    0.0003    0.0000
       35 MO     8pz        0.0000   -0.0000    0.0029    0.0000    0.0000   -0.0000   -0.0577    0.0000   -0.0003   -0.0000
       36 MO     9pz       -0.0000    0.0000   -0.0027   -0.0000   -0.0000    0.0000    0.0427   -0.0000    0.0002    0.0000
       37 MO    10pz        0.0000   -0.0000    0.0023    0.0000    0.0000   -0.0000   -0.0201    0.0000   -0.0001   -0.0000
       38 MO     3d2-       0.0000    0.0000   -0.0000    0.0021   -0.0000    0.0000    0.0000    0.2026    0.0000   -0.0580
       39 MO     4d2-      -0.0000   -0.0000    0.0000   -0.0004    0.0000    0.0000   -0.0000   -0.0114   -0.0000    0.0047
       40 MO     5d2-       0.0000    0.0000   -0.0000    0.0004   -0.0000    0.0000    0.0000    0.0108    0.0000   -0.0049
       41 MO     6d2-      -0.0000   -0.0000    0.0000   -0.0004    0.0000   -0.0000   -0.0000   -0.0076   -0.0000    0.0040
       42 MO     7d2-       0.0000    0.0000   -0.0000    0.0004   -0.0000   -0.0000    0.0000    0.0048    0.0000   -0.0035
       43 MO     8d2-      -0.0000   -0.0000    0.0000   -0.0005    0.0000   -0.0000   -0.0000   -0.0028   -0.0000    0.0037
       44 MO     9d2-      -0.0000    0.0000   -0.0000    0.0004   -0.0000   -0.0000    0.0000    0.0006   -0.0000   -0.0030
       45 MO    10d2-       0.0000   -0.0000    0.0000   -0.0006    0.0000    0.0000    0.0000    0.0010    0.0000    0.0034
       46 MO    11d2-      -0.0000    0.0000   -0.0000    0.0003   -0.0000   -0.0000   -0.0000   -0.0005   -0.0000   -0.0007
       47 MO     3d1-       0.0000   -0.0000   -0.0000    0.0000   -0.0000   -0.0000   -0.0000   -0.0009   -0.0000    0.9749
       48 MO     4d1-      -0.0000    0.0000    0.0000   -0.0000    0.0000    0.0000   -0.0000   -0.0000    0.0000   -0.0941
       49 MO     5d1-       0.0000   -0.0000   -0.0000    0.0000   -0.0000   -0.0000    0.0000    0.0001    0.0000    0.1001
       50 MO     6d1-      -0.0000    0.0000    0.0000   -0.0000    0.0000    0.0000   -0.0000   -0.0001    0.0000   -0.0848
       51 MO     7d1-       0.0000   -0.0000   -0.0000    0.0000   -0.0000   -0.0000    0.0000    0.0002   -0.0000    0.0737
       52 MO     8d1-      -0.0000    0.0000    0.0000   -0.0000    0.0000    0.0000   -0.0000   -0.0002    0.0000   -0.0754
       53 MO     9d1-       0.0000   -0.0000   -0.0000    0.0000   -0.0000   -0.0000    0.0000    0.0001   -0.0000    0.0575
       54 MO    10d1-      -0.0000    0.0000    0.0000   -0.0000    0.0000    0.0000    0.0000    0.0000    0.0000   -0.0567
       55 MO    11d1-       0.0000   -0.0000   -0.0000    0.0000   -0.0000    0.0000   -0.0000   -0.0000    0.0000    0.0090
       56 MO     3d0        0.0000    0.0001    0.0000   -0.0000   -0.0013   -0.0160    0.0022    0.0000   -0.1461   -0.0000
       57 MO     4d0       -0.0000   -0.0000   -0.0000    0.0000    0.0002    0.0002   -0.0001    0.0000    0.0093    0.0000
       58 MO     5d0        0.0000    0.0000    0.0000   -0.0000   -0.0002    0.0000    0.0000    0.0000   -0.0090   -0.0000
       59 MO     6d0       -0.0000   -0.0000   -0.0000    0.0000    0.0002   -0.0003    0.0000   -0.0000    0.0066    0.0000
       60 MO     7d0        0.0000    0.0000    0.0000   -0.0000   -0.0002    0.0006   -0.0001    0.0000   -0.0046   -0.0000
       61 MO     8d0       -0.0000   -0.0000   -0.0000    0.0000    0.0003   -0.0009    0.0001   -0.0000    0.0033    0.0000
       62 MO     9d0        0.0000    0.0000    0.0000   -0.0000   -0.0002    0.0008   -0.0001    0.0000   -0.0016   -0.0000
       63 MO    10d0       -0.0000   -0.0000   -0.0000    0.0000    0.0003   -0.0008   -0.0000   -0.0000    0.0006    0.0000
       64 MO    11d0        0.0000   -0.0000    0.0000   -0.0000   -0.0001    0.0000    0.0000    0.0000   -0.0000   -0.0000
       65 MO     3d1+      -0.0000   -0.0000    0.0021    0.0000    0.0000   -0.0001    0.2032   -0.0000    0.0023   -0.0000
       66 MO     4d1+       0.0000    0.0000   -0.0004   -0.0000   -0.0000   -0.0000   -0.0114    0.0000   -0.0002    0.0000
       67 MO     5d1+      -0.0000   -0.0000    0.0004    0.0000    0.0000    0.0000    0.0108   -0.0000    0.0001   -0.0000
       68 MO     6d1+       0.0000    0.0000   -0.0004   -0.0000   -0.0000   -0.0000   -0.0076    0.0000   -0.0001    0.0000
       69 MO     7d1+      -0.0000   -0.0000    0.0004    0.0000    0.0000    0.0000    0.0048   -0.0000    0.0001   -0.0000
       70 MO     8d1+       0.0000    0.0000   -0.0005   -0.0000   -0.0000   -0.0000   -0.0028    0.0000   -0.0000    0.0000
       71 MO     9d1+      -0.0000   -0.0000    0.0004    0.0000    0.0000   -0.0000    0.0006   -0.0000    0.0000   -0.0000
       72 MO    10d1+       0.0000    0.0000   -0.0006   -0.0000   -0.0000    0.0000    0.0010   -0.0000    0.0000    0.0000
       73 MO    11d1+      -0.0000    0.0000    0.0003    0.0000    0.0000    0.0000   -0.0005    0.0000    0.0000   -0.0000
       74 MO     3d2+      -0.0000   -0.0002   -0.0000    0.0000    0.0022    0.0279   -0.0001   -0.0000    0.2538   -0.0000
       75 MO     4d2+       0.0000    0.0000    0.0000   -0.0000   -0.0004   -0.0004    0.0000   -0.0000   -0.0160    0.0000
       76 MO     5d2+      -0.0000   -0.0000   -0.0000    0.0000    0.0004   -0.0000   -0.0001    0.0000    0.0156   -0.0000
       77 MO     6d2+       0.0000    0.0000    0.0000   -0.0000   -0.0004    0.0006    0.0001   -0.0000   -0.0115    0.0000
       78 MO     7d2+      -0.0000   -0.0000   -0.0000    0.0000    0.0004   -0.0010   -0.0001    0.0000    0.0079   -0.0000
       79 MO     8d2+       0.0000    0.0000    0.0000   -0.0000   -0.0005    0.0015    0.0001   -0.0000   -0.0058    0.0000
       80 MO     9d2+      -0.0000   -0.0000   -0.0000    0.0000    0.0004   -0.0014   -0.0001    0.0000    0.0027   -0.0000
       81 MO    10d2+       0.0000    0.0000    0.0000   -0.0000   -0.0005    0.0013   -0.0000   -0.0000   -0.0010    0.0000
       82 MO    11d2+      -0.0000    0.0000   -0.0000    0.0000    0.0002   -0.0000    0.0000   -0.0000    0.0001   -0.0000
       83 MO     4f3-       0.0000    0.0000    0.0000   -0.0000    0.0000    0.0000    0.0000    0.0017    0.0000   -0.0022
       84 MO     5f3-       0.0000   -0.0000    0.0000   -0.0000    0.0000    0.0000    0.0000    0.0022    0.0000   -0.0026
       85 MO     6f3-      -0.0000    0.0000   -0.0000    0.0000   -0.0000   -0.0000   -0.0000   -0.0024   -0.0000    0.0025
       86 MO     7f3-       0.0000   -0.0000    0.0000   -0.0000    0.0000    0.0000    0.0000    0.0021    0.0000   -0.0020
       87 MO     8f3-       0.0000   -0.0000    0.0000   -0.0000    0.0000    0.0000    0.0000    0.0011    0.0000   -0.0010
       88 MO     9f3-      -0.0000    0.0000   -0.0000    0.0001   -0.0000   -0.0000   -0.0000   -0.0035   -0.0000    0.0035
       89 MO     4f2-      -0.0000   -0.0000    0.0000   -0.0000    0.0000    0.0000   -0.0000   -0.0010   -0.0000    0.0128
       90 MO     5f2-       0.0000   -0.0000    0.0000   -0.0000    0.0000    0.0000   -0.0000   -0.0012   -0.0000    0.0150
       91 MO     6f2-      -0.0000    0.0000   -0.0000    0.0000   -0.0000   -0.0000    0.0000    0.0012    0.0000   -0.0152
       92 MO     7f2-       0.0000   -0.0000    0.0000   -0.0000    0.0000    0.0000   -0.0000   -0.0010   -0.0000    0.0137
       93 MO     8f2-      -0.0000   -0.0000    0.0000   -0.0000    0.0000   -0.0000   -0.0000   -0.0005   -0.0000    0.0083
       94 MO     9f2-       0.0000    0.0000   -0.0000    0.0000   -0.0000    0.0000    0.0000    0.0012    0.0000   -0.0343
       95 MO     4f1-       0.0000    0.0000   -0.0000    0.0000   -0.0000    0.0000   -0.0000   -0.0004   -0.0000    0.0006
       96 MO     5f1-       0.0000    0.0000   -0.0000    0.0000   -0.0000    0.0000   -0.0000   -0.0006   -0.0000    0.0007
       97 MO     6f1-      -0.0000   -0.0000    0.0000   -0.0000    0.0000   -0.0000    0.0000    0.0006    0.0000   -0.0007
       98 MO     7f1-       0.0000    0.0000   -0.0000    0.0000   -0.0000    0.0000   -0.0000   -0.0005   -0.0000    0.0006
       99 MO     8f1-       0.0000   -0.0000   -0.0000    0.0000   -0.0000    0.0000   -0.0000   -0.0003   -0.0000    0.0003
      100 MO     9f1-       0.0000   -0.0000    0.0000   -0.0000    0.0000   -0.0000    0.0000    0.0009    0.0000   -0.0010
      101 MO     4f0       -0.0000    0.0000    0.0000    0.0000    0.0000    0.0001   -0.0011    0.0000    0.0006    0.0000
      102 MO     5f0       -0.0000   -0.0000    0.0000    0.0000    0.0000    0.0002   -0.0015    0.0000    0.0007    0.0000
      103 MO     6f0        0.0000   -0.0000   -0.0000   -0.0000   -0.0000   -0.0003    0.0016   -0.0000   -0.0007   -0.0000
      104 MO     7f0        0.0000    0.0000    0.0000    0.0000    0.0000    0.0003   -0.0014    0.0000    0.0005    0.0000
      105 MO     8f0        0.0000    0.0000    0.0000    0.0000    0.0000    0.0001   -0.0007    0.0000    0.0002    0.0000
      106 MO     9f0        0.0000   -0.0000   -0.0001   -0.0000   -0.0000   -0.0002    0.0023   -0.0000   -0.0006   -0.0000
      107 MO     4f1+       0.0000   -0.0000    0.0000    0.0000    0.0000   -0.0004    0.0007   -0.0000   -0.0011   -0.0000
      108 MO     5f1+       0.0000   -0.0000    0.0000    0.0000    0.0000   -0.0005    0.0009   -0.0000   -0.0013   -0.0000
      109 MO     6f1+      -0.0000    0.0000   -0.0000   -0.0000   -0.0000    0.0006   -0.0009    0.0000    0.0013    0.0000
      110 MO     7f1+       0.0000   -0.0000    0.0000    0.0000    0.0000   -0.0006    0.0007   -0.0000   -0.0011   -0.0000
      111 MO     8f1+       0.0000   -0.0000    0.0000    0.0000    0.0000   -0.0003    0.0003   -0.0000   -0.0006   -0.0000
      112 MO     9f1+      -0.0000    0.0000   -0.0000   -0.0000   -0.0001    0.0012   -0.0008    0.0000    0.0025    0.0000
      113 MO     4f2+      -0.0000    0.0000   -0.0000   -0.0000    0.0000    0.0001    0.0014   -0.0000    0.0005   -0.0000
      114 MO     5f2+      -0.0000   -0.0000   -0.0000   -0.0000    0.0000    0.0002    0.0019   -0.0000    0.0006   -0.0000
      115 MO     6f2+       0.0000   -0.0000    0.0000    0.0000   -0.0000   -0.0002   -0.0020    0.0000   -0.0006    0.0000
      116 MO     7f2+       0.0000    0.0000   -0.0000   -0.0000    0.0000    0.0002    0.0018   -0.0000    0.0004   -0.0000
      117 MO     8f2+       0.0000    0.0000   -0.0000   -0.0000    0.0000    0.0001    0.0009   -0.0000    0.0002   -0.0000
      118 MO     9f2+       0.0000   -0.0000    0.0001    0.0000   -0.0000   -0.0002   -0.0030    0.0000   -0.0005    0.0000
      119 MO     4f3+      -0.0000    0.0000    0.0000   -0.0000   -0.0000    0.0006    0.0006   -0.0000    0.0015   -0.0000
      120 MO     5f3+      -0.0000    0.0000    0.0000    0.0000   -0.0000    0.0007    0.0007   -0.0000    0.0018   -0.0000
      121 MO     6f3+       0.0000   -0.0000   -0.0000   -0.0000    0.0000   -0.0009   -0.0007    0.0000   -0.0018    0.0000
      122 MO     7f3+      -0.0000    0.0000    0.0000   -0.0000   -0.0000    0.0008    0.0006   -0.0000    0.0015   -0.0000
      123 MO     8f3+      -0.0000    0.0000    0.0000   -0.0000   -0.0000    0.0005    0.0003   -0.0000    0.0009   -0.0000
      124 MO     9f3+       0.0000   -0.0001   -0.0000    0.0000    0.0001   -0.0017   -0.0007    0.0000   -0.0034    0.0000
      125 MO     5g4-      -0.0000    0.0000   -0.0000    0.0000   -0.0000   -0.0000    0.0000    0.0006    0.0000   -0.0004
      126 MO     6g4-       0.0000   -0.0000    0.0000   -0.0000    0.0000   -0.0000   -0.0000   -0.0008   -0.0000    0.0004
      127 MO     7g4-      -0.0000    0.0000   -0.0000    0.0000   -0.0000   -0.0000    0.0000    0.0011    0.0000   -0.0004
      128 MO     8g4-       0.0000   -0.0000    0.0000   -0.0000    0.0000    0.0000   -0.0000   -0.0013   -0.0000    0.0004
      129 MO     5g3-      -0.0000    0.0000    0.0000   -0.0000    0.0000    0.0000   -0.0000   -0.0010   -0.0000   -0.0000
      130 MO     6g3-       0.0000   -0.0000   -0.0000    0.0000   -0.0000   -0.0000    0.0000    0.0011    0.0000   -0.0001
      131 MO     7g3-       0.0000    0.0000    0.0000   -0.0000    0.0000    0.0000   -0.0000   -0.0012   -0.0000    0.0003
      132 MO     8g3-      -0.0000   -0.0000   -0.0000    0.0000   -0.0000   -0.0000    0.0000    0.0012    0.0000   -0.0004
      133 MO     5g2-      -0.0000   -0.0000    0.0000   -0.0000    0.0000    0.0000   -0.0000   -0.0002    0.0000    0.0001
      134 MO     6g2-       0.0000    0.0000   -0.0000    0.0000   -0.0000    0.0000    0.0000    0.0003    0.0000   -0.0001
      135 MO     7g2-      -0.0000   -0.0000    0.0000   -0.0000    0.0000    0.0000   -0.0000   -0.0004    0.0000    0.0001
      136 MO     8g2-       0.0000    0.0000   -0.0000    0.0000   -0.0000   -0.0000    0.0000    0.0004    0.0000   -0.0001
      137 MO     5g1-       0.0000    0.0000   -0.0000    0.0000   -0.0000   -0.0000    0.0000    0.0002    0.0000   -0.0001
      138 MO     6g1-      -0.0000    0.0000    0.0000   -0.0000    0.0000   -0.0000   -0.0000   -0.0003   -0.0000    0.0002
      139 MO     7g1-       0.0000   -0.0000   -0.0000    0.0000   -0.0000   -0.0000    0.0000    0.0004    0.0000   -0.0002
      140 MO     8g1-      -0.0000    0.0000    0.0000   -0.0000    0.0000    0.0000   -0.0000   -0.0004   -0.0000    0.0003
      141 MO     5g0        0.0000    0.0000   -0.0000   -0.0000    0.0000   -0.0001   -0.0006    0.0000   -0.0001   -0.0000
      142 MO     6g0       -0.0000    0.0000    0.0000    0.0000   -0.0000    0.0002    0.0007   -0.0000    0.0000    0.0000
      143 MO     7g0        0.0000   -0.0000   -0.0000   -0.0000    0.0000   -0.0002   -0.0007    0.0000    0.0001    0.0000
      144 MO     8g0        0.0000    0.0000    0.0000    0.0000   -0.0000    0.0003    0.0007   -0.0000   -0.0003   -0.0000
      145 MO     5g1+      -0.0000    0.0000   -0.0000   -0.0000    0.0000    0.0005   -0.0005    0.0000    0.0004    0.0000
      146 MO     6g1+       0.0000   -0.0000    0.0000    0.0000   -0.0000   -0.0006    0.0007   -0.0000   -0.0004   -0.0000
      147 MO     7g1+      -0.0000    0.0000   -0.0000   -0.0000    0.0000    0.0008   -0.0009    0.0000    0.0005    0.0000
      148 MO     8g1+       0.0000   -0.0000    0.0000    0.0000   -0.0000   -0.0008    0.0011   -0.0000   -0.0005   -0.0000
      149 MO     5g2+      -0.0000   -0.0000    0.0000    0.0000   -0.0000    0.0001    0.0004   -0.0000    0.0001   -0.0000
      150 MO     6g2+       0.0000   -0.0000   -0.0000   -0.0000    0.0000   -0.0002   -0.0005    0.0000    0.0000    0.0000
      151 MO     7g2+      -0.0000    0.0000    0.0000    0.0000   -0.0000    0.0003    0.0006   -0.0000   -0.0002   -0.0000
      152 MO     8g2+      -0.0000   -0.0000   -0.0000   -0.0000    0.0000   -0.0003   -0.0006    0.0000    0.0004    0.0000
      153 MO     5g3+      -0.0000    0.0000    0.0000    0.0000    0.0000    0.0006    0.0004   -0.0000    0.0005   -0.0000
      154 MO     6g3+       0.0000   -0.0000   -0.0000   -0.0000   -0.0000   -0.0007   -0.0006    0.0000   -0.0006    0.0000
      155 MO     7g3+      -0.0000    0.0000    0.0000    0.0000    0.0000    0.0009    0.0008   -0.0000    0.0006   -0.0000
      156 MO     8g3+       0.0000   -0.0000   -0.0000   -0.0000   -0.0000   -0.0010   -0.0009    0.0000   -0.0006    0.0000
      157 MO     5g4+       0.0000    0.0000    0.0000    0.0000    0.0000   -0.0001    0.0007   -0.0000   -0.0001    0.0000
      158 MO     6g4+      -0.0000   -0.0000   -0.0000   -0.0000   -0.0000    0.0002   -0.0007    0.0000   -0.0001    0.0000
      159 MO     7g4+       0.0000   -0.0000    0.0000    0.0000    0.0000   -0.0003    0.0008   -0.0000    0.0004   -0.0000
      160 MO     8g4+       0.0000    0.0000   -0.0000   -0.0000   -0.0000    0.0003   -0.0008    0.0000   -0.0007    0.0000
      161 MO     6h5-      -0.0000   -0.0000   -0.0000   -0.0000   -0.0000   -0.0000    0.0000    0.0003    0.0000   -0.0000
      162 MO     7h5-       0.0000    0.0000    0.0000   -0.0000    0.0000    0.0000   -0.0000   -0.0003   -0.0000    0.0000
      163 MO     6h4-      -0.0000    0.0000    0.0000   -0.0000    0.0000    0.0000   -0.0000   -0.0004   -0.0000    0.0003
      164 MO     7h4-       0.0000   -0.0000   -0.0000    0.0000   -0.0000   -0.0000    0.0000    0.0004    0.0000   -0.0003
      165 MO     6h3-      -0.0000   -0.0000   -0.0000    0.0000   -0.0000    0.0000   -0.0000   -0.0001    0.0000   -0.0002
      166 MO     7h3-       0.0000    0.0000   -0.0000    0.0000    0.0000   -0.0000    0.0000    0.0001   -0.0000    0.0001
      167 MO     6h2-       0.0000    0.0000   -0.0000    0.0000   -0.0000   -0.0000    0.0000    0.0004    0.0000   -0.0001
      168 MO     7h2-      -0.0000   -0.0000    0.0000   -0.0000    0.0000    0.0000   -0.0000   -0.0004   -0.0000    0.0002
      169 MO     6h1-      -0.0000   -0.0000    0.0000   -0.0000   -0.0000   -0.0000   -0.0000   -0.0000   -0.0000   -0.0003
      170 MO     7h1-       0.0000    0.0000    0.0000    0.0000    0.0000    0.0000    0.0000    0.0000    0.0000    0.0002
      171 MO     6h0        0.0000   -0.0000   -0.0000   -0.0000   -0.0000   -0.0004    0.0002   -0.0000   -0.0003    0.0000
      172 MO     7h0       -0.0000    0.0000   -0.0000   -0.0000    0.0000    0.0004   -0.0002    0.0000    0.0003   -0.0000
      173 MO     6h1+       0.0000   -0.0000   -0.0000    0.0000   -0.0000   -0.0002   -0.0002    0.0000   -0.0003    0.0000
      174 MO     7h1+      -0.0000   -0.0000    0.0000   -0.0000    0.0000    0.0002    0.0002   -0.0000    0.0003   -0.0000
      175 MO     6h2+      -0.0000    0.0000    0.0000    0.0000    0.0000    0.0002   -0.0002    0.0000    0.0002    0.0000
      176 MO     7h2+       0.0000   -0.0000    0.0000    0.0000   -0.0000   -0.0002    0.0002   -0.0000   -0.0002   -0.0000
      177 MO     6h3+       0.0000    0.0000    0.0000    0.0000    0.0000    0.0002    0.0003   -0.0000    0.0003   -0.0000
      178 MO     7h3+       0.0000    0.0000   -0.0000   -0.0000   -0.0000   -0.0002   -0.0003    0.0000   -0.0003    0.0000
      179 MO     6h4+      -0.0000    0.0000   -0.0000    0.0000    0.0000    0.0006    0.0002   -0.0000    0.0005    0.0000
      180 MO     7h4+       0.0000   -0.0000   -0.0000   -0.0000   -0.0000   -0.0007   -0.0002    0.0000   -0.0005   -0.0000
      181 MO     6h5+      -0.0000   -0.0000    0.0000    0.0000   -0.0000   -0.0003    0.0004   -0.0000   -0.0003   -0.0000
      182 MO     7h5+      -0.0000   -0.0000   -0.0000   -0.0000    0.0000    0.0003   -0.0004    0.0000    0.0003    0.0000

          Orbital           11        12        13    
          Energy           -9.3351   -8.9656   -8.9632
          Occ. No.          0.0000    0.0000    0.0000

        1 MO     1s        -0.0000    0.0000    0.0000
        2 MO     2s         0.0000    0.0000   -0.0000
        3 MO     3s         0.0001    0.0000   -0.0000
        4 MO     4s        -0.0000   -0.0001   -0.0000
        5 MO     5s         0.0000    0.0000   -0.0000
        6 MO     6s        -0.0000   -0.0000    0.0000
        7 MO     7s         0.0000    0.0000    0.0000
        8 MO     8s        -0.0000   -0.0000    0.0000
        9 MO     9s         0.0000    0.0000    0.0000
       10 MO    10s        -0.0000   -0.0000    0.0000
       11 MO     2px       -0.0000    0.0000    0.0000
       12 MO     3px       -0.0006    0.0013    0.0000
       13 MO     4px        0.0001   -0.0003   -0.0000
       14 MO     5px       -0.0000    0.0001    0.0000
       15 MO     6px        0.0001   -0.0002   -0.0000
       16 MO     7px       -0.0001    0.0002    0.0000
       17 MO     8px        0.0001   -0.0001   -0.0000
       18 MO     9px       -0.0001    0.0001    0.0000
       19 MO    10px        0.0000   -0.0000    0.0000
       20 MO     2py        0.0000    0.0000   -0.0052
       21 MO     3py        0.0000    0.0000   -0.1937
       22 MO     4py       -0.0000   -0.0000    0.0359
       23 MO     5py        0.0000    0.0000   -0.0118
       24 MO     6py       -0.0000   -0.0000    0.0277
       25 MO     7py        0.0000    0.0000   -0.0225
       26 MO     8py       -0.0000   -0.0000    0.0226
       27 MO     9py        0.0000    0.0000   -0.0164
       28 MO    10py       -0.0000   -0.0000    0.0067
       29 MO     2pz       -0.0003   -0.0052   -0.0000
       30 MO     3pz       -0.0111   -0.1943   -0.0000
       31 MO     4pz        0.0021    0.0361    0.0000
       32 MO     5pz       -0.0007   -0.0119   -0.0000
       33 MO     6pz        0.0018    0.0279    0.0000
       34 MO     7pz       -0.0015   -0.0226   -0.0000
       35 MO     8pz        0.0015    0.0227    0.0000
       36 MO     9pz       -0.0010   -0.0164   -0.0000
       37 MO    10pz        0.0003    0.0067    0.0000
       38 MO     3d2-      -0.0000   -0.0000    0.9519
       39 MO     4d2-       0.0000    0.0000   -0.0942
       40 MO     5d2-      -0.0000   -0.0000    0.1004
       41 MO     6d2-       0.0000    0.0000   -0.0852
       42 MO     7d2-      -0.0000   -0.0000    0.0744
       43 MO     8d2-       0.0000    0.0000   -0.0771
       44 MO     9d2-      -0.0000   -0.0000    0.0597
       45 MO    10d2-       0.0000    0.0000   -0.0603
       46 MO    11d2-      -0.0000   -0.0000    0.0103
       47 MO     3d1-       0.0000   -0.0000    0.0588
       48 MO     4d1-      -0.0000    0.0000   -0.0067
       49 MO     5d1-       0.0000   -0.0000    0.0072
       50 MO     6d1-      -0.0000    0.0000   -0.0062
       51 MO     7d1-       0.0000   -0.0000    0.0055
       52 MO     8d1-      -0.0000    0.0000   -0.0055
       53 MO     9d1-       0.0000   -0.0000    0.0040
       54 MO    10d1-      -0.0000    0.0000   -0.0037
       55 MO    11d1-       0.0000   -0.0000    0.0005
       56 MO     3d0        0.8446   -0.0360   -0.0000
       57 MO     4d0       -0.0816    0.0043    0.0000
       58 MO     5d0        0.0868   -0.0046   -0.0000
       59 MO     6d0       -0.0735    0.0040    0.0000
       60 MO     7d0        0.0639   -0.0035   -0.0000
       61 MO     8d0       -0.0654    0.0035    0.0000
       62 MO     9d0        0.0498   -0.0025   -0.0000
       63 MO    10d0       -0.0491    0.0022    0.0000
       64 MO    11d0        0.0078   -0.0003   -0.0000
       65 MO     3d1+       0.0457    0.9525    0.0000
       66 MO     4d1+      -0.0036   -0.0941   -0.0000
       67 MO     5d1+       0.0037    0.1003    0.0000
       68 MO     6d1+      -0.0030   -0.0851   -0.0000
       69 MO     7d1+       0.0026    0.0743    0.0000
       70 MO     8d1+      -0.0028   -0.0770   -0.0000
       71 MO     9d1+       0.0023    0.0596    0.0000
       72 MO    10d1+      -0.0027   -0.0603   -0.0000
       73 MO    11d1+       0.0005    0.0103    0.0000
       74 MO     3d2+       0.4882   -0.0306   -0.0000
       75 MO     4d2+      -0.0471    0.0035    0.0000
       76 MO     5d2+       0.0501   -0.0037   -0.0000
       77 MO     6d2+      -0.0425    0.0032    0.0000
       78 MO     7d2+       0.0369   -0.0028   -0.0000
       79 MO     8d2+      -0.0378    0.0028    0.0000
       80 MO     9d2+       0.0288   -0.0021   -0.0000
       81 MO    10d2+      -0.0284    0.0019    0.0000
       82 MO    11d2+       0.0045   -0.0003   -0.0000
       83 MO     4f3-      -0.0000   -0.0000    0.0175
       84 MO     5f3-      -0.0000   -0.0000    0.0208
       85 MO     6f3-       0.0000    0.0000   -0.0211
       86 MO     7f3-      -0.0000   -0.0000    0.0191
       87 MO     8f3-      -0.0000   -0.0000    0.0115
       88 MO     9f3-       0.0000    0.0000   -0.0465
       89 MO     4f2-       0.0000    0.0000   -0.0004
       90 MO     5f2-       0.0000    0.0000   -0.0006
       91 MO     6f2-      -0.0000   -0.0000    0.0006
       92 MO     7f2-       0.0000    0.0000   -0.0003
       93 MO     8f2-       0.0000   -0.0000    0.0000
       94 MO     9f2-      -0.0000    0.0000   -0.0014
       95 MO     4f1-       0.0000    0.0000   -0.0045
       96 MO     5f1-       0.0000    0.0000   -0.0053
       97 MO     6f1-      -0.0000   -0.0000    0.0054
       98 MO     7f1-       0.0000    0.0000   -0.0049
       99 MO     8f1-       0.0000    0.0000   -0.0029
      100 MO     9f1-      -0.0000   -0.0000    0.0120
      101 MO     4f0       -0.0012   -0.0112   -0.0000
      102 MO     5f0       -0.0014   -0.0133   -0.0000
      103 MO     6f0        0.0013    0.0135    0.0000
      104 MO     7f0       -0.0011   -0.0122   -0.0000
      105 MO     8f0       -0.0006   -0.0073   -0.0000
      106 MO     9f0        0.0018    0.0295    0.0000
      107 MO     4f1+       0.0100    0.0006    0.0000
      108 MO     5f1+       0.0118    0.0008    0.0000
      109 MO     6f1+      -0.0119   -0.0008   -0.0000
      110 MO     7f1+       0.0108    0.0005    0.0000
      111 MO     8f1+       0.0066    0.0002    0.0000
      112 MO     9f1+      -0.0271    0.0002   -0.0000
      113 MO     4f2+       0.0016    0.0144    0.0000
      114 MO     5f2+       0.0019    0.0171    0.0000
      115 MO     6f2+      -0.0018   -0.0174   -0.0000
      116 MO     7f2+       0.0015    0.0157    0.0000
      117 MO     8f2+       0.0008    0.0094    0.0000
      118 MO     9f2+      -0.0025   -0.0381   -0.0000
      119 MO     4f3+       0.0078    0.0003    0.0000
      120 MO     5f3+       0.0092    0.0004    0.0000
      121 MO     6f3+      -0.0093   -0.0004   -0.0000
      122 MO     7f3+       0.0084    0.0002    0.0000
      123 MO     8f3+       0.0051   -0.0000   -0.0000
      124 MO     9f3+      -0.0210    0.0008    0.0000
      125 MO     5g4-      -0.0000   -0.0000    0.0005
      126 MO     6g4-       0.0000    0.0000   -0.0006
      127 MO     7g4-      -0.0000   -0.0000    0.0007
      128 MO     8g4-       0.0000    0.0000   -0.0006
      129 MO     5g3-      -0.0000    0.0000   -0.0012
      130 MO     6g3-      -0.0000   -0.0000    0.0013
      131 MO     7g3-       0.0000    0.0000   -0.0014
      132 MO     8g3-      -0.0000   -0.0000    0.0013
      133 MO     5g2-       0.0000    0.0000   -0.0002
      134 MO     6g2-      -0.0000   -0.0000    0.0002
      135 MO     7g2-       0.0000    0.0000   -0.0002
      136 MO     8g2-      -0.0000   -0.0000    0.0002
      137 MO     5g1-      -0.0000   -0.0000    0.0008
      138 MO     6g1-       0.0000    0.0000   -0.0009
      139 MO     7g1-      -0.0000   -0.0000    0.0010
      140 MO     8g1-       0.0000    0.0000   -0.0010
      141 MO     5g0        0.0001   -0.0005   -0.0000
      142 MO     6g0       -0.0000    0.0005    0.0000
      143 MO     7g0       -0.0001   -0.0005   -0.0000
      144 MO     8g0        0.0002    0.0005    0.0000
      145 MO     5g1+      -0.0004   -0.0005   -0.0000
      146 MO     6g1+       0.0004    0.0006    0.0000
      147 MO     7g1+      -0.0004   -0.0006   -0.0000
      148 MO     8g1+       0.0003    0.0006    0.0000
      149 MO     5g2+       0.0000    0.0009    0.0000
      150 MO     6g2+      -0.0001   -0.0010   -0.0000
      151 MO     7g2+       0.0002    0.0011    0.0000
      152 MO     8g2+      -0.0003   -0.0011   -0.0000
      153 MO     5g3+       0.0003    0.0004    0.0000
      154 MO     6g3+      -0.0003   -0.0005   -0.0000
      155 MO     7g3+       0.0003    0.0005    0.0000
      156 MO     8g3+      -0.0002   -0.0005   -0.0000
      157 MO     5g4+      -0.0000    0.0010    0.0000
      158 MO     6g4+      -0.0000   -0.0010   -0.0000
      159 MO     7g4+       0.0002    0.0011    0.0000
      160 MO     8g4+      -0.0002   -0.0011   -0.0000
      161 MO     6h5-      -0.0000   -0.0000    0.0001
      162 MO     7h5-       0.0000    0.0000   -0.0002
      163 MO     6h4-       0.0000    0.0000   -0.0007
      164 MO     7h4-      -0.0000   -0.0000    0.0007
      165 MO     6h3-      -0.0000    0.0000   -0.0000
      166 MO     7h3-       0.0000   -0.0000    0.0001
      167 MO     6h2-      -0.0000   -0.0000    0.0006
      168 MO     7h2-       0.0000    0.0000   -0.0006
      169 MO     6h1-      -0.0000    0.0000   -0.0000
      170 MO     7h1-       0.0000    0.0000   -0.0000
      171 MO     6h0       -0.0002    0.0001    0.0000
      172 MO     7h0        0.0001   -0.0001   -0.0000
      173 MO     6h1+      -0.0002   -0.0005   -0.0000
      174 MO     7h1+       0.0002    0.0005    0.0000
      175 MO     6h2+      -0.0002   -0.0001   -0.0000
      176 MO     7h2+       0.0002    0.0002    0.0000
      177 MO     6h3+       0.0001    0.0004    0.0000
      178 MO     7h3+      -0.0001   -0.0004   -0.0000
      179 MO     6h4+      -0.0001    0.0001    0.0000
      180 MO     7h4+       0.0000   -0.0001   -0.0000
      181 MO     6h5+       0.0002    0.0007    0.0000
      182 MO     7h5+      -0.0003   -0.0007   -0.0000
--


++    Molecular charges:
      ------------------

      Mulliken charges per centre and basis function type
      ---------------------------------------------------

                MO    
      1s       2.0000
      2s       2.0000
      2px      1.9999
      2pz      1.9999
      2py      1.9999
      3s       1.9443
      3px      1.7864
      3pz      1.8668
      3py      1.8672
      4s       0.0198
      3d2+     0.1304
      3d1+     0.0826
      3d0      0.0432
      3d1-     0.0000
      3d2-     0.0821
      4px      0.0190
      4pz      0.0196
      4py      0.0196
      5s       0.0009
      4d2+     0.0005
      4d1+     0.0003
      4d0      0.0002
      4d1-     0.0000
      4d2-     0.0003
      5px      0.0019
      5pz      0.0020
      5py      0.0020
      6s       0.0013
      4f3+     0.0000
      4f2+     0.0000
      4f1+     0.0000
      4f0      0.0000
      4f1-     0.0000
      4f2-     0.0000
      4f3-     0.0000
      5d2+     0.0005
      5d1+     0.0002
      5d0      0.0002
      5d1-     0.0000
      5d2-     0.0002
      6px      0.0103
      6pz      0.0105
      6py      0.0105
      7s       0.0098
      5f3+     0.0000
      5f2+     0.0000
      5f1+     0.0000
      5f0      0.0000
      5f1-     0.0000
      5f2-     0.0000
      5f3-     0.0000
      6d2+     0.0003
      6d1+     0.0001
      6d0      0.0001
      6d1-     0.0000
      6d2-     0.0001
      7px      0.0066
      7pz      0.0067
      7py      0.0067
      5g4+     0.0000
      5g3+     0.0000
      5g2+     0.0000
      5g1+     0.0000
      5g0      0.0000
      5g1-     0.0000
      5g2-     0.0000
      5g3-     0.0000
      5g4-     0.0000
      6f3+     0.0000
      6f2+     0.0000
      6f1+     0.0000
      6f0      0.0000
      6f1-     0.0000
      6f2-     0.0000
      6f3-     0.0000
      6g4+     0.0000
      6g3+     0.0000
      6g2+     0.0000
      6g1+     0.0000
      6g0      0.0000
      6g1-     0.0000
      6g2-     0.0000
      6g3-     0.0000
      6g4-     0.0000
      6h5+     0.0000
      6h4+     0.0000
      6h3+     0.0000
      6h2+     0.0000
      6h1+     0.0000
      6h0      0.0000
      6h1-     0.0000
      6h2-     0.0000
      6h3-     0.0000
      6h4-     0.0000
      6h5-     0.0000
      7d2+     0.0001
      7d1+     0.0000
      7d0      0.0000
      7d1-     0.0000
      7d2-     0.0000
      7f3+     0.0000
      7f2+     0.0000
      7f1+     0.0000
      7f0      0.0000
      7f1-     0.0000
      7f2-     0.0000
      7f3-     0.0000
      7g4+     0.0000
      7g3+     0.0000
      7g2+     0.0000
      7g1+     0.0000
      7g0      0.0000
      7g1-     0.0000
      7g2-     0.0000
      7g3-     0.0000
      7g4-     0.0000
      7h5+     0.0000
      7h4+     0.0000
      7h3+     0.0000
      7h2+     0.0000
      7h1+     0.0000
      7h0      0.0000
      7h1-     0.0000
      7h2-     0.0000
      7h3-     0.0000
      7h4-     0.0000
      7h5-     0.0000
      8s       0.0058
      8px      0.0068
      8pz      0.0067
      8py      0.0067
      8d2+     0.0001
      8d1+     0.0000
      8d0      0.0000
      8d1-     0.0000
      8d2-     0.0000
      8f3+     0.0000
      8f2+     0.0000
      8f1+     0.0000
      8f0      0.0000
      8f1-     0.0000
      8f2-     0.0000
      8f3-     0.0000
      8g4+     0.0000
      8g3+     0.0000
      8g2+     0.0000
      8g1+     0.0000
      8g0      0.0000
      8g1-     0.0000
      8g2-     0.0000
      8g3-     0.0000
      8g4-     0.0000
      9s       0.0045
      9px      0.0039
      9pz      0.0037
      9py      0.0037
      9d2+     0.0000
      9d1+     0.0000
      9d0      0.0000
      9d1-     0.0000
      9d2-     0.0000
      9f3+     0.0000
      9f2+     0.0000
      9f1+     0.0000
      9f0      0.0000
      9f1-     0.0000
      9f2-     0.0000
      9f3-     0.0000
     10s       0.0022
     10px      0.0010
     10pz      0.0008
     10py      0.0008
     10d2+     0.0000
     10d1+     0.0000
     10d0      0.0000
     10d1-     0.0000
     10d2-     0.0000
     11d2+     0.0000
     11d1+     0.0000
     11d0      0.0000
     11d1-     0.0000
     11d2-     0.0000
      Total   18.0000

      N-E     24.0000

      Total electronic charge=   18.000000

      Total            charge=   24.000000
--

 Sorry, Molden does not know how to handle
 functions with angular momentum larger than g

++    Static properties:
      ------------------


      LoProp Charges per center


                   MO    
      Nuclear     42.0000
      Electronic -18.0000

      Total       24.0000
--


++    Molecular properties:
      ---------------------

      Charge (e):
                      =   24.0000
      Dipole Moment (Debye):
      Origin of the operator (Ang)=    0.0000    0.0000    0.0000
                   X= -1.3051E+00               Y= -1.9317E-13               Z=  5.3021E-01           Total=  1.4087E+00
      Center of Charge (Ang)
                     X=   -0.01132113               Y=   -0.00000000               Z=    0.00459941
      Quadrupole Moment (Debye*Ang):
      Origin of the operator (Ang)=   -0.0000   -0.0000    0.0046
                  XX= -6.8191E-01              XY=  7.4538E-16              XZ=  1.9732E-04              YY= -6.8928E-01
                  YZ=  6.2596E-16              ZZ= -6.8927E-01
      In traceless form (Debye*Ang)
                  XX=  7.3645E-03              XY=  1.1181E-15              XZ=  2.9597E-04              YY= -3.6913E-03
                  YZ=  9.3894E-16              ZZ= -3.6732E-03
--

 Sorry, Molden does not know how to handle
 functions with angular momentum larger than g
 ###############################################################################
 ###############################################################################
 ###                                                                         ###
 ###                                                                         ###
 ###    WARNING: RunFile label nBas                                          ###
 ###    was used       62 times                                              ###
 ###                                                                         ###
 ###                                                                         ###
 ###############################################################################
 ###############################################################################
Note: The following floating-point exceptions are signalling: IEEE_UNDERFLOW_FLAG IEEE_DENORMAL
--- Stop Module: scf at Tue Mar 25 16:53:09 2025 /rc=_RC_ALL_IS_WELL_ ---
*** files: molybdenum_so_cf.LprOrb molybdenum_so_cf.ScfOrb xmldump
    saved to directory /home4/s4752295/Internship/Initial_simulations/Point_charge_model/1_electron/Madelung_charges_9_active_space/Mo
--- Module scf spent 9 seconds ---

*** symbolic link created: INPORB -> molybdenum_so_cf.ScfOrb
--- Start Module: rasscf at Tue Mar 25 16:53:10 2025 ---

()()()()()()()()()()()()()()()()()()()()()()()()()()()()()()()()()()()()()()()()()()()()()()()()()()

                                              &RASSCF

                                   only a single process is used
                       available to each process: 4.1 GB of memory, 1 thread?
                                            pid: 1188039
()()()()()()()()()()()()()()()()()()()()()()()()()()()()()()()()()()()()()()()()()()()()()()()()()()


      Header of the ONEINT file:
      --------------------------
      
      Integrals generated by seward 4.2.0  , Tue Mar 25 16:52:48 2025


      OrdInt status: non-squared


      Cartesian coordinates in Angstrom:
      -----------------------------------------------------
      No.  Label        X            Y            Z        
      -----------------------------------------------------
       1   MO        -0.00000000  -0.00000000   0.00463220
      -----------------------------------------------------
      Nuclear repulsion energy =-1280.84942014

++    Wave function specifications:
      -----------------------------

      Number of closed shell electrons          18
      Number of electrons in active shells       1
      Max number of holes in RAS1 space          0
      Max nr of electrons in RAS3 space          0
      Number of inactive orbitals                9
      Number of active orbitals                  9
      Number of secondary orbitals             164
      Spin quantum number                      0.5
      State symmetry                             1
--

++    Orbital specifications:
      -----------------------

      Symmetry species                           1
                                                 a
      Frozen orbitals                            0
      Inactive orbitals                          9
      Active orbitals                            9
      RAS1 orbitals                              0
      RAS2 orbitals                              9
      RAS3 orbitals                              0
      Secondary orbitals                       164
      Deleted orbitals                           0
      Number of basis functions                182
--

++    CI expansion specifications:
      ----------------------------

      Number of CSFs                             9
      Number of determinants                     9
      Number of root(s) required                 9
      Root chosen for geometry opt.              9
      CI roots used                              1     2     3     4     5     6     7     8     9
      weights                                0.111 0.111 0.111 0.111 0.111 0.111 0.111 0.111 0.111
      highest root included in the CI            9
      max. size of the explicit Hamiltonian      9
--

++    Optimization specifications:
      ----------------------------

      RASSCF algorithm: Conventional
      Maximum number of macro iterations       200
      Maximum number of SX iterations          100
      Threshold for RASSCF energy            0.100E-07
      Threshold for max MO rotation          0.100E+00
      Threshold for max BLB element          0.100E-03
      Level shift parameter                  0.500E+00
      Make Quasi-Newton update
--

      The MO-coefficients are taken from the file:
      INPORB                                                                                                                          
      Title: SCF orbitals                                                                  

      Total molecular charge   23.00

      ************************************************************************************************************************
      *                                                                                                                      *
      *                                            Wave function control section                                             *
      *                                                                                                                      *
[...]
     -----------------------------------------------------------------------------------------------
         1    5       1.68280821E-04  3.37287661E-16  7.56026394E+05  6.20655809E-14  7.56026394E+05
         1    7       1.69000268E-04  6.48294453E+03  6.22885411E-14  7.62708661E+05  7.69191605E+05
         1   11       1.63059782E-04  1.85348359E-13  8.31391667E+08  5.84440842E-11  8.31391667E+08
         1   13       5.87019162E-03  1.04056615E-09  4.10417824E+10  3.70353269E-09  4.10417824E+10
         1   15       8.40831136E-03  1.65222468E+10  3.83231814E-09  4.24228877E+10  5.89451345E+10
         2    6       1.68280821E-04  3.37287661E-16  7.56026394E+05  6.20655809E-14  7.56026394E+05
         2    8       1.69000268E-04  6.48294453E+03  6.22885411E-14  7.62708661E+05  7.69191605E+05
         2   12       1.63059782E-04  1.85348359E-13  8.31391667E+08  5.84440842E-11  8.31391667E+08
         2   14       5.87019162E-03  1.04056615E-09  4.10417824E+10  3.70353269E-09  4.10417824E+10
         2   16       8.40831136E-03  1.65222468E+10  3.83231814E-09  4.24228877E+10  5.89451345E+10
         3    5       1.70147765E-04  3.94929495E+03  6.09461013E-14  7.55510480E+05  7.59459775E+05
         3    7       1.66940257E-04  6.63943739E-16  7.54923139E+05  6.15605958E-14  7.54923139E+05
         3   11       1.36565949E-04  3.54894701E+06  6.92411696E-11  6.92624650E+08  6.96173597E+08
         3   13       7.63591249E-03  1.38831861E+10  3.84805288E-09  3.94949506E+10  5.33781368E+10
         3   15       5.83463422E-03  1.30198044E-09  4.08960573E+10  3.96423047E-09  4.08960573E+10
         4    6       1.70147765E-04  3.94929495E+03  6.09461013E-14  7.55510480E+05  7.59459775E+05
         4    8       1.66940257E-04  6.63943739E-16  7.54923139E+05  6.15605958E-14  7.54923139E+05
         4   12       1.36565949E-04  3.54894701E+06  6.92411696E-11  6.92624650E+08  6.96173597E+08
         4   14       7.63591249E-03  1.38831861E+10  3.84805288E-09  3.94949506E+10  5.33781368E+10
         4   16       5.83463422E-03  1.30198044E-09  4.08960573E+10  3.96423047E-09  4.08960573E+10
         5    9       1.34272987E-04  1.82010008E+01  1.01378915E-17  4.41576823E+05  4.41595024E+05
         5   11       3.14400511E-03  6.00826821E+06  1.11444168E-13  1.50867453E+10  1.50927535E+10
         5   13       3.86359934E-02  2.52136984E+11  4.86324807E-13  4.46742201E+09  2.56604406E+11
         5   15       7.93711545E-04  8.85008537E-11  5.28603764E+09  4.20470616E-13  5.28603764E+09
         6   10       1.34272987E-04  1.82010008E+01  1.01378915E-17  4.41576823E+05  4.41595024E+05
         6   12       3.14400511E-03  6.00826821E+06  1.11444168E-13  1.50867453E+10  1.50927535E+10
         6   14       3.86359934E-02  2.52136984E+11  4.86324807E-13  4.46742201E+09  2.56604406E+11
         6   16       7.93711545E-04  8.85008537E-11  5.28603764E+09  4.20470616E-13  5.28603764E+09
         7    9       1.35151290E-04  4.31204175E-18  4.37735060E+05  1.46998066E-17  4.37735060E+05
         7   11       2.95573834E-03  5.36460939E-14  1.41833218E+10  3.00375691E-13  1.41833218E+10
         7   13       6.95106819E-04  9.11964967E-11  4.61504852E+09  7.93026847E-13  4.61504852E+09
         7   15       3.73849799E-02  2.44056948E+11  7.36023709E-13  4.83887196E+09  2.48895820E+11
         8   10       1.35151290E-04  4.31204175E-18  4.37735060E+05  1.46998066E-17  4.37735060E+05
         8   12       2.95573834E-03  5.36460939E-14  1.41833218E+10  3.00375691E-13  1.41833218E+10
         8   14       6.95106819E-04  9.11964967E-11  4.61504852E+09  7.93026847E-13  4.61504852E+09
         8   16       3.73849799E-02  2.44056948E+11  7.36023709E-13  4.83887196E+09  2.48895820E+11
         9   11       6.61244337E-03  3.01010001E+10  7.81545148E-14  1.99182791E+06  3.01029919E+10
         9   13       1.28242645E-04  6.26092884E+07  3.99756414E-14  7.51640752E+08  8.14250040E+08
         9   15       6.33561463E-05  7.48880093E-13  4.03400833E+08  2.15997853E-13  4.03400833E+08
        10   12       6.61244337E-03  3.01010001E+10  7.81545148E-14  1.99182791E+06  3.01029919E+10
        10   14       1.28242645E-04  6.26092884E+07  3.99756414E-14  7.51640752E+08  8.14250040E+08
        10   16       6.33561463E-05  7.48880093E-13  4.03400833E+08  2.15997853E-13  4.03400833E+08
        11   13       1.72965197E-01  3.12347256E+03  5.37216398E-12  2.57880702E+10  2.57880733E+10
        11   15       1.73557324E-01  1.19114495E-16  2.63542975E+10  5.58935274E-12  2.63542975E+10
        11   17       1.50047065E-05  6.64605184E+03  6.27259109E-15  3.43639280E+06  3.44303886E+06
        12   14       1.72965197E-01  3.12347256E+03  5.37216398E-12  2.57880702E+10  2.57880733E+10
        12   16       1.73557324E-01  1.19114495E-16  2.63542975E+10  5.58935274E-12  2.63542975E+10
        12   18       1.50047065E-05  6.64605184E+03  6.27259109E-15  3.43639280E+06  3.44303886E+06
        13   15       6.68779333E-05  2.89531303E-22  8.42642259E+02  7.32794266E-19  8.42642259E+02
        13   17       4.28329529E-05  8.86015706E+04  3.72129908E-16  2.81040544E+05  3.69642114E+05
        14   16       6.68779333E-05  2.89531303E-22  8.42642259E+02  7.32794266E-19  8.42642259E+02
        14   18       4.28329529E-05  8.86015706E+04  3.72129908E-16  2.81040544E+05  3.69642114E+05
        15   17       3.04515161E-05  1.13107630E-17  2.43093165E+05  3.96278538E-16  2.43093165E+05
        16   18       3.04515161E-05  1.13107630E-17  2.43093165E+05  3.96278538E-16  2.43093165E+05
     -----------------------------------------------------------------------------------------------
--

++ Velocity transition strengths (SO states):
   ------------------------------------------
    for osc. strength at least    1.0000000000000001E-005

      From   To        Osc. strength     Einstein coefficients Ax, Ay, Az (sec-1)    Total A (sec-1)
     -----------------------------------------------------------------------------------------------
         1    3       1.50592975E-05  2.43823153E-19  7.12751323E-01  2.28746981E-20  7.12751323E-01
         1    5       1.26141815E-03  3.46047085E-16  5.66712667E+06  4.33116716E-13  5.66712667E+06
         1    7       1.24917904E-03  3.65917796E+03  4.29167174E-13  5.68190204E+06  5.68556122E+06
         1   11       1.36687407E-04  2.05234487E-13  6.96929465E+08  4.81277322E-11  6.96929465E+08
         1   13       5.28118882E-03  8.46439640E-10  3.69238639E+10  3.34192956E-09  3.69238639E+10
         1   15       7.36793175E-03  1.34447002E+10  3.45172076E-09  3.82071975E+10  5.16518977E+10
         2    4       1.50592975E-05  2.43823153E-19  7.12751323E-01  2.28746981E-20  7.12751323E-01
         2    6       1.26141815E-03  3.46047085E-16  5.66712667E+06  4.33116716E-13  5.66712667E+06
         2    8       1.24917904E-03  3.65917796E+03  4.29167174E-13  5.68190204E+06  5.68556122E+06
         2   12       1.36687407E-04  2.05234487E-13  6.96929465E+08  4.81277322E-11  6.96929465E+08
         2   14       5.28118882E-03  8.46439640E-10  3.69238639E+10  3.34192956E-09  3.69238639E+10
         2   16       7.36793175E-03  1.34447002E+10  3.45172076E-09  3.82071975E+10  5.16518977E+10
         3    5       1.25730211E-03  4.83712043E+03  4.33037352E-13  5.60718899E+06  5.61202611E+06
         3    7       1.26348230E-03  9.85705370E-17  5.71363284E+06  4.28207482E-13  5.71363284E+06
         3   11       1.13287516E-04  3.15947688E+06  6.20068770E-11  5.74349430E+08  5.77508907E+08
         3   13       6.71148229E-03  1.12964160E+10  3.46546602E-09  3.56197406E+10  4.69161565E+10
         3   15       5.26293563E-03  1.07583685E-09  3.68890418E+10  3.57406286E-09  3.68890418E+10
         4    6       1.25730211E-03  4.83712043E+03  4.33037352E-13  5.60718899E+06  5.61202611E+06
         4    8       1.26348230E-03  9.85705370E-17  5.71363284E+06  4.28207482E-13  5.71363284E+06
         4   12       1.13287516E-04  3.15947688E+06  6.20068770E-11  5.74349430E+08  5.77508907E+08
         4   14       6.71148229E-03  1.12964160E+10  3.46546602E-09  3.56197406E+10  4.69161565E+10
         4   16       5.26293563E-03  1.07583685E-09  3.68890418E+10  3.57406286E-09  3.68890418E+10
         5    9       7.77758412E-03  4.16582812E+02  1.61308594E-15  2.55784765E+07  2.55788931E+07
         5   11       2.73375355E-03  4.70930469E+06  4.77699808E-13  1.31186829E+10  1.31233922E+10
         5   13       3.19643434E-02  2.08710805E+11  2.89463797E-13  3.58397920E+09  2.12294784E+11
         5   15       6.37124177E-04  8.44597592E-11  4.24319655E+09  1.73924005E-13  4.24319655E+09
         6   10       7.77758412E-03  4.16582812E+02  1.61308594E-15  2.55784765E+07  2.55788931E+07
         6   12       2.73375355E-03  4.70930469E+06  4.77699808E-13  1.31186829E+10  1.31233922E+10
         6   14       3.19643434E-02  2.08710805E+11  2.89463797E-13  3.58397920E+09  2.12294784E+11
         6   16       6.37124177E-04  8.44597592E-11  4.24319655E+09  1.73924005E-13  4.24319655E+09
         7    9       7.81615728E-03  1.30833485E-16  2.53154667E+07  1.37007169E-15  2.53154667E+07
         7   11       2.56827106E-03  7.92202861E-14  1.23240752E+10  3.63054493E-13  1.23240752E+10
         7   13       5.59480150E-04  7.98639225E-11  3.71459026E+09  6.74234058E-13  3.71459026E+09
         7   15       3.09324751E-02  2.02065885E+11  6.12365899E-13  3.87218344E+09  2.05938068E+11
         8   10       7.81615728E-03  1.30833485E-16  2.53154667E+07  1.37007169E-15  2.53154667E+07
         8   12       2.56827106E-03  7.92202861E-14  1.23240752E+10  3.63054493E-13  1.23240752E+10
         8   14       5.59480150E-04  7.98639225E-11  3.71459026E+09  6.74234058E-13  3.71459026E+09
         8   16       3.09324751E-02  2.02065885E+11  6.12365899E-13  3.87218344E+09  2.05938068E+11
         9   11       5.68230145E-03  2.58666062E+10  3.85938813E-14  2.02667864E+06  2.58686328E+10
         9   13       8.00729453E-05  5.17462035E+07  1.37406746E-14  4.56662099E+08  5.08408302E+08
         9   15       3.30636070E-05  5.26719125E-13  2.10523111E+08  1.05077668E-13  2.10523111E+08
        10   12       5.68230145E-03  2.58666062E+10  3.85938813E-14  2.02667864E+06  2.58686328E+10
        10   14       8.00729453E-05  5.17462035E+07  1.37406746E-14  4.56662099E+08  5.08408302E+08
        10   16       3.30636070E-05  5.26719125E-13  2.10523111E+08  1.05077668E-13  2.10523111E+08
        11   13       1.79829047E-01  3.08377390E+04  5.71393618E-12  2.68114946E+10  2.68115254E+10
        11   15       1.80124703E-01  1.68358934E-16  2.73516347E+10  5.65319297E-12  2.73516347E+10
        12   14       1.79829047E-01  3.08377390E+04  5.71393618E-12  2.68114946E+10  2.68115254E+10
        12   16       1.80124703E-01  1.68358934E-16  2.73516347E+10  5.65319297E-12  2.73516347E+10
        13   15       1.36139871E-04  1.76165496E-17  1.71532824E+03  1.67163654E-18  1.71532824E+03
        13   17       1.51196176E-05  1.29293615E+04  1.96536569E-16  1.17551179E+05  1.30480541E+05
        14   16       1.36139871E-04  1.76165496E-17  1.71532824E+03  1.67163654E-18  1.71532824E+03
        14   18       1.51196176E-05  1.29293615E+04  1.96536569E-16  1.17551179E+05  1.30480541E+05
        15   17       1.40391124E-05  1.70743443E-18  1.12074031E+05  1.93417095E-16  1.12074031E+05
        16   18       1.40391124E-05  1.70743443E-18  1.12074031E+05  1.93417095E-16  1.12074031E+05
     -----------------------------------------------------------------------------------------------
--

++ Length and velocity gauge comparison (SO states):

 --------------------------------------------------
 A comparison between the dipole oscillator strengths in 
 length and velocity gauge will be performed

 All dipole oscillator differences above the tolerance of   0.10000000000000001       will be printed 

 Due to basis set deficiency these oscillator may be problematic 

 The tolerance is defined as ABS(1-O_l/O_v) 
 O_l : dipole oscillator strength in length gauge
 O_p : dipole oscillator strength in velocity gauge
 --------------------------------------------------

  Problematic transitions have been found

      From   To       Difference (%) Osc. st. (len.) Osc. st. (vel.)
     ---------------------------------------------------------------
         1    3      --------------- below threshold  1.50592975E-05
         1    5            86.659394  1.68280821E-04  1.26141815E-03
         1    7            86.471093  1.69000268E-04  1.24917904E-03
         1   11            19.293932  1.63059782E-04  1.36687407E-04
         1   13            11.152845  5.87019162E-03  5.28118882E-03
         1   15            14.120375  8.40831136E-03  7.36793175E-03
         2    4      --------------- below threshold  1.50592975E-05
         2    6            86.659394  1.68280821E-04  1.26141815E-03
         2    8            86.471093  1.69000268E-04  1.24917904E-03
         2   12            19.293932  1.63059782E-04  1.36687407E-04
         2   14            11.152845  5.87019162E-03  5.28118882E-03
         2   16            14.120375  8.40831136E-03  7.36793175E-03
         3    5            86.467233  1.70147765E-04  1.25730211E-03
         3    7            86.787290  1.66940257E-04  1.26348230E-03
         3   11            20.548101  1.36565949E-04  1.13287516E-04
         3   13            13.773860  7.63591249E-03  6.71148229E-03
         3   15            10.862732  5.83463422E-03  5.26293563E-03
         4    6            86.467233  1.70147765E-04  1.25730211E-03
         4    8            86.787290  1.66940257E-04  1.26348230E-03
         4   12            20.548101  1.36565949E-04  1.13287516E-04
         4   14            13.773860  7.63591249E-03  6.71148229E-03
         4   16            10.862732  5.83463422E-03  5.26293563E-03
         5    9            98.273590  1.34272987E-04  7.77758412E-03
         5   11            15.006896  3.14400511E-03  2.73375355E-03
         5   13            20.872164  3.86359934E-02  3.19643434E-02
         5   15            24.577213  7.93711545E-04  6.37124177E-04
         6   10            98.273590  1.34272987E-04  7.77758412E-03
         6   12            15.006896  3.14400511E-03  2.73375355E-03
         6   14            20.872164  3.86359934E-02  3.19643434E-02
         6   16            24.577213  7.93711545E-04  6.37124177E-04
         7    9            98.270873  1.35151290E-04  7.81615728E-03
         7   11            15.086697  2.95573834E-03  2.56827106E-03
         7   13            24.241551  6.95106819E-04  5.59480150E-04
         7   15            20.859969  3.73849799E-02  3.09324751E-02
         8   10            98.270873  1.35151290E-04  7.81615728E-03
         8   12            15.086697  2.95573834E-03  2.56827106E-03
         8   14            24.241551  6.95106819E-04  5.59480150E-04
         8   16            20.859969  3.73849799E-02  3.09324751E-02
         9   11            16.369105  6.61244337E-03  5.68230145E-03
         9   13            60.157273  1.28242645E-04  8.00729453E-05
         9   15            91.618979  6.33561463E-05  3.30636070E-05
        10   12            16.369105  6.61244337E-03  5.68230145E-03
        10   14            60.157273  1.28242645E-04  8.00729453E-05
        10   16            91.618979  6.33561463E-05  3.30636070E-05
        11   17      ---------------  1.50047065E-05 below threshold
        12   18      ---------------  1.50047065E-05 below threshold
        13   15            50.875572  6.68779333E-05  1.36139871E-04
        13   17           183.293891  4.28329529E-05  1.51196176E-05
        14   16            50.875572  6.68779333E-05  1.36139871E-04
        14   18           183.293891  4.28329529E-05  1.51196176E-05
        15   17           116.904853  3.04515161E-05  1.40391124E-05
        16   18           116.904853  3.04515161E-05  1.40391124E-05
     ---------------------------------------------------------------

 Number of problematic transitions =                    52

--

 Electric-dipole - electric-octupole not included
++ Total transition strengths for the second-order expansion of the wave vector (SO states):
   -----------------------------------------------------------------------------------------
    for osc. strength at least    1.0000000000000001E-005

      From   To        Osc. strength
     -------------------------------
        11   13       1.36604572E-05
        11   15       1.39016200E-05
        12   14       1.36604572E-05
        12   16       1.39016200E-05
     -------------------------------
--

++ I/O STATISTICS
 
  I. General I/O information
  - - - - - - - - - - - - - - - - - - - - - - - - - - - - - - - - - - - - - - - - - - -
  Unit  Name          Flsize      Write/Read            MBytes           Write/Read
                      (MBytes)       Calls              In/Out           Time, sec.
  - - - - - - - - - - - - - - - - - - - - - - - - - - - - - - - - - - - - - - - - - - -
   1  SCRATCH           0.00 .       9/      45 .      0.0/      0.0 .       0/       0
   2  ANNI              0.00 .       0/       0 .      0.0/      0.0 .       0/       0
   3  RUNFILE          14.92 .     322/   10733 .      2.3/     77.8 .       0/       0
   4  ONEINT            5.68 .       0/   24849 .      0.0/   3743.6 .       0/       0
   5  JOBIPH            6.59 .       0/      92 .      0.0/      0.8 .       0/       0
   6  ORDINT          529.03 .       1/    4233 .      0.0/   1058.0 .       0/       0
  - - - - - - - - - - - - - - - - - - - - - - - - - - - - - - - - - - - - - - - - - - -
   *  TOTAL           556.23 .     332/   39952 .      2.3/   4880.2 .       0/       0
  - - - - - - - - - - - - - - - - - - - - - - - - - - - - - - - - - - - - - - - - - - -
 
  II. I/O Access Patterns
  - - - - - - - - - - - - - - - - - - - -
  Unit  Name               % of random
                         Write/Read calls
  - - - - - - - - - - - - - - - - - - - -
   1  SCRATCH             88.9/ 100.0
   2  ANNI                 0.0/   0.0
   3  RUNFILE             28.6/  10.8
   4  ONEINT               0.0/  15.5
   5  JOBIPH               0.0/  76.1
   6  ORDINT             100.0/   0.0
  - - - - - - - - - - - - - - - - - - - -
--
--- Stop Module: rassi at Tue Mar 25 16:53:48 2025 /rc=_RC_ALL_IS_WELL_ ---
*** files: xmldump
    saved to directory /home4/s4752295/Internship/Initial_simulations/Point_charge_model/1_electron/Madelung_charges_9_active_space/Mo
--- Module rassi spent 3 seconds ---

.##################.
.# Happy landing! #.
.##################.

    Timing: Wall=59.72 User=48.09 System=9.49

###############################################################################
Hbrk Cluster
Job 15899242 for user s4752295
Finished at: Tue Mar 25 16:53:53 CET 2025

Job details:
============

Job ID                         : 15899242
Name                           : Mo_no_SO
User                           : s4752295
Partition                      : regularmedium
Nodes                          : node70
Number of Nodes                : 1
Cores                          : 1
Number of Tasks                : 1
State                          : COMPLETED  
Submit                         : 2025-03-25T16:51:11
Start                          : 2025-03-25T16:52:42
End                            : 2025-03-25T16:53:48
Reserved walltime              : 15:00:00
Used walltime                  : 00:01:06
Used CPU time                  : 00:00:59 (Efficiency: 89.26%)
% User (Computation)           : 83.46%
% System (I/O)                 : 16.54%
Total memory reserved          : 25000M
Maximum memory used            : 2.12G

Acknowledgements:
=================

Please see this page for information about acknowledging Hbrk in your publications:

https://wiki.hpc.rug.nl/habrok/introduction/scientific_output

################################################################################
