   This run of MOLCAS is using the pymolcas driver

                             OPE
                             OPE          NMOL  CASOP  ENMOLC A   SO
                 OPE        NMOLC        AS  OP EN  MO LC     AS  OP
                OPENM       OL CA        SO  PE NM  OL CA     SOP EN
                OP EN      MO   LC       AS  OP ENMOL  CASO   PENMOL
                OP  EN     MO   LC       AS  OP EN     MO     LC ASO
               OP   E  NMOL  C  AS       OP  EN MO     LC     AS  OP
               OP  E   NMO   LC AS        OPEN  MO     LCASOP EN   M
               O  PEN   MO  LCA  SO
            OPE   NMO   L   CAS    OP
        OPENMOL  CASOP     ENMOL   CASOPE
     OPENMOLCA   SOPENMOLCASOPEN   MOLCASOPE
    OPENMOLCAS   OP           EN   MOL    CAS
    OPENMOLCAS       OP  ENM        O     LCA
    OPENMOLCAS    OPEN  MOLCASO     P  E  NMO
    OPENMOLCAS     OP               E  N  MOL
    OPENMOLCA   SO           PENM   O  L  CAS    OPEN    MO    LCAS
    OPENMOLCA   SOP           ENM   O  L  CAS   OP  EN  MOLC  AS   O
    OPENMOLCA   SOPE           NM      O  LCA   S      OP  EN MO
    OPENMOLC                AS         O  PEN   M      OL  CA  SOPE
    OPENMO        LCASOPE  NMOL        C  ASO   P      ENMOLC     AS
    OPE     NMO      LCA  SO     P     E   NM   OL  CA SO  PE N   MO
          OPENMOLCA            SOPE   NMO        LCAS  O    P  ENMO
     OPENMOLCASOPENMOLCASOPENMOLCASOPENMOLCA
        OPENMOLCASOPENMOLCASOPENMOLCASOPE
            OPENMOLCASOPENMOLCASOPENM
               OPENMOLCASOPENMOLCA        version: o91e1abe7de707b ?
                   OPENMOLCASO
                       OPE                tag:

 OpenMolcas is free software; you can redistribute it and/or modify it
 under the terms of the GNU Lesser General Public License version 2.1.
 OpenMolcas is distributed in the hope that it will be useful, but it
 is provided "as is" and without any express or implied warranties.
 For more details see the full text of the license in the file
 LICENSE or in <http://www.gnu.org/licenses/>.

                 Copyright (C) The OpenMolcas Authors
           For the author list and the recommended citation,
                   consult the file CONTRIBUTORS.md

           *************************************************
           * pymolcas version py2.10                       *
           *   build 3068ae8b88c9345ec6cfef6fef7f1169      *
           *   (after the EMIL interpreter by V. Veryazov) *
           *************************************************

configuration info
------------------
Host name: login1 (Linux)
C Compiler ID: GNU
C flags: -std=gnu99
Fortran Compiler ID: GNU
Fortran flags: -fno-aggressive-loop-optimizations -cpp -fdefault-integer-8 -fmax-stack-var-size=1048576
Definitions: _MOLCAS_;_I8_;_LINUX_;_MKL_
Parallel: OFF (GA=OFF)


   -----------------------------------------------------------------------------------------------------------------------------------
  |
  |           Project: molybdenum_so_cf
  |    Submitted from: /home4/s4752295/Internship/Initial_simulations/Point_charge_model/1_electron/Madelung_charges_9_active_space/Mo
  |      Scratch area: /tmp/molybdenum_so_cf
  |   Save outputs to: /home4/s4752295/Internship/Initial_simulations/Point_charge_model/1_electron/Madelung_charges_9_active_space/Mo
  |            Molcas: /home4/s4752295/Internship/Molcas/recomp_try/OpenMolcas-master/build
  |
  | Scratch area is empty
  |
  |    MOLCAS_DRIVER = /home4/s4752295/Internship/Molcas/bin/pymolcas
  |    MOLCAS_NPROCS = 1
  |    MOLCAS_SOURCE = /home4/s4752295/Internship/Molcas/recomp_try/OpenMolcas-master
  | MOLCAS_STRUCTURE = 0
  |
   -----------------------------------------------------------------------------------------------------------------------------------

++ ---------   Input file   ---------

&SEWARD
AMFi

CLIG
$R

Basis Set
Mo.ANO-rcc.Roos.21s18p13d6f4g2h.10s9p9d6f4g2h.
Spherical d
Mo           -1.0658140267135469e-14    -3.5527134223784897e-15 0.008753588724385739
End of Basis

Xfield

414
-6.00330162,-2.31,1.3336785     -0.625931
-6.00330162,-0.0,-2.6673584999999997    -0.625931
-6.00330162,2.31,1.3336785      -0.625931
-5.993019105,0.0,0.0    1.892092
3.9887695350000003,-2.31,-1.3336785     2.515516
3.9887695350000003,0.0,2.6673584999999997       2.515516
3.9887695350000003,2.31,-1.3336785      2.515516
5.34448242,-4.62,0.0    0.004632
5.34448242,-2.31,-4.001037      0.004632
5.34448242,-2.31,4.001037       0.004632
5.34448242,2.31,-4.001037       0.004632
5.34448242,2.31,4.001037        0.004632
5.34448242,4.62,0.0     0.004632
6.193725585000001,-2.31,1.3336785       -2.519484
6.193725585000001,-0.0,-2.6673584999999997      -2.519484
6.193725585000001,2.31,1.3336785        -2.519484
-4.399658205,-0.0,-0.0  -3.142907
-7.462646490000001,-4.62,-2.6673584999999997    -0.625931
-7.462646490000001,0.0,5.3347155        -0.625931
-7.462646490000001,4.62,-2.6673584999999997     -0.625931
-9.9140625,-4.62,0.0    1.892092
-9.9140625,-2.31,-4.001037      1.892092
-9.9140625,-2.31,4.001037       1.892092
-9.9140625,2.31,-4.001037       1.892092
-9.9140625,2.31,4.001037        1.892092
-9.9140625,4.62,0.0     1.892092
37.7578125,-4.62,2.6673584999999997     2.515516
37.7578125,-0.0,-5.3347155      2.515516
37.7578125,4.62,2.6673584999999997      2.515516
5.45800782,-4.62,-2.6673584999999997    -2.519484
5.45800782,0.0,5.3347155        -2.519484
5.45800782,4.62,-2.6673584999999997     -2.519484
-4.84863282,-4.62,-0.0  -3.142907
-4.84863282,-2.31,-4.001037     -3.142907
-4.84863282,-2.31,4.001037      -3.142907
-4.84863282,2.31,-4.001037      -3.142907
-4.84863282,2.31,4.001037       -3.142907
-4.84863282,4.62,-0.0   -3.142907
-14.28515625,-4.62,5.3347155    -0.625931
-14.28515625,4.62,5.3347155     -0.625931
-14.28515625,-6.93,1.3336785    -0.625931
-14.28515625,6.93,1.3336785     -0.625931
-14.28515625,-2.31,-6.668395500000001   -0.625931
-14.28515625,2.31,-6.668395500000001    -0.625931
9.01171875,-2.31,-1.3336785     4.409069
9.01171875,2.31,-1.3336785      4.409069
9.01171875,0.0,2.6673584999999997       4.409069
-262.875,-0.0,-0.0      -5.030367
-262.875,0.0,0.0        5.039632
20.27636718,-4.62,-5.3347155    2.515516
20.27636718,4.62,-5.3347155     2.515516
20.27636718,-6.93,-1.3336785    2.515516
20.27636718,6.93,-1.3336785     2.515516
20.27636718,-2.31,6.668395500000001     2.515516
20.27636718,2.31,6.668395500000001      2.515516
28.55859375,-6.93,-4.001037     0.004632
28.55859375,-6.93,4.001037      0.004632
28.55859375,6.93,-4.001037      0.004632
28.55859375,6.93,4.001037       0.004632
28.55859375,-0.0,-8.002074      0.004632
28.55859375,0.0,8.002074        0.004632
72.1171875,-4.62,5.3347155      -2.519484
72.1171875,4.62,5.3347155       -2.519484
72.1171875,-6.93,1.3336785      -2.519484
72.1171875,6.93,1.3336785       -2.519484
72.1171875,-2.31,-6.668395500000001     -2.519484
72.1171875,2.31,-6.668395500000001      -2.519484
-218.8125,-6.93,-4.001037       1.892092
-218.8125,-6.93,4.001037        1.892092
-218.8125,6.93,-4.001037        1.892092
-218.8125,6.93,4.001037 1.892092
-218.8125,-0.0,-8.002074        1.892092
-218.8125,0.0,8.002074  1.892092
-176.625,-4.62,2.6673584999999997       4.409069
-176.625,-0.0,-5.3347155        4.409069
-176.625,4.62,2.6673584999999997        4.409069
-133.5,-4.62,-0.0       -5.030367
-133.5,-2.31,-4.001037  -5.030367
-133.5,-2.31,4.001037   -5.030367
-133.5,2.31,-4.001037   -5.030367
-133.5,-4.62,0.0        5.039632
-133.5,4.62,-0.0        -5.030367
-133.5,2.31,4.001037    -5.030367
-133.5,-2.31,-4.001037  5.039632
-133.5,-2.31,4.001037   5.039632
-133.5,2.31,-4.001037   5.039632
-133.5,4.62,0.0 5.039632
-133.5,2.31,4.001037    5.039632
-69.9375,-2.31,-1.3336785       -5.660931
-69.9375,0.0,2.6673584999999997 -5.660931
-69.9375,2.31,-1.3336785        -5.660931
1.32421875,-9.2399985,0.0       0.004632
1.32421875,-4.62,-8.002074      0.004632
1.32421875,-4.62,8.002074       0.004632
1.32421875,4.62,-8.002074       0.004632
1.32421875,9.2399985,0.0        0.004632
1.32421875,4.62,8.002074        0.004632
101.90625,-6.93,4.001037        -3.142907
101.90625,-6.93,-4.001037       -3.142907
101.90625,6.93,-4.001037        -3.142907
101.90625,6.93,4.001037 -3.142907
101.90625,-0.0,-8.002074        -3.142907
101.90625,0.0,8.002074  -3.142907
129.5625,-9.2399985,-2.6673584999999997 -0.625931
129.5625,-6.93,-6.668395500000001       -0.625931
129.5625,-2.31,9.3357525        -0.625931
129.5625,6.93,-6.668395500000001        -0.625931
129.5625,9.2399985,-2.6673584999999997  -0.625931
129.5625,2.31,9.3357525 -0.625931
1.79589843,-9.2399985,0.0       1.892092
1.79589843,-4.62,-8.002074      1.892092
1.79589843,-4.62,8.002074       1.892092
1.79589843,4.62,-8.002074       1.892092
1.79589843,9.2399985,0.0        1.892092
1.79589843,4.62,8.002074        1.892092
50.765625,-4.62,-5.3347155      4.409069
50.765625,4.62,-5.3347155       4.409069
50.765625,-6.93,-1.3336785      4.409069
50.765625,6.93,-1.3336785       4.409069
50.765625,-2.31,6.668395500000001       4.409069
50.765625,2.31,6.668395500000001        4.409069
243.609375,-4.62,2.6673584999999997     -5.660931
243.609375,-0.0,-5.3347155      -5.660931
243.609375,4.62,2.6673584999999997      -5.660931
0.515625,-9.2399985,2.6673584999999997  2.515516
0.515625,-2.31,-9.3357525       2.515516
0.515625,-6.93,6.668395500000001        2.515516
0.515625,2.31,-9.3357525        2.515516
0.515625,9.2399985,2.6673584999999997   2.515516
0.515625,6.93,6.668395500000001 2.515516
-141.28125,-9.2399985,-2.6673584999999997       -2.519484
-141.28125,-6.93,-6.668395500000001     -2.519484
-141.28125,-2.31,9.3357525      -2.519484
-141.28125,6.93,-6.668395500000001      -2.519484
-141.28125,2.31,9.3357525       -2.519484
-141.28125,9.2399985,-2.6673584999999997        -2.519484
-33.10546875,-9.2399985,-0.0    -3.142907
-33.10546875,-4.62,-8.002074    -3.142907
-33.10546875,-4.62,8.002074     -3.142907
-33.10546875,4.62,-8.002074     -3.142907
-33.10546875,4.62,8.002074      -3.142907
-33.10546875,9.2399985,-0.0     -3.142907
909.75,0.0,0.0  6.927092
484.875,-9.2399985,5.3347155    -0.625931
484.875,9.2399985,5.3347155     -0.625931
484.875,-0.0,-10.669432500000001        -0.625931
-8.1328125,-6.93,4.001037       -5.030367
-8.1328125,-6.93,-4.001037      -5.030367
-8.1328125,-6.93,4.001037       5.039632
-8.1328125,-6.93,-4.001037      5.039632
-8.1328125,6.93,-4.001037       -5.030367
-8.1328125,6.93,4.001037        -5.030367
-8.1328125,6.93,-4.001037       5.039632
-8.1328125,6.93,4.001037        5.039632
-8.1328125,-0.0,-8.002074       -5.030367
-8.1328125,0.0,8.002074 -5.030367
-8.1328125,-0.0,-8.002074       5.039632
-8.1328125,0.0,8.002074 5.039632
137.71875,-4.62,-5.3347155      -5.660931
137.71875,4.62,-5.3347155       -5.660931
137.71875,-6.93,-1.3336785      -5.660931
137.71875,6.93,-1.3336785       -5.660931
137.71875,-2.31,6.668395500000001       -5.660931
137.71875,2.31,6.668395500000001        -5.660931
450.75,-9.2399985,-5.3347155    2.515516
450.75,9.2399985,-5.3347155     2.515516
450.75,0.0,10.669432500000001   2.515516
-775.875,-9.2399985,5.3347155   -2.519484
-775.875,9.2399985,5.3347155    -2.519484
-775.875,-0.0,-10.669432500000001       -2.519484
80.34375,-4.62,0.0      6.927092
80.34375,-2.31,-4.001037        6.927092
80.34375,-2.31,4.001037 6.927092
80.34375,2.31,-4.001037 6.927092
80.34375,2.31,4.001037  6.927092
80.34375,4.62,0.0       6.927092
-82.875,-2.31,1.3336785 7.550516
-82.875,0.0,-2.6673584999999997 7.550516
-82.875,2.31,1.3336785  7.550516
23.296875,-2.31,-1.3336785      -7.554483
23.296875,2.31,-1.3336785       -7.554483
23.296875,-0.0,2.6673584999999997       -7.554483
-187.3125,-11.549998500000001,1.3336785 -0.625931
-187.3125,-6.93,9.3357525       -0.625931
-187.3125,-4.62,-10.669432500000001     -0.625931
-187.3125,4.62,-10.669432500000001      -0.625931
-187.3125,11.549998500000001,1.3336785  -0.625931
-187.3125,6.93,9.3357525        -0.625931
-101.15625,-9.2399985,2.6673584999999997        4.409069
-101.15625,-6.93,6.668395500000001      4.409069
-101.15625,-2.31,-9.3357525     4.409069
-101.15625,2.31,-9.3357525      4.409069
-101.15625,6.93,6.668395500000001       4.409069
-101.15625,9.2399985,2.6673584999999997 4.409069
73.734375,-9.2399985,-0.0       -5.030367
73.734375,-4.62,-8.002074       -5.030367
73.734375,-4.62,8.002074        -5.030367
73.734375,-9.2399985,0.0        5.039632
73.734375,-4.62,-8.002074       5.039632
73.734375,4.62,-8.002074        -5.030367
73.734375,4.62,8.002074 -5.030367
73.734375,9.2399985,-0.0        -5.030367
73.734375,-4.62,8.002074        5.039632
73.734375,4.62,-8.002074        5.039632
73.734375,9.2399985,0.0 5.039632
73.734375,4.62,8.002074 5.039632
271.125,-11.549998500000001,-1.3336785  2.515516
271.125,-6.93,-9.3357525        2.515516
271.125,-4.62,10.669432500000001        2.515516
271.125,6.93,-9.3357525 2.515516
271.125,11.549998500000001,-1.3336785   2.515516
271.125,4.62,10.669432500000001 2.515516
-35.015625,-11.549998500000001,-4.001037        0.004632
-35.015625,-11.549998500000001,4.001037 0.004632
-35.015625,-9.2399985,-8.002074 0.004632
-35.015625,-9.2399985,8.002074  0.004632
-35.015625,-2.31,-12.003111     0.004632
-35.015625,2.31,-12.003111      0.004632
-35.015625,-2.31,12.003111      0.004632
-35.015625,9.2399985,-8.002074  0.004632
-35.015625,2.31,12.003111       0.004632
-35.015625,11.549998500000001,-4.001037 0.004632
-35.015625,11.549998500000001,4.001037  0.004632
-35.015625,9.2399985,8.002074   0.004632
-214.6875,-11.549998500000001,1.3336785 -2.519484
-214.6875,-6.93,9.3357525       -2.519484
-214.6875,-4.62,-10.669432500000001     -2.519484
-214.6875,4.62,-10.669432500000001      -2.519484
-214.6875,11.549998500000001,1.3336785  -2.519484
-214.6875,6.93,9.3357525        -2.519484
4548.0,-0.0,-0.0        -8.177907
-174.0,-4.62,-2.6673584999999997        7.550516
-174.0,0.0,5.3347155    7.550516
-174.0,4.62,-2.6673584999999997 7.550516
-905.25,-4.62,2.6673584999999997        -7.554483
-905.25,-0.0,-5.3347155 -7.554483
-905.25,4.62,2.6673584999999997 -7.554483
73.359375,-11.549998500000001,4.001037  1.892092
73.359375,-11.549998500000001,-4.001037 1.892092
73.359375,-9.2399985,-8.002074  1.892092
73.359375,-9.2399985,8.002074   1.892092
73.359375,-2.31,-12.003111      1.892092
73.359375,2.31,-12.003111       1.892092
73.359375,-2.31,12.003111       1.892092
73.359375,9.2399985,-8.002074   1.892092
73.359375,2.31,12.003111        1.892092
73.359375,11.549998500000001,-4.001037  1.892092
73.359375,11.549998500000001,4.001037   1.892092
73.359375,9.2399985,8.002074    1.892092
-757.5,-9.2399985,-5.3347155    4.409069
-757.5,9.2399985,-5.3347155     4.409069
-757.5,0.0,10.669432500000001   4.409069
38.73046875,-9.2399985,2.6673584999999997       -5.660931
38.73046875,-2.31,-9.3357525    -5.660931
38.73046875,-6.93,6.668395500000001     -5.660931
38.73046875,2.31,-9.3357525     -5.660931
38.73046875,6.93,6.668395500000001      -5.660931
38.73046875,9.2399985,2.6673584999999997        -5.660931
-87.28125,-9.2399985,-8.002074  -3.142907
-87.28125,-11.549998500000001,4.001037  -3.142907
-87.28125,-11.549998500000001,-4.001037 -3.142907
-87.28125,-9.2399985,8.002074   -3.142907
-87.28125,-2.31,-12.003111      -3.142907
-87.28125,2.31,-12.003111       -3.142907
-87.28125,-2.31,12.003111       -3.142907
-87.28125,11.549998500000001,-4.001037  -3.142907
-87.28125,9.2399985,-8.002074   -3.142907
-87.28125,2.31,12.003111        -3.142907
-87.28125,11.549998500000001,4.001037   -3.142907
-87.28125,9.2399985,8.002074    -3.142907
98.109375,-6.93,-4.001037       6.927092
98.109375,-6.93,4.001037        6.927092
98.109375,6.93,-4.001037        6.927092
98.109375,6.93,4.001037 6.927092
98.109375,-0.0,-8.002074        6.927092
98.109375,0.0,8.002074  6.927092
-124.875,-4.62,-0.0     -8.177907
-124.875,-2.31,4.001037 -8.177907
-124.875,-2.31,-4.001037        -8.177907
-124.875,2.31,-4.001037 -8.177907
-124.875,4.62,-0.0      -8.177907
-124.875,2.31,4.001037  -8.177907
-136.359375,-4.62,5.3347155     7.550516
-136.359375,4.62,5.3347155      7.550516
-136.359375,-6.93,1.3336785     7.550516
-136.359375,6.93,1.3336785      7.550516
-136.359375,-2.31,-6.668395500000001    7.550516
-136.359375,2.31,-6.668395500000001     7.550516
-68.53125,-4.62,-5.3347155      -7.554483
-68.53125,4.62,-5.3347155       -7.554483
-68.53125,-6.93,-1.3336785      -7.554483
-68.53125,6.93,-1.3336785       -7.554483
-68.53125,-2.31,6.668395500000001       -7.554483
-68.53125,2.31,6.668395500000001        -7.554483
-750.375,0.0,13.336789499999998 -0.625931
-750.375,-11.549998500000001,-6.668395500000001 -0.625931
-750.375,11.549998500000001,-6.668395500000001  -0.625931
-404.625,-11.549998500000001,-1.3336785 4.409069
-404.625,-6.93,-9.3357525       4.409069
-404.625,-4.62,10.669432500000001       4.409069
-404.625,6.93,-9.3357525        4.409069
-404.625,11.549998500000001,-1.3336785  4.409069
-404.625,4.62,10.669432500000001        4.409069
465.5625,-9.2399985,-5.3347155  -5.660931
465.5625,9.2399985,-5.3347155   -5.660931
465.5625,0.0,10.669432500000001 -5.660931
880.5,-0.0,-13.336789499999998  2.515516
880.5,-11.549998500000001,6.668395500000001     2.515516
880.5,11.549998500000001,6.668395500000001      2.515516
-140.8125,-13.8599985,-0.0      0.004632
-140.8125,6.93,-12.003111       0.004632
-140.8125,-6.93,12.003111       0.004632
-140.8125,13.8599985,-0.0       0.004632
-140.8125,-6.93,-12.003111      0.004632
-140.8125,6.93,12.003111        0.004632
-578.625,0.0,13.336789499999998 -2.519484
-578.625,-11.549998500000001,-6.668395500000001 -2.519484
-578.625,11.549998500000001,-6.668395500000001  -2.519484
342.0,-9.2399985,0.0    6.927092
342.0,-4.62,-8.002074   6.927092
342.0,-4.62,8.002074    6.927092
342.0,4.62,-8.002074    6.927092
342.0,9.2399985,0.0     6.927092
342.0,4.62,8.002074     6.927092
317.8125,-13.8599985,-2.6673584999999997        -0.625931
317.8125,-4.62,13.336789499999998       -0.625931
317.8125,-9.2399985,-10.669432500000001 -0.625931
317.8125,9.2399985,-10.669432500000001  -0.625931
317.8125,4.62,13.336789499999998        -0.625931
317.8125,13.8599985,-2.6673584999999997 -0.625931
167.90625,-13.8599985,0.0       1.892092
167.90625,-6.93,-12.003111      1.892092
167.90625,-6.93,12.003111       1.892092
167.90625,6.93,-12.003111       1.892092
167.90625,13.8599985,0.0        1.892092
167.90625,6.93,12.003111        1.892092
-6.48046875,-11.549998500000001,4.001037        -5.030367
-6.48046875,-11.549998500000001,-4.001037       -5.030367
-6.48046875,-9.2399985,-8.002074        -5.030367
-6.48046875,-9.2399985,8.002074 -5.030367
-6.48046875,-11.549998500000001,4.001037        5.039632
-6.48046875,2.31,-12.003111     -5.030367
-6.48046875,-2.31,-12.003111    -5.030367
-6.48046875,-11.549998500000001,-4.001037       5.039632
-6.48046875,-9.2399985,-8.002074        5.039632
-6.48046875,-2.31,12.003111     -5.030367
-6.48046875,2.31,-12.003111     5.039632
-6.48046875,-9.2399985,8.002074 5.039632
-6.48046875,-2.31,-12.003111    5.039632
-6.48046875,9.2399985,-8.002074 -5.030367
-6.48046875,2.31,12.003111      -5.030367
-6.48046875,11.549998500000001,-4.001037        -5.030367
-6.48046875,11.549998500000001,4.001037 -5.030367
-6.48046875,9.2399985,8.002074  -5.030367
-6.48046875,-2.31,12.003111     5.039632
-6.48046875,9.2399985,-8.002074 5.039632
-6.48046875,11.549998500000001,-4.001037        5.039632
-6.48046875,2.31,12.003111      5.039632
-6.48046875,11.549998500000001,4.001037 5.039632
-6.48046875,9.2399985,8.002074  5.039632
-1.03125,-11.549998500000001,-1.3336785 -5.660931
-1.03125,-6.93,-9.3357525       -5.660931
-1.03125,-4.62,10.669432500000001       -5.660931
-1.03125,6.93,-9.3357525        -5.660931
-1.03125,4.62,10.669432500000001        -5.660931
-1.03125,11.549998500000001,-1.3336785  -5.660931
174.0,-2.31,1.3336785   9.444068
174.0,0.0,-2.6673584999999997   9.444068
174.0,2.31,1.3336785    9.444068
76.96875,-13.8599985,2.6673584999999997 2.515516
76.96875,-4.62,-13.336789499999998      2.515516
76.96875,4.62,-13.336789499999998       2.515516
76.96875,-9.2399985,10.669432500000001  2.515516
76.96875,13.8599985,2.6673584999999997  2.515516
76.96875,9.2399985,10.669432500000001   2.515516
235.3125,-13.8599985,-2.6673584999999997        -2.519484
235.3125,-4.62,13.336789499999998       -2.519484
235.3125,-9.2399985,-10.669432500000001 -2.519484
235.3125,9.2399985,-10.669432500000001  -2.519484
235.3125,13.8599985,-2.6673584999999997 -2.519484
235.3125,4.62,13.336789499999998        -2.519484
329.4375,-13.8599985,-0.0       -3.142907
329.4375,-6.93,-12.003111       -3.142907
329.4375,-6.93,12.003111        -3.142907
329.4375,6.93,-12.003111        -3.142907
329.4375,13.8599985,-0.0        -3.142907
329.4375,6.93,12.003111 -3.142907
12.968261715,-6.93,-4.001037    -8.177907
12.968261715,-6.93,4.001037     -8.177907
12.968261715,6.93,4.001037      -8.177907
12.968261715,6.93,-4.001037     -8.177907
12.968261715,-0.0,-8.002074     -8.177907
12.968261715,0.0,8.002074       -8.177907
377.8125,-6.93,-6.668395500000001       7.550516
377.8125,-9.2399985,-2.6673584999999997 7.550516
377.8125,-2.31,9.3357525        7.550516
377.8125,6.93,-6.668395500000001        7.550516
377.8125,2.31,9.3357525 7.550516
377.8125,9.2399985,-2.6673584999999997  7.550516
-522.0,-6.93,6.668395500000001  -7.554483
-522.0,-9.2399985,2.6673584999999997    -7.554483
-522.0,-2.31,-9.3357525 -7.554483
-522.0,2.31,-9.3357525  -7.554483
-522.0,9.2399985,2.6673584999999997     -7.554483
-522.0,6.93,6.668395500000001   -7.554483
106.8984375,-11.549998500000001,9.3357525       -0.625931
106.8984375,-13.8599985,5.3347155       -0.625931
106.8984375,-2.31,-14.6704695   -0.625931
106.8984375,2.31,-14.6704695    -0.625931
106.8984375,13.8599985,5.3347155        -0.625931
106.8984375,11.549998500000001,9.3357525        -0.625931
-725.625,-0.0,-13.336789499999998       4.409069
-725.625,-11.549998500000001,6.668395500000001  4.409069
-725.625,11.549998500000001,6.668395500000001   4.409069

End of input

&SCF
Occupied
9
Iterations
   50  100
End of Input

&RASSCF
LumOrb
Symmetry
1
Spin
2
Nactel
1 0 0
CIRoot
9 9 1
inactive
9
ras2
9
End of Input

>>> COPY molybdenum_so_cf.JobIph $SLURM_SUBMIT_DIR/molybdenum_so_cf.doublet.JobIph

>>> COPY $SLURM_SUBMIT_DIR/molybdenum_so_cf.doublet.JobIph ./JOB002

&RASSI
NROFJobIph
1 All
SpinOrbit
End of Input

EOF

-- ----------------------------------

--- Start Module: seward at Wed Mar 26 16:01:57 2025 ---

()()()()()()()()()()()()()()()()()()()()()()()()()()()()()()()()()()()()()()()()()()()()()()()()()()

                                              &SEWARD

                                   only a single process is used
                       available to each process: 4.1 GB of memory, 1 thread?
                                            pid: 1278171
()()()()()()()()()()()()()()()()()()()()()()()()()()()()()()()()()()()()()()()()()()()()()()()()()()

 The speed of LIGHT in this CALCULATION =   137.03599917700001     
               SEWARD will generate:
                  Multipole Moment integrals up to order  2
                  Kinetic Energy integrals
                  Nuclear Attraction integrals (point charge)
                  One-Electron Hamiltonian integrals
                  Velocity integrals
                  Relativistic Douglas-Kroll-Hess integrals:
                    - Parametrization         : EXP
                    - DKH order of Hamiltonian: 2
                    - DKH order of Properties : 0
                         - multipole moment operators
                         - electric potential operators
                         - contact operators
                  External field from   414 point(s) added to the one-electron Hamiltonian
                  Orbital angular momentum around (-0.0000 -0.0000  0.0088 )
                  Velocity quadrupole around (-0.0000 -0.0000  0.0088 )
                  Atomic mean-field integrals
                  Two-Electron Repulsion integrals

                   Integrals are discarded if absolute value <: 0.10E-13
                   Integral cutoff threshold is set to       <: 0.10E-15

++    Symmetry information:
      ---------------------

                    Character Table for C1 

                             E  
                    a        1  x, y, xy, Rz, z, xz, Ry, yz, Rx, I
--


++    Basis set information:
      ----------------------


      Basis set label: MO.ANO-RCC.ROOS.21S18P13D6F4G2H.10S9P9D6F4G2H......

      Electronic valence basis set:
      ------------------
      Associated Effective Charge  42.000000 au
      Associated Actual Charge     42.000000 au
      Nuclear Model: Point charge

      Shell  nPrim  nBasis  Cartesian Spherical Contaminant
         s      21      10        X                  
         p      18       9        X                  
         d      13       9                 X         
         f       6       6                 X         
         g       4       4                 X         
         h       2       2                 X         
--


++    Molecular structure info:
      -------------------------

                    ************************************************ 
                    **** Cartesian Coordinates / Bohr, Angstrom **** 
                    ************************************************ 

     Center  Label                x              y              z                     x              y              z
        1      MO              -0.000000      -0.000000       0.008754             -0.000000      -0.000000       0.004632
--


++    Operator info:
      --------------


  Net charge from external field:   -39.268449999999902     
--


            Nuclear Potential Energy              0.00000000 au

                    Nuclear-External Field Potential Energy    -256.17113946 au
                    External Field Potential Energy            1070.42460092 au 


            Total Nuclear Potential Energy           -256.17113946 au


      Basis set specifications :
      Symmetry species         a  
      Basis functions          182

 Sorry, Molden does not know how to handle
 functions with angular momentum larger than g
Note: The following floating-point exceptions are signalling: IEEE_UNDERFLOW_FLAG IEEE_DENORMAL
--- Stop Module: seward at Wed Mar 26 16:02:08 2025 /rc=_RC_ALL_IS_WELL_ ---
*** files: molybdenum_so_cf.GssOrb xmldump
    saved to directory /home4/s4752295/Internship/Initial_simulations/Point_charge_model/1_electron/Madelung_charges_9_active_space/Mo
--- Module seward spent 11 seconds ---

*** symbolic link created: INPORB -> molybdenum_so_cf.GssOrb
--- Start Module: scf at Wed Mar 26 16:02:08 2025 ---

()()()()()()()()()()()()()()()()()()()()()()()()()()()()()()()()()()()()()()()()()()()()()()()()()()

                                                &SCF

                                   only a single process is used
                       available to each process: 4.1 GB of memory, 1 thread?
                                            pid: 1278558
()()()()()()()()()()()()()()()()()()()()()()()()()()()()()()()()()()()()()()()()()()()()()()()()()()

++    Input section:
      --------------

      Header of the integral files:
      
       Integrals generated by seward 4.2.0  , Wed Mar 26 16:01:57 2025


      Cartesian coordinates in Angstrom:
      -----------------------------------------------------
      No.  Label        X            Y            Z        
      -----------------------------------------------------
       1   MO        -0.00000000  -0.00000000   0.00463220
      -----------------------------------------------------
      Nuclear repulsion energy = -256.17113946
--

++    Orbital specifications:
      -----------------------

      Symmetry species               1
                                     a
      Frozen orbitals                0
      Occupied orbitals              9
      Secondary orbitals           173
      Deleted orbitals               0
      Total number of orbitals     182
      Number of basis functions    182
--

      Molecular charge                          24.000

++    Optimization specifications:
      ----------------------------

      SCF Algorithm: Conventional
      Minimized density differences are used
      Number of density matrices in core                5
      Maximum number of NDDO SCF iterations            50
      Maximum number of HF SCF iterations             100
      Threshold for SCF energy change            0.10E-08
      Threshold for density matrix               0.10E-03
      Threshold for Fock matrix                  0.15E-03
      Threshold for linear dependence            0.10E-08
      Threshold at which DIIS is turned on       0.15E+00
      Threshold at which QNR/C2DIIS is turned on 0.75E-01
      Threshold for Norm(delta) (QNR/C2DIIS)     0.20E-04
      DIIS extrapolation of the SCF procedure
      All orbitals punched on: SCFORB
--

      Detected guessorb starting orbitals                                             


++ Convergence information
                                   SCF        iterations: Energy and convergence statistics

Iter     Tot. SCF        One-elec.       Two-elec.     Energy      Max Dij or  Max Fij      DNorm      TNorm      AccCon     Time
         Energy          Energy          Energy        Change      Delta Norm                                                in Sec.

 The total and one-electron energies are shifted by a value of      3000. a.u.

   1  -824.038122511 -1188.977271157   621.110288109   0.00E+00    0.33E+00*   0.30E+01*    0.60E+01   0.35E+03   None         1.
   2  -830.020722554 -1231.467166502   657.617583411  -0.60E+01*   0.92E-02*   0.27E+00*    0.13E+01   0.36E+03   EDIIS        1.
   3  -830.039046956 -1229.638206987   655.770299494  -0.18E-01*   0.77E-03*   0.13E-01*    0.45E-01   0.36E+03   EDIIS        1.
   4  -830.039111844 -1229.760085021   655.892112640  -0.65E-04*   0.47E-04    0.80E-03*    0.15E-02   0.36E+03   c2DIIS       1.
   5  -830.039112146 -1229.753601853   655.885629169  -0.30E-06*   0.64E-05    0.45E-04     0.11E-03   0.36E+03   QNRc2DIIS    1.
   6  -830.039112147 -1229.753610034   655.885637350  -0.82E-09    0.89E-06    0.72E-05     0.35E-05   0.36E+03   QNRc2DIIS    1.

       Convergence after  6 Macro Iterations
--

 *****************************************************************************************************************************
 *                                                                                                                           *
 *                                             SCF/KS-DFT Program, Final results                                             *
 *                                                                                                                           *
 *                                                                                                                           *
 *                                                                                                                           *
 *                                                       Final Results                                                       *
 *                                                                                                                           *
 *****************************************************************************************************************************

::    Total SCF energy                              -3830.0391121472
      One-electron energy                           -4229.7536100340
      Two-electron energy                             655.8856373495
      Nuclear repulsion energy                       -256.1711394628
      Kinetic energy (interpolated)                  4119.5430847659
      Virial theorem                                    0.9297242518
      Total spin, S(S+1)                                0.0000000000
      Total spin, S                                     0.0000000000
      Max non-diagonal density matrix element           0.0000010639
      Max non-diagonal Fock matrix element              0.0000010331


      All orbitals with orbital energies smaller than  E(LUMO)+0.5 are printed

++    Molecular orbitals:
      -------------------

      Title: SCF orbitals

      Molecular orbitals for symmetry species 1: a  

          Orbital            1         2         3         4         5         6         7         8         9        10    
          Energy         -771.0492 -138.8596 -127.4748 -127.4748 -127.4745  -44.6691  -40.6644  -40.6644  -40.6601  -33.4993
          Occ. No.          2.0000    2.0000    2.0000    2.0000    2.0000    2.0000    2.0000    2.0000    2.0000    0.0000

        1 MO     1s         1.0000   -0.0001    0.0000   -0.0000   -0.0000    0.0001   -0.0000   -0.0000    0.0000    0.0000
        2 MO     2s         0.0001    0.9999    0.0000   -0.0000   -0.0011    0.0129    0.0000    0.0000   -0.0004   -0.0000
        3 MO     3s        -0.0001   -0.0122   -0.0000    0.0000    0.0001    0.9888    0.0000    0.0000   -0.0179    0.0000
        4 MO     4s         0.0000    0.0030    0.0000   -0.0000   -0.0000   -0.0994   -0.0000   -0.0000    0.0029    0.0000
        5 MO     5s        -0.0000   -0.0007   -0.0000    0.0000    0.0000    0.0214    0.0000    0.0000   -0.0006    0.0000
        6 MO     6s         0.0000    0.0008    0.0000   -0.0000   -0.0000   -0.0251   -0.0000   -0.0000    0.0007   -0.0000
        7 MO     7s        -0.0000   -0.0025   -0.0000    0.0000    0.0000    0.0692    0.0000    0.0000   -0.0021    0.0000
        8 MO     8s         0.0000    0.0023    0.0000   -0.0000   -0.0000   -0.0530   -0.0000   -0.0000    0.0016   -0.0000
        9 MO     9s        -0.0000   -0.0025   -0.0000    0.0000    0.0000    0.0464    0.0000    0.0000   -0.0014    0.0000
       10 MO    10s         0.0001    0.0029    0.0000   -0.0000   -0.0000   -0.0316   -0.0000   -0.0000    0.0009   -0.0000
       11 MO     2px        0.0000    0.0011   -0.0019    0.0000    0.9999    0.0001   -0.0000   -0.0000    0.0145    0.0000
       12 MO     3px       -0.0000    0.0001    0.0000   -0.0000   -0.0137    0.0183   -0.0015   -0.0000    0.9848   -0.0000
       13 MO     4px        0.0000   -0.0000   -0.0000    0.0000    0.0030   -0.0013    0.0002    0.0000   -0.1073   -0.0000
       14 MO     5px       -0.0000    0.0000    0.0000   -0.0000   -0.0010    0.0004   -0.0001   -0.0000    0.0343    0.0000
       15 MO     6px        0.0000   -0.0000   -0.0000    0.0000    0.0026   -0.0009    0.0001    0.0000   -0.0792    0.0000
       16 MO     7px       -0.0000    0.0000    0.0000   -0.0000   -0.0023    0.0006   -0.0001   -0.0000    0.0632    0.0000
       17 MO     8px        0.0000   -0.0000   -0.0000    0.0000    0.0029   -0.0006    0.0001    0.0000   -0.0632   -0.0000
       18 MO     9px       -0.0000    0.0000    0.0000   -0.0000   -0.0027    0.0004   -0.0001   -0.0000    0.0464    0.0000
       19 MO    10px        0.0000   -0.0000   -0.0000    0.0000    0.0022   -0.0001    0.0000    0.0000   -0.0212    0.0000
       20 MO     2py        0.0000    0.0000    0.0000    0.9999   -0.0000    0.0000   -0.0000    0.0145    0.0000    0.0000
       21 MO     3py        0.0000   -0.0000   -0.0000   -0.0137    0.0000    0.0000   -0.0000    0.9850    0.0000    0.0000
       22 MO     4py       -0.0000    0.0000    0.0000    0.0030   -0.0000   -0.0000    0.0000   -0.1072   -0.0000   -0.0000
       23 MO     5py        0.0000   -0.0000   -0.0000   -0.0010    0.0000    0.0000   -0.0000    0.0343    0.0000    0.0000
       24 MO     6py       -0.0000    0.0000    0.0000    0.0026   -0.0000   -0.0000    0.0000   -0.0791   -0.0000   -0.0000
       25 MO     7py        0.0000   -0.0000   -0.0000   -0.0023    0.0000    0.0000   -0.0000    0.0631    0.0000    0.0000
       26 MO     8py       -0.0000    0.0000    0.0000    0.0029   -0.0000   -0.0000    0.0000   -0.0632   -0.0000   -0.0000
       27 MO     9py        0.0000   -0.0000   -0.0000   -0.0027    0.0000    0.0000   -0.0000    0.0464    0.0000    0.0000
       28 MO    10py       -0.0000    0.0000    0.0000    0.0022   -0.0000   -0.0000    0.0000   -0.0211   -0.0000   -0.0000
       29 MO     2pz        0.0000    0.0000    0.9999   -0.0000    0.0019    0.0000    0.0145    0.0000    0.0000    0.0000
       30 MO     3pz       -0.0000    0.0000   -0.0137    0.0000   -0.0000    0.0000    0.9850    0.0000    0.0015    0.0000
       31 MO     4pz        0.0000   -0.0000    0.0030   -0.0000    0.0000   -0.0000   -0.1072   -0.0000   -0.0002   -0.0000
       32 MO     5pz       -0.0000    0.0000   -0.0010    0.0000   -0.0000    0.0000    0.0343    0.0000    0.0001    0.0000
       33 MO     6pz        0.0000   -0.0000    0.0026   -0.0000    0.0000   -0.0000   -0.0791   -0.0000   -0.0001   -0.0000
       34 MO     7pz       -0.0000    0.0000   -0.0023    0.0000   -0.0000    0.0000    0.0631    0.0000    0.0001    0.0000
       35 MO     8pz        0.0000   -0.0000    0.0029   -0.0000    0.0000   -0.0000   -0.0632   -0.0000   -0.0001   -0.0000
       36 MO     9pz       -0.0000    0.0000   -0.0027    0.0000   -0.0000    0.0000    0.0464    0.0000    0.0001    0.0000
       37 MO    10pz        0.0000   -0.0000    0.0022   -0.0000    0.0000   -0.0000   -0.0211   -0.0000   -0.0000   -0.0000
       38 MO     3d2-      -0.0000    0.0000    0.0000    0.0001   -0.0000   -0.0000   -0.0000    0.0092    0.0000   -0.0041
       39 MO     4d2-       0.0000   -0.0000   -0.0000   -0.0000    0.0000    0.0000    0.0000   -0.0005   -0.0000    0.0004
       40 MO     5d2-       0.0000    0.0000    0.0000    0.0000   -0.0000   -0.0000   -0.0000    0.0005    0.0000   -0.0004
       41 MO     6d2-      -0.0000   -0.0000   -0.0000   -0.0000    0.0000    0.0000    0.0000   -0.0004   -0.0000    0.0004
       42 MO     7d2-       0.0000    0.0000    0.0000    0.0000   -0.0000   -0.0000   -0.0000    0.0002    0.0000   -0.0003
       43 MO     8d2-       0.0000   -0.0000   -0.0000   -0.0000    0.0000    0.0000    0.0000   -0.0002   -0.0000    0.0003
       44 MO     9d2-      -0.0000    0.0000    0.0000    0.0000   -0.0000   -0.0000   -0.0000    0.0001    0.0000   -0.0003
       45 MO    10d2-       0.0000   -0.0000   -0.0000   -0.0000    0.0000   -0.0000   -0.0000    0.0000    0.0000    0.0002
       46 MO    11d2-      -0.0000    0.0000    0.0000    0.0000   -0.0000    0.0000    0.0000   -0.0000   -0.0000   -0.0000
       47 MO     3d1-       0.0000   -0.0000    0.0000    0.0000   -0.0000   -0.0000   -0.0000    0.0000   -0.0000    0.9757
       48 MO     4d1-      -0.0000    0.0000   -0.0000   -0.0000    0.0000    0.0000    0.0000   -0.0000    0.0000   -0.0981
       49 MO     5d1-       0.0000   -0.0000    0.0000    0.0000   -0.0000   -0.0000   -0.0000    0.0000   -0.0000    0.1046
       50 MO     6d1-      -0.0000    0.0000   -0.0000   -0.0000    0.0000    0.0000    0.0000   -0.0000    0.0000   -0.0889
       51 MO     7d1-       0.0000   -0.0000    0.0000    0.0000   -0.0000   -0.0000   -0.0000    0.0000   -0.0000    0.0774
       52 MO     8d1-      -0.0000    0.0000   -0.0000   -0.0000    0.0000    0.0000   -0.0000    0.0000    0.0000   -0.0793
       53 MO     9d1-       0.0000   -0.0000    0.0000    0.0000   -0.0000    0.0000   -0.0000    0.0000   -0.0000    0.0604
       54 MO    10d1-      -0.0000    0.0000   -0.0000   -0.0000    0.0000   -0.0000   -0.0000    0.0000    0.0000   -0.0591
       55 MO    11d1-       0.0000   -0.0000    0.0000    0.0000    0.0000    0.0000    0.0000   -0.0000    0.0000    0.0088
       56 MO     3d0        0.0000    0.0000    0.0000   -0.0000   -0.0000    0.0001    0.0000    0.0000   -0.0054   -0.0000
       57 MO     4d0       -0.0000   -0.0000   -0.0000    0.0000    0.0000   -0.0000   -0.0000   -0.0000    0.0003    0.0000
       58 MO     5d0        0.0000    0.0000    0.0000   -0.0000   -0.0000   -0.0000    0.0000    0.0000   -0.0003   -0.0000
       59 MO     6d0       -0.0000   -0.0000   -0.0000    0.0000    0.0000    0.0000   -0.0000   -0.0000    0.0002    0.0000
       60 MO     7d0        0.0000    0.0000    0.0000   -0.0000   -0.0000   -0.0000    0.0000    0.0000   -0.0001   -0.0000
       61 MO     8d0       -0.0000   -0.0000   -0.0000    0.0000    0.0000    0.0000   -0.0000   -0.0000    0.0001    0.0000
       62 MO     9d0        0.0000    0.0000    0.0000   -0.0000   -0.0000   -0.0000   -0.0000   -0.0000   -0.0000   -0.0000
       63 MO    10d0       -0.0000   -0.0000   -0.0000    0.0000    0.0000    0.0000   -0.0000   -0.0000   -0.0000    0.0000
       64 MO    11d0        0.0000    0.0000    0.0000   -0.0000   -0.0000   -0.0000   -0.0000    0.0000    0.0000   -0.0000
       65 MO     3d1+      -0.0000   -0.0000    0.0001   -0.0000    0.0000   -0.0000    0.0092    0.0000    0.0000   -0.0000
       66 MO     4d1+       0.0000    0.0000   -0.0000    0.0000   -0.0000    0.0000   -0.0005   -0.0000   -0.0000    0.0000
       67 MO     5d1+      -0.0000   -0.0000    0.0000   -0.0000    0.0000    0.0000    0.0005    0.0000    0.0000   -0.0000
       68 MO     6d1+       0.0000    0.0000   -0.0000    0.0000   -0.0000   -0.0000   -0.0004   -0.0000   -0.0000    0.0000
       69 MO     7d1+      -0.0000   -0.0000    0.0000   -0.0000    0.0000    0.0000    0.0002    0.0000    0.0000   -0.0000
       70 MO     8d1+       0.0000    0.0000   -0.0000    0.0000   -0.0000   -0.0000   -0.0002   -0.0000   -0.0000    0.0000
       71 MO     9d1+      -0.0000   -0.0000    0.0000   -0.0000    0.0000    0.0000    0.0001    0.0000    0.0000   -0.0000
       72 MO    10d1+       0.0000    0.0000   -0.0000    0.0000   -0.0000   -0.0000    0.0000    0.0000    0.0000    0.0000
       73 MO    11d1+      -0.0000   -0.0000    0.0000   -0.0000    0.0000    0.0000   -0.0000   -0.0000   -0.0000   -0.0000
       74 MO     3d2+      -0.0000   -0.0000   -0.0000    0.0000    0.0001   -0.0001   -0.0000   -0.0000    0.0093   -0.0000
       75 MO     4d2+       0.0000    0.0000    0.0000   -0.0000   -0.0000    0.0000    0.0000    0.0000   -0.0005    0.0000
       76 MO     5d2+      -0.0000   -0.0000   -0.0000    0.0000    0.0000    0.0000   -0.0000   -0.0000    0.0005   -0.0000
       77 MO     6d2+       0.0000    0.0000    0.0000   -0.0000   -0.0000   -0.0000    0.0000    0.0000   -0.0004    0.0000
       78 MO     7d2+      -0.0000   -0.0000   -0.0000    0.0000    0.0000    0.0000   -0.0000   -0.0000    0.0002   -0.0000
       79 MO     8d2+       0.0000    0.0000    0.0000   -0.0000   -0.0000   -0.0000    0.0000    0.0000   -0.0002    0.0000
       80 MO     9d2+      -0.0000   -0.0000   -0.0000    0.0000    0.0000    0.0000   -0.0000   -0.0000    0.0001   -0.0000
       81 MO    10d2+       0.0000    0.0000    0.0000   -0.0000   -0.0000   -0.0000   -0.0000   -0.0000    0.0000    0.0000
       82 MO    11d2+      -0.0000   -0.0000   -0.0000    0.0000    0.0000    0.0000    0.0000    0.0000   -0.0000   -0.0000
       83 MO     4f3-       0.0000   -0.0000   -0.0000   -0.0000    0.0000    0.0000    0.0000   -0.0000   -0.0000   -0.0000
       84 MO     5f3-       0.0000   -0.0000   -0.0000   -0.0000    0.0000   -0.0000    0.0000   -0.0000   -0.0000   -0.0000
       85 MO     6f3-       0.0000    0.0000    0.0000    0.0000   -0.0000   -0.0000   -0.0000    0.0000    0.0000    0.0000
       86 MO     7f3-       0.0000   -0.0000   -0.0000   -0.0000    0.0000    0.0000    0.0000   -0.0000   -0.0000   -0.0000
       87 MO     8f3-       0.0000   -0.0000   -0.0000   -0.0000    0.0000    0.0000    0.0000   -0.0000   -0.0000   -0.0000
       88 MO     9f3-      -0.0000    0.0000    0.0000    0.0000   -0.0000   -0.0000   -0.0000    0.0000    0.0000    0.0000
       89 MO     4f2-      -0.0000   -0.0000   -0.0000   -0.0000    0.0000   -0.0000    0.0000   -0.0000   -0.0000    0.0006
       90 MO     5f2-       0.0000   -0.0000   -0.0000   -0.0000    0.0000   -0.0000    0.0000   -0.0000    0.0000    0.0007
       91 MO     6f2-      -0.0000    0.0000    0.0000    0.0000   -0.0000    0.0000   -0.0000    0.0000   -0.0000   -0.0007
       92 MO     7f2-       0.0000   -0.0000   -0.0000   -0.0000    0.0000   -0.0000    0.0000   -0.0000    0.0000    0.0006
       93 MO     8f2-      -0.0000   -0.0000   -0.0000   -0.0000    0.0000   -0.0000    0.0000   -0.0000    0.0000    0.0004
       94 MO     9f2-       0.0000    0.0000    0.0000    0.0000   -0.0000    0.0000   -0.0000    0.0000    0.0000   -0.0015
       95 MO     4f1-       0.0000    0.0000    0.0000    0.0000   -0.0000    0.0000   -0.0000    0.0000    0.0000    0.0000
       96 MO     5f1-       0.0000    0.0000    0.0000    0.0000   -0.0000    0.0000   -0.0000    0.0000    0.0000    0.0000
       97 MO     6f1-      -0.0000   -0.0000   -0.0000   -0.0000    0.0000   -0.0000    0.0000   -0.0000   -0.0000   -0.0000
       98 MO     7f1-       0.0000    0.0000    0.0000    0.0000   -0.0000    0.0000   -0.0000    0.0000    0.0000    0.0000
       99 MO     8f1-       0.0000    0.0000    0.0000    0.0000   -0.0000    0.0000   -0.0000    0.0000    0.0000    0.0000
      100 MO     9f1-       0.0000   -0.0000   -0.0000   -0.0000    0.0000   -0.0000    0.0000   -0.0000   -0.0000   -0.0000
      101 MO     4f0        0.0000    0.0000    0.0000   -0.0000    0.0000    0.0000    0.0000    0.0000    0.0000   -0.0000
      102 MO     5f0       -0.0000   -0.0000    0.0000   -0.0000    0.0000   -0.0000    0.0000    0.0000    0.0000   -0.0000
      103 MO     6f0       -0.0000   -0.0000   -0.0000    0.0000   -0.0000   -0.0000   -0.0000   -0.0000   -0.0000    0.0000
      104 MO     7f0       -0.0000   -0.0000    0.0000   -0.0000    0.0000   -0.0000    0.0000    0.0000    0.0000   -0.0000
      105 MO     8f0       -0.0000   -0.0000    0.0000   -0.0000    0.0000   -0.0000    0.0000    0.0000    0.0000   -0.0000
      106 MO     9f0       -0.0000   -0.0000   -0.0000    0.0000   -0.0000   -0.0000   -0.0000   -0.0000   -0.0000    0.0000
      107 MO     4f1+      -0.0000   -0.0000   -0.0000    0.0000    0.0000   -0.0000    0.0000    0.0000    0.0000   -0.0000
      108 MO     5f1+       0.0000    0.0000   -0.0000    0.0000    0.0000   -0.0000    0.0000    0.0000    0.0000   -0.0000
      109 MO     6f1+       0.0000    0.0000    0.0000   -0.0000   -0.0000    0.0000   -0.0000   -0.0000   -0.0000    0.0000
      110 MO     7f1+       0.0000    0.0000    0.0000   -0.0000    0.0000   -0.0000    0.0000    0.0000    0.0000   -0.0000
      111 MO     8f1+       0.0000   -0.0000   -0.0000    0.0000    0.0000   -0.0000   -0.0000   -0.0000    0.0000   -0.0000
      112 MO     9f1+      -0.0000    0.0000    0.0000   -0.0000   -0.0000    0.0000    0.0000    0.0000   -0.0000    0.0000
      113 MO     4f2+       0.0000    0.0000   -0.0000    0.0000   -0.0000    0.0000   -0.0000   -0.0000    0.0000   -0.0000
      114 MO     5f2+      -0.0000   -0.0000   -0.0000    0.0000   -0.0000    0.0000   -0.0000   -0.0000    0.0000   -0.0000
      115 MO     6f2+      -0.0000   -0.0000    0.0000   -0.0000    0.0000   -0.0000    0.0000    0.0000    0.0000    0.0000
      116 MO     7f2+      -0.0000   -0.0000   -0.0000    0.0000    0.0000   -0.0000   -0.0000   -0.0000    0.0000   -0.0000
      117 MO     8f2+      -0.0000   -0.0000   -0.0000    0.0000   -0.0000    0.0000   -0.0000   -0.0000   -0.0000   -0.0000
      118 MO     9f2+      -0.0000   -0.0000    0.0000   -0.0000    0.0000   -0.0000    0.0000    0.0000    0.0000    0.0000
      119 MO     4f3+       0.0000    0.0000    0.0000   -0.0000   -0.0000    0.0000    0.0000    0.0000   -0.0000   -0.0000
      120 MO     5f3+      -0.0000   -0.0000    0.0000   -0.0000   -0.0000    0.0000    0.0000    0.0000   -0.0000   -0.0000
      121 MO     6f3+      -0.0000   -0.0000   -0.0000    0.0000    0.0000   -0.0000   -0.0000   -0.0000    0.0000    0.0000
      122 MO     7f3+      -0.0000   -0.0000    0.0000   -0.0000   -0.0000    0.0000    0.0000    0.0000   -0.0000   -0.0000
      123 MO     8f3+      -0.0000    0.0000    0.0000   -0.0000   -0.0000    0.0000    0.0000    0.0000   -0.0000   -0.0000
      124 MO     9f3+       0.0000   -0.0000   -0.0000    0.0000    0.0000   -0.0000   -0.0000   -0.0000    0.0000    0.0000
      125 MO     5g4-      -0.0000    0.0000    0.0000    0.0000   -0.0000    0.0000   -0.0000    0.0000    0.0000    0.0000
      126 MO     6g4-       0.0000   -0.0000   -0.0000   -0.0000    0.0000   -0.0000    0.0000   -0.0000   -0.0000   -0.0000
      127 MO     7g4-      -0.0000    0.0000    0.0000    0.0000   -0.0000    0.0000   -0.0000    0.0000    0.0000    0.0000
      128 MO     8g4-       0.0000   -0.0000   -0.0000   -0.0000    0.0000   -0.0000    0.0000   -0.0000   -0.0000   -0.0000
      129 MO     5g3-       0.0000    0.0000   -0.0000   -0.0000   -0.0000    0.0000    0.0000   -0.0000   -0.0000   -0.0000
      130 MO     6g3-      -0.0000   -0.0000    0.0000    0.0000   -0.0000   -0.0000   -0.0000    0.0000    0.0000    0.0000
      131 MO     7g3-       0.0000    0.0000    0.0000    0.0000   -0.0000    0.0000   -0.0000    0.0000   -0.0000   -0.0000
      132 MO     8g3-      -0.0000   -0.0000    0.0000    0.0000   -0.0000   -0.0000   -0.0000    0.0000    0.0000    0.0000
      133 MO     5g2-       0.0000   -0.0000   -0.0000   -0.0000    0.0000   -0.0000    0.0000   -0.0000   -0.0000   -0.0000
      134 MO     6g2-       0.0000    0.0000    0.0000    0.0000   -0.0000    0.0000   -0.0000    0.0000   -0.0000    0.0000
      135 MO     7g2-      -0.0000   -0.0000   -0.0000   -0.0000    0.0000   -0.0000    0.0000   -0.0000    0.0000   -0.0000
      136 MO     8g2-       0.0000    0.0000    0.0000    0.0000   -0.0000    0.0000   -0.0000    0.0000   -0.0000    0.0000
      137 MO     5g1-       0.0000   -0.0000    0.0000    0.0000   -0.0000    0.0000   -0.0000    0.0000   -0.0000    0.0000
      138 MO     6g1-      -0.0000    0.0000   -0.0000   -0.0000   -0.0000   -0.0000    0.0000   -0.0000    0.0000   -0.0000
      139 MO     7g1-       0.0000   -0.0000    0.0000    0.0000    0.0000    0.0000   -0.0000    0.0000   -0.0000    0.0000
      140 MO     8g1-      -0.0000    0.0000   -0.0000   -0.0000   -0.0000   -0.0000    0.0000   -0.0000    0.0000   -0.0000
      141 MO     5g0       -0.0000   -0.0000   -0.0000    0.0000    0.0000   -0.0000   -0.0000   -0.0000    0.0000   -0.0000
      142 MO     6g0       -0.0000   -0.0000    0.0000   -0.0000   -0.0000    0.0000    0.0000    0.0000   -0.0000    0.0000
      143 MO     7g0       -0.0000   -0.0000    0.0000   -0.0000    0.0000   -0.0000    0.0000    0.0000    0.0000   -0.0000
      144 MO     8g0       -0.0000   -0.0000    0.0000   -0.0000   -0.0000   -0.0000    0.0000    0.0000   -0.0000    0.0000
      145 MO     5g1+       0.0000    0.0000   -0.0000    0.0000    0.0000    0.0000   -0.0000   -0.0000    0.0000   -0.0000
      146 MO     6g1+       0.0000    0.0000    0.0000   -0.0000   -0.0000   -0.0000    0.0000    0.0000   -0.0000    0.0000
      147 MO     7g1+       0.0000    0.0000   -0.0000    0.0000   -0.0000    0.0000   -0.0000   -0.0000   -0.0000   -0.0000
      148 MO     8g1+       0.0000    0.0000    0.0000   -0.0000   -0.0000   -0.0000    0.0000    0.0000   -0.0000    0.0000
      149 MO     5g2+       0.0000    0.0000    0.0000   -0.0000   -0.0000    0.0000    0.0000    0.0000   -0.0000    0.0000
      150 MO     6g2+       0.0000    0.0000   -0.0000    0.0000    0.0000   -0.0000   -0.0000   -0.0000    0.0000   -0.0000
      151 MO     7g2+       0.0000    0.0000    0.0000   -0.0000   -0.0000    0.0000    0.0000    0.0000   -0.0000    0.0000
      152 MO     8g2+       0.0000    0.0000   -0.0000    0.0000    0.0000    0.0000   -0.0000   -0.0000    0.0000   -0.0000
      153 MO     5g3+       0.0000    0.0000    0.0000   -0.0000    0.0000    0.0000    0.0000    0.0000    0.0000    0.0000
      154 MO     6g3+       0.0000    0.0000   -0.0000    0.0000   -0.0000   -0.0000   -0.0000   -0.0000   -0.0000   -0.0000
      155 MO     7g3+       0.0000    0.0000    0.0000   -0.0000   -0.0000    0.0000    0.0000    0.0000   -0.0000    0.0000
      156 MO     8g3+       0.0000    0.0000   -0.0000    0.0000   -0.0000   -0.0000   -0.0000   -0.0000   -0.0000   -0.0000
      157 MO     5g4+      -0.0000   -0.0000    0.0000   -0.0000    0.0000   -0.0000    0.0000    0.0000    0.0000    0.0000
      158 MO     6g4+      -0.0000   -0.0000   -0.0000    0.0000   -0.0000    0.0000   -0.0000   -0.0000   -0.0000   -0.0000
      159 MO     7g4+      -0.0000   -0.0000   -0.0000    0.0000    0.0000   -0.0000   -0.0000   -0.0000    0.0000    0.0000
      160 MO     8g4+      -0.0000   -0.0000   -0.0000    0.0000   -0.0000   -0.0000   -0.0000   -0.0000   -0.0000   -0.0000
      161 MO     6h5-      -0.0000   -0.0000   -0.0000   -0.0000   -0.0000   -0.0000    0.0000   -0.0000    0.0000    0.0000
      162 MO     7h5-       0.0000    0.0000    0.0000    0.0000    0.0000    0.0000   -0.0000    0.0000   -0.0000   -0.0000
      163 MO     6h4-       0.0000    0.0000    0.0000    0.0000   -0.0000   -0.0000   -0.0000    0.0000    0.0000    0.0000
      164 MO     7h4-       0.0000   -0.0000   -0.0000   -0.0000    0.0000   -0.0000    0.0000   -0.0000   -0.0000   -0.0000
      165 MO     6h3-      -0.0000   -0.0000    0.0000    0.0000   -0.0000   -0.0000   -0.0000    0.0000    0.0000   -0.0000
      166 MO     7h3-       0.0000    0.0000   -0.0000   -0.0000    0.0000    0.0000    0.0000   -0.0000   -0.0000    0.0000
      167 MO     6h2-      -0.0000    0.0000    0.0000    0.0000   -0.0000   -0.0000   -0.0000    0.0000    0.0000   -0.0000
      168 MO     7h2-      -0.0000   -0.0000   -0.0000   -0.0000    0.0000   -0.0000    0.0000   -0.0000   -0.0000    0.0000
      169 MO     6h1-      -0.0000   -0.0000   -0.0000   -0.0000   -0.0000   -0.0000    0.0000   -0.0000    0.0000   -0.0000
      170 MO     7h1-       0.0000    0.0000    0.0000    0.0000    0.0000    0.0000   -0.0000    0.0000   -0.0000    0.0000
      171 MO     6h0        0.0000    0.0000   -0.0000    0.0000   -0.0000   -0.0000   -0.0000   -0.0000   -0.0000    0.0000
      172 MO     7h0        0.0000    0.0000    0.0000   -0.0000    0.0000    0.0000    0.0000    0.0000    0.0000   -0.0000
      173 MO     6h1+      -0.0000   -0.0000    0.0000   -0.0000   -0.0000    0.0000    0.0000    0.0000   -0.0000    0.0000
      174 MO     7h1+      -0.0000   -0.0000   -0.0000    0.0000    0.0000   -0.0000   -0.0000   -0.0000    0.0000   -0.0000
      175 MO     6h2+      -0.0000   -0.0000    0.0000   -0.0000    0.0000    0.0000    0.0000    0.0000    0.0000   -0.0000
      176 MO     7h2+      -0.0000   -0.0000   -0.0000    0.0000   -0.0000   -0.0000   -0.0000   -0.0000   -0.0000    0.0000
      177 MO     6h3+       0.0000    0.0000    0.0000   -0.0000    0.0000   -0.0000    0.0000    0.0000    0.0000   -0.0000
      178 MO     7h3+       0.0000    0.0000   -0.0000    0.0000   -0.0000    0.0000   -0.0000   -0.0000   -0.0000    0.0000
      179 MO     6h4+      -0.0000   -0.0000   -0.0000    0.0000    0.0000    0.0000   -0.0000   -0.0000    0.0000    0.0000
      180 MO     7h4+      -0.0000   -0.0000    0.0000   -0.0000   -0.0000   -0.0000    0.0000    0.0000   -0.0000   -0.0000
      181 MO     6h5+      -0.0000   -0.0000    0.0000   -0.0000   -0.0000    0.0000    0.0000    0.0000   -0.0000   -0.0000
      182 MO     7h5+      -0.0000   -0.0000    0.0000   -0.0000    0.0000   -0.0000    0.0000    0.0000    0.0000    0.0000

          Orbital           11        12        13        14    
          Energy          -33.4993  -33.4971  -33.4971  -33.4964
          Occ. No.          0.0000    0.0000    0.0000    0.0000

        1 MO     1s        -0.0000    0.0000    0.0000    0.0000
        2 MO     2s        -0.0000   -0.0000   -0.0000    0.0000
        3 MO     3s        -0.0000   -0.0000   -0.0000    0.0003
        4 MO     4s         0.0000   -0.0000   -0.0000   -0.0001
        5 MO     5s        -0.0000    0.0000    0.0000    0.0000
        6 MO     6s         0.0000   -0.0000   -0.0000   -0.0000
        7 MO     7s        -0.0000    0.0000    0.0000    0.0001
        8 MO     8s         0.0000    0.0000   -0.0000   -0.0000
        9 MO     9s        -0.0000   -0.0000    0.0000    0.0000
       10 MO    10s         0.0000    0.0000    0.0000   -0.0000
       11 MO     2px       -0.0000    0.0000    0.0000   -0.0003
       12 MO     3px       -0.0000    0.0000    0.0000   -0.0103
       13 MO     4px        0.0000   -0.0000   -0.0000    0.0020
       14 MO     5px       -0.0000    0.0000    0.0000   -0.0006
       15 MO     6px        0.0000   -0.0000   -0.0000    0.0015
       16 MO     7px       -0.0000    0.0000    0.0000   -0.0012
       17 MO     8px        0.0000   -0.0000   -0.0000    0.0012
       18 MO     9px       -0.0000    0.0000    0.0000   -0.0009
       19 MO    10px        0.0000   -0.0000   -0.0000    0.0004
       20 MO     2py        0.0000    0.0000   -0.0002    0.0000
       21 MO     3py        0.0000    0.0000   -0.0088    0.0000
       22 MO     4py       -0.0000   -0.0000    0.0017   -0.0000
       23 MO     5py        0.0000    0.0000   -0.0006    0.0000
       24 MO     6py       -0.0000   -0.0000    0.0013   -0.0000
       25 MO     7py        0.0000    0.0000   -0.0010    0.0000
       26 MO     8py       -0.0000   -0.0000    0.0010   -0.0000
       27 MO     9py        0.0000    0.0000   -0.0007    0.0000
       28 MO    10py       -0.0000   -0.0000    0.0003   -0.0000
       29 MO     2pz       -0.0000   -0.0002   -0.0000   -0.0000
       30 MO     3pz       -0.0000   -0.0088   -0.0000   -0.0000
       31 MO     4pz        0.0000    0.0017    0.0000    0.0000
       32 MO     5pz       -0.0000   -0.0006   -0.0000   -0.0000
       33 MO     6pz        0.0000    0.0013    0.0000    0.0000
       34 MO     7pz       -0.0000   -0.0010   -0.0000   -0.0000
       35 MO     8pz        0.0000    0.0010    0.0000    0.0000
       36 MO     9pz       -0.0000   -0.0007   -0.0000   -0.0000
       37 MO    10pz        0.0000    0.0003    0.0000    0.0000
       38 MO     3d2-      -0.0000   -0.0000    0.9756   -0.0000
       39 MO     4d2-       0.0000    0.0000   -0.0981    0.0000
       40 MO     5d2-      -0.0000   -0.0000    0.1046   -0.0000
       41 MO     6d2-       0.0000    0.0000   -0.0889    0.0000
       42 MO     7d2-      -0.0000   -0.0000    0.0775   -0.0000
       43 MO     8d2-       0.0000    0.0000   -0.0794    0.0000
       44 MO     9d2-      -0.0000   -0.0000    0.0604   -0.0000
       45 MO    10d2-       0.0000    0.0000   -0.0592    0.0000
       46 MO    11d2-      -0.0000   -0.0000    0.0088   -0.0000
       47 MO     3d1-       0.0000   -0.0000    0.0041   -0.0000
       48 MO     4d1-      -0.0000    0.0000   -0.0004    0.0000
       49 MO     5d1-       0.0000   -0.0000    0.0004   -0.0000
       50 MO     6d1-      -0.0000    0.0000   -0.0004    0.0000
       51 MO     7d1-       0.0000   -0.0000    0.0003   -0.0000
       52 MO     8d1-      -0.0000    0.0000   -0.0003    0.0000
       53 MO     9d1-       0.0000   -0.0000    0.0003   -0.0000
       54 MO    10d1-      -0.0000    0.0000   -0.0002    0.0000
       55 MO    11d1-       0.0000   -0.0000    0.0000   -0.0000
       56 MO     3d0        0.8450    0.0007    0.0000   -0.4878
       57 MO     4d0       -0.0850   -0.0001   -0.0000    0.0491
       58 MO     5d0        0.0906    0.0001    0.0000   -0.0523
       59 MO     6d0       -0.0770   -0.0001   -0.0000    0.0445
       60 MO     7d0        0.0671    0.0001    0.0000   -0.0387
       61 MO     8d0       -0.0687   -0.0001   -0.0000    0.0397
       62 MO     9d0        0.0523    0.0000    0.0000   -0.0302
       63 MO    10d0       -0.0512   -0.0000   -0.0000    0.0296
       64 MO    11d0        0.0077    0.0000    0.0000   -0.0044
       65 MO     3d1+       0.0008    0.9756    0.0000    0.0028
       66 MO     4d1+      -0.0001   -0.0981   -0.0000   -0.0003
       67 MO     5d1+       0.0001    0.1046    0.0000    0.0003
       68 MO     6d1+      -0.0001   -0.0889   -0.0000   -0.0003
       69 MO     7d1+       0.0001    0.0775    0.0000    0.0002
       70 MO     8d1+      -0.0001   -0.0794   -0.0000   -0.0002
       71 MO     9d1+       0.0000    0.0604    0.0000    0.0002
       72 MO    10d1+      -0.0000   -0.0592   -0.0000   -0.0002
       73 MO    11d1+       0.0000    0.0088    0.0000    0.0000
       74 MO     3d2+       0.4879   -0.0028   -0.0000    0.8449
       75 MO     4d2+      -0.0491    0.0003    0.0000   -0.0850
       76 MO     5d2+       0.0523   -0.0003   -0.0000    0.0906
       77 MO     6d2+      -0.0444    0.0003    0.0000   -0.0770
       78 MO     7d2+       0.0387   -0.0002   -0.0000    0.0671
       79 MO     8d2+      -0.0397    0.0002    0.0000   -0.0687
       80 MO     9d2+       0.0302   -0.0002   -0.0000    0.0523
       81 MO    10d2+      -0.0296    0.0002    0.0000   -0.0512
       82 MO    11d2+       0.0044   -0.0000   -0.0000    0.0077
       83 MO     4f3-      -0.0000   -0.0000    0.0007   -0.0000
       84 MO     5f3-      -0.0000   -0.0000    0.0008   -0.0000
       85 MO     6f3-       0.0000    0.0000   -0.0008    0.0000
       86 MO     7f3-      -0.0000   -0.0000    0.0007   -0.0000
       87 MO     8f3-      -0.0000   -0.0000    0.0004   -0.0000
       88 MO     9f3-       0.0000    0.0000   -0.0018    0.0000
       89 MO     4f2-       0.0000   -0.0000    0.0000   -0.0000
       90 MO     5f2-       0.0000   -0.0000    0.0000   -0.0000
       91 MO     6f2-      -0.0000    0.0000   -0.0000    0.0000
       92 MO     7f2-       0.0000   -0.0000    0.0000   -0.0000
       93 MO     8f2-       0.0000   -0.0000    0.0000   -0.0000
       94 MO     9f2-      -0.0000    0.0000   -0.0000    0.0000
       95 MO     4f1-       0.0000    0.0000   -0.0002    0.0000
       96 MO     5f1-       0.0000    0.0000   -0.0002    0.0000
       97 MO     6f1-      -0.0000   -0.0000    0.0002   -0.0000
       98 MO     7f1-       0.0000    0.0000   -0.0002    0.0000
       99 MO     8f1-       0.0000    0.0000   -0.0001    0.0000
      100 MO     9f1-      -0.0000   -0.0000    0.0005   -0.0000
      101 MO     4f0       -0.0000   -0.0005   -0.0000   -0.0000
      102 MO     5f0        0.0000   -0.0005   -0.0000   -0.0000
      103 MO     6f0        0.0000    0.0005    0.0000    0.0000
      104 MO     7f0        0.0000   -0.0005   -0.0000   -0.0000
      105 MO     8f0        0.0000   -0.0003   -0.0000   -0.0000
      106 MO     9f0       -0.0000    0.0011    0.0000    0.0000
      107 MO     4f1+       0.0005    0.0000    0.0000   -0.0005
      108 MO     5f1+       0.0005    0.0000    0.0000   -0.0006
      109 MO     6f1+      -0.0005   -0.0000   -0.0000    0.0006
      110 MO     7f1+       0.0005    0.0000    0.0000   -0.0005
      111 MO     8f1+       0.0003    0.0000    0.0000   -0.0003
      112 MO     9f1+      -0.0012   -0.0000   -0.0000    0.0012
      113 MO     4f2+       0.0000    0.0006    0.0000    0.0000
      114 MO     5f2+       0.0000    0.0007    0.0000    0.0000
      115 MO     6f2+      -0.0000   -0.0007   -0.0000   -0.0000
      116 MO     7f2+       0.0000    0.0006    0.0000    0.0000
      117 MO     8f2+       0.0000    0.0004    0.0000    0.0000
      118 MO     9f2+      -0.0000   -0.0015   -0.0000   -0.0000
      119 MO     4f3+       0.0004   -0.0000   -0.0000    0.0006
      120 MO     5f3+       0.0004   -0.0000   -0.0000    0.0007
      121 MO     6f3+      -0.0004    0.0000    0.0000   -0.0007
      122 MO     7f3+       0.0004   -0.0000   -0.0000    0.0006
      123 MO     8f3+       0.0002   -0.0000   -0.0000    0.0004
      124 MO     9f3+      -0.0009    0.0000    0.0000   -0.0016
      125 MO     5g4-       0.0000    0.0000   -0.0000    0.0000
      126 MO     6g4-      -0.0000   -0.0000    0.0000   -0.0000
      127 MO     7g4-       0.0000    0.0000   -0.0000    0.0000
      128 MO     8g4-      -0.0000   -0.0000    0.0000   -0.0000
      129 MO     5g3-      -0.0000    0.0000   -0.0000    0.0000
      130 MO     6g3-       0.0000   -0.0000    0.0000    0.0000
      131 MO     7g3-      -0.0000    0.0000   -0.0000   -0.0000
      132 MO     8g3-       0.0000   -0.0000    0.0000   -0.0000
      133 MO     5g2-      -0.0000   -0.0000    0.0000   -0.0000
      134 MO     6g2-       0.0000    0.0000   -0.0000    0.0000
      135 MO     7g2-      -0.0000   -0.0000    0.0000   -0.0000
      136 MO     8g2-       0.0000    0.0000   -0.0000    0.0000
      137 MO     5g1-       0.0000   -0.0000    0.0000   -0.0000
      138 MO     6g1-      -0.0000    0.0000   -0.0000    0.0000
      139 MO     7g1-       0.0000   -0.0000    0.0000   -0.0000
      140 MO     8g1-      -0.0000    0.0000   -0.0000    0.0000
      141 MO     5g0        0.0000    0.0000    0.0000   -0.0000
      142 MO     6g0       -0.0000   -0.0000   -0.0000    0.0000
      143 MO     7g0        0.0000    0.0000    0.0000   -0.0000
      144 MO     8g0       -0.0000   -0.0000   -0.0000    0.0000
      145 MO     5g1+       0.0000    0.0000    0.0000    0.0000
      146 MO     6g1+      -0.0000   -0.0000   -0.0000   -0.0000
      147 MO     7g1+       0.0000    0.0000    0.0000    0.0000
      148 MO     8g1+      -0.0000   -0.0000   -0.0000   -0.0000
      149 MO     5g2+      -0.0000    0.0000    0.0000    0.0000
      150 MO     6g2+       0.0000   -0.0000   -0.0000   -0.0000
      151 MO     7g2+      -0.0000    0.0000    0.0000    0.0000
      152 MO     8g2+       0.0000   -0.0000   -0.0000   -0.0000
      153 MO     5g3+      -0.0000   -0.0000   -0.0000   -0.0000
      154 MO     6g3+       0.0000    0.0000    0.0000    0.0000
      155 MO     7g3+      -0.0000   -0.0000   -0.0000   -0.0000
      156 MO     8g3+       0.0000    0.0000    0.0000    0.0000
      157 MO     5g4+      -0.0000    0.0000    0.0000   -0.0000
      158 MO     6g4+       0.0000   -0.0000   -0.0000    0.0000
      159 MO     7g4+      -0.0000    0.0000    0.0000   -0.0000
      160 MO     8g4+       0.0000   -0.0000   -0.0000    0.0000
      161 MO     6h5-       0.0000   -0.0000    0.0000   -0.0000
      162 MO     7h5-      -0.0000    0.0000   -0.0000    0.0000
      163 MO     6h4-       0.0000   -0.0000    0.0000    0.0000
      164 MO     7h4-      -0.0000   -0.0000    0.0000    0.0000
      165 MO     6h3-      -0.0000    0.0000   -0.0000   -0.0000
      166 MO     7h3-       0.0000   -0.0000    0.0000    0.0000
      167 MO     6h2-      -0.0000   -0.0000    0.0000   -0.0000
      168 MO     7h2-       0.0000    0.0000   -0.0000   -0.0000
      169 MO     6h1-      -0.0000   -0.0000    0.0000   -0.0000
      170 MO     7h1-       0.0000    0.0000   -0.0000    0.0000
      171 MO     6h0       -0.0000    0.0000    0.0000   -0.0000
      172 MO     7h0        0.0000   -0.0000   -0.0000    0.0000
      173 MO     6h1+      -0.0000   -0.0000   -0.0000    0.0000
      174 MO     7h1+       0.0000    0.0000    0.0000   -0.0000
      175 MO     6h2+       0.0000   -0.0000   -0.0000   -0.0000
      176 MO     7h2+      -0.0000    0.0000    0.0000    0.0000
      177 MO     6h3+       0.0000    0.0000    0.0000   -0.0000
      178 MO     7h3+      -0.0000   -0.0000   -0.0000    0.0000
      179 MO     6h4+      -0.0000    0.0000    0.0000    0.0000
      180 MO     7h4+       0.0000   -0.0000   -0.0000   -0.0000
      181 MO     6h5+       0.0000    0.0000    0.0000    0.0000
      182 MO     7h5+      -0.0000   -0.0000   -0.0000   -0.0000
--


++    Molecular charges:
      ------------------

      Mulliken charges per centre and basis function type
      ---------------------------------------------------

                MO    
      1s       2.0000
      2s       2.0000
      2px      2.0000
      2pz      2.0000
      2py      2.0000
      3s       1.9565
      3px      1.9406
      3pz      1.9408
      3py      1.9408
      4s       0.0198
      3d2+     0.0002
      3d1+     0.0002
      3d0      0.0001
      3d1-     0.0000
      3d2-     0.0002
      4px      0.0230
      4pz      0.0230
      4py      0.0230
      5s       0.0009
      4d2+     0.0000
      4d1+     0.0000
      4d0      0.0000
      4d1-     0.0000
      4d2-     0.0000
      5px      0.0024
      5pz      0.0023
      5py      0.0023
      6s       0.0013
      4f3+     0.0000
      4f2+     0.0000
      4f1+     0.0000
      4f0      0.0000
      4f1-     0.0000
      4f2-     0.0000
      4f3-     0.0000
      5d2+     0.0000
      5d1+     0.0000
      5d0      0.0000
      5d1-     0.0000
      5d2-     0.0000
      6px      0.0125
      6pz      0.0125
      6py      0.0125
      7s       0.0096
      5f3+     0.0000
      5f2+     0.0000
      5f1+     0.0000
      5f0      0.0000
      5f1-     0.0000
      5f2-     0.0000
      5f3-     0.0000
      6d2+     0.0000
      6d1+     0.0000
      6d0      0.0000
      6d1-     0.0000
      6d2-     0.0000
      7px      0.0080
      7pz      0.0080
      7py      0.0080
      5g4+     0.0000
      5g3+     0.0000
      5g2+     0.0000
      5g1+     0.0000
      5g0      0.0000
      5g1-     0.0000
      5g2-     0.0000
      5g3-     0.0000
      5g4-     0.0000
      6f3+     0.0000
      6f2+     0.0000
      6f1+     0.0000
      6f0      0.0000
      6f1-     0.0000
      6f2-     0.0000
      6f3-     0.0000
      6g4+     0.0000
      6g3+     0.0000
      6g2+     0.0000
      6g1+     0.0000
      6g0      0.0000
      6g1-     0.0000
      6g2-     0.0000
      6g3-     0.0000
      6g4-     0.0000
      6h5+     0.0000
      6h4+     0.0000
      6h3+     0.0000
      6h2+     0.0000
      6h1+     0.0000
      6h0      0.0000
      6h1-     0.0000
      6h2-     0.0000
      6h3-     0.0000
      6h4-     0.0000
      6h5-     0.0000
      7d2+     0.0000
      7d1+     0.0000
      7d0      0.0000
      7d1-     0.0000
      7d2-     0.0000
      7f3+     0.0000
      7f2+     0.0000
      7f1+     0.0000
      7f0      0.0000
      7f1-     0.0000
      7f2-     0.0000
      7f3-     0.0000
      7g4+     0.0000
      7g3+     0.0000
      7g2+     0.0000
      7g1+     0.0000
      7g0      0.0000
      7g1-     0.0000
      7g2-     0.0000
      7g3-     0.0000
      7g4-     0.0000
      7h5+     0.0000
      7h4+     0.0000
      7h3+     0.0000
      7h2+     0.0000
      7h1+     0.0000
      7h0      0.0000
      7h1-     0.0000
      7h2-     0.0000
      7h3-     0.0000
      7h4-     0.0000
      7h5-     0.0000
      8s       0.0056
      8px      0.0080
      8pz      0.0080
      8py      0.0080
      8d2+     0.0000
      8d1+     0.0000
      8d0      0.0000
      8d1-     0.0000
      8d2-     0.0000
      8f3+     0.0000
      8f2+     0.0000
      8f1+     0.0000
      8f0      0.0000
      8f1-     0.0000
      8f2-     0.0000
      8f3-     0.0000
      8g4+     0.0000
      8g3+     0.0000
      8g2+     0.0000
      8g1+     0.0000
      8g0      0.0000
      8g1-     0.0000
      8g2-     0.0000
      8g3-     0.0000
      8g4-     0.0000
      9s       0.0043
      9px      0.0043
      9pz      0.0043
      9py      0.0043
      9d2+     0.0000
      9d1+     0.0000
      9d0      0.0000
      9d1-     0.0000
      9d2-     0.0000
      9f3+     0.0000
      9f2+     0.0000
      9f1+     0.0000
      9f0      0.0000
      9f1-     0.0000
      9f2-     0.0000
      9f3-     0.0000
     10s       0.0020
     10px      0.0009
     10pz      0.0009
     10py      0.0009
     10d2+     0.0000
     10d1+     0.0000
     10d0      0.0000
     10d1-     0.0000
     10d2-     0.0000
     11d2+     0.0000
     11d1+     0.0000
     11d0      0.0000
     11d1-     0.0000
     11d2-     0.0000
      Total   18.0000

      N-E     24.0000

      Total electronic charge=   18.000000

      Total            charge=   24.000000
--

 Sorry, Molden does not know how to handle
 functions with angular momentum larger than g

++    Static properties:
      ------------------


      LoProp Charges per center


                   MO    
      Nuclear     42.0000
      Electronic -18.0000

      Total       24.0000
--


++    Molecular properties:
      ---------------------

      Charge (e):
                      =   24.0000
      Dipole Moment (Debye):
      Origin of the operator (Ang)=    0.0000    0.0000    0.0000
                   X= -5.3980E-02               Y= -1.8850E-13               Z=  5.3395E-01           Total=  5.3667E-01
      Center of Charge (Ang)
                     X=   -0.00046826               Y=   -0.00000000               Z=    0.00463192
      Quadrupole Moment (Debye*Ang):
      Origin of the operator (Ang)=   -0.0000   -0.0000    0.0046
                  XX= -6.7799E-01              XY=  6.3041E-18              XZ=  3.9173E-07              YY= -6.7818E-01
                  YZ=  9.7758E-16              ZZ= -6.7818E-01
      In traceless form (Debye*Ang)
                  XX=  1.8430E-04              XY=  9.4561E-18              XZ=  5.8760E-07              YY= -9.2143E-05
                  YZ=  1.4664E-15              ZZ= -9.2153E-05
--

 Sorry, Molden does not know how to handle
 functions with angular momentum larger than g
 ###############################################################################
 ###############################################################################
 ###                                                                         ###
 ###                                                                         ###
 ###    WARNING: RunFile label nBas                                          ###
 ###    was used       62 times                                              ###
 ###                                                                         ###
 ###                                                                         ###
 ###############################################################################
 ###############################################################################
Note: The following floating-point exceptions are signalling: IEEE_UNDERFLOW_FLAG IEEE_DENORMAL
--- Stop Module: scf at Wed Mar 26 16:02:21 2025 /rc=_RC_ALL_IS_WELL_ ---
*** files: molybdenum_so_cf.LprOrb molybdenum_so_cf.ScfOrb xmldump
    saved to directory /home4/s4752295/Internship/Initial_simulations/Point_charge_model/1_electron/Madelung_charges_9_active_space/Mo
--- Module scf spent 12 seconds ---

*** symbolic link created: INPORB -> molybdenum_so_cf.ScfOrb
--- Start Module: rasscf at Wed Mar 26 16:02:21 2025 ---

()()()()()()()()()()()()()()()()()()()()()()()()()()()()()()()()()()()()()()()()()()()()()()()()()()

                                              &RASSCF

                                   only a single process is used
                       available to each process: 4.1 GB of memory, 1 thread?
                                            pid: 1281647
()()()()()()()()()()()()()()()()()()()()()()()()()()()()()()()()()()()()()()()()()()()()()()()()()()


      Header of the ONEINT file:
      --------------------------
      
      Integrals generated by seward 4.2.0  , Wed Mar 26 16:01:57 2025


      OrdInt status: non-squared


      Cartesian coordinates in Angstrom:
      -----------------------------------------------------
      No.  Label        X            Y            Z        
      -----------------------------------------------------
       1   MO        -0.00000000  -0.00000000   0.00463220
      -----------------------------------------------------
      Nuclear repulsion energy = -256.17113946

++    Wave function specifications:
      -----------------------------

      Number of closed shell electrons          18
      Number of electrons in active shells       1
      Max number of holes in RAS1 space          0
      Max nr of electrons in RAS3 space          0
      Number of inactive orbitals                9
      Number of active orbitals                  9
      Number of secondary orbitals             164
      Spin quantum number                      0.5
      State symmetry                             1
--

++    Orbital specifications:
      -----------------------

      Symmetry species                           1
                                                 a
      Frozen orbitals                            0
      Inactive orbitals                          9
      Active orbitals                            9
      RAS1 orbitals                              0
      RAS2 orbitals                              9
      RAS3 orbitals                              0
      Secondary orbitals                       164
      Deleted orbitals                           0
      Number of basis functions                182
--

++    CI expansion specifications:
      ----------------------------

      Number of CSFs                             9
      Number of determinants                     9
      Number of root(s) required                 9
      Root chosen for geometry opt.              9
      CI roots used                              1     2     3     4     5     6     7     8     9
      weights                                0.111 0.111 0.111 0.111 0.111 0.111 0.111 0.111 0.111
      highest root included in the CI            9
      max. size of the explicit Hamiltonian      9
--

++    Optimization specifications:
      ----------------------------

      RASSCF algorithm: Conventional
      Maximum number of macro iterations       200
      Maximum number of SX iterations          100
      Threshold for RASSCF energy            0.100E-07
      Threshold for max MO rotation          0.100E+00
      Threshold for max BLB element          0.100E-03
      Level shift parameter                  0.500E+00
      Make Quasi-Newton update
--

      The MO-coefficients are taken from the file:
      INPORB                                                                                                                          
      Title: SCF orbitals                                                                  

      Total molecular charge   23.00

      ************************************************************************************************************************
      *                                                                                                                      *
      *                                            Wave function control section                                             *
      *                                                                                                                      *
      ************************************************************************************************************************


                                         RASSCF iterations: Energy and convergence statistics
                                         ----------------------------------------------------

      Iter CI   SX   CI       RASSCF       Energy    max ROT     max BLB   max BLB  Level Ln srch  Step   QN   Walltime
          iter iter root      energy       change     param      element    value   shift minimum  type update hh:mm:ss
 Nr of preliminary CI iterations:   1
      Total energies have been shifted. Add                -3000.00 au
        1   1    5    0  -856.02103856    0.00E+00   0.10E-01    8  17 1 -0.45E+00*  0.00   0.00    SX    NO    0:00:05
        2   1    5    0  -856.04533592   -0.24E-01* -0.22E-02    8 175 1  0.31E-01*  0.00   0.00    SX    NO    0:00:02
        3   1    4    0  -856.04545659   -0.12E-03* -0.16E-02    8 175 1 -0.27E-02*  0.00   0.00    SX    NO    0:00:02
        4   1    4    0  -856.04546572   -0.91E-05*  0.11E-02   10  19 1  0.14E-02*  0.00   0.00    SX    NO    0:00:02
        5   1    4    0  -856.04546860   -0.29E-05*  0.43E-03   10  19 1 -0.94E-03*  0.00   0.61    QN   YES    0:00:02
        6   1    4    0  -856.04547072   -0.21E-05*  0.62E-04   17  33 1  0.11E-03*  0.00   1.03    QN   YES    0:00:02
[...]
     9             0.0028879027        0.0785838359            633.8214         2.1
    10             0.0028879027        0.0785838359            633.8214         2.1
    11            15.9003375214      432.6702257350        3489720.7160         0.5
    12            15.9003375214      432.6702257350        3489720.7160         0.5
    13            17.3167050405      471.2115493641        3800577.4552         1.2
    14            17.3167050405      471.2115493641        3800577.4552         1.2
    15            17.3167066205      471.2115923585        3800577.8020         1.2
    16            17.3167066205      471.2115923585        3800577.8020         1.2
    17            17.3497524269      472.1108145612        3807830.5181         1.2
    18            17.3497524269      472.1108145612        3807830.5181         1.2


 Weights of the five most important spin-orbit-free states for each spin-orbit state.

 SO State  Total energy (au)           Spin-free states, spin, and weights
 -------------------------------------------------------------------------------------------------------
    1         0.000000       1 0.5  1.0000    9 0.5  0.0000    8 0.5  0.0000    7 0.5  0.0000    6 0.5  0.0000
    2         0.000000       1 0.5  1.0000    9 0.5  0.0000    8 0.5  0.0000    7 0.5  0.0000    6 0.5  0.0000
    3         0.000000       2 0.5  1.0000    9 0.5  0.0000    8 0.5  0.0000    7 0.5  0.0000    6 0.5  0.0000
    4         0.000000       2 0.5  1.0000    9 0.5  0.0000    8 0.5  0.0000    7 0.5  0.0000    6 0.5  0.0000
    5         0.002142       3 0.5  1.0000    9 0.5  0.0000    8 0.5  0.0000    7 0.5  0.0000    6 0.5  0.0000
    6         0.002142       3 0.5  1.0000    9 0.5  0.0000    8 0.5  0.0000    7 0.5  0.0000    6 0.5  0.0000
    7         0.002142       4 0.5  1.0000    9 0.5  0.0000    8 0.5  0.0000    7 0.5  0.0000    6 0.5  0.0000
    8         0.002142       4 0.5  1.0000    9 0.5  0.0000    8 0.5  0.0000    7 0.5  0.0000    6 0.5  0.0000
    9         0.002888       5 0.5  1.0000    9 0.5  0.0000    8 0.5  0.0000    7 0.5  0.0000    6 0.5  0.0000
   10         0.002888       5 0.5  1.0000    9 0.5  0.0000    8 0.5  0.0000    7 0.5  0.0000    6 0.5  0.0000
   11        15.900338       6 0.5  1.0000    9 0.5  0.0000    8 0.5  0.0000    7 0.5  0.0000    5 0.5  0.0000
   12        15.900338       6 0.5  1.0000    9 0.5  0.0000    8 0.5  0.0000    7 0.5  0.0000    5 0.5  0.0000
   13        17.316705       7 0.5  1.0000    9 0.5  0.0000    8 0.5  0.0000    6 0.5  0.0000    5 0.5  0.0000
   14        17.316705       7 0.5  1.0000    9 0.5  0.0000    8 0.5  0.0000    6 0.5  0.0000    5 0.5  0.0000
   15        17.316707       8 0.5  1.0000    9 0.5  0.0000    7 0.5  0.0000    6 0.5  0.0000    5 0.5  0.0000
   16        17.316707       8 0.5  1.0000    9 0.5  0.0000    7 0.5  0.0000    6 0.5  0.0000    5 0.5  0.0000
   17        17.349752       9 0.5  1.0000    8 0.5  0.0000    7 0.5  0.0000    6 0.5  0.0000    5 0.5  0.0000
   18        17.349752       9 0.5  1.0000    8 0.5  0.0000    7 0.5  0.0000    6 0.5  0.0000    5 0.5  0.0000
 -------------------------------------------------------------------------------------------------------


      ****************************************************************************************************
      *                                                                                                  *
      *                                    Special properties section                                    *
      *                                                                                                  *
      ****************************************************************************************************


++ Dipole transition strengths (SO states):
   ----------------------------------------
    for osc. strength at least    1.0000000000000001E-005

      From   To        Osc. strength     Einstein coefficients Ax, Ay, Az (sec-1)    Total A (sec-1)
     -----------------------------------------------------------------------------------------------
         1   13       1.70544485E-02  3.11767801E-05  1.64315137E+11  4.62608322E+01  1.64315137E+11
         1   15       1.70546566E-02  2.93550990E+06  4.62600747E+01  1.64314236E+11  1.64317171E+11
         2   14       1.70544485E-02  3.11767801E-05  1.64315137E+11  4.62608322E+01  1.64315137E+11
         2   16       1.70546566E-02  2.93550990E+06  4.62600747E+01  1.64314236E+11  1.64317171E+11
         3   13       1.70544107E-02  1.13012495E+05  4.62601241E+01  1.64314658E+11  1.64314771E+11
         3   15       1.70547378E-02  8.27186692E-04  1.64317953E+11  4.62598657E+01  1.64317953E+11
         4   14       1.70544107E-02  1.13012495E+05  4.62601241E+01  1.64314658E+11  1.64314771E+11
         4   16       1.70547378E-02  8.27186692E-04  1.64317953E+11  4.62598657E+01  1.64317953E+11
         5   11       2.29815073E-04  1.38597364E+04  3.29449782E-04  1.86629519E+09  1.86630904E+09
         5   13       1.71873649E-02  1.65554786E+11  2.77765101E-07  4.12014818E+03  1.65554791E+11
         5   17       1.67565101E-02  8.04478745E+05  2.86025945E-02  1.62020557E+11  1.62021361E+11
         6   12       2.29815073E-04  1.38597364E+04  3.29449782E-04  1.86629519E+09  1.86630904E+09
         6   14       1.71873649E-02  1.65554786E+11  2.77765101E-07  4.12014818E+03  1.65554791E+11
         6   18       1.67565101E-02  8.04478745E+05  2.86025945E-02  1.62020557E+11  1.62021361E+11
         7   11       2.29796633E-04  8.95531936E-11  1.86615924E+09  3.29475051E-04  1.86615924E+09
         7   15       1.71873318E-02  1.65551769E+11  3.91685559E-08  2.72796368E+06  1.65554497E+11
         7   17       1.67563469E-02  2.90688028E-08  1.62019779E+11  2.86030747E-02  1.62019779E+11
         8   12       2.29796633E-04  8.95531936E-11  1.86615924E+09  3.29475051E-04  1.86615924E+09
         8   16       1.71873318E-02  1.65551769E+11  3.91685559E-08  2.72796368E+06  1.65554497E+11
         8   18       1.67563469E-02  2.90688028E-08  1.62019779E+11  2.86030747E-02  1.62019779E+11
         9   11       3.10142199E-04  2.51839061E+09  2.59513238E-09  1.19398154E+04  2.51840255E+09
         9   13       5.64716223E-03  4.28772012E+05  2.45754528E-04  5.43903517E+10  5.43907805E+10
         9   15       5.64675551E-03  2.69418185E-07  5.43868731E+10  2.52436067E-04  5.43868731E+10
         9   17       2.25912584E-02  2.18418883E+11  2.22013041E-07  7.99255071E+05  2.18419682E+11
        10   12       3.10142199E-04  2.51839061E+09  2.59513238E-09  1.19398154E+04  2.51840255E+09
        10   14       5.64716223E-03  4.28772012E+05  2.45754528E-04  5.43903517E+10  5.43907805E+10
        10   16       5.64675551E-03  2.69418185E-07  5.43868731E+10  2.52436067E-04  5.43868731E+10
        10   18       2.25912584E-02  2.18418883E+11  2.22013041E-07  7.99255071E+05  2.18419682E+11
        11   13       1.84100451E-01  1.40667279E+04  5.43443116E-05  1.18663083E+10  1.18663224E+10
        11   15       1.84100397E-01  7.66575731E-11  1.18663454E+10  5.43444916E-05  1.18663454E+10
        11   17       1.81400757E-01  1.22442840E+10  5.85544887E-13  1.47548659E+04  1.22442987E+10
        12   14       1.84100451E-01  1.40667279E+04  5.43443116E-05  1.18663083E+10  1.18663224E+10
        12   16       1.84100397E-01  7.66575731E-11  1.18663454E+10  5.43444916E-05  1.18663454E+10
        12   18       1.81400757E-01  1.22442840E+10  5.85544887E-13  1.47548659E+04  1.22442987E+10
        13   17       5.23713123E-05  4.75602868E-03  8.41718348E-12  1.83770562E+03  1.83771038E+03
        14   18       5.23713123E-05  4.75602868E-03  8.41718348E-12  1.83770562E+03  1.83771038E+03
        15   17       5.23746332E-05  2.64373203E-17  1.83765118E+03  8.41494033E-12  1.83765118E+03
        16   18       5.23746332E-05  2.64373203E-17  1.83765118E+03  8.41494033E-12  1.83765118E+03
     -----------------------------------------------------------------------------------------------
--

++ Velocity transition strengths (SO states):
   ------------------------------------------
    for osc. strength at least    1.0000000000000001E-005

      From   To        Osc. strength     Einstein coefficients Ax, Ay, Az (sec-1)    Total A (sec-1)
     -----------------------------------------------------------------------------------------------
         1    3       3.95400681E-05  8.64268499E-25  6.21798656E-09  2.87914990E-23  6.21798656E-09
         1    5       2.76483324E-04  3.81945054E-15  4.07521561E+01  1.08151324E-08  4.07521561E+01
         1    7       2.76438888E-04  1.31308420E-05  1.08162526E-08  4.07542323E+01  4.07542455E+01
         1   13       1.62740364E-02  2.92989308E-05  1.56796616E+11  4.41440831E+01  1.56796616E+11
         1   15       1.62742318E-02  2.78968028E+06  4.41433592E+01  1.56795737E+11  1.56798527E+11
         2    4       3.95400681E-05  8.64268499E-25  6.21798656E-09  2.87914990E-23  6.21798656E-09
         2    6       2.76483324E-04  3.81945054E-15  4.07521561E+01  1.08151324E-08  4.07521561E+01
         2    8       2.76438888E-04  1.31308420E-05  1.08162526E-08  4.07542323E+01  4.07542455E+01
         2   14       1.62740364E-02  2.92989308E-05  1.56796616E+11  4.41440831E+01  1.56796616E+11
         2   16       1.62742318E-02  2.78968028E+06  4.41433592E+01  1.56795737E+11  1.56798527E+11
         3    5       2.76471949E-04  1.66001013E-05  1.08148750E-08  4.07478007E+01  4.07478173E+01
         3    7       2.76459896E-04  3.99550774E-15  4.07546802E+01  1.08153006E-08  4.07546802E+01
         3   13       1.62740019E-02  1.06223731E+05  4.41434041E+01  1.56796177E+11  1.56796283E+11
         3   15       1.62743133E-02  7.86098953E-04  1.56799311E+11  4.41431519E+01  1.56799311E+11
         4    6       2.76471949E-04  1.66001013E-05  1.08148750E-08  4.07478007E+01  4.07478173E+01
         4    8       2.76459896E-04  3.99550774E-15  4.07546802E+01  1.08153006E-08  4.07546802E+01
         4   14       1.62740019E-02  1.06223731E+05  4.41434041E+01  1.56796177E+11  1.56796283E+11
         4   16       1.62743133E-02  7.86098953E-04  1.56799311E+11  4.41431519E+01  1.56799311E+11
         5    9       2.41428024E-03  1.61937819E-05  7.63694179E-12  4.31775992E+01  4.31776154E+01
         5   11       2.20671676E-04  1.32975438E+04  3.16344998E-04  1.79204921E+09  1.79206251E+09
         5   13       1.63857836E-02  1.57834220E+11  2.65641616E-07  4.19036073E+03  1.57834224E+11
         5   17       1.59913879E-02  7.66239649E+05  2.72967921E-02  1.54623044E+11  1.54623810E+11
         6   10       2.41428024E-03  1.61937819E-05  7.63694179E-12  4.31775992E+01  4.31776154E+01
         6   12       2.20671676E-04  1.32975438E+04  3.16344998E-04  1.79204921E+09  1.79206251E+09
         6   14       1.63857836E-02  1.57834220E+11  2.65641616E-07  4.19036073E+03  1.57834224E+11
         6   18       1.59913879E-02  7.66239649E+05  2.72967921E-02  1.54623044E+11  1.54623810E+11
         7    9       2.41491669E-03  1.20248948E-17  4.31627153E+01  7.62290604E-12  4.31627153E+01
         7   11       2.20655504E-04  8.92867063E-11  1.79193112E+09  3.16371509E-04  1.79193112E+09
         7   15       1.63857611E-02  1.57831420E+11  3.74691433E-08  2.61177935E+06  1.57834032E+11
         7   17       1.59912379E-02  2.72497912E-08  1.54622356E+11  2.72972266E-02  1.54622356E+11
         8   10       2.41491669E-03  1.20248948E-17  4.31627153E+01  7.62290604E-12  4.31627153E+01
         8   12       2.20655504E-04  8.92867063E-11  1.79193112E+09  3.16371509E-04  1.79193112E+09
         8   16       1.63857611E-02  1.57831420E+11  3.74691433E-08  2.61177935E+06  1.57834032E+11
         8   18       1.59912379E-02  2.72497912E-08  1.54622356E+11  2.72972266E-02  1.54622356E+11
         9   11       2.97408755E-04  2.41500196E+09  2.47808978E-09  1.14554562E+04  2.41501341E+09
         9   13       5.39165903E-03  4.08539679E+05  2.34631659E-04  5.19296672E+10  5.19300758E+10
         9   15       5.39126691E-03  2.57436376E-07  5.19263085E+10  2.41008574E-04  5.19263085E+10
         9   17       2.15340959E-02  2.08198650E+11  2.12092130E-07  7.63123586E+05  2.08199413E+11
        10   12       2.97408755E-04  2.41500196E+09  2.47808978E-09  1.14554562E+04  2.41501341E+09
        10   14       5.39165903E-03  4.08539679E+05  2.34631659E-04  5.19296672E+10  5.19300758E+10
        10   16       5.39126691E-03  2.57436376E-07  5.19263085E+10  2.41008574E-04  5.19263085E+10
        10   18       2.15340959E-02  2.08198650E+11  2.12092130E-07  7.63123586E+05  2.08199413E+11
        11   13       1.70480700E-01  1.30234518E+04  5.03236439E-05  1.09884771E+10  1.09884901E+10
        11   15       1.70480655E-01  7.10836742E-11  1.09885117E+10  5.03235410E-05  1.09885117E+10
        11   17       1.67918978E-01  1.13343231E+10  5.43577316E-13  1.36611707E+04  1.13343368E+10
        12   14       1.70480700E-01  1.30234518E+04  5.03236439E-05  1.09884771E+10  1.09884901E+10
        12   16       1.70480655E-01  7.10836742E-11  1.09885117E+10  5.03235410E-05  1.09885117E+10
        12   18       1.67918978E-01  1.13343231E+10  5.43577316E-13  1.36611707E+04  1.13343368E+10
        13   17       1.98449734E-04  8.04375951E-03  3.19044439E-11  6.96362123E+03  6.96362927E+03
        14   18       1.98449734E-04  8.04375951E-03  3.19044439E-11  6.96362123E+03  6.96362927E+03
        15   17       1.98460564E-04  7.03795374E-18  6.96334343E+03  3.19156457E-11  6.96334343E+03
        16   18       1.98460564E-04  7.03795374E-18  6.96334343E+03  3.19156457E-11  6.96334343E+03
     -----------------------------------------------------------------------------------------------
--

++ Length and velocity gauge comparison (SO states):

 --------------------------------------------------
 A comparison between the dipole oscillator strengths in 
 length and velocity gauge will be performed

 All dipole oscillator differences above the tolerance of   0.10000000000000001       will be printed 

 Due to basis set deficiency these oscillator may be problematic 

 The tolerance is defined as ABS(1-O_l/O_v) 
 O_l : dipole oscillator strength in length gauge
 O_p : dipole oscillator strength in velocity gauge
 --------------------------------------------------

  Problematic transitions have been found

      From   To       Difference (%) Osc. st. (len.) Osc. st. (vel.)
     ---------------------------------------------------------------
         1    3      --------------- below threshold  3.95400681E-05
         1    5      --------------- below threshold  2.76483324E-04
         1    7      --------------- below threshold  2.76438888E-04
         2    4      --------------- below threshold  3.95400681E-05
         2    6      --------------- below threshold  2.76483324E-04
         2    8      --------------- below threshold  2.76438888E-04
         3    5      --------------- below threshold  2.76471949E-04
         3    7      --------------- below threshold  2.76459896E-04
         4    6      --------------- below threshold  2.76471949E-04
         4    8      --------------- below threshold  2.76459896E-04
         5    9      --------------- below threshold  2.41428024E-03
         6   10      --------------- below threshold  2.41428024E-03
         7    9      --------------- below threshold  2.41491669E-03
         8   10      --------------- below threshold  2.41491669E-03
        13   17            73.609785  5.23713123E-05  1.98449734E-04
        14   18            73.609785  5.23713123E-05  1.98449734E-04
        15   17            73.609551  5.23746332E-05  1.98460564E-04
        16   18            73.609551  5.23746332E-05  1.98460564E-04
     ---------------------------------------------------------------

 Number of problematic transitions =                    18

--

 Electric-dipole - electric-octupole not included
++ Total transition strengths for the second-order expansion of the wave vector (SO states):
   -----------------------------------------------------------------------------------------
    for osc. strength at least    1.0000000000000001E-005

      From   To        Osc. strength
     -------------------------------
         1   11       1.18953088E-05
         2   12       1.18953088E-05
         3   11       1.18953023E-05
         4   12       1.18953023E-05
         5   11       1.19794760E-05
         6   12       1.19794760E-05
         7   11       1.19794515E-05
         8   12       1.19794515E-05
         9   11       1.20068232E-05
        10   12       1.20068232E-05
     -------------------------------
--

++ I/O STATISTICS
 
  I. General I/O information
  - - - - - - - - - - - - - - - - - - - - - - - - - - - - - - - - - - - - - - - - - - -
  Unit  Name          Flsize      Write/Read            MBytes           Write/Read
                      (MBytes)       Calls              In/Out           Time, sec.
  - - - - - - - - - - - - - - - - - - - - - - - - - - - - - - - - - - - - - - - - - - -
   1  SCRATCH           0.00 .       9/      45 .      0.0/      0.0 .       0/       0
   2  ANNI              0.00 .       0/       0 .      0.0/      0.0 .       0/       0
   3  RUNFILE          14.92 .     322/   10733 .      2.3/     77.8 .       0/       0
   4  ONEINT            5.68 .       0/   24849 .      0.0/   3743.6 .       0/       0
   5  JOBIPH            6.59 .       0/      92 .      0.0/      0.8 .       0/       0
   6  ORDINT          529.03 .       1/    4233 .      0.0/   1058.0 .       0/       0
  - - - - - - - - - - - - - - - - - - - - - - - - - - - - - - - - - - - - - - - - - - -
   *  TOTAL           556.23 .     332/   39952 .      2.3/   4880.2 .       0/       0
  - - - - - - - - - - - - - - - - - - - - - - - - - - - - - - - - - - - - - - - - - - -
 
  II. I/O Access Patterns
  - - - - - - - - - - - - - - - - - - - -
  Unit  Name               % of random
                         Write/Read calls
  - - - - - - - - - - - - - - - - - - - -
   1  SCRATCH             88.9/ 100.0
   2  ANNI                 0.0/   0.0
   3  RUNFILE             28.6/  10.8
   4  ONEINT               0.0/  15.5
   5  JOBIPH               0.0/  76.1
   6  ORDINT             100.0/   0.0
  - - - - - - - - - - - - - - - - - - - -
--
--- Stop Module: rassi at Wed Mar 26 16:03:09 2025 /rc=_RC_ALL_IS_WELL_ ---
*** files: xmldump
    saved to directory /home4/s4752295/Internship/Initial_simulations/Point_charge_model/1_electron/Madelung_charges_9_active_space/Mo
--- Module rassi spent 2 seconds ---

.##################.
.# Happy landing! #.
.##################.

    Timing: Wall=72.17 User=44.53 System=26.68

###############################################################################
Hbrk Cluster
Job 15909509 for user s4752295
Finished at: Wed Mar 26 16:03:13 CET 2025

Job details:
============

Job ID                         : 15909509
Name                           : Mo_no_SO
User                           : s4752295
Partition                      : regularmedium
Nodes                          : node101
Number of Nodes                : 1
Cores                          : 1
Number of Tasks                : 1
State                          : COMPLETED  
Submit                         : 2025-03-26T16:00:57
Start                          : 2025-03-26T16:01:53
End                            : 2025-03-26T16:03:09
Reserved walltime              : 15:00:00
Used walltime                  : 00:01:16
Used CPU time                  : 00:01:12 (Efficiency: 95.19%)
% User (Computation)           : 62.79%
% System (I/O)                 : 37.21%
Total memory reserved          : 25000M
Maximum memory used            : 2.11G

Acknowledgements:
=================

Please see this page for information about acknowledging Hbrk in your publications:

https://wiki.hpc.rug.nl/habrok/introduction/scientific_output

################################################################################
