   This run of MOLCAS is using the pymolcas driver

                             OPE
                             OPE          NMOL  CASOP  ENMOLC A   SO
                 OPE        NMOLC        AS  OP EN  MO LC     AS  OP
                OPENM       OL CA        SO  PE NM  OL CA     SOP EN
                OP EN      MO   LC       AS  OP ENMOL  CASO   PENMOL
                OP  EN     MO   LC       AS  OP EN     MO     LC ASO
               OP   E  NMOL  C  AS       OP  EN MO     LC     AS  OP
               OP  E   NMO   LC AS        OPEN  MO     LCASOP EN   M
               O  PEN   MO  LCA  SO
            OPE   NMO   L   CAS    OP
        OPENMOL  CASOP     ENMOL   CASOPE
     OPENMOLCA   SOPENMOLCASOPEN   MOLCASOPE
    OPENMOLCAS   OP           EN   MOL    CAS
    OPENMOLCAS       OP  ENM        O     LCA
    OPENMOLCAS    OPEN  MOLCASO     P  E  NMO
    OPENMOLCAS     OP               E  N  MOL
    OPENMOLCA   SO           PENM   O  L  CAS    OPEN    MO    LCAS
    OPENMOLCA   SOP           ENM   O  L  CAS   OP  EN  MOLC  AS   O
    OPENMOLCA   SOPE           NM      O  LCA   S      OP  EN MO
    OPENMOLC                AS         O  PEN   M      OL  CA  SOPE
    OPENMO        LCASOPE  NMOL        C  ASO   P      ENMOLC     AS
    OPE     NMO      LCA  SO     P     E   NM   OL  CA SO  PE N   MO
          OPENMOLCA            SOPE   NMO        LCAS  O    P  ENMO
     OPENMOLCASOPENMOLCASOPENMOLCASOPENMOLCA
        OPENMOLCASOPENMOLCASOPENMOLCASOPE
            OPENMOLCASOPENMOLCASOPENM
               OPENMOLCASOPENMOLCA        version: o91e1abe7de707b ?
                   OPENMOLCASO
                       OPE                tag:

 OpenMolcas is free software; you can redistribute it and/or modify it
 under the terms of the GNU Lesser General Public License version 2.1.
 OpenMolcas is distributed in the hope that it will be useful, but it
 is provided "as is" and without any express or implied warranties.
 For more details see the full text of the license in the file
 LICENSE or in <http://www.gnu.org/licenses/>.

                 Copyright (C) The OpenMolcas Authors
           For the author list and the recommended citation,
                   consult the file CONTRIBUTORS.md

           *************************************************
           * pymolcas version py2.10                       *
           *   build 3068ae8b88c9345ec6cfef6fef7f1169      *
           *   (after the EMIL interpreter by V. Veryazov) *
           *************************************************

configuration info
------------------
Host name: login1 (Linux)
C Compiler ID: GNU
C flags: -std=gnu99
Fortran Compiler ID: GNU
Fortran flags: -fno-aggressive-loop-optimizations -cpp -fdefault-integer-8 -fmax-stack-var-size=1048576
Definitions: _MOLCAS_;_I8_;_LINUX_;_MKL_
Parallel: OFF (GA=OFF)


   -----------------------------------------------------------------------------------------------------------------------------------
  |
  |           Project: molybdenum_so_cf
  |    Submitted from: /home4/s4752295/Internship/Initial_simulations/Point_charge_model/1_electron/Madelung_charges_9_active_space/Mo
  |      Scratch area: /tmp/molybdenum_so_cf
  |   Save outputs to: /home4/s4752295/Internship/Initial_simulations/Point_charge_model/1_electron/Madelung_charges_9_active_space/Mo
  |            Molcas: /home4/s4752295/Internship/Molcas/recomp_try/OpenMolcas-master/build
  |
  | Scratch area is empty
  |
  |    MOLCAS_DRIVER = /home4/s4752295/Internship/Molcas/bin/pymolcas
  |    MOLCAS_NPROCS = 1
  |    MOLCAS_SOURCE = /home4/s4752295/Internship/Molcas/recomp_try/OpenMolcas-master
  | MOLCAS_STRUCTURE = 0
  |
   -----------------------------------------------------------------------------------------------------------------------------------

++ ---------   Input file   ---------

&SEWARD
AMFi

CLIG
$R

Basis Set
Mo.ANO-rcc.Roos.21s18p13d6f4g2h.10s9p9d6f4g2h.
Spherical d
Mo           -1.0658140267135469e-14    -3.5527134223784897e-15 0.008753588724385739
End of Basis

Xfield

414
-8.00440216,-3.08,1.778238      -0.625931
-8.00440216,-0.0,-3.556478      -0.625931
-8.00440216,3.08,1.778238       -0.625931
-7.99069214,0.0,0.0     1.892092
5.31835938,-3.08,-1.778238      2.515516
5.31835938,0.0,3.556478 2.515516
5.31835938,3.08,-1.778238       2.515516
7.12597656,-6.16,0.0    0.004632
7.12597656,-3.08,-5.334716      0.004632
7.12597656,-3.08,5.334716       0.004632
7.12597656,3.08,-5.334716       0.004632
7.12597656,3.08,5.334716        0.004632
7.12597656,6.16,0.0     0.004632
8.25830078,-3.08,1.778238       -2.519484
8.25830078,-0.0,-3.556478       -2.519484
8.25830078,3.08,1.778238        -2.519484
-5.86621094,-0.0,-0.0   -3.142907
-9.95019532,-6.16,-3.556478     -0.625931
-9.95019532,0.0,7.112954        -0.625931
-9.95019532,6.16,-3.556478      -0.625931
-13.21875,-6.16,0.0     1.892092
-13.21875,-3.08,-5.334716       1.892092
-13.21875,-3.08,5.334716        1.892092
-13.21875,3.08,-5.334716        1.892092
-13.21875,3.08,5.334716 1.892092
-13.21875,6.16,0.0      1.892092
50.34375,-6.16,3.556478 2.515516
50.34375,-0.0,-7.112954 2.515516
50.34375,6.16,3.556478  2.515516
7.27734376,-6.16,-3.556478      -2.519484
7.27734376,0.0,7.112954 -2.519484
7.27734376,6.16,-3.556478       -2.519484
-6.46484376,-6.16,-0.0  -3.142907
-6.46484376,-3.08,-5.334716     -3.142907
-6.46484376,-3.08,5.334716      -3.142907
-6.46484376,3.08,-5.334716      -3.142907
-6.46484376,3.08,5.334716       -3.142907
-6.46484376,6.16,-0.0   -3.142907
-19.046875,-6.16,7.112954       -0.625931
-19.046875,6.16,7.112954        -0.625931
-19.046875,-9.24,1.778238       -0.625931
-19.046875,9.24,1.778238        -0.625931
-19.046875,-3.08,-8.891194      -0.625931
-19.046875,3.08,-8.891194       -0.625931
12.015625,-3.08,-1.778238       4.409069
12.015625,3.08,-1.778238        4.409069
12.015625,0.0,3.556478  4.409069
-350.5,-0.0,-0.0        -5.030367
-350.5,0.0,0.0  5.039632
27.03515624,-6.16,-7.112954     2.515516
27.03515624,6.16,-7.112954      2.515516
27.03515624,-9.24,-1.778238     2.515516
27.03515624,9.24,-1.778238      2.515516
27.03515624,-3.08,8.891194      2.515516
27.03515624,3.08,8.891194       2.515516
38.078125,-9.24,-5.334716       0.004632
38.078125,-9.24,5.334716        0.004632
38.078125,9.24,-5.334716        0.004632
38.078125,9.24,5.334716 0.004632
38.078125,-0.0,-10.669432       0.004632
38.078125,0.0,10.669432 0.004632
96.15625,-6.16,7.112954 -2.519484
96.15625,6.16,7.112954  -2.519484
96.15625,-9.24,1.778238 -2.519484
96.15625,9.24,1.778238  -2.519484
96.15625,-3.08,-8.891194        -2.519484
96.15625,3.08,-8.891194 -2.519484
-291.75,-9.24,-5.334716 1.892092
-291.75,-9.24,5.334716  1.892092
-291.75,9.24,-5.334716  1.892092
-291.75,9.24,5.334716   1.892092
-291.75,-0.0,-10.669432 1.892092
-291.75,0.0,10.669432   1.892092
-235.5,-6.16,3.556478   4.409069
-235.5,-0.0,-7.112954   4.409069
-235.5,6.16,3.556478    4.409069
-178.0,-6.16,-0.0       -5.030367
-178.0,-3.08,-5.334716  -5.030367
-178.0,-3.08,5.334716   -5.030367
-178.0,3.08,-5.334716   -5.030367
-178.0,-6.16,0.0        5.039632
-178.0,6.16,-0.0        -5.030367
-178.0,3.08,5.334716    -5.030367
-178.0,-3.08,-5.334716  5.039632
-178.0,-3.08,5.334716   5.039632
-178.0,3.08,-5.334716   5.039632
-178.0,6.16,0.0 5.039632
-178.0,3.08,5.334716    5.039632
-93.25,-3.08,-1.778238  -5.660931
-93.25,0.0,3.556478     -5.660931
-93.25,3.08,-1.778238   -5.660931
1.765625,-12.319998,0.0 0.004632
1.765625,-6.16,-10.669432       0.004632
1.765625,-6.16,10.669432        0.004632
1.765625,6.16,-10.669432        0.004632
1.765625,12.319998,0.0  0.004632
1.765625,6.16,10.669432 0.004632
135.875,-9.24,5.334716  -3.142907
135.875,-9.24,-5.334716 -3.142907
135.875,9.24,-5.334716  -3.142907
135.875,9.24,5.334716   -3.142907
135.875,-0.0,-10.669432 -3.142907
135.875,0.0,10.669432   -3.142907
172.75,-12.319998,-3.556478     -0.625931
172.75,-9.24,-8.891194  -0.625931
172.75,-3.08,12.44767   -0.625931
172.75,9.24,-8.891194   -0.625931
172.75,12.319998,-3.556478      -0.625931
172.75,3.08,12.44767    -0.625931
2.39453124,-12.319998,0.0       1.892092
2.39453124,-6.16,-10.669432     1.892092
2.39453124,-6.16,10.669432      1.892092
2.39453124,6.16,-10.669432      1.892092
2.39453124,12.319998,0.0        1.892092
2.39453124,6.16,10.669432       1.892092
67.6875,-6.16,-7.112954 4.409069
67.6875,6.16,-7.112954  4.409069
67.6875,-9.24,-1.778238 4.409069
67.6875,9.24,-1.778238  4.409069
67.6875,-3.08,8.891194  4.409069
67.6875,3.08,8.891194   4.409069
324.8125,-6.16,3.556478 -5.660931
324.8125,-0.0,-7.112954 -5.660931
324.8125,6.16,3.556478  -5.660931
0.6875,-12.319998,3.556478      2.515516
0.6875,-3.08,-12.44767  2.515516
0.6875,-9.24,8.891194   2.515516
0.6875,3.08,-12.44767   2.515516
0.6875,12.319998,3.556478       2.515516
0.6875,9.24,8.891194    2.515516
-188.375,-12.319998,-3.556478   -2.519484
-188.375,-9.24,-8.891194        -2.519484
-188.375,-3.08,12.44767 -2.519484
-188.375,9.24,-8.891194 -2.519484
-188.375,3.08,12.44767  -2.519484
-188.375,12.319998,-3.556478    -2.519484
-44.140625,-12.319998,-0.0      -3.142907
-44.140625,-6.16,-10.669432     -3.142907
-44.140625,-6.16,10.669432      -3.142907
-44.140625,6.16,-10.669432      -3.142907
-44.140625,6.16,10.669432       -3.142907
-44.140625,12.319998,-0.0       -3.142907
1213.0,0.0,0.0  6.927092
646.5,-12.319998,7.112954       -0.625931
646.5,12.319998,7.112954        -0.625931
646.5,-0.0,-14.22591    -0.625931
-10.84375,-9.24,5.334716        -5.030367
-10.84375,-9.24,-5.334716       -5.030367
-10.84375,-9.24,5.334716        5.039632
-10.84375,-9.24,-5.334716       5.039632
-10.84375,9.24,-5.334716        -5.030367
-10.84375,9.24,5.334716 -5.030367
-10.84375,9.24,-5.334716        5.039632
-10.84375,9.24,5.334716 5.039632
-10.84375,-0.0,-10.669432       -5.030367
-10.84375,0.0,10.669432 -5.030367
-10.84375,-0.0,-10.669432       5.039632
-10.84375,0.0,10.669432 5.039632
183.625,-6.16,-7.112954 -5.660931
183.625,6.16,-7.112954  -5.660931
183.625,-9.24,-1.778238 -5.660931
183.625,9.24,-1.778238  -5.660931
183.625,-3.08,8.891194  -5.660931
183.625,3.08,8.891194   -5.660931
601.0,-12.319998,-7.112954      2.515516
601.0,12.319998,-7.112954       2.515516
601.0,0.0,14.22591      2.515516
-1034.5,-12.319998,7.112954     -2.519484
-1034.5,12.319998,7.112954      -2.519484
-1034.5,-0.0,-14.22591  -2.519484
107.125,-6.16,0.0       6.927092
107.125,-3.08,-5.334716 6.927092
107.125,-3.08,5.334716  6.927092
107.125,3.08,-5.334716  6.927092
107.125,3.08,5.334716   6.927092
107.125,6.16,0.0        6.927092
-110.5,-3.08,1.778238   7.550516
-110.5,0.0,-3.556478    7.550516
-110.5,3.08,1.778238    7.550516
31.0625,-3.08,-1.778238 -7.554483
31.0625,3.08,-1.778238  -7.554483
31.0625,-0.0,3.556478   -7.554483
-249.75,-15.399998,1.778238     -0.625931
-249.75,-9.24,12.44767  -0.625931
-249.75,-6.16,-14.22591 -0.625931
-249.75,6.16,-14.22591  -0.625931
-249.75,15.399998,1.778238      -0.625931
-249.75,9.24,12.44767   -0.625931
-134.875,-12.319998,3.556478    4.409069
-134.875,-9.24,8.891194 4.409069
-134.875,-3.08,-12.44767        4.409069
-134.875,3.08,-12.44767 4.409069
-134.875,9.24,8.891194  4.409069
-134.875,12.319998,3.556478     4.409069
98.3125,-12.319998,-0.0 -5.030367
98.3125,-6.16,-10.669432        -5.030367
98.3125,-6.16,10.669432 -5.030367
98.3125,-12.319998,0.0  5.039632
98.3125,-6.16,-10.669432        5.039632
98.3125,6.16,-10.669432 -5.030367
98.3125,6.16,10.669432  -5.030367
98.3125,12.319998,-0.0  -5.030367
98.3125,-6.16,10.669432 5.039632
98.3125,6.16,-10.669432 5.039632
98.3125,12.319998,0.0   5.039632
98.3125,6.16,10.669432  5.039632
361.5,-15.399998,-1.778238      2.515516
361.5,-9.24,-12.44767   2.515516
361.5,-6.16,14.22591    2.515516
361.5,9.24,-12.44767    2.515516
361.5,15.399998,-1.778238       2.515516
361.5,6.16,14.22591     2.515516
-46.6875,-15.399998,-5.334716   0.004632
-46.6875,-15.399998,5.334716    0.004632
-46.6875,-12.319998,-10.669432  0.004632
-46.6875,-12.319998,10.669432   0.004632
-46.6875,-3.08,-16.004148       0.004632
-46.6875,3.08,-16.004148        0.004632
-46.6875,-3.08,16.004148        0.004632
-46.6875,12.319998,-10.669432   0.004632
-46.6875,3.08,16.004148 0.004632
-46.6875,15.399998,-5.334716    0.004632
-46.6875,15.399998,5.334716     0.004632
-46.6875,12.319998,10.669432    0.004632
-286.25,-15.399998,1.778238     -2.519484
-286.25,-9.24,12.44767  -2.519484
-286.25,-6.16,-14.22591 -2.519484
-286.25,6.16,-14.22591  -2.519484
-286.25,15.399998,1.778238      -2.519484
-286.25,9.24,12.44767   -2.519484
6064.0,-0.0,-0.0        -8.177907
-232.0,-6.16,-3.556478  7.550516
-232.0,0.0,7.112954     7.550516
-232.0,6.16,-3.556478   7.550516
-1207.0,-6.16,3.556478  -7.554483
-1207.0,-0.0,-7.112954  -7.554483
-1207.0,6.16,3.556478   -7.554483
97.8125,-15.399998,5.334716     1.892092
97.8125,-15.399998,-5.334716    1.892092
97.8125,-12.319998,-10.669432   1.892092
97.8125,-12.319998,10.669432    1.892092
97.8125,-3.08,-16.004148        1.892092
97.8125,3.08,-16.004148 1.892092
97.8125,-3.08,16.004148 1.892092
97.8125,12.319998,-10.669432    1.892092
97.8125,3.08,16.004148  1.892092
97.8125,15.399998,-5.334716     1.892092
97.8125,15.399998,5.334716      1.892092
97.8125,12.319998,10.669432     1.892092
-1010.0,-12.319998,-7.112954    4.409069
-1010.0,12.319998,-7.112954     4.409069
-1010.0,0.0,14.22591    4.409069
51.640625,-12.319998,3.556478   -5.660931
51.640625,-3.08,-12.44767       -5.660931
51.640625,-9.24,8.891194        -5.660931
51.640625,3.08,-12.44767        -5.660931
51.640625,9.24,8.891194 -5.660931
51.640625,12.319998,3.556478    -5.660931
-116.375,-12.319998,-10.669432  -3.142907
-116.375,-15.399998,5.334716    -3.142907
-116.375,-15.399998,-5.334716   -3.142907
-116.375,-12.319998,10.669432   -3.142907
-116.375,-3.08,-16.004148       -3.142907
-116.375,3.08,-16.004148        -3.142907
-116.375,-3.08,16.004148        -3.142907
-116.375,15.399998,-5.334716    -3.142907
-116.375,12.319998,-10.669432   -3.142907
-116.375,3.08,16.004148 -3.142907
-116.375,15.399998,5.334716     -3.142907
-116.375,12.319998,10.669432    -3.142907
130.8125,-9.24,-5.334716        6.927092
130.8125,-9.24,5.334716 6.927092
130.8125,9.24,-5.334716 6.927092
130.8125,9.24,5.334716  6.927092
130.8125,-0.0,-10.669432        6.927092
130.8125,0.0,10.669432  6.927092
-166.5,-6.16,-0.0       -8.177907
-166.5,-3.08,5.334716   -8.177907
-166.5,-3.08,-5.334716  -8.177907
-166.5,3.08,-5.334716   -8.177907
-166.5,6.16,-0.0        -8.177907
-166.5,3.08,5.334716    -8.177907
-181.8125,-6.16,7.112954        7.550516
-181.8125,6.16,7.112954 7.550516
-181.8125,-9.24,1.778238        7.550516
-181.8125,9.24,1.778238 7.550516
-181.8125,-3.08,-8.891194       7.550516
-181.8125,3.08,-8.891194        7.550516
-91.375,-6.16,-7.112954 -7.554483
-91.375,6.16,-7.112954  -7.554483
-91.375,-9.24,-1.778238 -7.554483
-91.375,9.24,-1.778238  -7.554483
-91.375,-3.08,8.891194  -7.554483
-91.375,3.08,8.891194   -7.554483
-1000.5,0.0,17.782386   -0.625931
-1000.5,-15.399998,-8.891194    -0.625931
-1000.5,15.399998,-8.891194     -0.625931
-539.5,-15.399998,-1.778238     4.409069
-539.5,-9.24,-12.44767  4.409069
-539.5,-6.16,14.22591   4.409069
-539.5,9.24,-12.44767   4.409069
-539.5,15.399998,-1.778238      4.409069
-539.5,6.16,14.22591    4.409069
620.75,-12.319998,-7.112954     -5.660931
620.75,12.319998,-7.112954      -5.660931
620.75,0.0,14.22591     -5.660931
1174.0,-0.0,-17.782386  2.515516
1174.0,-15.399998,8.891194      2.515516
1174.0,15.399998,8.891194       2.515516
-187.75,-18.479998,-0.0 0.004632
-187.75,9.24,-16.004148 0.004632
-187.75,-9.24,16.004148 0.004632
-187.75,18.479998,-0.0  0.004632
-187.75,-9.24,-16.004148        0.004632
-187.75,9.24,16.004148  0.004632
-771.5,0.0,17.782386    -2.519484
-771.5,-15.399998,-8.891194     -2.519484
-771.5,15.399998,-8.891194      -2.519484
456.0,-12.319998,0.0    6.927092
456.0,-6.16,-10.669432  6.927092
456.0,-6.16,10.669432   6.927092
456.0,6.16,-10.669432   6.927092
456.0,12.319998,0.0     6.927092
456.0,6.16,10.669432    6.927092
423.75,-18.479998,-3.556478     -0.625931
423.75,-6.16,17.782386  -0.625931
423.75,-12.319998,-14.22591     -0.625931
423.75,12.319998,-14.22591      -0.625931
423.75,6.16,17.782386   -0.625931
423.75,18.479998,-3.556478      -0.625931
223.875,-18.479998,0.0  1.892092
223.875,-9.24,-16.004148        1.892092
223.875,-9.24,16.004148 1.892092
223.875,9.24,-16.004148 1.892092
223.875,18.479998,0.0   1.892092
223.875,9.24,16.004148  1.892092
-8.640625,-15.399998,5.334716   -5.030367
-8.640625,-15.399998,-5.334716  -5.030367
-8.640625,-12.319998,-10.669432 -5.030367
-8.640625,-12.319998,10.669432  -5.030367
-8.640625,-15.399998,5.334716   5.039632
-8.640625,3.08,-16.004148       -5.030367
-8.640625,-3.08,-16.004148      -5.030367
-8.640625,-15.399998,-5.334716  5.039632
-8.640625,-12.319998,-10.669432 5.039632
-8.640625,-3.08,16.004148       -5.030367
-8.640625,3.08,-16.004148       5.039632
-8.640625,-12.319998,10.669432  5.039632
-8.640625,-3.08,-16.004148      5.039632
-8.640625,12.319998,-10.669432  -5.030367
-8.640625,3.08,16.004148        -5.030367
-8.640625,15.399998,-5.334716   -5.030367
-8.640625,15.399998,5.334716    -5.030367
-8.640625,12.319998,10.669432   -5.030367
-8.640625,-3.08,16.004148       5.039632
-8.640625,12.319998,-10.669432  5.039632
-8.640625,15.399998,-5.334716   5.039632
-8.640625,3.08,16.004148        5.039632
-8.640625,15.399998,5.334716    5.039632
-8.640625,12.319998,10.669432   5.039632
-1.375,-15.399998,-1.778238     -5.660931
-1.375,-9.24,-12.44767  -5.660931
-1.375,-6.16,14.22591   -5.660931
-1.375,9.24,-12.44767   -5.660931
-1.375,6.16,14.22591    -5.660931
-1.375,15.399998,-1.778238      -5.660931
232.0,-3.08,1.778238    9.444068
232.0,0.0,-3.556478     9.444068
232.0,3.08,1.778238     9.444068
102.625,-18.479998,3.556478     2.515516
102.625,-6.16,-17.782386        2.515516
102.625,6.16,-17.782386 2.515516
102.625,-12.319998,14.22591     2.515516
102.625,18.479998,3.556478      2.515516
102.625,12.319998,14.22591      2.515516
313.75,-18.479998,-3.556478     -2.519484
313.75,-6.16,17.782386  -2.519484
313.75,-12.319998,-14.22591     -2.519484
313.75,12.319998,-14.22591      -2.519484
313.75,18.479998,-3.556478      -2.519484
313.75,6.16,17.782386   -2.519484
439.25,-18.479998,-0.0  -3.142907
439.25,-9.24,-16.004148 -3.142907
439.25,-9.24,16.004148  -3.142907
439.25,9.24,-16.004148  -3.142907
439.25,18.479998,-0.0   -3.142907
439.25,9.24,16.004148   -3.142907
17.29101562,-9.24,-5.334716     -8.177907
17.29101562,-9.24,5.334716      -8.177907
17.29101562,9.24,5.334716       -8.177907
17.29101562,9.24,-5.334716      -8.177907
17.29101562,-0.0,-10.669432     -8.177907
17.29101562,0.0,10.669432       -8.177907
503.75,-9.24,-8.891194  7.550516
503.75,-12.319998,-3.556478     7.550516
503.75,-3.08,12.44767   7.550516
503.75,9.24,-8.891194   7.550516
503.75,3.08,12.44767    7.550516
503.75,12.319998,-3.556478      7.550516
-696.0,-9.24,8.891194   -7.554483
-696.0,-12.319998,3.556478      -7.554483
-696.0,-3.08,-12.44767  -7.554483
-696.0,3.08,-12.44767   -7.554483
-696.0,12.319998,3.556478       -7.554483
-696.0,9.24,8.891194    -7.554483
142.53125,-15.399998,12.44767   -0.625931
142.53125,-18.479998,7.112954   -0.625931
142.53125,-3.08,-19.560626      -0.625931
142.53125,3.08,-19.560626       -0.625931
142.53125,18.479998,7.112954    -0.625931
142.53125,15.399998,12.44767    -0.625931
-967.5,-0.0,-17.782386  4.409069
-967.5,-15.399998,8.891194      4.409069
-967.5,15.399998,8.891194       4.409069

End of input

&SCF
Occupied
9
Iterations
   50  100
End of Input

&RASSCF
LumOrb
Symmetry
1
Spin
2
Nactel
1 0 0
CIRoot
9 9 1
inactive
9
ras2
9
End of Input

>>> COPY molybdenum_so_cf.JobIph $SLURM_SUBMIT_DIR/molybdenum_so_cf.doublet.JobIph

>>> COPY $SLURM_SUBMIT_DIR/molybdenum_so_cf.doublet.JobIph ./JOB002

&RASSI
NROFJobIph
1 All
SpinOrbit
End of Input

EOF

-- ----------------------------------

--- Start Module: seward at Thu Mar 27 00:10:25 2025 ---

()()()()()()()()()()()()()()()()()()()()()()()()()()()()()()()()()()()()()()()()()()()()()()()()()()

                                              &SEWARD

                                   only a single process is used
                       available to each process: 4.1 GB of memory, 1 thread?
                                            pid: 1937736
()()()()()()()()()()()()()()()()()()()()()()()()()()()()()()()()()()()()()()()()()()()()()()()()()()

 The speed of LIGHT in this CALCULATION =   137.03599917700001     
               SEWARD will generate:
                  Multipole Moment integrals up to order  2
                  Kinetic Energy integrals
                  Nuclear Attraction integrals (point charge)
                  One-Electron Hamiltonian integrals
                  Velocity integrals
                  Relativistic Douglas-Kroll-Hess integrals:
                    - Parametrization         : EXP
                    - DKH order of Hamiltonian: 2
                    - DKH order of Properties : 0
                         - multipole moment operators
                         - electric potential operators
                         - contact operators
                  External field from   414 point(s) added to the one-electron Hamiltonian
                  Orbital angular momentum around (-0.0000 -0.0000  0.0088 )
                  Velocity quadrupole around (-0.0000 -0.0000  0.0088 )
                  Atomic mean-field integrals
                  Two-Electron Repulsion integrals

                   Integrals are discarded if absolute value <: 0.10E-13
                   Integral cutoff threshold is set to       <: 0.10E-15

++    Symmetry information:
      ---------------------

                    Character Table for C1 

                             E  
                    a        1  x, y, xy, Rz, z, xz, Ry, yz, Rx, I
--


++    Basis set information:
      ----------------------


      Basis set label: MO.ANO-RCC.ROOS.21S18P13D6F4G2H.10S9P9D6F4G2H......

      Electronic valence basis set:
      ------------------
      Associated Effective Charge  42.000000 au
      Associated Actual Charge     42.000000 au
      Nuclear Model: Point charge

      Shell  nPrim  nBasis  Cartesian Spherical Contaminant
         s      21      10        X                  
         p      18       9        X                  
         d      13       9                 X         
         f       6       6                 X         
         g       4       4                 X         
         h       2       2                 X         
--


++    Molecular structure info:
      -------------------------

                    ************************************************ 
                    **** Cartesian Coordinates / Bohr, Angstrom **** 
                    ************************************************ 

     Center  Label                x              y              z                     x              y              z
        1      MO              -0.000000      -0.000000       0.008754             -0.000000      -0.000000       0.004632
--


++    Operator info:
      --------------


  Net charge from external field:   -39.268449999999902     
--


            Nuclear Potential Energy              0.00000000 au

                    Nuclear-External Field Potential Energy    -192.12837176 au
                    External Field Potential Energy             802.81845069 au 


            Total Nuclear Potential Energy           -192.12837176 au


      Basis set specifications :
      Symmetry species         a  
      Basis functions          182

 Sorry, Molden does not know how to handle
 functions with angular momentum larger than g
Note: The following floating-point exceptions are signalling: IEEE_UNDERFLOW_FLAG IEEE_DENORMAL
--- Stop Module: seward at Thu Mar 27 00:10:35 2025 /rc=_RC_ALL_IS_WELL_ ---
*** files: molybdenum_so_cf.GssOrb xmldump
    saved to directory /home4/s4752295/Internship/Initial_simulations/Point_charge_model/1_electron/Madelung_charges_9_active_space/Mo
--- Module seward spent 9 seconds ---

*** symbolic link created: INPORB -> molybdenum_so_cf.GssOrb
--- Start Module: scf at Thu Mar 27 00:10:35 2025 ---

()()()()()()()()()()()()()()()()()()()()()()()()()()()()()()()()()()()()()()()()()()()()()()()()()()

                                                &SCF

                                   only a single process is used
                       available to each process: 4.1 GB of memory, 1 thread?
                                            pid: 1937746
()()()()()()()()()()()()()()()()()()()()()()()()()()()()()()()()()()()()()()()()()()()()()()()()()()

++    Input section:
      --------------

      Header of the integral files:
      
       Integrals generated by seward 4.2.0  , Thu Mar 27 00:10:26 2025


      Cartesian coordinates in Angstrom:
      -----------------------------------------------------
      No.  Label        X            Y            Z        
      -----------------------------------------------------
       1   MO        -0.00000000  -0.00000000   0.00463220
      -----------------------------------------------------
      Nuclear repulsion energy = -192.12837176
--

++    Orbital specifications:
      -----------------------

      Symmetry species               1
                                     a
      Frozen orbitals                0
      Occupied orbitals              9
      Secondary orbitals           173
      Deleted orbitals               0
      Total number of orbitals     182
      Number of basis functions    182
--

      Molecular charge                          24.000

++    Optimization specifications:
      ----------------------------

      SCF Algorithm: Conventional
      Minimized density differences are used
      Number of density matrices in core                5
      Maximum number of NDDO SCF iterations            50
      Maximum number of HF SCF iterations             100
      Threshold for SCF energy change            0.10E-08
      Threshold for density matrix               0.10E-03
      Threshold for Fock matrix                  0.15E-03
      Threshold for linear dependence            0.10E-08
      Threshold at which DIIS is turned on       0.15E+00
      Threshold at which QNR/C2DIIS is turned on 0.75E-01
      Threshold for Norm(delta) (QNR/C2DIIS)     0.20E-04
      DIIS extrapolation of the SCF procedure
      All orbitals punched on: SCFORB
--

      Detected guessorb starting orbitals                                             


++ Convergence information
                                   SCF        iterations: Energy and convergence statistics

Iter     Tot. SCF        One-elec.       Two-elec.     Energy      Max Dij or  Max Fij      DNorm      TNorm      AccCon     Time
         Energy          Energy          Energy        Change      Delta Norm                                                in Sec.

 The total and one-electron energies are shifted by a value of      3000. a.u.

   1  -787.442255247 -1216.424171593   621.110288109   0.00E+00    0.33E+00*   0.30E+01*    0.60E+01   0.35E+03   None         1.
   2  -793.421535947 -1258.911382617   657.618218432  -0.60E+01*   0.92E-02*   0.27E+00*    0.13E+01   0.36E+03   EDIIS        1.
   3  -793.439776536 -1257.082957303   655.771552530  -0.18E-01*   0.77E-03*   0.13E-01*    0.44E-01   0.36E+03   EDIIS        1.
   4  -793.439839216 -1257.204717161   655.893249708  -0.63E-04*   0.32E-04    0.80E-03*    0.11E-02   0.36E+03   c2DIIS       1.
   5  -793.439839459 -1257.198245467   655.886777771  -0.24E-06*   0.38E-05    0.26E-04     0.88E-04   0.36E+03   QNRc2DIIS    1.
   6  -793.439839460 -1257.198258442   655.886790746  -0.32E-09    0.52E-06    0.41E-05     0.22E-05   0.36E+03   QNRc2DIIS    1.

       Convergence after  6 Macro Iterations
--

 *****************************************************************************************************************************
 *                                                                                                                           *
 *                                             SCF/KS-DFT Program, Final results                                             *
 *                                                                                                                           *
 *                                                                                                                           *
 *                                                                                                                           *
 *                                                       Final Results                                                       *
 *                                                                                                                           *
 *****************************************************************************************************************************

::    Total SCF energy                              -3793.4398394597
      One-electron energy                           -4257.1982584425
      Two-electron energy                             655.8867907458
      Nuclear repulsion energy                       -192.1283717630
      Kinetic energy (interpolated)                  4119.5547817078
      Virial theorem                                    0.9208373333
      Total spin, S(S+1)                                0.0000000000
      Total spin, S                                     0.0000000000
      Max non-diagonal density matrix element           0.0000005840
      Max non-diagonal Fock matrix element              0.0000005172


      All orbitals with orbital energies smaller than  E(LUMO)+0.5 are printed

++    Molecular orbitals:
      -------------------

      Title: SCF orbitals

      Molecular orbitals for symmetry species 1: a  

          Orbital            1         2         3         4         5         6         7         8         9        10    
          Energy         -772.5737 -140.3843 -128.9995 -128.9995 -128.9993  -46.1930  -42.1882  -42.1882  -42.1866  -35.0233
          Occ. No.          2.0000    2.0000    2.0000    2.0000    2.0000    2.0000    2.0000    2.0000    2.0000    0.0000

        1 MO     1s         1.0000   -0.0001    0.0000   -0.0000   -0.0000    0.0001   -0.0000    0.0000    0.0000    0.0000
        2 MO     2s         0.0001    0.9999    0.0000   -0.0000   -0.0006    0.0129    0.0000   -0.0000   -0.0002    0.0000
        3 MO     3s        -0.0001   -0.0122   -0.0000    0.0000    0.0001    0.9889    0.0000   -0.0000   -0.0101    0.0000
        4 MO     4s         0.0000    0.0030    0.0000   -0.0000   -0.0000   -0.0994   -0.0000    0.0000    0.0016   -0.0000
        5 MO     5s        -0.0000   -0.0007   -0.0000    0.0000    0.0000    0.0214    0.0000   -0.0000   -0.0004    0.0000
        6 MO     6s         0.0000    0.0008    0.0000   -0.0000   -0.0000   -0.0252   -0.0000    0.0000    0.0004   -0.0000
        7 MO     7s        -0.0000   -0.0025   -0.0000    0.0000    0.0000    0.0692    0.0000   -0.0000   -0.0012    0.0000
        8 MO     8s         0.0000    0.0023    0.0000   -0.0000   -0.0000   -0.0530   -0.0000    0.0000    0.0009   -0.0000
        9 MO     9s        -0.0000   -0.0025   -0.0000    0.0000    0.0000    0.0464    0.0000   -0.0000   -0.0008    0.0000
       10 MO    10s         0.0001    0.0028    0.0000   -0.0000   -0.0000   -0.0316   -0.0000    0.0000    0.0005   -0.0000
       11 MO     2px        0.0000    0.0006   -0.0014    0.0000    0.9999    0.0001   -0.0000    0.0000    0.0145   -0.0000
       12 MO     3px       -0.0000    0.0001    0.0000   -0.0000   -0.0137    0.0103   -0.0012    0.0000    0.9849   -0.0000
       13 MO     4px        0.0000   -0.0000   -0.0000    0.0000    0.0030   -0.0007    0.0001   -0.0000   -0.1073   -0.0000
       14 MO     5px       -0.0000    0.0000    0.0000   -0.0000   -0.0010    0.0002   -0.0000    0.0000    0.0343    0.0000
       15 MO     6px        0.0000   -0.0000   -0.0000    0.0000    0.0026   -0.0005    0.0001   -0.0000   -0.0791   -0.0000
       16 MO     7px       -0.0000    0.0000    0.0000   -0.0000   -0.0023    0.0004   -0.0001    0.0000    0.0632    0.0000
       17 MO     8px        0.0000   -0.0000   -0.0000    0.0000    0.0029   -0.0003    0.0001   -0.0000   -0.0632   -0.0000
       18 MO     9px       -0.0000    0.0000    0.0000   -0.0000   -0.0027    0.0002   -0.0001    0.0000    0.0464    0.0000
       19 MO    10px        0.0000   -0.0000   -0.0000    0.0000    0.0022   -0.0001    0.0000   -0.0000   -0.0212    0.0000
       20 MO     2py        0.0000    0.0000    0.0000    0.9999   -0.0000    0.0000    0.0000    0.0145    0.0000    0.0000
       21 MO     3py        0.0000   -0.0000   -0.0000   -0.0137    0.0000    0.0000    0.0000    0.9850    0.0000    0.0000
       22 MO     4py       -0.0000    0.0000    0.0000    0.0030   -0.0000   -0.0000   -0.0000   -0.1073   -0.0000   -0.0000
       23 MO     5py        0.0000   -0.0000   -0.0000   -0.0010    0.0000    0.0000    0.0000    0.0343    0.0000    0.0000
       24 MO     6py       -0.0000    0.0000    0.0000    0.0026   -0.0000   -0.0000   -0.0000   -0.0791   -0.0000   -0.0000
       25 MO     7py        0.0000   -0.0000   -0.0000   -0.0023    0.0000    0.0000    0.0000    0.0632    0.0000    0.0000
       26 MO     8py       -0.0000    0.0000    0.0000    0.0029   -0.0000   -0.0000   -0.0000   -0.0632   -0.0000   -0.0000
       27 MO     9py        0.0000   -0.0000   -0.0000   -0.0027    0.0000    0.0000    0.0000    0.0464    0.0000    0.0000
       28 MO    10py       -0.0000    0.0000    0.0000    0.0022   -0.0000   -0.0000   -0.0000   -0.0212   -0.0000   -0.0000
       29 MO     2pz        0.0000    0.0000    0.9999   -0.0000    0.0014    0.0000    0.0145   -0.0000    0.0000    0.0000
       30 MO     3pz       -0.0000    0.0000   -0.0137    0.0000   -0.0000    0.0000    0.9850   -0.0000    0.0012    0.0000
       31 MO     4pz        0.0000   -0.0000    0.0030   -0.0000    0.0000   -0.0000   -0.1073    0.0000   -0.0001   -0.0000
       32 MO     5pz       -0.0000    0.0000   -0.0010    0.0000   -0.0000    0.0000    0.0343   -0.0000    0.0000    0.0000
       33 MO     6pz        0.0000   -0.0000    0.0026   -0.0000    0.0000   -0.0000   -0.0791    0.0000   -0.0001   -0.0000
       34 MO     7pz       -0.0000    0.0000   -0.0023    0.0000   -0.0000    0.0000    0.0632   -0.0000    0.0001    0.0000
       35 MO     8pz        0.0000   -0.0000    0.0029   -0.0000    0.0000   -0.0000   -0.0632    0.0000   -0.0001   -0.0000
       36 MO     9pz       -0.0000    0.0000   -0.0027    0.0000   -0.0000    0.0000    0.0464   -0.0000    0.0001    0.0000
       37 MO    10pz        0.0000   -0.0000    0.0022   -0.0000    0.0000   -0.0000   -0.0212    0.0000   -0.0000   -0.0000
       38 MO     3d2-       0.0000    0.0000    0.0000    0.0000   -0.0000   -0.0000    0.0000    0.0052    0.0000   -0.0027
       39 MO     4d2-       0.0000   -0.0000   -0.0000   -0.0000    0.0000    0.0000   -0.0000   -0.0003   -0.0000    0.0003
       40 MO     5d2-      -0.0000    0.0000    0.0000    0.0000   -0.0000   -0.0000    0.0000    0.0003    0.0000   -0.0003
       41 MO     6d2-       0.0000   -0.0000   -0.0000   -0.0000    0.0000    0.0000   -0.0000   -0.0002   -0.0000    0.0002
       42 MO     7d2-      -0.0000    0.0000    0.0000    0.0000   -0.0000   -0.0000    0.0000    0.0001    0.0000   -0.0002
       43 MO     8d2-       0.0000   -0.0000   -0.0000   -0.0000    0.0000    0.0000   -0.0000   -0.0001   -0.0000    0.0002
       44 MO     9d2-      -0.0000    0.0000    0.0000    0.0000   -0.0000   -0.0000    0.0000    0.0000    0.0000   -0.0002
       45 MO    10d2-       0.0000   -0.0000   -0.0000   -0.0000    0.0000   -0.0000    0.0000    0.0000    0.0000    0.0002
       46 MO    11d2-      -0.0000    0.0000    0.0000    0.0000   -0.0000    0.0000   -0.0000   -0.0000   -0.0000   -0.0000
       47 MO     3d1-       0.0000   -0.0000    0.0000    0.0000   -0.0000   -0.0000    0.0000    0.0000   -0.0000    0.9757
       48 MO     4d1-      -0.0000    0.0000   -0.0000   -0.0000    0.0000    0.0000   -0.0000   -0.0000    0.0000   -0.0981
       49 MO     5d1-       0.0000   -0.0000    0.0000    0.0000   -0.0000   -0.0000    0.0000    0.0000   -0.0000    0.1046
       50 MO     6d1-      -0.0000    0.0000   -0.0000   -0.0000    0.0000    0.0000   -0.0000   -0.0000    0.0000   -0.0889
       51 MO     7d1-       0.0000   -0.0000    0.0000    0.0000   -0.0000   -0.0000    0.0000    0.0000   -0.0000    0.0775
       52 MO     8d1-      -0.0000    0.0000   -0.0000   -0.0000    0.0000   -0.0000    0.0000    0.0000    0.0000   -0.0794
       53 MO     9d1-       0.0000   -0.0000    0.0000    0.0000   -0.0000    0.0000    0.0000    0.0000   -0.0000    0.0604
       54 MO    10d1-      -0.0000    0.0000   -0.0000   -0.0000    0.0000   -0.0000    0.0000    0.0000    0.0000   -0.0591
       55 MO    11d1-       0.0000   -0.0000    0.0000    0.0000    0.0000    0.0000   -0.0000   -0.0000    0.0000    0.0088
       56 MO     3d0        0.0000    0.0000    0.0000   -0.0000   -0.0000    0.0000    0.0000   -0.0000   -0.0030   -0.0000
       57 MO     4d0       -0.0000   -0.0000   -0.0000    0.0000    0.0000   -0.0000   -0.0000    0.0000    0.0002    0.0000
       58 MO     5d0        0.0000    0.0000    0.0000   -0.0000   -0.0000   -0.0000    0.0000   -0.0000   -0.0002   -0.0000
       59 MO     6d0       -0.0000   -0.0000   -0.0000    0.0000    0.0000    0.0000   -0.0000    0.0000    0.0001    0.0000
       60 MO     7d0        0.0000    0.0000    0.0000   -0.0000   -0.0000   -0.0000    0.0000   -0.0000   -0.0001   -0.0000
       61 MO     8d0       -0.0000   -0.0000   -0.0000    0.0000    0.0000    0.0000   -0.0000    0.0000    0.0001    0.0000
       62 MO     9d0        0.0000    0.0000    0.0000   -0.0000   -0.0000   -0.0000   -0.0000    0.0000   -0.0000   -0.0000
       63 MO    10d0       -0.0000   -0.0000   -0.0000    0.0000    0.0000    0.0000   -0.0000    0.0000   -0.0000    0.0000
       64 MO    11d0        0.0000    0.0000    0.0000   -0.0000   -0.0000   -0.0000   -0.0000    0.0000    0.0000   -0.0000
       65 MO     3d1+      -0.0000   -0.0000    0.0000   -0.0000    0.0000   -0.0000    0.0052   -0.0000    0.0000   -0.0000
       66 MO     4d1+       0.0000    0.0000   -0.0000    0.0000   -0.0000    0.0000   -0.0003    0.0000   -0.0000    0.0000
       67 MO     5d1+      -0.0000   -0.0000    0.0000   -0.0000    0.0000    0.0000    0.0003   -0.0000    0.0000   -0.0000
       68 MO     6d1+       0.0000    0.0000   -0.0000    0.0000   -0.0000   -0.0000   -0.0002    0.0000   -0.0000    0.0000
       69 MO     7d1+      -0.0000   -0.0000    0.0000   -0.0000    0.0000    0.0000    0.0001   -0.0000    0.0000   -0.0000
       70 MO     8d1+       0.0000    0.0000   -0.0000    0.0000   -0.0000   -0.0000   -0.0001    0.0000   -0.0000    0.0000
       71 MO     9d1+      -0.0000   -0.0000    0.0000   -0.0000    0.0000    0.0000    0.0000   -0.0000    0.0000   -0.0000
       72 MO    10d1+       0.0000    0.0000   -0.0000    0.0000   -0.0000   -0.0000    0.0000   -0.0000    0.0000    0.0000
       73 MO    11d1+      -0.0000   -0.0000    0.0000   -0.0000    0.0000    0.0000   -0.0000    0.0000   -0.0000   -0.0000
       74 MO     3d2+      -0.0000   -0.0000   -0.0000    0.0000    0.0000   -0.0001   -0.0000    0.0000    0.0052   -0.0000
       75 MO     4d2+       0.0000    0.0000    0.0000   -0.0000   -0.0000    0.0000    0.0000   -0.0000   -0.0003    0.0000
       76 MO     5d2+      -0.0000   -0.0000   -0.0000    0.0000    0.0000    0.0000   -0.0000    0.0000    0.0003   -0.0000
       77 MO     6d2+       0.0000    0.0000    0.0000   -0.0000   -0.0000   -0.0000    0.0000   -0.0000   -0.0002    0.0000
       78 MO     7d2+      -0.0000   -0.0000   -0.0000    0.0000    0.0000    0.0000   -0.0000    0.0000    0.0001   -0.0000
       79 MO     8d2+       0.0000    0.0000    0.0000   -0.0000   -0.0000   -0.0000    0.0000   -0.0000   -0.0001    0.0000
       80 MO     9d2+      -0.0000   -0.0000   -0.0000    0.0000    0.0000    0.0000   -0.0000    0.0000    0.0000   -0.0000
       81 MO    10d2+       0.0000    0.0000    0.0000   -0.0000   -0.0000   -0.0000   -0.0000    0.0000    0.0000    0.0000
       82 MO    11d2+      -0.0000   -0.0000   -0.0000    0.0000    0.0000    0.0000    0.0000   -0.0000   -0.0000   -0.0000
       83 MO     4f3-      -0.0000   -0.0000   -0.0000   -0.0000    0.0000    0.0000   -0.0000   -0.0000   -0.0000   -0.0000
       84 MO     5f3-      -0.0000   -0.0000   -0.0000   -0.0000    0.0000   -0.0000   -0.0000   -0.0000   -0.0000   -0.0000
       85 MO     6f3-       0.0000    0.0000    0.0000    0.0000   -0.0000   -0.0000    0.0000    0.0000    0.0000    0.0000
       86 MO     7f3-       0.0000   -0.0000   -0.0000   -0.0000    0.0000    0.0000   -0.0000   -0.0000   -0.0000   -0.0000
       87 MO     8f3-       0.0000   -0.0000   -0.0000   -0.0000    0.0000    0.0000   -0.0000   -0.0000   -0.0000   -0.0000
       88 MO     9f3-      -0.0000    0.0000    0.0000    0.0000   -0.0000   -0.0000    0.0000    0.0000    0.0000    0.0000
       89 MO     4f2-       0.0000   -0.0000   -0.0000   -0.0000    0.0000   -0.0000   -0.0000   -0.0000   -0.0000    0.0003
       90 MO     5f2-       0.0000   -0.0000   -0.0000   -0.0000    0.0000   -0.0000   -0.0000   -0.0000    0.0000    0.0004
       91 MO     6f2-      -0.0000    0.0000    0.0000    0.0000   -0.0000    0.0000    0.0000    0.0000   -0.0000   -0.0004
       92 MO     7f2-       0.0000   -0.0000   -0.0000   -0.0000    0.0000   -0.0000   -0.0000   -0.0000    0.0000    0.0003
       93 MO     8f2-       0.0000   -0.0000   -0.0000   -0.0000    0.0000   -0.0000   -0.0000   -0.0000   -0.0000    0.0002
       94 MO     9f2-       0.0000    0.0000    0.0000    0.0000   -0.0000    0.0000    0.0000    0.0000    0.0000   -0.0008
       95 MO     4f1-       0.0000    0.0000    0.0000    0.0000   -0.0000    0.0000    0.0000    0.0000    0.0000    0.0000
       96 MO     5f1-       0.0000    0.0000    0.0000    0.0000   -0.0000    0.0000    0.0000    0.0000    0.0000    0.0000
       97 MO     6f1-      -0.0000   -0.0000   -0.0000   -0.0000    0.0000   -0.0000   -0.0000   -0.0000   -0.0000   -0.0000
       98 MO     7f1-       0.0000    0.0000    0.0000    0.0000   -0.0000    0.0000    0.0000    0.0000    0.0000    0.0000
       99 MO     8f1-       0.0000    0.0000    0.0000    0.0000   -0.0000    0.0000    0.0000    0.0000    0.0000    0.0000
      100 MO     9f1-       0.0000   -0.0000   -0.0000   -0.0000    0.0000   -0.0000   -0.0000   -0.0000   -0.0000   -0.0000
      101 MO     4f0       -0.0000   -0.0000    0.0000   -0.0000    0.0000    0.0000    0.0000   -0.0000    0.0000   -0.0000
      102 MO     5f0        0.0000    0.0000    0.0000   -0.0000    0.0000    0.0000    0.0000   -0.0000    0.0000   -0.0000
      103 MO     6f0        0.0000    0.0000   -0.0000    0.0000   -0.0000    0.0000   -0.0000    0.0000   -0.0000    0.0000
      104 MO     7f0        0.0000    0.0000    0.0000   -0.0000    0.0000    0.0000    0.0000   -0.0000    0.0000   -0.0000
      105 MO     8f0       -0.0000   -0.0000    0.0000   -0.0000    0.0000   -0.0000    0.0000   -0.0000    0.0000   -0.0000
      106 MO     9f0       -0.0000   -0.0000   -0.0000    0.0000   -0.0000   -0.0000   -0.0000    0.0000   -0.0000    0.0000
      107 MO     4f1+       0.0000   -0.0000   -0.0000    0.0000    0.0000   -0.0000    0.0000   -0.0000    0.0000   -0.0000
      108 MO     5f1+       0.0000   -0.0000   -0.0000    0.0000    0.0000   -0.0000    0.0000   -0.0000    0.0000   -0.0000
      109 MO     6f1+      -0.0000    0.0000    0.0000   -0.0000   -0.0000    0.0000    0.0000   -0.0000   -0.0000    0.0000
      110 MO     7f1+      -0.0000   -0.0000    0.0000    0.0000    0.0000   -0.0000    0.0000   -0.0000    0.0000   -0.0000
      111 MO     8f1+       0.0000    0.0000   -0.0000    0.0000    0.0000    0.0000    0.0000   -0.0000    0.0000   -0.0000
      112 MO     9f1+      -0.0000    0.0000    0.0000   -0.0000   -0.0000    0.0000    0.0000   -0.0000   -0.0000    0.0000
      113 MO     4f2+      -0.0000   -0.0000   -0.0000    0.0000   -0.0000    0.0000   -0.0000    0.0000    0.0000   -0.0000
      114 MO     5f2+       0.0000    0.0000   -0.0000    0.0000   -0.0000    0.0000   -0.0000    0.0000    0.0000   -0.0000
      115 MO     6f2+       0.0000    0.0000    0.0000   -0.0000    0.0000   -0.0000    0.0000   -0.0000    0.0000    0.0000
      116 MO     7f2+       0.0000    0.0000   -0.0000    0.0000   -0.0000    0.0000   -0.0000    0.0000    0.0000   -0.0000
      117 MO     8f2+      -0.0000   -0.0000   -0.0000    0.0000   -0.0000   -0.0000   -0.0000    0.0000   -0.0000   -0.0000
      118 MO     9f2+      -0.0000   -0.0000    0.0000   -0.0000    0.0000   -0.0000    0.0000   -0.0000    0.0000    0.0000
      119 MO     4f3+      -0.0000    0.0000    0.0000   -0.0000   -0.0000    0.0000    0.0000   -0.0000   -0.0000   -0.0000
      120 MO     5f3+      -0.0000    0.0000    0.0000   -0.0000   -0.0000    0.0000    0.0000   -0.0000   -0.0000   -0.0000
      121 MO     6f3+       0.0000   -0.0000   -0.0000    0.0000    0.0000   -0.0000   -0.0000    0.0000    0.0000    0.0000
      122 MO     7f3+       0.0000    0.0000    0.0000   -0.0000   -0.0000    0.0000    0.0000   -0.0000   -0.0000   -0.0000
      123 MO     8f3+      -0.0000   -0.0000    0.0000   -0.0000   -0.0000   -0.0000    0.0000   -0.0000   -0.0000   -0.0000
      124 MO     9f3+       0.0000   -0.0000   -0.0000    0.0000    0.0000   -0.0000   -0.0000    0.0000    0.0000    0.0000
      125 MO     5g4-      -0.0000    0.0000    0.0000    0.0000   -0.0000    0.0000    0.0000    0.0000    0.0000    0.0000
      126 MO     6g4-       0.0000   -0.0000   -0.0000   -0.0000    0.0000   -0.0000   -0.0000   -0.0000   -0.0000   -0.0000
      127 MO     7g4-      -0.0000    0.0000    0.0000    0.0000   -0.0000    0.0000    0.0000    0.0000    0.0000    0.0000
      128 MO     8g4-       0.0000   -0.0000   -0.0000   -0.0000    0.0000   -0.0000   -0.0000   -0.0000   -0.0000   -0.0000
      129 MO     5g3-       0.0000    0.0000    0.0000    0.0000   -0.0000    0.0000   -0.0000   -0.0000   -0.0000   -0.0000
      130 MO     6g3-      -0.0000   -0.0000    0.0000    0.0000   -0.0000   -0.0000    0.0000    0.0000    0.0000    0.0000
      131 MO     7g3-       0.0000    0.0000    0.0000    0.0000   -0.0000    0.0000    0.0000    0.0000   -0.0000   -0.0000
      132 MO     8g3-      -0.0000   -0.0000    0.0000    0.0000    0.0000   -0.0000    0.0000    0.0000    0.0000    0.0000
      133 MO     5g2-      -0.0000   -0.0000   -0.0000   -0.0000    0.0000   -0.0000   -0.0000   -0.0000   -0.0000   -0.0000
      134 MO     6g2-       0.0000    0.0000    0.0000    0.0000   -0.0000    0.0000    0.0000    0.0000   -0.0000    0.0000
      135 MO     7g2-      -0.0000   -0.0000   -0.0000   -0.0000    0.0000   -0.0000   -0.0000   -0.0000    0.0000   -0.0000
      136 MO     8g2-       0.0000    0.0000    0.0000    0.0000   -0.0000    0.0000    0.0000    0.0000   -0.0000    0.0000
      137 MO     5g1-       0.0000   -0.0000    0.0000    0.0000    0.0000    0.0000    0.0000    0.0000   -0.0000    0.0000
      138 MO     6g1-      -0.0000    0.0000   -0.0000   -0.0000   -0.0000   -0.0000   -0.0000   -0.0000    0.0000   -0.0000
      139 MO     7g1-       0.0000   -0.0000    0.0000    0.0000    0.0000    0.0000    0.0000    0.0000   -0.0000    0.0000
      140 MO     8g1-      -0.0000    0.0000   -0.0000   -0.0000   -0.0000   -0.0000   -0.0000   -0.0000    0.0000   -0.0000
      141 MO     5g0       -0.0000   -0.0000    0.0000    0.0000    0.0000   -0.0000   -0.0000    0.0000    0.0000   -0.0000
      142 MO     6g0       -0.0000   -0.0000    0.0000   -0.0000   -0.0000    0.0000    0.0000   -0.0000   -0.0000    0.0000
      143 MO     7g0       -0.0000   -0.0000    0.0000   -0.0000    0.0000   -0.0000    0.0000   -0.0000    0.0000   -0.0000
      144 MO     8g0       -0.0000   -0.0000    0.0000   -0.0000   -0.0000    0.0000    0.0000   -0.0000   -0.0000    0.0000
      145 MO     5g1+       0.0000    0.0000   -0.0000    0.0000    0.0000    0.0000   -0.0000    0.0000    0.0000   -0.0000
      146 MO     6g1+       0.0000    0.0000    0.0000   -0.0000   -0.0000   -0.0000    0.0000   -0.0000   -0.0000    0.0000
      147 MO     7g1+       0.0000    0.0000   -0.0000    0.0000   -0.0000    0.0000   -0.0000    0.0000   -0.0000   -0.0000
      148 MO     8g1+       0.0000    0.0000    0.0000   -0.0000   -0.0000   -0.0000    0.0000   -0.0000   -0.0000    0.0000
      149 MO     5g2+       0.0000    0.0000    0.0000   -0.0000   -0.0000    0.0000    0.0000   -0.0000   -0.0000    0.0000
      150 MO     6g2+       0.0000    0.0000   -0.0000    0.0000    0.0000   -0.0000   -0.0000    0.0000    0.0000   -0.0000
      151 MO     7g2+       0.0000    0.0000    0.0000   -0.0000   -0.0000    0.0000    0.0000   -0.0000   -0.0000    0.0000
      152 MO     8g2+       0.0000    0.0000   -0.0000    0.0000    0.0000   -0.0000   -0.0000    0.0000    0.0000   -0.0000
      153 MO     5g3+       0.0000    0.0000    0.0000   -0.0000    0.0000    0.0000    0.0000   -0.0000    0.0000    0.0000
      154 MO     6g3+       0.0000    0.0000   -0.0000    0.0000   -0.0000   -0.0000   -0.0000    0.0000   -0.0000   -0.0000
      155 MO     7g3+       0.0000    0.0000    0.0000   -0.0000   -0.0000    0.0000    0.0000   -0.0000   -0.0000    0.0000
      156 MO     8g3+       0.0000    0.0000   -0.0000    0.0000   -0.0000   -0.0000   -0.0000    0.0000   -0.0000   -0.0000
      157 MO     5g4+      -0.0000   -0.0000    0.0000    0.0000    0.0000   -0.0000    0.0000   -0.0000    0.0000    0.0000
      158 MO     6g4+      -0.0000   -0.0000   -0.0000    0.0000   -0.0000    0.0000   -0.0000    0.0000   -0.0000   -0.0000
      159 MO     7g4+      -0.0000   -0.0000   -0.0000    0.0000    0.0000   -0.0000   -0.0000    0.0000    0.0000    0.0000
      160 MO     8g4+      -0.0000   -0.0000   -0.0000    0.0000   -0.0000    0.0000   -0.0000    0.0000   -0.0000   -0.0000
      161 MO     6h5-      -0.0000   -0.0000   -0.0000   -0.0000   -0.0000   -0.0000   -0.0000   -0.0000    0.0000    0.0000
      162 MO     7h5-       0.0000    0.0000    0.0000    0.0000    0.0000    0.0000    0.0000    0.0000   -0.0000   -0.0000
      163 MO     6h4-      -0.0000   -0.0000    0.0000    0.0000   -0.0000    0.0000    0.0000    0.0000    0.0000    0.0000
      164 MO     7h4-       0.0000   -0.0000   -0.0000   -0.0000    0.0000   -0.0000   -0.0000   -0.0000   -0.0000   -0.0000
      165 MO     6h3-      -0.0000   -0.0000    0.0000    0.0000   -0.0000   -0.0000    0.0000    0.0000    0.0000   -0.0000
      166 MO     7h3-       0.0000    0.0000   -0.0000   -0.0000    0.0000    0.0000   -0.0000   -0.0000   -0.0000    0.0000
      167 MO     6h2-       0.0000   -0.0000    0.0000    0.0000   -0.0000    0.0000    0.0000    0.0000    0.0000   -0.0000
      168 MO     7h2-      -0.0000    0.0000   -0.0000   -0.0000    0.0000    0.0000   -0.0000   -0.0000   -0.0000    0.0000
      169 MO     6h1-      -0.0000   -0.0000   -0.0000   -0.0000   -0.0000   -0.0000   -0.0000   -0.0000    0.0000    0.0000
      170 MO     7h1-       0.0000    0.0000    0.0000    0.0000    0.0000    0.0000    0.0000    0.0000   -0.0000   -0.0000
      171 MO     6h0        0.0000    0.0000   -0.0000    0.0000   -0.0000   -0.0000   -0.0000    0.0000   -0.0000    0.0000
      172 MO     7h0        0.0000    0.0000    0.0000   -0.0000    0.0000    0.0000    0.0000   -0.0000    0.0000   -0.0000
      173 MO     6h1+      -0.0000   -0.0000    0.0000   -0.0000   -0.0000    0.0000    0.0000   -0.0000   -0.0000    0.0000
      174 MO     7h1+      -0.0000   -0.0000   -0.0000    0.0000    0.0000   -0.0000   -0.0000    0.0000    0.0000   -0.0000
      175 MO     6h2+      -0.0000   -0.0000    0.0000   -0.0000    0.0000    0.0000    0.0000   -0.0000    0.0000   -0.0000
      176 MO     7h2+      -0.0000   -0.0000   -0.0000    0.0000   -0.0000   -0.0000   -0.0000    0.0000   -0.0000    0.0000
      177 MO     6h3+       0.0000    0.0000    0.0000   -0.0000    0.0000   -0.0000    0.0000   -0.0000    0.0000   -0.0000
      178 MO     7h3+       0.0000    0.0000   -0.0000    0.0000   -0.0000    0.0000   -0.0000    0.0000   -0.0000    0.0000
      179 MO     6h4+      -0.0000   -0.0000   -0.0000    0.0000    0.0000    0.0000   -0.0000    0.0000    0.0000    0.0000
      180 MO     7h4+      -0.0000   -0.0000    0.0000   -0.0000   -0.0000   -0.0000    0.0000   -0.0000   -0.0000   -0.0000
      181 MO     6h5+      -0.0000   -0.0000    0.0000   -0.0000   -0.0000    0.0000    0.0000   -0.0000   -0.0000   -0.0000
      182 MO     7h5+      -0.0000   -0.0000    0.0000   -0.0000    0.0000   -0.0000    0.0000   -0.0000    0.0000    0.0000

          Orbital           11        12        13        14    
          Energy          -35.0233  -35.0224  -35.0224  -35.0221
          Occ. No.          0.0000    0.0000    0.0000    0.0000

        1 MO     1s        -0.0000    0.0000    0.0000    0.0000
        2 MO     2s        -0.0000   -0.0000   -0.0000    0.0000
        3 MO     3s        -0.0000   -0.0000   -0.0000    0.0001
        4 MO     4s         0.0000   -0.0000   -0.0000   -0.0000
        5 MO     5s        -0.0000    0.0000    0.0000    0.0000
        6 MO     6s         0.0000   -0.0000   -0.0000   -0.0000
        7 MO     7s        -0.0000    0.0000    0.0000    0.0000
        8 MO     8s         0.0000    0.0000    0.0000   -0.0000
        9 MO     9s        -0.0000   -0.0000   -0.0000    0.0000
       10 MO    10s         0.0000    0.0000    0.0000   -0.0000
       11 MO     2px       -0.0000    0.0000    0.0000   -0.0001
       12 MO     3px       -0.0000    0.0000    0.0000   -0.0058
       13 MO     4px        0.0000   -0.0000   -0.0000    0.0011
       14 MO     5px       -0.0000    0.0000    0.0000   -0.0004
       15 MO     6px        0.0000   -0.0000   -0.0000    0.0008
       16 MO     7px       -0.0000    0.0000    0.0000   -0.0007
       17 MO     8px        0.0000   -0.0000   -0.0000    0.0007
       18 MO     9px       -0.0000    0.0000    0.0000   -0.0005
       19 MO    10px        0.0000   -0.0000   -0.0000    0.0002
       20 MO     2py        0.0000    0.0000   -0.0001   -0.0000
       21 MO     3py        0.0000    0.0000   -0.0050    0.0000
       22 MO     4py       -0.0000   -0.0000    0.0010   -0.0000
       23 MO     5py        0.0000    0.0000   -0.0003   -0.0000
       24 MO     6py       -0.0000   -0.0000    0.0007   -0.0000
       25 MO     7py        0.0000    0.0000   -0.0006    0.0000
       26 MO     8py       -0.0000   -0.0000    0.0006   -0.0000
       27 MO     9py        0.0000    0.0000   -0.0004    0.0000
       28 MO    10py       -0.0000   -0.0000    0.0002   -0.0000
       29 MO     2pz       -0.0000   -0.0001   -0.0000   -0.0000
       30 MO     3pz       -0.0000   -0.0050   -0.0000   -0.0000
       31 MO     4pz        0.0000    0.0010    0.0000    0.0000
       32 MO     5pz       -0.0000   -0.0003   -0.0000   -0.0000
       33 MO     6pz        0.0000    0.0007    0.0000    0.0000
       34 MO     7pz       -0.0000   -0.0006   -0.0000   -0.0000
       35 MO     8pz        0.0000    0.0006    0.0000    0.0000
       36 MO     9pz       -0.0000   -0.0004   -0.0000   -0.0000
       37 MO    10pz        0.0000    0.0002    0.0000    0.0000
       38 MO     3d2-      -0.0000   -0.0000    0.9757   -0.0000
       39 MO     4d2-       0.0000    0.0000   -0.0981    0.0000
       40 MO     5d2-      -0.0000   -0.0000    0.1046   -0.0000
       41 MO     6d2-       0.0000    0.0000   -0.0889    0.0000
       42 MO     7d2-      -0.0000   -0.0000    0.0775   -0.0000
       43 MO     8d2-       0.0000    0.0000   -0.0794    0.0000
       44 MO     9d2-      -0.0000   -0.0000    0.0604   -0.0000
       45 MO    10d2-       0.0000    0.0000   -0.0592    0.0000
       46 MO    11d2-      -0.0000   -0.0000    0.0088   -0.0000
       47 MO     3d1-       0.0000   -0.0000    0.0027   -0.0000
       48 MO     4d1-      -0.0000    0.0000   -0.0003    0.0000
       49 MO     5d1-       0.0000   -0.0000    0.0003   -0.0000
       50 MO     6d1-      -0.0000    0.0000   -0.0002    0.0000
       51 MO     7d1-       0.0000   -0.0000    0.0002   -0.0000
       52 MO     8d1-      -0.0000    0.0000   -0.0002    0.0000
       53 MO     9d1-       0.0000   -0.0000    0.0002   -0.0000
       54 MO    10d1-      -0.0000    0.0000   -0.0002    0.0000
       55 MO    11d1-       0.0000   -0.0000    0.0000   -0.0000
       56 MO     3d0        0.8450    0.0010    0.0000   -0.4878
       57 MO     4d0       -0.0850   -0.0001   -0.0000    0.0491
       58 MO     5d0        0.0906    0.0001    0.0000   -0.0523
       59 MO     6d0       -0.0770   -0.0001   -0.0000    0.0445
       60 MO     7d0        0.0671    0.0001    0.0000   -0.0387
       61 MO     8d0       -0.0687   -0.0001   -0.0000    0.0397
       62 MO     9d0        0.0523    0.0001    0.0000   -0.0302
       63 MO    10d0       -0.0512   -0.0001   -0.0000    0.0296
       64 MO    11d0        0.0077    0.0000    0.0000   -0.0044
       65 MO     3d1+       0.0001    0.9757    0.0000    0.0022
       66 MO     4d1+      -0.0000   -0.0981   -0.0000   -0.0002
       67 MO     5d1+       0.0000    0.1046    0.0000    0.0002
       68 MO     6d1+      -0.0000   -0.0889   -0.0000   -0.0002
       69 MO     7d1+       0.0000    0.0775    0.0000    0.0002
       70 MO     8d1+      -0.0000   -0.0794   -0.0000   -0.0002
       71 MO     9d1+       0.0000    0.0604    0.0000    0.0001
       72 MO    10d1+      -0.0000   -0.0592   -0.0000   -0.0001
       73 MO    11d1+       0.0000    0.0088    0.0000    0.0000
       74 MO     3d2+       0.4879   -0.0020   -0.0000    0.8450
       75 MO     4d2+      -0.0491    0.0002    0.0000   -0.0850
       76 MO     5d2+       0.0523   -0.0002   -0.0000    0.0906
       77 MO     6d2+      -0.0445    0.0002    0.0000   -0.0770
       78 MO     7d2+       0.0387   -0.0002   -0.0000    0.0671
       79 MO     8d2+      -0.0397    0.0002    0.0000   -0.0687
       80 MO     9d2+       0.0302   -0.0001   -0.0000    0.0523
       81 MO    10d2+      -0.0296    0.0001    0.0000   -0.0512
       82 MO    11d2+       0.0044   -0.0000   -0.0000    0.0077
       83 MO     4f3-      -0.0000   -0.0000    0.0004   -0.0000
       84 MO     5f3-      -0.0000   -0.0000    0.0005   -0.0000
       85 MO     6f3-       0.0000    0.0000   -0.0005    0.0000
       86 MO     7f3-      -0.0000   -0.0000    0.0004   -0.0000
       87 MO     8f3-      -0.0000   -0.0000    0.0002   -0.0000
       88 MO     9f3-       0.0000    0.0000   -0.0010    0.0000
       89 MO     4f2-       0.0000   -0.0000    0.0000   -0.0000
       90 MO     5f2-       0.0000   -0.0000    0.0000   -0.0000
       91 MO     6f2-      -0.0000    0.0000   -0.0000    0.0000
       92 MO     7f2-       0.0000   -0.0000    0.0000   -0.0000
       93 MO     8f2-       0.0000   -0.0000    0.0000   -0.0000
       94 MO     9f2-      -0.0000    0.0000   -0.0000    0.0000
       95 MO     4f1-       0.0000    0.0000   -0.0001    0.0000
       96 MO     5f1-       0.0000    0.0000   -0.0001    0.0000
       97 MO     6f1-      -0.0000   -0.0000    0.0001   -0.0000
       98 MO     7f1-       0.0000    0.0000   -0.0001    0.0000
       99 MO     8f1-       0.0000    0.0000   -0.0001    0.0000
      100 MO     9f1-      -0.0000   -0.0000    0.0003   -0.0000
      101 MO     4f0        0.0000   -0.0003   -0.0000   -0.0000
      102 MO     5f0        0.0000   -0.0003   -0.0000   -0.0000
      103 MO     6f0       -0.0000    0.0003    0.0000    0.0000
      104 MO     7f0        0.0000   -0.0003   -0.0000   -0.0000
      105 MO     8f0        0.0000   -0.0002   -0.0000   -0.0000
      106 MO     9f0       -0.0000    0.0006    0.0000    0.0000
      107 MO     4f1+       0.0003    0.0000    0.0000   -0.0003
      108 MO     5f1+       0.0003    0.0000    0.0000   -0.0003
      109 MO     6f1+      -0.0003   -0.0000   -0.0000    0.0003
      110 MO     7f1+       0.0003    0.0000    0.0000   -0.0003
      111 MO     8f1+       0.0002    0.0000    0.0000   -0.0002
      112 MO     9f1+      -0.0007   -0.0000   -0.0000    0.0007
      113 MO     4f2+       0.0000    0.0003    0.0000    0.0000
      114 MO     5f2+       0.0000    0.0004    0.0000    0.0000
      115 MO     6f2+      -0.0000   -0.0004   -0.0000   -0.0000
      116 MO     7f2+       0.0000    0.0003    0.0000    0.0000
      117 MO     8f2+       0.0000    0.0002    0.0000    0.0000
      118 MO     9f2+      -0.0000   -0.0008   -0.0000   -0.0000
      119 MO     4f3+       0.0002   -0.0000   -0.0000    0.0004
      120 MO     5f3+       0.0002   -0.0000   -0.0000    0.0004
      121 MO     6f3+      -0.0002    0.0000    0.0000   -0.0004
      122 MO     7f3+       0.0002   -0.0000   -0.0000    0.0004
      123 MO     8f3+       0.0001   -0.0000   -0.0000    0.0002
      124 MO     9f3+      -0.0005    0.0000    0.0000   -0.0009
      125 MO     5g4-       0.0000    0.0000   -0.0000    0.0000
      126 MO     6g4-      -0.0000   -0.0000    0.0000    0.0000
      127 MO     7g4-       0.0000    0.0000   -0.0000    0.0000
      128 MO     8g4-      -0.0000   -0.0000    0.0000   -0.0000
      129 MO     5g3-      -0.0000    0.0000   -0.0000    0.0000
      130 MO     6g3-       0.0000   -0.0000    0.0000   -0.0000
      131 MO     7g3-      -0.0000    0.0000   -0.0000    0.0000
      132 MO     8g3-       0.0000   -0.0000    0.0000   -0.0000
      133 MO     5g2-      -0.0000   -0.0000    0.0000   -0.0000
      134 MO     6g2-       0.0000    0.0000   -0.0000    0.0000
      135 MO     7g2-      -0.0000   -0.0000    0.0000    0.0000
      136 MO     8g2-       0.0000    0.0000   -0.0000    0.0000
      137 MO     5g1-       0.0000   -0.0000    0.0000   -0.0000
      138 MO     6g1-      -0.0000    0.0000   -0.0000    0.0000
      139 MO     7g1-       0.0000   -0.0000    0.0000   -0.0000
      140 MO     8g1-      -0.0000    0.0000   -0.0000    0.0000
      141 MO     5g0        0.0000    0.0000    0.0000   -0.0000
      142 MO     6g0       -0.0000   -0.0000   -0.0000    0.0000
      143 MO     7g0        0.0000    0.0000    0.0000   -0.0000
      144 MO     8g0       -0.0000   -0.0000   -0.0000    0.0000
      145 MO     5g1+       0.0000    0.0000    0.0000    0.0000
      146 MO     6g1+      -0.0000   -0.0000   -0.0000   -0.0000
      147 MO     7g1+       0.0000    0.0000    0.0000    0.0000
      148 MO     8g1+      -0.0000   -0.0000   -0.0000   -0.0000
      149 MO     5g2+      -0.0000    0.0000    0.0000    0.0000
      150 MO     6g2+       0.0000   -0.0000   -0.0000   -0.0000
      151 MO     7g2+      -0.0000    0.0000    0.0000    0.0000
      152 MO     8g2+       0.0000    0.0000    0.0000   -0.0000
      153 MO     5g3+      -0.0000   -0.0000   -0.0000   -0.0000
      154 MO     6g3+       0.0000    0.0000    0.0000    0.0000
      155 MO     7g3+      -0.0000   -0.0000   -0.0000   -0.0000
      156 MO     8g3+       0.0000    0.0000    0.0000    0.0000
      157 MO     5g4+      -0.0000    0.0000    0.0000   -0.0000
      158 MO     6g4+       0.0000   -0.0000   -0.0000    0.0000
      159 MO     7g4+      -0.0000    0.0000    0.0000   -0.0000
      160 MO     8g4+       0.0000   -0.0000   -0.0000    0.0000
      161 MO     6h5-       0.0000   -0.0000    0.0000   -0.0000
      162 MO     7h5-      -0.0000    0.0000   -0.0000    0.0000
      163 MO     6h4-       0.0000   -0.0000    0.0000   -0.0000
      164 MO     7h4-      -0.0000    0.0000   -0.0000    0.0000
      165 MO     6h3-      -0.0000    0.0000   -0.0000   -0.0000
      166 MO     7h3-       0.0000   -0.0000    0.0000    0.0000
      167 MO     6h2-      -0.0000   -0.0000    0.0000    0.0000
      168 MO     7h2-       0.0000    0.0000   -0.0000    0.0000
      169 MO     6h1-       0.0000   -0.0000    0.0000   -0.0000
      170 MO     7h1-      -0.0000    0.0000   -0.0000    0.0000
      171 MO     6h0       -0.0000    0.0000    0.0000   -0.0000
      172 MO     7h0        0.0000   -0.0000   -0.0000    0.0000
      173 MO     6h1+      -0.0000   -0.0000   -0.0000    0.0000
      174 MO     7h1+       0.0000    0.0000    0.0000   -0.0000
      175 MO     6h2+       0.0000   -0.0000   -0.0000   -0.0000
      176 MO     7h2+      -0.0000    0.0000    0.0000    0.0000
      177 MO     6h3+       0.0000    0.0000    0.0000   -0.0000
      178 MO     7h3+      -0.0000   -0.0000   -0.0000    0.0000
      179 MO     6h4+      -0.0000    0.0000    0.0000    0.0000
      180 MO     7h4+       0.0000   -0.0000   -0.0000   -0.0000
      181 MO     6h5+       0.0000    0.0000    0.0000    0.0000
      182 MO     7h5+      -0.0000   -0.0000   -0.0000   -0.0000
--


++    Molecular charges:
      ------------------

      Mulliken charges per centre and basis function type
      ---------------------------------------------------

                MO    
      1s       2.0000
      2s       2.0000
      2px      2.0000
      2pz      2.0000
      2py      2.0000
      3s       1.9565
      3px      1.9408
      3pz      1.9409
      3py      1.9409
      4s       0.0198
      3d2+     0.0001
      3d1+     0.0001
      3d0      0.0000
      3d1-     0.0000
      3d2-     0.0001
      4px      0.0230
      4pz      0.0230
      4py      0.0230
      5s       0.0009
      4d2+     0.0000
      4d1+     0.0000
      4d0      0.0000
      4d1-     0.0000
      4d2-     0.0000
      5px      0.0024
      5pz      0.0023
      5py      0.0023
      6s       0.0013
      4f3+     0.0000
      4f2+     0.0000
      4f1+     0.0000
      4f0      0.0000
      4f1-     0.0000
      4f2-     0.0000
      4f3-     0.0000
      5d2+     0.0000
      5d1+     0.0000
      5d0      0.0000
      5d1-     0.0000
      5d2-     0.0000
      6px      0.0125
      6pz      0.0125
      6py      0.0125
      7s       0.0096
      5f3+     0.0000
      5f2+     0.0000
      5f1+     0.0000
      5f0      0.0000
      5f1-     0.0000
      5f2-     0.0000
      5f3-     0.0000
      6d2+     0.0000
      6d1+     0.0000
      6d0      0.0000
      6d1-     0.0000
      6d2-     0.0000
      7px      0.0080
      7pz      0.0080
      7py      0.0080
      5g4+     0.0000
      5g3+     0.0000
      5g2+     0.0000
      5g1+     0.0000
      5g0      0.0000
      5g1-     0.0000
      5g2-     0.0000
      5g3-     0.0000
      5g4-     0.0000
      6f3+     0.0000
      6f2+     0.0000
      6f1+     0.0000
      6f0      0.0000
      6f1-     0.0000
      6f2-     0.0000
      6f3-     0.0000
      6g4+     0.0000
      6g3+     0.0000
      6g2+     0.0000
      6g1+     0.0000
      6g0      0.0000
      6g1-     0.0000
      6g2-     0.0000
      6g3-     0.0000
      6g4-     0.0000
      6h5+     0.0000
      6h4+     0.0000
      6h3+     0.0000
      6h2+     0.0000
      6h1+     0.0000
      6h0      0.0000
      6h1-     0.0000
      6h2-     0.0000
      6h3-     0.0000
      6h4-     0.0000
      6h5-     0.0000
      7d2+     0.0000
      7d1+     0.0000
      7d0      0.0000
      7d1-     0.0000
      7d2-     0.0000
      7f3+     0.0000
      7f2+     0.0000
      7f1+     0.0000
      7f0      0.0000
      7f1-     0.0000
      7f2-     0.0000
      7f3-     0.0000
      7g4+     0.0000
      7g3+     0.0000
      7g2+     0.0000
      7g1+     0.0000
      7g0      0.0000
      7g1-     0.0000
      7g2-     0.0000
      7g3-     0.0000
      7g4-     0.0000
      7h5+     0.0000
      7h4+     0.0000
      7h3+     0.0000
      7h2+     0.0000
      7h1+     0.0000
      7h0      0.0000
      7h1-     0.0000
      7h2-     0.0000
      7h3-     0.0000
      7h4-     0.0000
      7h5-     0.0000
      8s       0.0056
      8px      0.0080
      8pz      0.0080
      8py      0.0080
      8d2+     0.0000
      8d1+     0.0000
      8d0      0.0000
      8d1-     0.0000
      8d2-     0.0000
      8f3+     0.0000
      8f2+     0.0000
      8f1+     0.0000
      8f0      0.0000
      8f1-     0.0000
      8f2-     0.0000
      8f3-     0.0000
      8g4+     0.0000
      8g3+     0.0000
      8g2+     0.0000
      8g1+     0.0000
      8g0      0.0000
      8g1-     0.0000
      8g2-     0.0000
      8g3-     0.0000
      8g4-     0.0000
      9s       0.0043
      9px      0.0043
      9pz      0.0043
      9py      0.0043
      9d2+     0.0000
      9d1+     0.0000
      9d0      0.0000
      9d1-     0.0000
      9d2-     0.0000
      9f3+     0.0000
      9f2+     0.0000
      9f1+     0.0000
      9f0      0.0000
      9f1-     0.0000
      9f2-     0.0000
      9f3-     0.0000
     10s       0.0020
     10px      0.0009
     10pz      0.0009
     10py      0.0009
     10d2+     0.0000
     10d1+     0.0000
     10d0      0.0000
     10d1-     0.0000
     10d2-     0.0000
     11d2+     0.0000
     11d1+     0.0000
     11d0      0.0000
     11d1-     0.0000
     11d2-     0.0000
      Total   18.0000

      N-E     24.0000

      Total electronic charge=   18.000000

      Total            charge=   24.000000
--

 Sorry, Molden does not know how to handle
 functions with angular momentum larger than g

++    Static properties:
      ------------------


      LoProp Charges per center


                   MO    
      Nuclear     42.0000
      Electronic -18.0000

      Total       24.0000
--


++    Molecular properties:
      ---------------------

      Charge (e):
                      =   24.0000
      Dipole Moment (Debye):
      Origin of the operator (Ang)=    0.0000    0.0000    0.0000
                   X= -3.0367E-02               Y= -1.8845E-13               Z=  5.3397E-01           Total=  5.3483E-01
      Center of Charge (Ang)
                     X=   -0.00026342               Y=   -0.00000000               Z=    0.00463208
      Quadrupole Moment (Debye*Ang):
      Origin of the operator (Ang)=   -0.0000   -0.0000    0.0046
                  XX= -6.7805E-01              XY= -3.6432E-18              XZ=  1.2554E-07              YY= -6.7813E-01
                  YZ=  3.3321E-16              ZZ= -6.7813E-01
      In traceless form (Debye*Ang)
                  XX=  8.0990E-05              XY= -5.4648E-18              XZ=  1.8831E-07              YY= -4.0494E-05
                  YZ=  4.9982E-16              ZZ= -4.0497E-05
--

 Sorry, Molden does not know how to handle
 functions with angular momentum larger than g
 ###############################################################################
 ###############################################################################
 ###                                                                         ###
 ###                                                                         ###
 ###    WARNING: RunFile label nBas                                          ###
 ###    was used       62 times                                              ###
 ###                                                                         ###
 ###                                                                         ###
 ###############################################################################
 ###############################################################################
Note: The following floating-point exceptions are signalling: IEEE_UNDERFLOW_FLAG IEEE_DENORMAL
--- Stop Module: scf at Thu Mar 27 00:10:42 2025 /rc=_RC_ALL_IS_WELL_ ---
*** files: molybdenum_so_cf.LprOrb molybdenum_so_cf.ScfOrb xmldump
    saved to directory /home4/s4752295/Internship/Initial_simulations/Point_charge_model/1_electron/Madelung_charges_9_active_space/Mo
--- Module scf spent 6 seconds ---

*** symbolic link created: INPORB -> molybdenum_so_cf.ScfOrb
--- Start Module: rasscf at Thu Mar 27 00:10:42 2025 ---

()()()()()()()()()()()()()()()()()()()()()()()()()()()()()()()()()()()()()()()()()()()()()()()()()()

                                              &RASSCF

                                   only a single process is used
                       available to each process: 4.1 GB of memory, 1 thread?
                                            pid: 1937758
()()()()()()()()()()()()()()()()()()()()()()()()()()()()()()()()()()()()()()()()()()()()()()()()()()


      Header of the ONEINT file:
      --------------------------
      
      Integrals generated by seward 4.2.0  , Thu Mar 27 00:10:26 2025


      OrdInt status: non-squared


      Cartesian coordinates in Angstrom:
      -----------------------------------------------------
      No.  Label        X            Y            Z        
      -----------------------------------------------------
       1   MO        -0.00000000  -0.00000000   0.00463220
      -----------------------------------------------------
      Nuclear repulsion energy = -192.12837176

++    Wave function specifications:
      -----------------------------

      Number of closed shell electrons          18
      Number of electrons in active shells       1
      Max number of holes in RAS1 space          0
      Max nr of electrons in RAS3 space          0
      Number of inactive orbitals                9
      Number of active orbitals                  9
      Number of secondary orbitals             164
      Spin quantum number                      0.5
      State symmetry                             1
--

++    Orbital specifications:
      -----------------------

      Symmetry species                           1
                                                 a
      Frozen orbitals                            0
      Inactive orbitals                          9
      Active orbitals                            9
      RAS1 orbitals                              0
      RAS2 orbitals                              9
      RAS3 orbitals                              0
      Secondary orbitals                       164
      Deleted orbitals                           0
      Number of basis functions                182
--

++    CI expansion specifications:
      ----------------------------

      Number of CSFs                             9
      Number of determinants                     9
      Number of root(s) required                 9
      Root chosen for geometry opt.              9
      CI roots used                              1     2     3     4     5     6     7     8     9
      weights                                0.111 0.111 0.111 0.111 0.111 0.111 0.111 0.111 0.111
      highest root included in the CI            9
      max. size of the explicit Hamiltonian      9
--

++    Optimization specifications:
      ----------------------------

      RASSCF algorithm: Conventional
      Maximum number of macro iterations       200
      Maximum number of SX iterations          100
      Threshold for RASSCF energy            0.100E-07
      Threshold for max MO rotation          0.100E+00
      Threshold for max BLB element          0.100E-03
      Level shift parameter                  0.500E+00
      Make Quasi-Newton update
--

      The MO-coefficients are taken from the file:
      INPORB                                                                                                                          
      Title: SCF orbitals                                                                  

      Total molecular charge   23.00

      ************************************************************************************************************************
      *                                                                                                                      *
      *                                            Wave function control section                                             *
      *                                                                                                                      *
      ************************************************************************************************************************


                                         RASSCF iterations: Energy and convergence statistics
                                         ----------------------------------------------------

      Iter CI   SX   CI       RASSCF       Energy    max ROT     max BLB   max BLB  Level Ln srch  Step   QN   Walltime
          iter iter root      energy       change     param      element    value   shift minimum  type update hh:mm:ss
 Nr of preliminary CI iterations:   1
      Total energies have been shifted. Add                -3000.00 au
        1   1    5    0  -820.94374908    0.00E+00   0.10E-01    8  17 1 -0.45E+00*  0.00   0.00    SX    NO    0:00:03
        2   1    4    0  -820.96803442   -0.24E-01* -0.22E-02    8 175 1  0.31E-01*  0.00   0.00    SX    NO    0:00:01
        3   1    4    0  -820.96815484   -0.12E-03* -0.16E-02    8 175 1 -0.27E-02*  0.00   0.00    SX    NO    0:00:01
        4   1    4    0  -820.96816395   -0.91E-05* -0.11E-02   10  19 1  0.14E-02*  0.00   0.00    SX    NO    0:00:01
        5   1    4    0  -820.96816682   -0.29E-05*  0.43E-03   10  19 1 -0.94E-03*  0.00   0.61    QN   YES    0:00:01
        6   1    3    0  -820.96816895   -0.21E-05*  0.61E-04   17  33 1  0.11E-03*  0.00   1.03    QN   YES    0:00:01
        7   1    3    0  -820.96816900   -0.48E-07*  0.62E-04   17  33 1  0.55E-04   0.00   1.67    QN   YES    0:00:01
        8   1    3    0  -820.96816901   -0.17E-07* -0.20E-04   18  23 1 -0.20E-04   0.00   1.02    QN   YES    0:00:01
        9   1    3    0  -820.96816902   -0.20E-08  -0.50E-04   18  23 1 -0.16E-04   0.00   2.16    QN   YES    0:00:01
      Convergence after  9 iterations
       10   1    3    0  -820.96816902   -0.26E-08  -0.50E-04   10  35 1 -0.64E-05   0.00   2.16    QN   YES    0:00:01

      ************************************************************************************************************************
                                                      Wave function printout:
                       occupation of active orbitals, and spin coupling of open shells (u,d: Spin up or down)
      ************************************************************************************************************************

      Note: transformation to natural orbitals
      has been made, which may change the order of the CSFs.

      printout of CI-coefficients larger than  0.05 for root  1
      energy=   -3828.513656
      conf/sym  111111111     Coeff  Weight
             1  u00000000   0.84993 0.72238
             2  0u0000000  -0.15387 0.02368
             3  00u000000   0.50094 0.25094

      printout of CI-coefficients larger than  0.05 for root  2
      energy=   -3828.513656
      conf/sym  111111111     Coeff  Weight
             1  u00000000  -0.13320 0.01774
             2  0u0000000   0.84033 0.70616
             3  00u000000   0.50131 0.25131
             4  000u00000   0.10930 0.01195
             6  00000u000   0.11328 0.01283

      printout of CI-coefficients larger than  0.05 for root  3
      energy=   -3828.512790
      conf/sym  111111111     Coeff  Weight
             1  u00000000  -0.50411 0.25413
             2  0u0000000  -0.49635 0.24637
             3  00u000000   0.70149 0.49208
             5  0000u0000   0.05889 0.00347

      printout of CI-coefficients larger than  0.05 for root  4
      energy=   -3828.512790
      conf/sym  111111111     Coeff  Weight
             1  u00000000   0.06335 0.00401
             2  0u0000000  -0.14770 0.02182
             4  000u00000   0.69791 0.48707
             6  00000u000   0.69646 0.48506

      printout of CI-coefficients larger than  0.05 for root  5
      energy=   -3828.512494
      conf/sym  111111111     Coeff  Weight
[...]
     5             0.0008661588        0.0235693830            190.0999         2.1
     6             0.0008661588        0.0235693830            190.0999         2.1
     7             0.0008662086        0.0235707370            190.1108         2.1
     8             0.0008662086        0.0235707370            190.1108         2.1
     9             0.0011621269        0.0316230845            255.0574         2.1
    10             0.0011621269        0.0316230845            255.0574         2.1
    11            15.9167130514      433.1158266093        3493314.7295         0.5
    12            15.9167130514      433.1158266093        3493314.7295         0.5
    13            17.3259131000      471.4621134295        3802598.3907         1.2
    14            17.3259131000      471.4621134295        3802598.3907         1.2
    15            17.3259133949      471.4621214519        3802598.4554         1.2
    16            17.3259133949      471.4621214519        3802598.4554         1.2
    17            17.3379471018      471.7895752989        3805239.5488         1.2
    18            17.3379471018      471.7895752989        3805239.5488         1.2


 Weights of the five most important spin-orbit-free states for each spin-orbit state.

 SO State  Total energy (au)           Spin-free states, spin, and weights
 -------------------------------------------------------------------------------------------------------
    1         0.000000       1 0.5  1.0000    9 0.5  0.0000    8 0.5  0.0000    7 0.5  0.0000    6 0.5  0.0000
    2         0.000000       1 0.5  1.0000    9 0.5  0.0000    8 0.5  0.0000    7 0.5  0.0000    6 0.5  0.0000
    3         0.000000       2 0.5  1.0000    9 0.5  0.0000    8 0.5  0.0000    7 0.5  0.0000    6 0.5  0.0000
    4         0.000000       2 0.5  1.0000    9 0.5  0.0000    8 0.5  0.0000    7 0.5  0.0000    6 0.5  0.0000
    5         0.000866       3 0.5  1.0000    9 0.5  0.0000    8 0.5  0.0000    7 0.5  0.0000    6 0.5  0.0000
    6         0.000866       3 0.5  1.0000    9 0.5  0.0000    8 0.5  0.0000    7 0.5  0.0000    6 0.5  0.0000
    7         0.000866       4 0.5  1.0000    9 0.5  0.0000    8 0.5  0.0000    7 0.5  0.0000    6 0.5  0.0000
    8         0.000866       4 0.5  1.0000    9 0.5  0.0000    8 0.5  0.0000    7 0.5  0.0000    6 0.5  0.0000
    9         0.001162       5 0.5  1.0000    9 0.5  0.0000    8 0.5  0.0000    7 0.5  0.0000    6 0.5  0.0000
   10         0.001162       5 0.5  1.0000    9 0.5  0.0000    8 0.5  0.0000    7 0.5  0.0000    6 0.5  0.0000
   11        15.916713       6 0.5  1.0000    9 0.5  0.0000    8 0.5  0.0000    7 0.5  0.0000    5 0.5  0.0000
   12        15.916713       6 0.5  1.0000    9 0.5  0.0000    8 0.5  0.0000    7 0.5  0.0000    5 0.5  0.0000
   13        17.325913       7 0.5  1.0000    9 0.5  0.0000    8 0.5  0.0000    6 0.5  0.0000    5 0.5  0.0000
   14        17.325913       7 0.5  1.0000    9 0.5  0.0000    8 0.5  0.0000    6 0.5  0.0000    5 0.5  0.0000
   15        17.325913       8 0.5  1.0000    9 0.5  0.0000    7 0.5  0.0000    6 0.5  0.0000    5 0.5  0.0000
   16        17.325913       8 0.5  1.0000    9 0.5  0.0000    7 0.5  0.0000    6 0.5  0.0000    5 0.5  0.0000
   17        17.337947       9 0.5  1.0000    8 0.5  0.0000    7 0.5  0.0000    6 0.5  0.0000    5 0.5  0.0000
   18        17.337947       9 0.5  1.0000    8 0.5  0.0000    7 0.5  0.0000    6 0.5  0.0000    5 0.5  0.0000
 -------------------------------------------------------------------------------------------------------


      ****************************************************************************************************
      *                                                                                                  *
      *                                    Special properties section                                    *
      *                                                                                                  *
      ****************************************************************************************************


++ Dipole transition strengths (SO states):
   ----------------------------------------
    for osc. strength at least    1.0000000000000001E-005

      From   To        Osc. strength     Einstein coefficients Ax, Ay, Az (sec-1)    Total A (sec-1)
     -----------------------------------------------------------------------------------------------
         1   13       1.71435064E-02  2.48456484E-06  1.65348893E+11  2.25396117E+01  1.65348893E+11
         1   15       1.71435735E-02  1.25908460E+06  2.25394845E+01  1.65348287E+11  1.65349546E+11
         2   14       1.71435064E-02  2.48456484E-06  1.65348893E+11  2.25396117E+01  1.65348893E+11
         2   16       1.71435735E-02  1.25908460E+06  2.25394845E+01  1.65348287E+11  1.65349546E+11
         3   13       1.71435607E-02  3.75989561E+03  2.25394772E+01  1.65349413E+11  1.65349417E+11
         3   15       1.71435494E-02  1.88541219E-04  1.65349313E+11  2.25393902E+01  1.65349313E+11
         4   14       1.71435607E-02  3.75989561E+03  2.25394772E+01  1.65349413E+11  1.65349417E+11
         4   16       1.71435494E-02  1.88541219E-04  1.65349313E+11  2.25393902E+01  1.65349313E+11
         5   11       7.58286898E-05  2.78365626E+03  3.24301173E-09  6.17163840E+08  6.17166623E+08
         5   13       1.71635227E-02  1.65525387E+11  1.58184193E-07  1.14770281E+04  1.65525399E+11
         5   17       1.70570484E-02  4.64730808E+05  8.64678974E-07  1.64726694E+11  1.64727159E+11
         6   12       7.58286898E-05  2.78365626E+03  3.24301173E-09  6.17163840E+08  6.17166623E+08
         6   14       1.71635227E-02  1.65525387E+11  1.58184193E-07  1.14770281E+04  1.65525399E+11
         6   18       1.70570484E-02  4.64730808E+05  8.64678974E-07  1.64726694E+11  1.64727159E+11
         7   11       7.58261808E-05  6.79689483E-11  6.17146199E+08  3.26389506E-09  6.17146199E+08
         7   15       1.71635288E-02  1.65524235E+11  5.24177181E-08  1.22731218E+06  1.65525462E+11
         7   17       1.70569934E-02  1.89911615E-08  1.64726628E+11  8.65360368E-07  1.64726628E+11
         8   12       7.58261808E-05  6.79689483E-11  6.17146199E+08  3.26389506E-09  6.17146199E+08
         8   16       1.71635288E-02  1.65524235E+11  5.24177181E-08  1.22731218E+06  1.65525462E+11
         8   18       1.70569934E-02  1.89911615E-08  1.64726628E+11  8.65360368E-07  1.64726628E+11
         9   11       1.01752492E-04  8.28126201E+08  5.50881779E-11  2.39763784E+03  8.28128598E+08
         9   13       5.70920218E-03  2.37090464E+05  3.18095011E-02  5.50575559E+10  5.50577930E+10
         9   15       5.70916916E-03  6.17932684E-08  5.50574764E+10  3.18028462E-02  5.50574764E+10
         9   17       2.27775539E-02  2.19964521E+11  1.46905507E-08  4.79344712E+05  2.19965000E+11
        10   12       1.01752492E-04  8.28126201E+08  5.50881779E-11  2.39763784E+03  8.28128598E+08
        10   14       5.70920218E-03  2.37090464E+05  3.18095011E-02  5.50575559E+10  5.50577930E+10
        10   16       5.70916916E-03  6.17932684E-08  5.50574764E+10  3.18028462E-02  5.50574764E+10
        10   18       2.27775539E-02  2.19964521E+11  1.46905507E-08  4.79344712E+05  2.19965000E+11
        11   13       1.84424032E-01  9.39023637E+03  6.79777013E-03  1.17671649E+10  1.17671742E+10
        11   15       1.84424026E-01  5.42749652E-09  1.17671788E+10  6.79777070E-03  1.17671788E+10
        11   17       1.83550668E-01  1.19123159E+10  3.94032292E-16  9.56045352E+03  1.19123255E+10
        12   14       1.84424032E-01  9.39023637E+03  6.79777013E-03  1.17671649E+10  1.17671742E+10
        12   16       1.84424026E-01  5.42749652E-09  1.17671788E+10  6.79777070E-03  1.17671788E+10
        12   18       1.83550668E-01  1.19123159E+10  3.94032292E-16  9.56045352E+03  1.19123255E+10
     -----------------------------------------------------------------------------------------------
--

++ Velocity transition strengths (SO states):
   ------------------------------------------
    for osc. strength at least    1.0000000000000001E-005

      From   To        Osc. strength     Einstein coefficients Ax, Ay, Az (sec-1)    Total A (sec-1)
     -----------------------------------------------------------------------------------------------
         1    3       4.28302973E-05  4.84644627E-25  2.19127560E-10  8.25537917E-23  2.19127560E-10
         1    5       2.17590314E-04  1.43907280E-16  5.24500050E+00  8.10735277E-10  5.24500051E+00
         1    7       2.17572686E-04  1.00734248E-06  8.10772030E-10  5.24517719E+00  5.24517820E+00
         1   13       1.63601734E-02  2.34988227E-06  1.57794205E+11  2.15097883E+01  1.57794205E+11
         1   15       1.63602369E-02  1.19989089E+06  2.15096716E+01  1.57793623E+11  1.57794823E+11
         2    4       4.28302973E-05  4.84644627E-25  2.19127560E-10  8.25537917E-23  2.19127560E-10
         2    6       2.17590314E-04  1.43907280E-16  5.24500050E+00  8.10735277E-10  5.24500051E+00
         2    8       2.17572686E-04  1.00734248E-06  8.10772030E-10  5.24517719E+00  5.24517820E+00
         2   14       1.63601734E-02  2.34988227E-06  1.57794205E+11  2.15097883E+01  1.57794205E+11
         2   16       1.63602369E-02  1.19989089E+06  2.15096716E+01  1.57793623E+11  1.57794823E+11
         3    5       2.17589507E-04  1.15454219E-06  8.10877930E-10  5.24482709E+00  5.24482824E+00
         3    7       2.17576722E-04  1.89018637E-16  5.24512267E+00  8.10772397E-10  5.24512268E+00
         3   13       1.63602255E-02  3.52628440E+03  2.15096625E+01  1.57794704E+11  1.57794708E+11
         3   15       1.63602147E-02  1.79654266E-04  1.57794608E+11  2.15095786E+01  1.57794608E+11
         4    6       2.17589507E-04  1.15454219E-06  8.10877930E-10  5.24482709E+00  5.24482824E+00
         4    8       2.17576722E-04  1.89018637E-16  5.24512267E+00  8.10772397E-10  5.24512268E+00
         4   14       1.63602255E-02  3.52628440E+03  2.15096625E+01  1.57794704E+11  1.57794708E+11
         4   16       1.63602147E-02  1.79654266E-04  1.57794608E+11  2.15095786E+01  1.57794608E+11
         5    9       1.92353747E-03  1.13154302E-06  2.86444276E-17  5.41378704E+00  5.41378817E+00
         5   11       7.28009927E-05  2.67175229E+03  3.10853163E-09  5.92523708E+08  5.92526380E+08
         5   13       1.63763442E-02  1.57934369E+11  1.51178192E-07  1.08600896E+04  1.57934380E+11
         5   17       1.62774027E-02  4.43224313E+05  8.24934613E-07  1.57197893E+11  1.57198336E+11
         6   10       1.92353747E-03  1.13154302E-06  2.86444276E-17  5.41378704E+00  5.41378817E+00
         6   12       7.28009927E-05  2.67175229E+03  3.10853163E-09  5.92523708E+08  5.92526380E+08
         6   14       1.63763442E-02  1.57934369E+11  1.51178192E-07  1.08600896E+04  1.57934380E+11
         6   18       1.62774027E-02  4.43224313E+05  8.24934613E-07  1.57197893E+11  1.57198336E+11
         7    9       1.92384434E-03  3.01143859E-20  5.41283134E+00  2.92168561E-17  5.41283134E+00
         7   11       7.27987872E-05  7.35879509E-11  5.92508426E+08  3.10626799E-09  5.92508426E+08
         7   15       1.63763515E-02  1.57933283E+11  5.02800763E-08  1.17267042E+06  1.57934455E+11
         7   17       1.62773515E-02  1.83584781E-08  1.57197841E+11  8.25689080E-07  1.57197841E+11
         8   10       1.92384434E-03  3.01143859E-20  5.41283134E+00  2.92168561E-17  5.41283134E+00
         8   12       7.27987872E-05  7.35879509E-11  5.92508426E+08  3.10626799E-09  5.92508426E+08
         8   16       1.63763515E-02  1.57933283E+11  5.02800763E-08  1.17267042E+06  1.57934455E+11
         8   18       1.62773515E-02  1.83584781E-08  1.57197841E+11  8.25689080E-07  1.57197841E+11
         9   11       9.76219251E-05  7.94511791E+08  5.45102721E-11  2.30069731E+03  7.94514092E+08
         9   13       5.44859178E-03  2.26141514E+05  3.03575803E-02  5.25445028E+10  5.25447290E+10
         9   15       5.44855961E-03  5.89366422E-08  5.25444205E+10  3.03512555E-02  5.25444205E+10
         9   17       2.17322510E-02  2.09870683E+11  1.40116643E-08  4.57575348E+05  2.09871140E+11
        10   12       9.76219251E-05  7.94511791E+08  5.45102721E-11  2.30069731E+03  7.94514092E+08
        10   14       5.44859178E-03  2.26141514E+05  3.03575803E-02  5.25445028E+10  5.25447290E+10
        10   16       5.44855961E-03  5.89366422E-08  5.25444205E+10  3.03512555E-02  5.25444205E+10
        10   18       2.17322510E-02  2.09870683E+11  1.40116643E-08  4.57575348E+05  2.09871140E+11
        11   13       1.70697271E-01  8.69071099E+03  6.29183563E-03  1.08913676E+10  1.08913762E+10
        11   15       1.70697266E-01  5.02754929E-09  1.08913805E+10  6.29183157E-03  1.08913805E+10
        11   17       1.69869203E-01  1.10244363E+10  2.03995203E-15  8.84851978E+03  1.10244451E+10
        12   14       1.70697271E-01  8.69071099E+03  6.29183563E-03  1.08913676E+10  1.08913762E+10
        12   16       1.70697266E-01  5.02754929E-09  1.08913805E+10  6.29183157E-03  1.08913805E+10
        12   18       1.69869203E-01  1.10244363E+10  2.03995203E-15  8.84851978E+03  1.10244451E+10
        13   17       7.98442566E-05  1.72020402E-04  2.14534614E-10  3.71513418E+02  3.71513590E+02
        14   18       7.98442566E-05  1.72020402E-04  2.14534614E-10  3.71513418E+02  3.71513590E+02
        15   17       7.98461280E-05  1.38116259E-16  3.71504094E+02  2.14538948E-10  3.71504094E+02
        16   18       7.98461280E-05  1.38116259E-16  3.71504094E+02  2.14538948E-10  3.71504094E+02
     -----------------------------------------------------------------------------------------------
--

++ Length and velocity gauge comparison (SO states):

 --------------------------------------------------
 A comparison between the dipole oscillator strengths in 
 length and velocity gauge will be performed

 All dipole oscillator differences above the tolerance of   0.10000000000000001       will be printed 

 Due to basis set deficiency these oscillator may be problematic 

 The tolerance is defined as ABS(1-O_l/O_v) 
 O_l : dipole oscillator strength in length gauge
 O_p : dipole oscillator strength in velocity gauge
 --------------------------------------------------

  Problematic transitions have been found

      From   To       Difference (%) Osc. st. (len.) Osc. st. (vel.)
     ---------------------------------------------------------------
         1    3      --------------- below threshold  4.28302973E-05
         1    5      --------------- below threshold  2.17590314E-04
         1    7      --------------- below threshold  2.17572686E-04
         2    4      --------------- below threshold  4.28302973E-05
         2    6      --------------- below threshold  2.17590314E-04
         2    8      --------------- below threshold  2.17572686E-04
         3    5      --------------- below threshold  2.17589507E-04
         3    7      --------------- below threshold  2.17576722E-04
         4    6      --------------- below threshold  2.17589507E-04
         4    8      --------------- below threshold  2.17576722E-04
         5    9      --------------- below threshold  1.92353747E-03
         6   10      --------------- below threshold  1.92353747E-03
         7    9      --------------- below threshold  1.92384434E-03
         8   10      --------------- below threshold  1.92384434E-03
        13   17      --------------- below threshold  7.98442566E-05
        14   18      --------------- below threshold  7.98442566E-05
        15   17      --------------- below threshold  7.98461280E-05
        16   18      --------------- below threshold  7.98461280E-05
     ---------------------------------------------------------------

 Number of problematic transitions =                    18

--

 Electric-dipole - electric-octupole not included
++ Total transition strengths for the second-order expansion of the wave vector (SO states):
   -----------------------------------------------------------------------------------------
    for osc. strength at least    1.0000000000000001E-005

      From   To        Osc. strength
     -------------------------------
         1   11       1.21121726E-05
         2   12       1.21121726E-05
         3   11       1.21121715E-05
         4   12       1.21121715E-05
         5   11       1.21310852E-05
         6   12       1.21310852E-05
         7   11       1.21310808E-05
         8   12       1.21310808E-05
         9   11       1.21371699E-05
        10   12       1.21371699E-05
     -------------------------------
--

++ I/O STATISTICS
 
  I. General I/O information
  - - - - - - - - - - - - - - - - - - - - - - - - - - - - - - - - - - - - - - - - - - -
  Unit  Name          Flsize      Write/Read            MBytes           Write/Read
                      (MBytes)       Calls              In/Out           Time, sec.
  - - - - - - - - - - - - - - - - - - - - - - - - - - - - - - - - - - - - - - - - - - -
   1  SCRATCH           0.00 .       9/      45 .      0.0/      0.0 .       0/       0
   2  ANNI              0.00 .       0/       0 .      0.0/      0.0 .       0/       0
   3  RUNFILE          14.92 .     322/   10733 .      2.3/     77.8 .       0/       0
   4  ONEINT            5.68 .       0/   24849 .      0.0/   3743.6 .       0/       0
   5  JOBIPH            6.59 .       0/      92 .      0.0/      0.8 .       0/       0
   6  ORDINT          529.03 .       1/    4233 .      0.0/   1058.0 .       0/       0
  - - - - - - - - - - - - - - - - - - - - - - - - - - - - - - - - - - - - - - - - - - -
   *  TOTAL           556.23 .     332/   39952 .      2.3/   4880.2 .       0/       0
  - - - - - - - - - - - - - - - - - - - - - - - - - - - - - - - - - - - - - - - - - - -
 
  II. I/O Access Patterns
  - - - - - - - - - - - - - - - - - - - -
  Unit  Name               % of random
                         Write/Read calls
  - - - - - - - - - - - - - - - - - - - -
   1  SCRATCH             88.9/ 100.0
   2  ANNI                 0.0/   0.0
   3  RUNFILE             28.6/  10.8
   4  ONEINT               0.0/  15.5
   5  JOBIPH               0.0/  76.1
   6  ORDINT             100.0/   0.0
  - - - - - - - - - - - - - - - - - - - -
--
--- Stop Module: rassi at Thu Mar 27 00:11:17 2025 /rc=_RC_ALL_IS_WELL_ ---
*** files: xmldump
    saved to directory /home4/s4752295/Internship/Initial_simulations/Point_charge_model/1_electron/Madelung_charges_9_active_space/Mo
--- Module rassi spent 3 seconds ---

.##################.
.# Happy landing! #.
.##################.

    Timing: Wall=48.81 User=40.07 System=7.67

###############################################################################
Hbrk Cluster
Job 15913432 for user s4752295
Finished at: Thu Mar 27 00:11:21 CET 2025

Job details:
============

Job ID                         : 15913432
Name                           : Mo_no_SO
User                           : s4752295
Partition                      : regularmedium
Nodes                          : node101
Number of Nodes                : 1
Cores                          : 1
Number of Tasks                : 1
State                          : COMPLETED  
Submit                         : 2025-03-27T00:10:00
Start                          : 2025-03-27T00:10:22
End                            : 2025-03-27T00:11:17
Reserved walltime              : 15:00:00
Used walltime                  : 00:00:55
Used CPU time                  : 00:00:49 (Efficiency: 88.76%)
% User (Computation)           : 83.83%
% System (I/O)                 : 16.17%
Total memory reserved          : 25000M
Maximum memory used            : 1.19G

Acknowledgements:
=================

Please see this page for information about acknowledging Hbrk in your publications:

https://wiki.hpc.rug.nl/habrok/introduction/scientific_output

################################################################################
