   This run of MOLCAS is using the pymolcas driver

                             OPE
                             OPE          NMOL  CASOP  ENMOLC A   SO
                 OPE        NMOLC        AS  OP EN  MO LC     AS  OP
                OPENM       OL CA        SO  PE NM  OL CA     SOP EN
                OP EN      MO   LC       AS  OP ENMOL  CASO   PENMOL
                OP  EN     MO   LC       AS  OP EN     MO     LC ASO
               OP   E  NMOL  C  AS       OP  EN MO     LC     AS  OP
               OP  E   NMO   LC AS        OPEN  MO     LCASOP EN   M
               O  PEN   MO  LCA  SO
            OPE   NMO   L   CAS    OP
        OPENMOL  CASOP     ENMOL   CASOPE
     OPENMOLCA   SOPENMOLCASOPEN   MOLCASOPE
    OPENMOLCAS   OP           EN   MOL    CAS
    OPENMOLCAS       OP  ENM        O     LCA
    OPENMOLCAS    OPEN  MOLCASO     P  E  NMO
    OPENMOLCAS     OP               E  N  MOL
    OPENMOLCA   SO           PENM   O  L  CAS    OPEN    MO    LCAS
    OPENMOLCA   SOP           ENM   O  L  CAS   OP  EN  MOLC  AS   O
    OPENMOLCA   SOPE           NM      O  LCA   S      OP  EN MO
    OPENMOLC                AS         O  PEN   M      OL  CA  SOPE
    OPENMO        LCASOPE  NMOL        C  ASO   P      ENMOLC     AS
    OPE     NMO      LCA  SO     P     E   NM   OL  CA SO  PE N   MO
          OPENMOLCA            SOPE   NMO        LCAS  O    P  ENMO
     OPENMOLCASOPENMOLCASOPENMOLCASOPENMOLCA
        OPENMOLCASOPENMOLCASOPENMOLCASOPE
            OPENMOLCASOPENMOLCASOPENM
               OPENMOLCASOPENMOLCA        version: o91e1abe7de707b ?
                   OPENMOLCASO
                       OPE                tag:

 OpenMolcas is free software; you can redistribute it and/or modify it
 under the terms of the GNU Lesser General Public License version 2.1.
 OpenMolcas is distributed in the hope that it will be useful, but it
 is provided "as is" and without any express or implied warranties.
 For more details see the full text of the license in the file
 LICENSE or in <http://www.gnu.org/licenses/>.

                 Copyright (C) The OpenMolcas Authors
           For the author list and the recommended citation,
                   consult the file CONTRIBUTORS.md

           *************************************************
           * pymolcas version py2.10                       *
           *   build 3068ae8b88c9345ec6cfef6fef7f1169      *
           *   (after the EMIL interpreter by V. Veryazov) *
           *************************************************

configuration info
------------------
Host name: login1 (Linux)
C Compiler ID: GNU
C flags: -std=gnu99
Fortran Compiler ID: GNU
Fortran flags: -fno-aggressive-loop-optimizations -cpp -fdefault-integer-8 -fmax-stack-var-size=1048576
Definitions: _MOLCAS_;_I8_;_LINUX_;_MKL_
Parallel: OFF (GA=OFF)


   -----------------------------------------------------------------------------------------------------------------------------------
  |
  |           Project: molybdenum_so_cf
  |    Submitted from: /home4/s4752295/Internship/Initial_simulations/Point_charge_model/1_electron/Madelung_charges_9_active_space/Mo
  |      Scratch area: /tmp/molybdenum_so_cf
  |   Save outputs to: /home4/s4752295/Internship/Initial_simulations/Point_charge_model/1_electron/Madelung_charges_9_active_space/Mo
  |            Molcas: /home4/s4752295/Internship/Molcas/recomp_try/OpenMolcas-master/build
  |
  | Scratch area is empty
  |
  |    MOLCAS_DRIVER = /home4/s4752295/Internship/Molcas/bin/pymolcas
  |    MOLCAS_NPROCS = 1
  |    MOLCAS_SOURCE = /home4/s4752295/Internship/Molcas/recomp_try/OpenMolcas-master
  | MOLCAS_STRUCTURE = 0
  |
   -----------------------------------------------------------------------------------------------------------------------------------

++ ---------   Input file   ---------

&SEWARD
AMFi

CLIG
$R

Basis Set
Mo.ANO-rcc.Roos.21s18p13d6f4g2h.10s9p9d6f4g2h.
Spherical d
Mo           -1.0658140267135469e-14    -3.5527134223784897e-15 0.008753588724385739
End of Basis

Xfield

414
-2.00110054,-0.77,0.4445595     -0.625931
-2.00110054,-0.0,-0.8891195     -0.625931
-2.00110054,0.77,0.4445595      -0.625931
-1.997673035,0.0,0.0    1.892092
1.329589845,-0.77,-0.4445595    2.515516
1.329589845,0.0,0.8891195       2.515516
1.329589845,0.77,-0.4445595     2.515516
1.78149414,-1.54,0.0    0.004632
1.78149414,-0.77,-1.333679      0.004632
1.78149414,-0.77,1.333679       0.004632
1.78149414,0.77,-1.333679       0.004632
1.78149414,0.77,1.333679        0.004632
1.78149414,1.54,0.0     0.004632
2.064575195,-0.77,0.4445595     -2.519484
2.064575195,-0.0,-0.8891195     -2.519484
2.064575195,0.77,0.4445595      -2.519484
-1.466552735,-0.0,-0.0  -3.142907
-2.48754883,-1.54,-0.8891195    -0.625931
-2.48754883,0.0,1.7782385       -0.625931
-2.48754883,1.54,-0.8891195     -0.625931
-3.3046875,-1.54,0.0    1.892092
-3.3046875,-0.77,-1.333679      1.892092
-3.3046875,-0.77,1.333679       1.892092
-3.3046875,0.77,-1.333679       1.892092
-3.3046875,0.77,1.333679        1.892092
-3.3046875,1.54,0.0     1.892092
12.5859375,-1.54,0.8891195      2.515516
12.5859375,-0.0,-1.7782385      2.515516
12.5859375,1.54,0.8891195       2.515516
1.81933594,-1.54,-0.8891195     -2.519484
1.81933594,0.0,1.7782385        -2.519484
1.81933594,1.54,-0.8891195      -2.519484
-1.61621094,-1.54,-0.0  -3.142907
-1.61621094,-0.77,-1.333679     -3.142907
-1.61621094,-0.77,1.333679      -3.142907
-1.61621094,0.77,-1.333679      -3.142907
-1.61621094,0.77,1.333679       -3.142907
-1.61621094,1.54,-0.0   -3.142907
-4.76171875,-1.54,1.7782385     -0.625931
-4.76171875,1.54,1.7782385      -0.625931
-4.76171875,-2.31,0.4445595     -0.625931
-4.76171875,2.31,0.4445595      -0.625931
-4.76171875,-0.77,-2.2227985    -0.625931
-4.76171875,0.77,-2.2227985     -0.625931
3.00390625,-0.77,-0.4445595     4.409069
3.00390625,0.77,-0.4445595      4.409069
3.00390625,0.0,0.8891195        4.409069
-87.625,-0.0,-0.0       -5.030367
-87.625,0.0,0.0 5.039632
6.75878906,-1.54,-1.7782385     2.515516
6.75878906,1.54,-1.7782385      2.515516
6.75878906,-2.31,-0.4445595     2.515516
6.75878906,2.31,-0.4445595      2.515516
6.75878906,-0.77,2.2227985      2.515516
6.75878906,0.77,2.2227985       2.515516
9.51953125,-2.31,-1.333679      0.004632
9.51953125,-2.31,1.333679       0.004632
9.51953125,2.31,-1.333679       0.004632
9.51953125,2.31,1.333679        0.004632
9.51953125,-0.0,-2.667358       0.004632
9.51953125,0.0,2.667358 0.004632
24.0390625,-1.54,1.7782385      -2.519484
24.0390625,1.54,1.7782385       -2.519484
24.0390625,-2.31,0.4445595      -2.519484
24.0390625,2.31,0.4445595       -2.519484
24.0390625,-0.77,-2.2227985     -2.519484
24.0390625,0.77,-2.2227985      -2.519484
-72.9375,-2.31,-1.333679        1.892092
-72.9375,-2.31,1.333679 1.892092
-72.9375,2.31,-1.333679 1.892092
-72.9375,2.31,1.333679  1.892092
-72.9375,-0.0,-2.667358 1.892092
-72.9375,0.0,2.667358   1.892092
-58.875,-1.54,0.8891195 4.409069
-58.875,-0.0,-1.7782385 4.409069
-58.875,1.54,0.8891195  4.409069
-44.5,-1.54,-0.0        -5.030367
-44.5,-0.77,-1.333679   -5.030367
-44.5,-0.77,1.333679    -5.030367
-44.5,0.77,-1.333679    -5.030367
-44.5,-1.54,0.0 5.039632
-44.5,1.54,-0.0 -5.030367
-44.5,0.77,1.333679     -5.030367
-44.5,-0.77,-1.333679   5.039632
-44.5,-0.77,1.333679    5.039632
-44.5,0.77,-1.333679    5.039632
-44.5,1.54,0.0  5.039632
-44.5,0.77,1.333679     5.039632
-23.3125,-0.77,-0.4445595       -5.660931
-23.3125,0.0,0.8891195  -5.660931
-23.3125,0.77,-0.4445595        -5.660931
0.44140625,-3.0799995,0.0       0.004632
0.44140625,-1.54,-2.667358      0.004632
0.44140625,-1.54,2.667358       0.004632
0.44140625,1.54,-2.667358       0.004632
0.44140625,3.0799995,0.0        0.004632
0.44140625,1.54,2.667358        0.004632
33.96875,-2.31,1.333679 -3.142907
33.96875,-2.31,-1.333679        -3.142907
33.96875,2.31,-1.333679 -3.142907
33.96875,2.31,1.333679  -3.142907
33.96875,-0.0,-2.667358 -3.142907
33.96875,0.0,2.667358   -3.142907
43.1875,-3.0799995,-0.8891195   -0.625931
43.1875,-2.31,-2.2227985        -0.625931
43.1875,-0.77,3.1119175 -0.625931
43.1875,2.31,-2.2227985 -0.625931
43.1875,3.0799995,-0.8891195    -0.625931
43.1875,0.77,3.1119175  -0.625931
0.59863281,-3.0799995,0.0       1.892092
0.59863281,-1.54,-2.667358      1.892092
0.59863281,-1.54,2.667358       1.892092
0.59863281,1.54,-2.667358       1.892092
0.59863281,3.0799995,0.0        1.892092
0.59863281,1.54,2.667358        1.892092
16.921875,-1.54,-1.7782385      4.409069
16.921875,1.54,-1.7782385       4.409069
16.921875,-2.31,-0.4445595      4.409069
16.921875,2.31,-0.4445595       4.409069
16.921875,-0.77,2.2227985       4.409069
16.921875,0.77,2.2227985        4.409069
81.203125,-1.54,0.8891195       -5.660931
81.203125,-0.0,-1.7782385       -5.660931
81.203125,1.54,0.8891195        -5.660931
0.171875,-3.0799995,0.8891195   2.515516
0.171875,-0.77,-3.1119175       2.515516
0.171875,-2.31,2.2227985        2.515516
0.171875,0.77,-3.1119175        2.515516
0.171875,3.0799995,0.8891195    2.515516
0.171875,2.31,2.2227985 2.515516
-47.09375,-3.0799995,-0.8891195 -2.519484
-47.09375,-2.31,-2.2227985      -2.519484
-47.09375,-0.77,3.1119175       -2.519484
-47.09375,2.31,-2.2227985       -2.519484
-47.09375,0.77,3.1119175        -2.519484
-47.09375,3.0799995,-0.8891195  -2.519484
-11.03515625,-3.0799995,-0.0    -3.142907
-11.03515625,-1.54,-2.667358    -3.142907
-11.03515625,-1.54,2.667358     -3.142907
-11.03515625,1.54,-2.667358     -3.142907
-11.03515625,1.54,2.667358      -3.142907
-11.03515625,3.0799995,-0.0     -3.142907
303.25,0.0,0.0  6.927092
161.625,-3.0799995,1.7782385    -0.625931
161.625,3.0799995,1.7782385     -0.625931
161.625,-0.0,-3.5564775 -0.625931
-2.7109375,-2.31,1.333679       -5.030367
-2.7109375,-2.31,-1.333679      -5.030367
-2.7109375,-2.31,1.333679       5.039632
-2.7109375,-2.31,-1.333679      5.039632
-2.7109375,2.31,-1.333679       -5.030367
-2.7109375,2.31,1.333679        -5.030367
-2.7109375,2.31,-1.333679       5.039632
-2.7109375,2.31,1.333679        5.039632
-2.7109375,-0.0,-2.667358       -5.030367
-2.7109375,0.0,2.667358 -5.030367
-2.7109375,-0.0,-2.667358       5.039632
-2.7109375,0.0,2.667358 5.039632
45.90625,-1.54,-1.7782385       -5.660931
45.90625,1.54,-1.7782385        -5.660931
45.90625,-2.31,-0.4445595       -5.660931
45.90625,2.31,-0.4445595        -5.660931
45.90625,-0.77,2.2227985        -5.660931
45.90625,0.77,2.2227985 -5.660931
150.25,-3.0799995,-1.7782385    2.515516
150.25,3.0799995,-1.7782385     2.515516
150.25,0.0,3.5564775    2.515516
-258.625,-3.0799995,1.7782385   -2.519484
-258.625,3.0799995,1.7782385    -2.519484
-258.625,-0.0,-3.5564775        -2.519484
26.78125,-1.54,0.0      6.927092
26.78125,-0.77,-1.333679        6.927092
26.78125,-0.77,1.333679 6.927092
26.78125,0.77,-1.333679 6.927092
26.78125,0.77,1.333679  6.927092
26.78125,1.54,0.0       6.927092
-27.625,-0.77,0.4445595 7.550516
-27.625,0.0,-0.8891195  7.550516
-27.625,0.77,0.4445595  7.550516
7.765625,-0.77,-0.4445595       -7.554483
7.765625,0.77,-0.4445595        -7.554483
7.765625,-0.0,0.8891195 -7.554483
-62.4375,-3.8499995,0.4445595   -0.625931
-62.4375,-2.31,3.1119175        -0.625931
-62.4375,-1.54,-3.5564775       -0.625931
-62.4375,1.54,-3.5564775        -0.625931
-62.4375,3.8499995,0.4445595    -0.625931
-62.4375,2.31,3.1119175 -0.625931
-33.71875,-3.0799995,0.8891195  4.409069
-33.71875,-2.31,2.2227985       4.409069
-33.71875,-0.77,-3.1119175      4.409069
-33.71875,0.77,-3.1119175       4.409069
-33.71875,2.31,2.2227985        4.409069
-33.71875,3.0799995,0.8891195   4.409069
24.578125,-3.0799995,-0.0       -5.030367
24.578125,-1.54,-2.667358       -5.030367
24.578125,-1.54,2.667358        -5.030367
24.578125,-3.0799995,0.0        5.039632
24.578125,-1.54,-2.667358       5.039632
24.578125,1.54,-2.667358        -5.030367
24.578125,1.54,2.667358 -5.030367
24.578125,3.0799995,-0.0        -5.030367
24.578125,-1.54,2.667358        5.039632
24.578125,1.54,-2.667358        5.039632
24.578125,3.0799995,0.0 5.039632
24.578125,1.54,2.667358 5.039632
90.375,-3.8499995,-0.4445595    2.515516
90.375,-2.31,-3.1119175 2.515516
90.375,-1.54,3.5564775  2.515516
90.375,2.31,-3.1119175  2.515516
90.375,3.8499995,-0.4445595     2.515516
90.375,1.54,3.5564775   2.515516
-11.671875,-3.8499995,-1.333679 0.004632
-11.671875,-3.8499995,1.333679  0.004632
-11.671875,-3.0799995,-2.667358 0.004632
-11.671875,-3.0799995,2.667358  0.004632
-11.671875,-0.77,-4.001037      0.004632
-11.671875,0.77,-4.001037       0.004632
-11.671875,-0.77,4.001037       0.004632
-11.671875,3.0799995,-2.667358  0.004632
-11.671875,0.77,4.001037        0.004632
-11.671875,3.8499995,-1.333679  0.004632
-11.671875,3.8499995,1.333679   0.004632
-11.671875,3.0799995,2.667358   0.004632
-71.5625,-3.8499995,0.4445595   -2.519484
-71.5625,-2.31,3.1119175        -2.519484
-71.5625,-1.54,-3.5564775       -2.519484
-71.5625,1.54,-3.5564775        -2.519484
-71.5625,3.8499995,0.4445595    -2.519484
-71.5625,2.31,3.1119175 -2.519484
1516.0,-0.0,-0.0        -8.177907
-58.0,-1.54,-0.8891195  7.550516
-58.0,0.0,1.7782385     7.550516
-58.0,1.54,-0.8891195   7.550516
-301.75,-1.54,0.8891195 -7.554483
-301.75,-0.0,-1.7782385 -7.554483
-301.75,1.54,0.8891195  -7.554483
24.453125,-3.8499995,1.333679   1.892092
24.453125,-3.8499995,-1.333679  1.892092
24.453125,-3.0799995,-2.667358  1.892092
24.453125,-3.0799995,2.667358   1.892092
24.453125,-0.77,-4.001037       1.892092
24.453125,0.77,-4.001037        1.892092
24.453125,-0.77,4.001037        1.892092
24.453125,3.0799995,-2.667358   1.892092
24.453125,0.77,4.001037 1.892092
24.453125,3.8499995,-1.333679   1.892092
24.453125,3.8499995,1.333679    1.892092
24.453125,3.0799995,2.667358    1.892092
-252.5,-3.0799995,-1.7782385    4.409069
-252.5,3.0799995,-1.7782385     4.409069
-252.5,0.0,3.5564775    4.409069
12.91015625,-3.0799995,0.8891195        -5.660931
12.91015625,-0.77,-3.1119175    -5.660931
12.91015625,-2.31,2.2227985     -5.660931
12.91015625,0.77,-3.1119175     -5.660931
12.91015625,2.31,2.2227985      -5.660931
12.91015625,3.0799995,0.8891195 -5.660931
-29.09375,-3.0799995,-2.667358  -3.142907
-29.09375,-3.8499995,1.333679   -3.142907
-29.09375,-3.8499995,-1.333679  -3.142907
-29.09375,-3.0799995,2.667358   -3.142907
-29.09375,-0.77,-4.001037       -3.142907
-29.09375,0.77,-4.001037        -3.142907
-29.09375,-0.77,4.001037        -3.142907
-29.09375,3.8499995,-1.333679   -3.142907
-29.09375,3.0799995,-2.667358   -3.142907
-29.09375,0.77,4.001037 -3.142907
-29.09375,3.8499995,1.333679    -3.142907
-29.09375,3.0799995,2.667358    -3.142907
32.703125,-2.31,-1.333679       6.927092
32.703125,-2.31,1.333679        6.927092
32.703125,2.31,-1.333679        6.927092
32.703125,2.31,1.333679 6.927092
32.703125,-0.0,-2.667358        6.927092
32.703125,0.0,2.667358  6.927092
-41.625,-1.54,-0.0      -8.177907
-41.625,-0.77,1.333679  -8.177907
-41.625,-0.77,-1.333679 -8.177907
-41.625,0.77,-1.333679  -8.177907
-41.625,1.54,-0.0       -8.177907
-41.625,0.77,1.333679   -8.177907
-45.453125,-1.54,1.7782385      7.550516
-45.453125,1.54,1.7782385       7.550516
-45.453125,-2.31,0.4445595      7.550516
-45.453125,2.31,0.4445595       7.550516
-45.453125,-0.77,-2.2227985     7.550516
-45.453125,0.77,-2.2227985      7.550516
-22.84375,-1.54,-1.7782385      -7.554483
-22.84375,1.54,-1.7782385       -7.554483
-22.84375,-2.31,-0.4445595      -7.554483
-22.84375,2.31,-0.4445595       -7.554483
-22.84375,-0.77,2.2227985       -7.554483
-22.84375,0.77,2.2227985        -7.554483
-250.125,0.0,4.4455965  -0.625931
-250.125,-3.8499995,-2.2227985  -0.625931
-250.125,3.8499995,-2.2227985   -0.625931
-134.875,-3.8499995,-0.4445595  4.409069
-134.875,-2.31,-3.1119175       4.409069
-134.875,-1.54,3.5564775        4.409069
-134.875,2.31,-3.1119175        4.409069
-134.875,3.8499995,-0.4445595   4.409069
-134.875,1.54,3.5564775 4.409069
155.1875,-3.0799995,-1.7782385  -5.660931
155.1875,3.0799995,-1.7782385   -5.660931
155.1875,0.0,3.5564775  -5.660931
293.5,-0.0,-4.4455965   2.515516
293.5,-3.8499995,2.2227985      2.515516
293.5,3.8499995,2.2227985       2.515516
-46.9375,-4.6199995,-0.0        0.004632
-46.9375,2.31,-4.001037 0.004632
-46.9375,-2.31,4.001037 0.004632
-46.9375,4.6199995,-0.0 0.004632
-46.9375,-2.31,-4.001037        0.004632
-46.9375,2.31,4.001037  0.004632
-192.875,0.0,4.4455965  -2.519484
-192.875,-3.8499995,-2.2227985  -2.519484
-192.875,3.8499995,-2.2227985   -2.519484
114.0,-3.0799995,0.0    6.927092
114.0,-1.54,-2.667358   6.927092
114.0,-1.54,2.667358    6.927092
114.0,1.54,-2.667358    6.927092
114.0,3.0799995,0.0     6.927092
114.0,1.54,2.667358     6.927092
105.9375,-4.6199995,-0.8891195  -0.625931
105.9375,-1.54,4.4455965        -0.625931
105.9375,-3.0799995,-3.5564775  -0.625931
105.9375,3.0799995,-3.5564775   -0.625931
105.9375,1.54,4.4455965 -0.625931
105.9375,4.6199995,-0.8891195   -0.625931
55.96875,-4.6199995,0.0 1.892092
55.96875,-2.31,-4.001037        1.892092
55.96875,-2.31,4.001037 1.892092
55.96875,2.31,-4.001037 1.892092
55.96875,4.6199995,0.0  1.892092
55.96875,2.31,4.001037  1.892092
-2.16015625,-3.8499995,1.333679 -5.030367
-2.16015625,-3.8499995,-1.333679        -5.030367
-2.16015625,-3.0799995,-2.667358        -5.030367
-2.16015625,-3.0799995,2.667358 -5.030367
-2.16015625,-3.8499995,1.333679 5.039632
-2.16015625,0.77,-4.001037      -5.030367
-2.16015625,-0.77,-4.001037     -5.030367
-2.16015625,-3.8499995,-1.333679        5.039632
-2.16015625,-3.0799995,-2.667358        5.039632
-2.16015625,-0.77,4.001037      -5.030367
-2.16015625,0.77,-4.001037      5.039632
-2.16015625,-3.0799995,2.667358 5.039632
-2.16015625,-0.77,-4.001037     5.039632
-2.16015625,3.0799995,-2.667358 -5.030367
-2.16015625,0.77,4.001037       -5.030367
-2.16015625,3.8499995,-1.333679 -5.030367
-2.16015625,3.8499995,1.333679  -5.030367
-2.16015625,3.0799995,2.667358  -5.030367
-2.16015625,-0.77,4.001037      5.039632
-2.16015625,3.0799995,-2.667358 5.039632
-2.16015625,3.8499995,-1.333679 5.039632
-2.16015625,0.77,4.001037       5.039632
-2.16015625,3.8499995,1.333679  5.039632
-2.16015625,3.0799995,2.667358  5.039632
-0.34375,-3.8499995,-0.4445595  -5.660931
-0.34375,-2.31,-3.1119175       -5.660931
-0.34375,-1.54,3.5564775        -5.660931
-0.34375,2.31,-3.1119175        -5.660931
-0.34375,1.54,3.5564775 -5.660931
-0.34375,3.8499995,-0.4445595   -5.660931
58.0,-0.77,0.4445595    9.444068
58.0,0.0,-0.8891195     9.444068
58.0,0.77,0.4445595     9.444068
25.65625,-4.6199995,0.8891195   2.515516
25.65625,-1.54,-4.4455965       2.515516
25.65625,1.54,-4.4455965        2.515516
25.65625,-3.0799995,3.5564775   2.515516
25.65625,4.6199995,0.8891195    2.515516
25.65625,3.0799995,3.5564775    2.515516
78.4375,-4.6199995,-0.8891195   -2.519484
78.4375,-1.54,4.4455965 -2.519484
78.4375,-3.0799995,-3.5564775   -2.519484
78.4375,3.0799995,-3.5564775    -2.519484
78.4375,4.6199995,-0.8891195    -2.519484
78.4375,1.54,4.4455965  -2.519484
109.8125,-4.6199995,-0.0        -3.142907
109.8125,-2.31,-4.001037        -3.142907
109.8125,-2.31,4.001037 -3.142907
109.8125,2.31,-4.001037 -3.142907
109.8125,4.6199995,-0.0 -3.142907
109.8125,2.31,4.001037  -3.142907
4.322753905,-2.31,-1.333679     -8.177907
4.322753905,-2.31,1.333679      -8.177907
4.322753905,2.31,1.333679       -8.177907
4.322753905,2.31,-1.333679      -8.177907
4.322753905,-0.0,-2.667358      -8.177907
4.322753905,0.0,2.667358        -8.177907
125.9375,-2.31,-2.2227985       7.550516
125.9375,-3.0799995,-0.8891195  7.550516
125.9375,-0.77,3.1119175        7.550516
125.9375,2.31,-2.2227985        7.550516
125.9375,0.77,3.1119175 7.550516
125.9375,3.0799995,-0.8891195   7.550516
-174.0,-2.31,2.2227985  -7.554483
-174.0,-3.0799995,0.8891195     -7.554483
-174.0,-0.77,-3.1119175 -7.554483
-174.0,0.77,-3.1119175  -7.554483
-174.0,3.0799995,0.8891195      -7.554483
-174.0,2.31,2.2227985   -7.554483
35.6328125,-3.8499995,3.1119175 -0.625931
35.6328125,-4.6199995,1.7782385 -0.625931
35.6328125,-0.77,-4.8901565     -0.625931
35.6328125,0.77,-4.8901565      -0.625931
35.6328125,4.6199995,1.7782385  -0.625931
35.6328125,3.8499995,3.1119175  -0.625931
-241.875,-0.0,-4.4455965        4.409069
-241.875,-3.8499995,2.2227985   4.409069
-241.875,3.8499995,2.2227985    4.409069

End of input

&SCF
Occupied
9
Iterations
   50  100
End of Input

&RASSCF
LumOrb
Symmetry
1
Spin
2
Nactel
1 0 0
CIRoot
9 9 1
inactive
9
ras2
9
End of Input

>>> COPY molybdenum_so_cf.JobIph $SLURM_SUBMIT_DIR/molybdenum_so_cf.doublet.JobIph

>>> COPY $SLURM_SUBMIT_DIR/molybdenum_so_cf.doublet.JobIph ./JOB002

&RASSI
NROFJobIph
1 All
SpinOrbit
End of Input

EOF

-- ----------------------------------

--- Start Module: seward at Wed Mar 26 11:18:56 2025 ---

()()()()()()()()()()()()()()()()()()()()()()()()()()()()()()()()()()()()()()()()()()()()()()()()()()

                                              &SEWARD

                                   only a single process is used
                       available to each process: 4.1 GB of memory, 1 thread?
                                            pid: 3920719
()()()()()()()()()()()()()()()()()()()()()()()()()()()()()()()()()()()()()()()()()()()()()()()()()()

 The speed of LIGHT in this CALCULATION =   137.03599917700001     
               SEWARD will generate:
                  Multipole Moment integrals up to order  2
                  Kinetic Energy integrals
                  Nuclear Attraction integrals (point charge)
                  One-Electron Hamiltonian integrals
                  Velocity integrals
                  Relativistic Douglas-Kroll-Hess integrals:
                    - Parametrization         : EXP
                    - DKH order of Hamiltonian: 2
                    - DKH order of Properties : 0
                         - multipole moment operators
                         - electric potential operators
                         - contact operators
                  External field from   414 point(s) added to the one-electron Hamiltonian
                  Orbital angular momentum around (-0.0000 -0.0000  0.0088 )
                  Velocity quadrupole around (-0.0000 -0.0000  0.0088 )
                  Atomic mean-field integrals
                  Two-Electron Repulsion integrals

                   Integrals are discarded if absolute value <: 0.10E-13
                   Integral cutoff threshold is set to       <: 0.10E-15

++    Symmetry information:
      ---------------------

                    Character Table for C1 

                             E  
                    a        1  x, y, xy, Rz, z, xz, Ry, yz, Rx, I
--


++    Basis set information:
      ----------------------


      Basis set label: MO.ANO-RCC.ROOS.21S18P13D6F4G2H.10S9P9D6F4G2H......

      Electronic valence basis set:
      ------------------
      Associated Effective Charge  42.000000 au
      Associated Actual Charge     42.000000 au
      Nuclear Model: Point charge

      Shell  nPrim  nBasis  Cartesian Spherical Contaminant
         s      21      10        X                  
         p      18       9        X                  
         d      13       9                 X         
         f       6       6                 X         
         g       4       4                 X         
         h       2       2                 X         
--


++    Molecular structure info:
      -------------------------

                    ************************************************ 
                    **** Cartesian Coordinates / Bohr, Angstrom **** 
                    ************************************************ 

     Center  Label                x              y              z                     x              y              z
        1      MO              -0.000000      -0.000000       0.008754             -0.000000      -0.000000       0.004632
--


++    Operator info:
      --------------


  Net charge from external field:   -39.268449999999902     
--


            Nuclear Potential Energy              0.00000000 au

                    Nuclear-External Field Potential Energy    -768.51216292 au
                    External Field Potential Energy            3211.27380277 au 


            Total Nuclear Potential Energy           -768.51216292 au


      Basis set specifications :
      Symmetry species         a  
      Basis functions          182

 Sorry, Molden does not know how to handle
 functions with angular momentum larger than g
Note: The following floating-point exceptions are signalling: IEEE_UNDERFLOW_FLAG IEEE_DENORMAL
--- Stop Module: seward at Wed Mar 26 11:19:06 2025 /rc=_RC_ALL_IS_WELL_ ---
*** files: molybdenum_so_cf.GssOrb xmldump
    saved to directory /home4/s4752295/Internship/Initial_simulations/Point_charge_model/1_electron/Madelung_charges_9_active_space/Mo
--- Module seward spent 9 seconds ---

*** symbolic link created: INPORB -> molybdenum_so_cf.GssOrb
--- Start Module: scf at Wed Mar 26 11:19:06 2025 ---

()()()()()()()()()()()()()()()()()()()()()()()()()()()()()()()()()()()()()()()()()()()()()()()()()()

                                                &SCF

                                   only a single process is used
                       available to each process: 4.1 GB of memory, 1 thread?
                                            pid: 3920773
()()()()()()()()()()()()()()()()()()()()()()()()()()()()()()()()()()()()()()()()()()()()()()()()()()

++    Input section:
      --------------

      Header of the integral files:
      
       Integrals generated by seward 4.2.0  , Wed Mar 26 11:18:57 2025


      Cartesian coordinates in Angstrom:
      -----------------------------------------------------
      No.  Label        X            Y            Z        
      -----------------------------------------------------
       1   MO        -0.00000000  -0.00000000   0.00463220
      -----------------------------------------------------
      Nuclear repulsion energy = -768.51216292
--

++    Orbital specifications:
      -----------------------

      Symmetry species               1
                                     a
      Frozen orbitals                0
      Occupied orbitals              9
      Secondary orbitals           173
      Deleted orbitals               0
      Total number of orbitals     182
      Number of basis functions    182
--

      Molecular charge                          24.000

++    Optimization specifications:
      ----------------------------

      SCF Algorithm: Conventional
      Minimized density differences are used
      Number of density matrices in core                5
      Maximum number of NDDO SCF iterations            50
      Maximum number of HF SCF iterations             100
      Threshold for SCF energy change            0.10E-08
      Threshold for density matrix               0.10E-03
      Threshold for Fock matrix                  0.15E-03
      Threshold for linear dependence            0.10E-08
      Threshold at which DIIS is turned on       0.15E+00
      Threshold at which QNR/C2DIIS is turned on 0.75E-01
      Threshold for Norm(delta) (QNR/C2DIIS)     0.20E-04
      DIIS extrapolation of the SCF procedure
      All orbitals punched on: SCFORB
--

      Detected guessorb starting orbitals                                             


++ Convergence information
                                   SCF        iterations: Energy and convergence statistics

Iter     Tot. SCF        One-elec.       Two-elec.     Energy      Max Dij or  Max Fij      DNorm      TNorm      AccCon     Time
         Energy          Energy          Energy        Change      Delta Norm                                                in Sec.

 The total and one-electron energies are shifted by a value of      4000. a.u.

   1  -116.804439362    30.597435447   621.110288109   0.00E+00    0.27E+00*   0.30E+01*    0.60E+01   0.35E+03   None         1.
   2  -123.175870678   -12.205604484   657.541896723  -0.64E+01*   0.25E-01*   0.26E+00*    0.15E+01   0.36E+03   EDIIS        1.
   3  -123.203661108   -10.315756900   655.624258709  -0.28E-01*   0.48E-02*   0.27E-01*    0.79E-01   0.36E+03   EDIIS        1.
   4  -123.203964898   -10.451003409   655.759201428  -0.30E-03*   0.25E-03*   0.37E-02*    0.59E-02   0.36E+03   c2DIIS       1.
   5  -123.203971386   -10.442967494   655.751159025  -0.65E-05*   0.47E-04*   0.32E-03*    0.54E-03   0.36E+03   QNRc2DIIS    1.
   6  -123.203971428   -10.442712237   655.750903727  -0.42E-07*   0.21E-04*   0.63E-04     0.43E-04   0.36E+03   QNRc2DIIS    1.
   7  -123.203971432   -10.442705790   655.750897275  -0.46E-08*   0.81E-06    0.37E-05     0.23E-04   0.36E+03   QNRc2DIIS    1.
   8  -123.203971432   -10.442724353   655.750915838  -0.73E-11    0.27E-07    0.25E-06     0.11E-01   0.36E+03   QNRc2DIIS    1.

       Convergence after  8 Macro Iterations
--

 *****************************************************************************************************************************
 *                                                                                                                           *
 *                                             SCF/KS-DFT Program, Final results                                             *
 *                                                                                                                           *
 *                                                                                                                           *
 *                                                                                                                           *
 *                                                       Final Results                                                       *
 *                                                                                                                           *
 *****************************************************************************************************************************

::    Total SCF energy                              -4123.2039714323
      One-electron energy                           -4010.4427243533
      Two-electron energy                             655.7509158383
      Nuclear repulsion energy                       -768.5121629172
      Kinetic energy (interpolated)                  4118.1751234629
      Virial theorem                                    1.0012211350
      Total spin, S(S+1)                                0.0000000000
      Total spin, S                                     0.0000000000
      Max non-diagonal density matrix element           0.0000000473
      Max non-diagonal Fock matrix element              0.0000000176


      All orbitals with orbital energies smaller than  E(LUMO)+0.5 are printed

++    Molecular orbitals:
      -------------------

      Title: SCF orbitals

      Molecular orbitals for symmetry species 1: a  

          Orbital            1         2         3         4         5         6         7         8         9        10    
          Energy         -758.8888 -126.6785 -115.2969 -115.2969 -115.2885  -32.5793  -28.5371  -28.5370  -28.3674  -21.3436
          Occ. No.          2.0000    2.0000    2.0000    2.0000    2.0000    2.0000    2.0000    2.0000    2.0000    0.0000

        1 MO     1s         1.0000   -0.0001    0.0000   -0.0000   -0.0000    0.0001   -0.0000   -0.0000    0.0000    0.0000
        2 MO     2s         0.0001    0.9999    0.0000   -0.0000   -0.0095    0.0126    0.0000   -0.0000   -0.0031   -0.0000
        3 MO     3s        -0.0001   -0.0123   -0.0000    0.0000    0.0012    0.9769    0.0003   -0.0000   -0.1534   -0.0000
        4 MO     4s         0.0000    0.0030    0.0000   -0.0000   -0.0003   -0.0965   -0.0000    0.0000    0.0245    0.0000
        5 MO     5s        -0.0000   -0.0007   -0.0000    0.0000    0.0001    0.0208    0.0000   -0.0000   -0.0054   -0.0000
        6 MO     6s         0.0000    0.0008    0.0000   -0.0000   -0.0001   -0.0244   -0.0000    0.0000    0.0064    0.0000
        7 MO     7s        -0.0000   -0.0025   -0.0000    0.0000    0.0002    0.0672    0.0000   -0.0000   -0.0177   -0.0000
        8 MO     8s         0.0000    0.0023    0.0000   -0.0000   -0.0002   -0.0514   -0.0000    0.0000    0.0137    0.0000
        9 MO     9s        -0.0000   -0.0025   -0.0000    0.0000    0.0002    0.0451    0.0000   -0.0000   -0.0120   -0.0000
       10 MO    10s         0.0001    0.0029    0.0000   -0.0000   -0.0002   -0.0308   -0.0000    0.0000    0.0081    0.0000
       11 MO     2px        0.0000    0.0095   -0.0054    0.0000    0.9998    0.0012   -0.0001    0.0000    0.0144    0.0000
       12 MO     3px       -0.0000    0.0009    0.0001   -0.0000   -0.0137    0.1574   -0.0035    0.0000    0.9673    0.0000
       13 MO     4px        0.0000   -0.0002   -0.0000    0.0000    0.0030   -0.0110    0.0004   -0.0000   -0.1058   -0.0000
       14 MO     5px       -0.0000    0.0001    0.0000   -0.0000   -0.0010    0.0033   -0.0001    0.0000    0.0338    0.0000
       15 MO     6px        0.0000   -0.0002   -0.0000    0.0000    0.0026   -0.0073    0.0003   -0.0000   -0.0783   -0.0000
       16 MO     7px       -0.0000    0.0002    0.0000   -0.0000   -0.0024    0.0054   -0.0002    0.0000    0.0626    0.0000
       17 MO     8px        0.0000   -0.0002   -0.0000    0.0000    0.0029   -0.0047    0.0002   -0.0000   -0.0628   -0.0000
       18 MO     9px       -0.0000    0.0002    0.0000   -0.0000   -0.0027    0.0030   -0.0002    0.0000    0.0464    0.0000
       19 MO    10px        0.0000   -0.0001   -0.0000    0.0000    0.0022   -0.0011    0.0001   -0.0000   -0.0213   -0.0000
       20 MO     2py       -0.0000    0.0000    0.0000    0.9999   -0.0000    0.0000    0.0000    0.0144    0.0000    0.0000
       21 MO     3py        0.0000   -0.0000   -0.0000   -0.0136    0.0000    0.0000    0.0000    0.9821    0.0000    0.0017
       22 MO     4py       -0.0000    0.0000    0.0000    0.0030   -0.0000   -0.0000   -0.0000   -0.1058   -0.0000   -0.0003
       23 MO     5py        0.0000   -0.0000   -0.0000   -0.0010    0.0000    0.0000    0.0000    0.0338    0.0000    0.0001
       24 MO     6py       -0.0000    0.0000    0.0000    0.0026   -0.0000   -0.0000   -0.0000   -0.0780   -0.0000   -0.0003
       25 MO     7py        0.0000   -0.0000   -0.0000   -0.0023    0.0000    0.0000    0.0000    0.0622    0.0000    0.0002
       26 MO     8py       -0.0000    0.0000    0.0000    0.0029   -0.0000   -0.0000   -0.0000   -0.0623   -0.0000   -0.0002
       27 MO     9py        0.0000   -0.0000   -0.0000   -0.0027    0.0000    0.0000    0.0000    0.0458    0.0000    0.0001
       28 MO    10py       -0.0000    0.0000    0.0000    0.0022   -0.0000   -0.0000   -0.0000   -0.0210   -0.0000   -0.0001
       29 MO     2pz        0.0000    0.0000    0.9999   -0.0000    0.0054    0.0000    0.0144   -0.0000    0.0001    0.0000
       30 MO     3pz       -0.0000    0.0000   -0.0136    0.0000   -0.0001    0.0003    0.9821   -0.0000    0.0035    0.0000
       31 MO     4pz        0.0000   -0.0000    0.0030   -0.0000    0.0000   -0.0000   -0.1057    0.0000   -0.0004   -0.0000
       32 MO     5pz       -0.0000    0.0000   -0.0010    0.0000   -0.0000    0.0000    0.0338   -0.0000    0.0001    0.0000
       33 MO     6pz        0.0000   -0.0000    0.0026   -0.0000    0.0000   -0.0000   -0.0780    0.0000   -0.0003   -0.0000
       34 MO     7pz       -0.0000    0.0000   -0.0023    0.0000   -0.0000    0.0000    0.0622   -0.0000    0.0002    0.0000
       35 MO     8pz        0.0000   -0.0000    0.0029   -0.0000    0.0000   -0.0000   -0.0623    0.0000   -0.0002   -0.0000
       36 MO     9pz       -0.0000    0.0000   -0.0027    0.0000   -0.0000    0.0000    0.0458   -0.0000    0.0002    0.0000
       37 MO    10pz        0.0000   -0.0000    0.0022   -0.0000    0.0000   -0.0000   -0.0210    0.0000   -0.0001   -0.0000
       38 MO     3d2-       0.0000    0.0000    0.0000    0.0007   -0.0000    0.0000    0.0000    0.0803    0.0000   -0.0224
       39 MO     4d2-      -0.0000   -0.0000   -0.0000   -0.0001    0.0000   -0.0000   -0.0000   -0.0045   -0.0000    0.0022
       40 MO     5d2-       0.0000    0.0000    0.0000    0.0001   -0.0000    0.0000    0.0000    0.0044    0.0000   -0.0023
       41 MO     6d2-      -0.0000   -0.0000   -0.0000   -0.0001    0.0000   -0.0000   -0.0000   -0.0032   -0.0000    0.0020
       42 MO     7d2-       0.0000    0.0000    0.0000    0.0001   -0.0000    0.0000    0.0000    0.0021    0.0000   -0.0017
       43 MO     8d2-       0.0000   -0.0000   -0.0000   -0.0002    0.0000   -0.0000   -0.0000   -0.0014   -0.0000    0.0018
       44 MO     9d2-      -0.0000    0.0000    0.0000    0.0001   -0.0000   -0.0000    0.0000    0.0005   -0.0000   -0.0014
       45 MO    10d2-       0.0000   -0.0000   -0.0000   -0.0002    0.0000    0.0000    0.0000    0.0001    0.0000    0.0013
       46 MO    11d2-      -0.0000    0.0000    0.0000    0.0001   -0.0000    0.0000   -0.0000   -0.0002   -0.0000   -0.0002
       47 MO     3d1-       0.0000   -0.0000    0.0000    0.0000   -0.0000   -0.0000    0.0000    0.0001   -0.0000    0.9757
       48 MO     4d1-      -0.0000    0.0000   -0.0000   -0.0000    0.0000    0.0000   -0.0000   -0.0000    0.0000   -0.0973
       49 MO     5d1-       0.0000   -0.0000    0.0000    0.0000   -0.0000   -0.0000    0.0000    0.0000   -0.0000    0.1037
       50 MO     6d1-      -0.0000    0.0000   -0.0000   -0.0000    0.0000    0.0000   -0.0000   -0.0000    0.0000   -0.0881
       51 MO     7d1-       0.0000   -0.0000    0.0000    0.0000   -0.0000   -0.0000    0.0000    0.0000   -0.0000    0.0767
       52 MO     8d1-      -0.0000    0.0000   -0.0000   -0.0000    0.0000    0.0000   -0.0000   -0.0000    0.0000   -0.0786
       53 MO     9d1-       0.0000   -0.0000    0.0000    0.0000   -0.0000    0.0000    0.0000    0.0000   -0.0000    0.0598
       54 MO    10d1-      -0.0000    0.0000   -0.0000   -0.0000    0.0000   -0.0000    0.0000    0.0000    0.0000   -0.0587
       55 MO    11d1-       0.0000   -0.0000    0.0000    0.0000    0.0000    0.0000   -0.0000   -0.0000    0.0000    0.0089
       56 MO     3d0        0.0000    0.0000    0.0000   -0.0000   -0.0004   -0.0015    0.0004   -0.0000   -0.0502   -0.0000
       57 MO     4d0       -0.0000   -0.0000   -0.0000    0.0000    0.0001   -0.0000   -0.0000    0.0000    0.0028    0.0000
       58 MO     5d0        0.0000    0.0000    0.0000   -0.0000   -0.0001    0.0000    0.0000   -0.0000   -0.0027   -0.0000
       59 MO     6d0       -0.0000   -0.0000   -0.0000    0.0000    0.0001   -0.0000   -0.0000    0.0000    0.0020    0.0000
       60 MO     7d0        0.0000    0.0000    0.0000   -0.0000   -0.0001    0.0000    0.0000   -0.0000   -0.0014   -0.0000
       61 MO     8d0       -0.0000   -0.0000   -0.0000    0.0000    0.0001   -0.0001   -0.0000    0.0000    0.0009    0.0000
       62 MO     9d0        0.0000    0.0000    0.0000   -0.0000   -0.0001    0.0000    0.0000    0.0000   -0.0004   -0.0000
       63 MO    10d0       -0.0000   -0.0000   -0.0000    0.0000    0.0001   -0.0000   -0.0000   -0.0000    0.0000    0.0000
       64 MO    11d0        0.0000   -0.0000    0.0000   -0.0000   -0.0000    0.0000   -0.0000    0.0000    0.0001   -0.0000
       65 MO     3d1+      -0.0000   -0.0000    0.0007   -0.0000    0.0000   -0.0000    0.0804   -0.0000    0.0005   -0.0000
       66 MO     4d1+       0.0000    0.0000   -0.0001    0.0000   -0.0000    0.0000   -0.0045    0.0000   -0.0000    0.0000
       67 MO     5d1+      -0.0000   -0.0000    0.0001   -0.0000    0.0000   -0.0000    0.0044   -0.0000    0.0000   -0.0000
       68 MO     6d1+       0.0000    0.0000   -0.0001    0.0000   -0.0000   -0.0000   -0.0032    0.0000   -0.0000    0.0000
       69 MO     7d1+      -0.0000   -0.0000    0.0001   -0.0000    0.0000    0.0000    0.0021   -0.0000    0.0000   -0.0000
       70 MO     8d1+       0.0000    0.0000   -0.0002    0.0000   -0.0000   -0.0000   -0.0014    0.0000   -0.0000    0.0000
       71 MO     9d1+      -0.0000   -0.0000    0.0001   -0.0000    0.0000    0.0000    0.0005   -0.0000    0.0000   -0.0000
       72 MO    10d1+       0.0000    0.0000   -0.0002    0.0000   -0.0000   -0.0000    0.0001   -0.0000    0.0000    0.0000
       73 MO    11d1+      -0.0000   -0.0000    0.0001   -0.0000    0.0000    0.0000   -0.0002    0.0000   -0.0000   -0.0000
       74 MO     3d2+      -0.0000   -0.0001   -0.0000    0.0000    0.0007    0.0026   -0.0003    0.0000    0.0869   -0.0000
       75 MO     4d2+       0.0000    0.0000    0.0000   -0.0000   -0.0001    0.0000    0.0000   -0.0000   -0.0049    0.0000
       76 MO     5d2+      -0.0000   -0.0000   -0.0000    0.0000    0.0001   -0.0000   -0.0000    0.0000    0.0047   -0.0000
       77 MO     6d2+       0.0000    0.0000    0.0000   -0.0000   -0.0001    0.0000    0.0000   -0.0000   -0.0034    0.0000
       78 MO     7d2+      -0.0000   -0.0000   -0.0000    0.0000    0.0001   -0.0001   -0.0000    0.0000    0.0023   -0.0000
       79 MO     8d2+       0.0000    0.0000    0.0000   -0.0000   -0.0002    0.0001    0.0000   -0.0000   -0.0016    0.0000
       80 MO     9d2+      -0.0000   -0.0000   -0.0000    0.0000    0.0001   -0.0001   -0.0000    0.0000    0.0007   -0.0000
       81 MO    10d2+       0.0000    0.0000    0.0000   -0.0000   -0.0002    0.0001   -0.0000   -0.0000   -0.0000    0.0000
       82 MO    11d2+      -0.0000    0.0000   -0.0000    0.0000    0.0001   -0.0000    0.0000   -0.0000   -0.0001   -0.0000
       83 MO     4f3-      -0.0000   -0.0000   -0.0000   -0.0000    0.0000    0.0000    0.0000    0.0001    0.0000   -0.0002
       84 MO     5f3-      -0.0000   -0.0000   -0.0000   -0.0000    0.0000    0.0000    0.0000    0.0001    0.0000   -0.0002
       85 MO     6f3-       0.0000    0.0000    0.0000    0.0000   -0.0000   -0.0000   -0.0000   -0.0000   -0.0000    0.0002
       86 MO     7f3-       0.0000   -0.0000   -0.0000   -0.0000    0.0000    0.0000    0.0000    0.0000    0.0000   -0.0002
       87 MO     8f3-       0.0000   -0.0000   -0.0000   -0.0000    0.0000    0.0000   -0.0000   -0.0000    0.0000   -0.0001
       88 MO     9f3-      -0.0000    0.0000    0.0000    0.0000   -0.0000   -0.0000    0.0000    0.0001   -0.0000    0.0004
       89 MO     4f2-       0.0000   -0.0000   -0.0000   -0.0000    0.0000   -0.0000   -0.0000   -0.0001   -0.0000    0.0050
       90 MO     5f2-       0.0000   -0.0000   -0.0000   -0.0000    0.0000   -0.0000   -0.0000   -0.0001   -0.0000    0.0058
       91 MO     6f2-      -0.0000    0.0000    0.0000    0.0000   -0.0000    0.0000    0.0000    0.0001    0.0000   -0.0058
       92 MO     7f2-       0.0000   -0.0000   -0.0000   -0.0000    0.0000   -0.0000   -0.0000   -0.0001   -0.0000    0.0052
       93 MO     8f2-       0.0000   -0.0000   -0.0000   -0.0000    0.0000   -0.0000   -0.0000   -0.0000   -0.0000    0.0031
       94 MO     9f2-       0.0000    0.0000    0.0000    0.0000   -0.0000    0.0000    0.0000    0.0001    0.0000   -0.0129
       95 MO     4f1-       0.0000    0.0000    0.0000    0.0000   -0.0000    0.0000   -0.0000   -0.0000   -0.0000    0.0001
       96 MO     5f1-       0.0000    0.0000    0.0000    0.0000   -0.0000    0.0000   -0.0000   -0.0000   -0.0000    0.0001
       97 MO     6f1-      -0.0000   -0.0000   -0.0000   -0.0000    0.0000   -0.0000    0.0000    0.0000   -0.0000   -0.0001
       98 MO     7f1-       0.0000    0.0000    0.0000    0.0000   -0.0000    0.0000   -0.0000   -0.0000    0.0000    0.0001
       99 MO     8f1-       0.0000    0.0000    0.0000    0.0000   -0.0000    0.0000    0.0000    0.0000    0.0000    0.0000
      100 MO     9f1-       0.0000   -0.0000   -0.0000   -0.0000    0.0000   -0.0000   -0.0000   -0.0000   -0.0000   -0.0001
      101 MO     4f0        0.0000    0.0000    0.0000   -0.0000    0.0000    0.0000   -0.0001    0.0000    0.0000    0.0000
      102 MO     5f0        0.0000    0.0000    0.0000   -0.0000    0.0000    0.0000   -0.0001    0.0000    0.0001    0.0000
      103 MO     6f0        0.0000    0.0000   -0.0000    0.0000   -0.0000   -0.0000    0.0000   -0.0000   -0.0000   -0.0000
      104 MO     7f0        0.0000    0.0000    0.0000   -0.0000    0.0000    0.0000   -0.0000    0.0000    0.0000    0.0000
      105 MO     8f0        0.0000    0.0000    0.0000   -0.0000    0.0000    0.0000    0.0000   -0.0000    0.0000    0.0000
      106 MO     9f0        0.0000    0.0000   -0.0000    0.0000   -0.0000   -0.0000   -0.0000    0.0000   -0.0000   -0.0000
      107 MO     4f1+       0.0000   -0.0000    0.0000   -0.0000    0.0000   -0.0001    0.0001   -0.0000    0.0000   -0.0000
      108 MO     5f1+       0.0000   -0.0000    0.0000   -0.0000    0.0000   -0.0001    0.0001   -0.0000    0.0001   -0.0000
      109 MO     6f1+      -0.0000    0.0000   -0.0000    0.0000   -0.0000    0.0001   -0.0000    0.0000   -0.0001    0.0000
      110 MO     7f1+       0.0000   -0.0000    0.0000   -0.0000    0.0000   -0.0001    0.0000   -0.0000    0.0001   -0.0000
      111 MO     8f1+       0.0000   -0.0000    0.0000   -0.0000    0.0000   -0.0001    0.0000   -0.0000    0.0000   -0.0000
      112 MO     9f1+      -0.0000    0.0000   -0.0000    0.0000   -0.0000    0.0002   -0.0000    0.0000   -0.0001    0.0000
      113 MO     4f2+       0.0000    0.0000   -0.0000    0.0000    0.0000    0.0000    0.0001   -0.0000    0.0000   -0.0000
      114 MO     5f2+       0.0000    0.0000   -0.0000    0.0000    0.0000    0.0000    0.0001   -0.0000    0.0000   -0.0000
      115 MO     6f2+       0.0000    0.0000    0.0000   -0.0000   -0.0000   -0.0000   -0.0000    0.0000   -0.0000    0.0000
      116 MO     7f2+       0.0000    0.0000   -0.0000    0.0000    0.0000    0.0000    0.0000   -0.0000    0.0000   -0.0000
      117 MO     8f2+       0.0000    0.0000   -0.0000    0.0000    0.0000    0.0000   -0.0000    0.0000    0.0000   -0.0000
      118 MO     9f2+       0.0000   -0.0000    0.0000   -0.0000   -0.0000   -0.0000    0.0001   -0.0000   -0.0000    0.0000
      119 MO     4f3+      -0.0000    0.0000    0.0000   -0.0000   -0.0000    0.0001    0.0000   -0.0000   -0.0000   -0.0000
      120 MO     5f3+      -0.0000    0.0000    0.0000   -0.0000   -0.0000    0.0002    0.0001   -0.0000   -0.0001   -0.0000
      121 MO     6f3+       0.0000   -0.0000   -0.0000    0.0000    0.0000   -0.0001   -0.0000    0.0000    0.0001    0.0000
      122 MO     7f3+      -0.0000    0.0000    0.0000   -0.0000   -0.0000    0.0001    0.0000   -0.0000   -0.0001   -0.0000
      123 MO     8f3+      -0.0000    0.0000    0.0000   -0.0000   -0.0000    0.0001    0.0000   -0.0000   -0.0000   -0.0000
      124 MO     9f3+       0.0000   -0.0000   -0.0000    0.0000    0.0000   -0.0002   -0.0000    0.0000    0.0002    0.0000
      125 MO     5g4-      -0.0000    0.0000    0.0000    0.0000   -0.0000   -0.0000    0.0000    0.0001    0.0000   -0.0000
      126 MO     6g4-       0.0000   -0.0000   -0.0000   -0.0000    0.0000   -0.0000   -0.0000   -0.0001   -0.0000   -0.0000
      127 MO     7g4-      -0.0000    0.0000    0.0000    0.0000   -0.0000    0.0000    0.0000    0.0001    0.0000    0.0000
      128 MO     8g4-       0.0000   -0.0000   -0.0000   -0.0000    0.0000   -0.0000   -0.0000   -0.0001   -0.0000   -0.0000
      129 MO     5g3-       0.0000    0.0000   -0.0000   -0.0000    0.0000    0.0000   -0.0000   -0.0001   -0.0000   -0.0000
      130 MO     6g3-      -0.0000   -0.0000    0.0000    0.0000   -0.0000   -0.0000    0.0000    0.0001    0.0000    0.0001
      131 MO     7g3-       0.0000    0.0000   -0.0000   -0.0000    0.0000    0.0000   -0.0000   -0.0000   -0.0000   -0.0002
      132 MO     8g3-      -0.0000   -0.0000    0.0000    0.0000   -0.0000   -0.0000    0.0000    0.0000    0.0000    0.0002
      133 MO     5g2-      -0.0000   -0.0000   -0.0000   -0.0000    0.0000   -0.0000   -0.0000   -0.0000    0.0000   -0.0000
      134 MO     6g2-       0.0000    0.0000    0.0000    0.0000   -0.0000    0.0000    0.0000    0.0000    0.0000    0.0000
      135 MO     7g2-      -0.0000   -0.0000   -0.0000   -0.0000    0.0000   -0.0000   -0.0000   -0.0001    0.0000   -0.0000
      136 MO     8g2-       0.0000    0.0000    0.0000    0.0000   -0.0000    0.0000    0.0000    0.0001    0.0000    0.0000
      137 MO     5g1-       0.0000   -0.0000    0.0000    0.0000   -0.0000   -0.0000    0.0000    0.0000   -0.0000    0.0000
      138 MO     6g1-      -0.0000    0.0000   -0.0000   -0.0000    0.0000   -0.0000   -0.0000   -0.0000   -0.0000   -0.0000
      139 MO     7g1-       0.0000   -0.0000    0.0000    0.0000   -0.0000   -0.0000    0.0000    0.0000   -0.0000    0.0001
      140 MO     8g1-      -0.0000    0.0000   -0.0000   -0.0000    0.0000    0.0000   -0.0000   -0.0000    0.0000   -0.0001
      141 MO     5g0       -0.0000   -0.0000   -0.0000    0.0000    0.0000   -0.0000   -0.0000    0.0000    0.0000   -0.0000
      142 MO     6g0       -0.0000   -0.0000    0.0000   -0.0000   -0.0000    0.0000    0.0000   -0.0000   -0.0001    0.0000
      143 MO     7g0        0.0000    0.0000   -0.0000    0.0000    0.0000   -0.0000   -0.0000    0.0000    0.0001   -0.0000
      144 MO     8g0        0.0000    0.0000    0.0000   -0.0000   -0.0000    0.0000    0.0000   -0.0000   -0.0001    0.0000
      145 MO     5g1+       0.0000    0.0000   -0.0000    0.0000    0.0000    0.0000   -0.0001    0.0000    0.0000    0.0000
      146 MO     6g1+       0.0000   -0.0000    0.0000   -0.0000   -0.0000   -0.0000    0.0001   -0.0000   -0.0000    0.0000
      147 MO     7g1+      -0.0000    0.0000   -0.0000    0.0000    0.0000    0.0000   -0.0001    0.0000    0.0000   -0.0000
      148 MO     8g1+       0.0000   -0.0000    0.0000   -0.0000   -0.0000   -0.0000    0.0001   -0.0000   -0.0000    0.0000
      149 MO     5g2+       0.0000    0.0000    0.0000   -0.0000   -0.0000    0.0000    0.0000   -0.0000   -0.0001    0.0000
      150 MO     6g2+       0.0000    0.0000   -0.0000    0.0000    0.0000   -0.0000   -0.0000    0.0000    0.0001   -0.0000
      151 MO     7g2+      -0.0000   -0.0000    0.0000   -0.0000   -0.0000    0.0000    0.0000   -0.0000   -0.0001    0.0000
      152 MO     8g2+      -0.0000   -0.0000   -0.0000    0.0000    0.0000   -0.0000   -0.0000    0.0000    0.0001   -0.0000
      153 MO     5g3+       0.0000    0.0000    0.0000   -0.0000    0.0000    0.0001    0.0001   -0.0000    0.0000   -0.0000
      154 MO     6g3+       0.0000   -0.0000   -0.0000    0.0000   -0.0000   -0.0001   -0.0001    0.0000   -0.0000   -0.0000
      155 MO     7g3+      -0.0000    0.0000    0.0000   -0.0000    0.0000    0.0001    0.0001   -0.0000    0.0000    0.0000
      156 MO     8g3+       0.0000   -0.0000   -0.0000    0.0000   -0.0000   -0.0000   -0.0001    0.0000   -0.0000   -0.0000
      157 MO     5g4+      -0.0000   -0.0000    0.0000   -0.0000    0.0000   -0.0000    0.0000   -0.0000    0.0001    0.0000
      158 MO     6g4+      -0.0000   -0.0000   -0.0000    0.0000   -0.0000    0.0000   -0.0000    0.0000   -0.0001   -0.0000
      159 MO     7g4+       0.0000    0.0000    0.0000   -0.0000    0.0000   -0.0000    0.0000   -0.0000    0.0001    0.0000
      160 MO     8g4+       0.0000    0.0000   -0.0000    0.0000   -0.0000    0.0000   -0.0000    0.0000   -0.0002   -0.0000
      161 MO     6h5-      -0.0000   -0.0000   -0.0000   -0.0000   -0.0000   -0.0000    0.0000    0.0000    0.0000    0.0000
      162 MO     7h5-       0.0000    0.0000    0.0000    0.0000    0.0000    0.0000    0.0000    0.0000   -0.0000   -0.0000
      163 MO     6h4-      -0.0000    0.0000    0.0000    0.0000   -0.0000    0.0000   -0.0000   -0.0000   -0.0000    0.0001
      164 MO     7h4-       0.0000   -0.0000   -0.0000   -0.0000    0.0000   -0.0000    0.0000    0.0000   -0.0000   -0.0001
      165 MO     6h3-      -0.0000   -0.0000    0.0000    0.0000   -0.0000   -0.0000   -0.0000   -0.0000    0.0000   -0.0000
      166 MO     7h3-       0.0000    0.0000   -0.0000   -0.0000    0.0000    0.0000   -0.0000   -0.0000   -0.0000    0.0000
      167 MO     6h2-       0.0000    0.0000    0.0000    0.0000   -0.0000   -0.0000    0.0000    0.0000    0.0000   -0.0000
      168 MO     7h2-      -0.0000    0.0000   -0.0000   -0.0000    0.0000    0.0000   -0.0000   -0.0000   -0.0000    0.0000
      169 MO     6h1-      -0.0000   -0.0000   -0.0000   -0.0000   -0.0000   -0.0000   -0.0000   -0.0000    0.0000   -0.0000
      170 MO     7h1-       0.0000    0.0000    0.0000    0.0000    0.0000    0.0000    0.0000    0.0000    0.0000    0.0000
      171 MO     6h0       -0.0000   -0.0000   -0.0000    0.0000   -0.0000   -0.0000    0.0000   -0.0000   -0.0000    0.0000
      172 MO     7h0        0.0000    0.0000    0.0000   -0.0000    0.0000    0.0000   -0.0000    0.0000    0.0000   -0.0000
      173 MO     6h1+       0.0000    0.0000    0.0000   -0.0000   -0.0000   -0.0000    0.0000   -0.0000   -0.0000    0.0000
      174 MO     7h1+       0.0000    0.0000   -0.0000    0.0000    0.0000    0.0000   -0.0000    0.0000    0.0000   -0.0000
      175 MO     6h2+       0.0000    0.0000    0.0000   -0.0000    0.0000    0.0000   -0.0000    0.0000    0.0000    0.0000
      176 MO     7h2+      -0.0000   -0.0000   -0.0000    0.0000   -0.0000   -0.0000   -0.0000    0.0000   -0.0000   -0.0000
      177 MO     6h3+      -0.0000   -0.0000    0.0000   -0.0000    0.0000    0.0000    0.0000   -0.0000    0.0001   -0.0000
      178 MO     7h3+      -0.0000   -0.0000   -0.0000    0.0000   -0.0000   -0.0000   -0.0000    0.0000   -0.0000    0.0000
      179 MO     6h4+       0.0000    0.0000   -0.0000    0.0000    0.0000    0.0001    0.0000   -0.0000    0.0001    0.0000
      180 MO     7h4+      -0.0000   -0.0000    0.0000   -0.0000   -0.0000   -0.0000   -0.0000    0.0000   -0.0000   -0.0000
      181 MO     6h5+       0.0000    0.0000    0.0000   -0.0000   -0.0000   -0.0000    0.0000   -0.0000   -0.0001   -0.0000
      182 MO     7h5+       0.0000    0.0000   -0.0000    0.0000    0.0000    0.0000   -0.0000    0.0000    0.0001    0.0000

          Orbital           11        12        13        14    
          Energy          -21.3435  -21.2715  -21.2714  -21.2362
          Occ. No.          0.0000    0.0000    0.0000    0.0000

        1 MO     1s        -0.0000    0.0000    0.0000   -0.0000
        2 MO     2s         0.0000   -0.0000    0.0000    0.0004
        3 MO     3s         0.0000   -0.0000    0.0000    0.0122
        4 MO     4s        -0.0000   -0.0000   -0.0000   -0.0030
        5 MO     5s         0.0000    0.0000    0.0000    0.0007
        6 MO     6s        -0.0000   -0.0000   -0.0000   -0.0008
        7 MO     7s         0.0000    0.0000    0.0000    0.0023
        8 MO     8s        -0.0000   -0.0000    0.0000   -0.0018
        9 MO     9s         0.0000    0.0000    0.0000    0.0015
       10 MO    10s        -0.0000    0.0000   -0.0000   -0.0009
       11 MO     2px       -0.0000    0.0000    0.0000   -0.0024
       12 MO     3px       -0.0000    0.0004    0.0000   -0.0952
       13 MO     4px        0.0000   -0.0001   -0.0000    0.0186
       14 MO     5px       -0.0000    0.0000    0.0000   -0.0060
       15 MO     6px        0.0000   -0.0001   -0.0000    0.0140
       16 MO     7px       -0.0000    0.0001    0.0000   -0.0112
       17 MO     8px        0.0000   -0.0001   -0.0000    0.0112
       18 MO     9px       -0.0000    0.0000    0.0000   -0.0081
       19 MO    10px        0.0000   -0.0000   -0.0000    0.0033
       20 MO     2py        0.0000    0.0000   -0.0020   -0.0000
       21 MO     3py        0.0000    0.0000   -0.0769    0.0000
       22 MO     4py       -0.0000   -0.0000    0.0148   -0.0000
       23 MO     5py        0.0000    0.0000   -0.0048   -0.0000
       24 MO     6py       -0.0000   -0.0000    0.0111   -0.0000
       25 MO     7py        0.0000    0.0000   -0.0090    0.0000
       26 MO     8py       -0.0000   -0.0000    0.0089   -0.0000
       27 MO     9py        0.0000    0.0000   -0.0065    0.0000
       28 MO    10py       -0.0000   -0.0000    0.0027   -0.0000
       29 MO     2pz       -0.0000   -0.0020   -0.0000   -0.0000
       30 MO     3pz       -0.0013   -0.0769   -0.0000   -0.0005
       31 MO     4pz        0.0003    0.0148    0.0000    0.0001
       32 MO     5pz       -0.0001   -0.0048   -0.0000   -0.0000
       33 MO     6pz        0.0002    0.0112    0.0000    0.0001
       34 MO     7pz       -0.0002   -0.0090   -0.0000   -0.0001
       35 MO     8pz        0.0001    0.0090    0.0000    0.0001
       36 MO     9pz       -0.0001   -0.0065   -0.0000   -0.0000
       37 MO    10pz        0.0000    0.0027    0.0000    0.0000
       38 MO     3d2-      -0.0000   -0.0000    0.9720   -0.0000
       39 MO     4d2-       0.0000    0.0000   -0.0975    0.0000
       40 MO     5d2-      -0.0000   -0.0000    0.1041   -0.0000
       41 MO     6d2-       0.0000    0.0000   -0.0885    0.0000
       42 MO     7d2-      -0.0000   -0.0000    0.0773   -0.0000
       43 MO     8d2-       0.0000    0.0000   -0.0793    0.0000
       44 MO     9d2-      -0.0000   -0.0000    0.0605   -0.0000
       45 MO    10d2-       0.0000    0.0000   -0.0595    0.0000
       46 MO    11d2-      -0.0000   -0.0000    0.0090   -0.0000
       47 MO     3d1-       0.0000   -0.0000    0.0224   -0.0000
       48 MO     4d1-      -0.0000    0.0000   -0.0023    0.0000
       49 MO     5d1-       0.0000   -0.0000    0.0025   -0.0000
       50 MO     6d1-      -0.0000    0.0000   -0.0021    0.0000
       51 MO     7d1-       0.0000   -0.0000    0.0018   -0.0000
       52 MO     8d1-      -0.0000    0.0000   -0.0019    0.0000
       53 MO     9d1-       0.0000   -0.0000    0.0014   -0.0000
       54 MO    10d1-      -0.0000    0.0000   -0.0014    0.0000
       55 MO    11d1-       0.0000   -0.0000    0.0002   -0.0000
       56 MO     3d0        0.8450   -0.0089   -0.0000   -0.4853
       57 MO     4d0       -0.0843    0.0010    0.0000    0.0490
       58 MO     5d0        0.0898   -0.0010   -0.0000   -0.0523
       59 MO     6d0       -0.0763    0.0009    0.0000    0.0445
       60 MO     7d0        0.0664   -0.0007   -0.0000   -0.0388
       61 MO     8d0       -0.0681    0.0007    0.0000    0.0399
       62 MO     9d0        0.0518   -0.0006   -0.0000   -0.0305
       63 MO    10d0       -0.0508    0.0005    0.0000    0.0299
       64 MO    11d0        0.0077   -0.0001   -0.0000   -0.0045
       65 MO     3d1+       0.0140    0.9721    0.0000    0.0065
       66 MO     4d1+      -0.0013   -0.0975   -0.0000   -0.0007
       67 MO     5d1+       0.0014    0.1041    0.0000    0.0007
       68 MO     6d1+      -0.0012   -0.0885   -0.0000   -0.0006
       69 MO     7d1+       0.0011    0.0773    0.0000    0.0005
       70 MO     8d1+      -0.0011   -0.0793   -0.0000   -0.0005
       71 MO     9d1+       0.0009    0.0605    0.0000    0.0004
       72 MO    10d1+      -0.0008   -0.0595   -0.0000   -0.0004
       73 MO    11d1+       0.0001    0.0090    0.0000    0.0001
       74 MO     3d2+       0.4882   -0.0126   -0.0000    0.8399
       75 MO     4d2+      -0.0487    0.0013    0.0000   -0.0847
       76 MO     5d2+       0.0519   -0.0014   -0.0000    0.0904
       77 MO     6d2+      -0.0441    0.0012    0.0000   -0.0770
       78 MO     7d2+       0.0384   -0.0010   -0.0000    0.0672
       79 MO     8d2+      -0.0393    0.0010    0.0000   -0.0691
       80 MO     9d2+       0.0299   -0.0008   -0.0000    0.0527
       81 MO    10d2+      -0.0293    0.0008    0.0000   -0.0518
       82 MO    11d2+       0.0044   -0.0001   -0.0000    0.0079
       83 MO     4f3-      -0.0000   -0.0000    0.0065   -0.0000
       84 MO     5f3-      -0.0000   -0.0000    0.0076   -0.0000
       85 MO     6f3-       0.0000    0.0000   -0.0075    0.0000
       86 MO     7f3-      -0.0000   -0.0000    0.0067   -0.0000
       87 MO     8f3-      -0.0000   -0.0000    0.0040   -0.0000
       88 MO     9f3-       0.0000    0.0000   -0.0164    0.0000
       89 MO     4f2-       0.0000   -0.0000    0.0000   -0.0000
       90 MO     5f2-       0.0000   -0.0000    0.0001   -0.0000
       91 MO     6f2-      -0.0000    0.0000   -0.0001    0.0000
       92 MO     7f2-       0.0000   -0.0000    0.0001   -0.0000
       93 MO     8f2-       0.0000   -0.0000    0.0001   -0.0000
       94 MO     9f2-      -0.0000    0.0000   -0.0003    0.0000
       95 MO     4f1-       0.0000    0.0000   -0.0017    0.0000
       96 MO     5f1-       0.0000    0.0000   -0.0020    0.0000
       97 MO     6f1-      -0.0000   -0.0000    0.0019   -0.0000
       98 MO     7f1-       0.0000    0.0000   -0.0017    0.0000
       99 MO     8f1-       0.0000    0.0000   -0.0010    0.0000
      100 MO     9f1-      -0.0000   -0.0000    0.0042   -0.0000
      101 MO     4f0       -0.0001   -0.0041   -0.0000   -0.0000
      102 MO     5f0       -0.0001   -0.0048   -0.0000   -0.0000
      103 MO     6f0        0.0001    0.0047    0.0000    0.0000
      104 MO     7f0       -0.0001   -0.0042   -0.0000   -0.0000
      105 MO     8f0       -0.0000   -0.0025   -0.0000   -0.0000
      106 MO     9f0        0.0001    0.0104    0.0000    0.0001
      107 MO     4f1+       0.0040    0.0001    0.0000   -0.0044
      108 MO     5f1+       0.0046    0.0001    0.0000   -0.0052
      109 MO     6f1+      -0.0046   -0.0000   -0.0000    0.0051
      110 MO     7f1+       0.0041    0.0000    0.0000   -0.0046
      111 MO     8f1+       0.0025   -0.0000   -0.0000   -0.0028
      112 MO     9f1+      -0.0102    0.0000    0.0000    0.0112
      113 MO     4f2+       0.0001    0.0053    0.0000    0.0001
      114 MO     5f2+       0.0001    0.0062    0.0000    0.0001
      115 MO     6f2+      -0.0001   -0.0061   -0.0000   -0.0001
      116 MO     7f2+       0.0001    0.0054    0.0000    0.0001
      117 MO     8f2+       0.0001    0.0033    0.0000    0.0000
      118 MO     9f2+      -0.0002   -0.0134   -0.0000   -0.0001
      119 MO     4f3+       0.0031   -0.0000   -0.0000    0.0057
      120 MO     5f3+       0.0036   -0.0000   -0.0000    0.0067
      121 MO     6f3+      -0.0035    0.0001    0.0000   -0.0066
      122 MO     7f3+       0.0032   -0.0001   -0.0000    0.0059
      123 MO     8f3+       0.0019   -0.0000   -0.0000    0.0036
      124 MO     9f3+      -0.0079    0.0002    0.0000   -0.0144
      125 MO     5g4-      -0.0000    0.0000   -0.0001    0.0000
      126 MO     6g4-      -0.0000   -0.0000    0.0002    0.0000
      127 MO     7g4-       0.0000    0.0000   -0.0003    0.0000
      128 MO     8g4-      -0.0000   -0.0000    0.0003   -0.0000
      129 MO     5g3-      -0.0000    0.0000   -0.0001    0.0000
      130 MO     6g3-       0.0000   -0.0000    0.0001    0.0000
      131 MO     7g3-      -0.0000    0.0000   -0.0000   -0.0000
      132 MO     8g3-       0.0000   -0.0000    0.0000   -0.0000
      133 MO     5g2-      -0.0000   -0.0000    0.0000   -0.0000
      134 MO     6g2-       0.0000    0.0000   -0.0001    0.0000
      135 MO     7g2-      -0.0000   -0.0000    0.0001    0.0000
      136 MO     8g2-       0.0000    0.0000   -0.0001    0.0000
      137 MO     5g1-       0.0000   -0.0000    0.0001    0.0000
      138 MO     6g1-      -0.0000    0.0000   -0.0001    0.0000
      139 MO     7g1-       0.0000   -0.0000    0.0001    0.0000
      140 MO     8g1-      -0.0000    0.0000   -0.0000    0.0000
      141 MO     5g0        0.0000   -0.0000   -0.0000   -0.0001
      142 MO     6g0       -0.0001    0.0000    0.0000    0.0001
      143 MO     7g0        0.0001   -0.0000   -0.0000   -0.0002
      144 MO     8g0       -0.0001   -0.0000   -0.0000    0.0002
      145 MO     5g1+      -0.0000    0.0001    0.0000    0.0000
      146 MO     6g1+      -0.0000   -0.0001   -0.0000   -0.0000
      147 MO     7g1+       0.0000    0.0002    0.0000    0.0000
      148 MO     8g1+      -0.0000   -0.0003   -0.0000   -0.0000
      149 MO     5g2+      -0.0000    0.0001    0.0000    0.0002
      150 MO     6g2+       0.0000   -0.0001   -0.0000   -0.0002
      151 MO     7g2+      -0.0001    0.0000    0.0000    0.0003
      152 MO     8g2+       0.0001   -0.0000   -0.0000   -0.0003
      153 MO     5g3+       0.0000   -0.0000   -0.0000    0.0000
      154 MO     6g3+       0.0000    0.0001    0.0000   -0.0000
      155 MO     7g3+      -0.0000   -0.0002   -0.0000   -0.0000
      156 MO     8g3+       0.0000    0.0002    0.0000    0.0000
      157 MO     5g4+      -0.0000    0.0001    0.0000   -0.0002
      158 MO     6g4+       0.0001   -0.0001   -0.0000    0.0003
      159 MO     7g4+      -0.0001    0.0000    0.0000   -0.0003
      160 MO     8g4+       0.0001   -0.0000   -0.0000    0.0004
      161 MO     6h5-       0.0000   -0.0000    0.0001   -0.0000
      162 MO     7h5-      -0.0000    0.0000   -0.0001    0.0000
      163 MO     6h4-       0.0000    0.0000   -0.0001    0.0000
      164 MO     7h4-      -0.0000   -0.0000    0.0000    0.0000
      165 MO     6h3-      -0.0000    0.0000   -0.0000   -0.0000
      166 MO     7h3-       0.0000   -0.0000    0.0000    0.0000
      167 MO     6h2-      -0.0000   -0.0000    0.0001   -0.0000
      168 MO     7h2-       0.0000    0.0000   -0.0000    0.0000
      169 MO     6h1-      -0.0000   -0.0000    0.0000   -0.0000
      170 MO     7h1-       0.0000    0.0000   -0.0000    0.0000
      171 MO     6h0       -0.0000    0.0001    0.0000   -0.0000
      172 MO     7h0        0.0000   -0.0000   -0.0000    0.0000
      173 MO     6h1+      -0.0001   -0.0000   -0.0000    0.0000
      174 MO     7h1+       0.0000    0.0000    0.0000   -0.0001
      175 MO     6h2+      -0.0000   -0.0001   -0.0000    0.0000
      176 MO     7h2+       0.0000    0.0001    0.0000   -0.0000
      177 MO     6h3+       0.0000    0.0001    0.0000   -0.0001
      178 MO     7h3+      -0.0000   -0.0000   -0.0000    0.0001
      179 MO     6h4+      -0.0000    0.0001    0.0000    0.0000
      180 MO     7h4+       0.0000   -0.0001   -0.0000   -0.0000
      181 MO     6h5+       0.0001    0.0001    0.0000    0.0001
      182 MO     7h5+      -0.0000   -0.0000   -0.0000   -0.0001
--


++    Molecular charges:
      ------------------

      Mulliken charges per centre and basis function type
      ---------------------------------------------------

                MO    
      1s       2.0000
      2s       2.0000
      2px      2.0000
      2pz      2.0000
      2py      2.0000
      3s       1.9560
      3px      1.9215
      3pz      1.9295
      3py      1.9295
      4s       0.0199
      3d2+     0.0151
      3d1+     0.0129
      3d0      0.0050
      3d1-     0.0000
      3d2-     0.0129
      4px      0.0226
      4pz      0.0224
      4py      0.0224
      5s       0.0009
      4d2+     0.0000
      4d1+     0.0000
      4d0      0.0000
      4d1-     0.0000
      4d2-     0.0000
      5px      0.0023
      5pz      0.0023
      5py      0.0023
      6s       0.0013
      4f3+     0.0000
      4f2+     0.0000
      4f1+     0.0000
      4f0      0.0000
      4f1-     0.0000
      4f2-     0.0000
      4f3-     0.0000
      5d2+     0.0000
      5d1+     0.0000
      5d0      0.0000
      5d1-     0.0000
      5d2-     0.0000
      6px      0.0124
      6pz      0.0122
      6py      0.0122
      7s       0.0097
      5f3+     0.0000
      5f2+     0.0000
      5f1+     0.0000
      5f0      0.0000
      5f1-     0.0000
      5f2-     0.0000
      5f3-     0.0000
      6d2+     0.0000
      6d1+     0.0000
      6d0      0.0000
      6d1-     0.0000
      6d2-     0.0000
      7px      0.0079
      7pz      0.0078
      7py      0.0078
      5g4+     0.0000
      5g3+     0.0000
      5g2+     0.0000
      5g1+     0.0000
      5g0      0.0000
      5g1-     0.0000
      5g2-     0.0000
      5g3-     0.0000
      5g4-     0.0000
      6f3+     0.0000
      6f2+     0.0000
      6f1+     0.0000
      6f0      0.0000
      6f1-     0.0000
      6f2-     0.0000
      6f3-     0.0000
      6g4+     0.0000
      6g3+     0.0000
      6g2+     0.0000
      6g1+     0.0000
      6g0      0.0000
      6g1-     0.0000
      6g2-     0.0000
      6g3-     0.0000
      6g4-     0.0000
      6h5+     0.0000
      6h4+     0.0000
      6h3+     0.0000
      6h2+     0.0000
      6h1+     0.0000
      6h0      0.0000
      6h1-     0.0000
      6h2-     0.0000
      6h3-     0.0000
      6h4-     0.0000
      6h5-     0.0000
      7d2+     0.0000
      7d1+     0.0000
      7d0      0.0000
      7d1-     0.0000
      7d2-     0.0000
      7f3+     0.0000
      7f2+     0.0000
      7f1+     0.0000
      7f0      0.0000
      7f1-     0.0000
      7f2-     0.0000
      7f3-     0.0000
      7g4+     0.0000
      7g3+     0.0000
      7g2+     0.0000
      7g1+     0.0000
      7g0      0.0000
      7g1-     0.0000
      7g2-     0.0000
      7g3-     0.0000
      7g4-     0.0000
      7h5+     0.0000
      7h4+     0.0000
      7h3+     0.0000
      7h2+     0.0000
      7h1+     0.0000
      7h0      0.0000
      7h1-     0.0000
      7h2-     0.0000
      7h3-     0.0000
      7h4-     0.0000
      7h5-     0.0000
      8s       0.0057
      8px      0.0080
      8pz      0.0078
      8py      0.0078
      8d2+     0.0000
      8d1+     0.0000
      8d0      0.0000
      8d1-     0.0000
      8d2-     0.0000
      8f3+     0.0000
      8f2+     0.0000
      8f1+     0.0000
      8f0      0.0000
      8f1-     0.0000
      8f2-     0.0000
      8f3-     0.0000
      8g4+     0.0000
      8g3+     0.0000
      8g2+     0.0000
      8g1+     0.0000
      8g0      0.0000
      8g1-     0.0000
      8g2-     0.0000
      8g3-     0.0000
      8g4-     0.0000
      9s       0.0044
      9px      0.0043
      9pz      0.0042
      9py      0.0042
      9d2+     0.0000
      9d1+     0.0000
      9d0      0.0000
      9d1-     0.0000
      9d2-     0.0000
      9f3+     0.0000
      9f2+     0.0000
      9f1+     0.0000
      9f0      0.0000
      9f1-     0.0000
      9f2-     0.0000
      9f3-     0.0000
     10s       0.0020
     10px      0.0009
     10pz      0.0009
     10py      0.0009
     10d2+     0.0000
     10d1+     0.0000
     10d0      0.0000
     10d1-     0.0000
     10d2-     0.0000
     11d2+     0.0000
     11d1+     0.0000
     11d0      0.0000
     11d1-     0.0000
     11d2-     0.0000
      Total   18.0000

      N-E     24.0000

      Total electronic charge=   18.000000

      Total            charge=   24.000000
--

 Sorry, Molden does not know how to handle
 functions with angular momentum larger than g

++    Static properties:
      ------------------


      LoProp Charges per center


                   MO    
      Nuclear     42.0000
      Electronic -18.0000

      Total       24.0000
--


++    Molecular properties:
      ---------------------

      Charge (e):
                      =   24.0000
      Dipole Moment (Debye):
      Origin of the operator (Ang)=    0.0000    0.0000    0.0000
                   X= -4.8318E-01               Y= -1.8953E-13               Z=  5.3312E-01           Total=  7.1950E-01
      Center of Charge (Ang)
                     X=   -0.00419147               Y=   -0.00000000               Z=    0.00462466
      Quadrupole Moment (Debye*Ang):
      Origin of the operator (Ang)=   -0.0000   -0.0000    0.0046
                  XX= -6.7710E-01              XY=  2.2879E-16              XZ=  2.8439E-05              YY= -6.8042E-01
                  YZ=  4.2980E-16              ZZ= -6.8042E-01
      In traceless form (Debye*Ang)
                  XX=  3.3221E-03              XY=  3.4319E-16              XZ=  4.2659E-05              YY= -1.6604E-03
                  YZ=  6.4470E-16              ZZ= -1.6617E-03
--

 Sorry, Molden does not know how to handle
 functions with angular momentum larger than g
 ###############################################################################
 ###############################################################################
 ###                                                                         ###
 ###                                                                         ###
 ###    WARNING: RunFile label nBas                                          ###
 ###    was used       62 times                                              ###
 ###                                                                         ###
 ###                                                                         ###
 ###############################################################################
 ###############################################################################
Note: The following floating-point exceptions are signalling: IEEE_UNDERFLOW_FLAG IEEE_DENORMAL
--- Stop Module: scf at Wed Mar 26 11:19:14 2025 /rc=_RC_ALL_IS_WELL_ ---
*** files: molybdenum_so_cf.LprOrb molybdenum_so_cf.ScfOrb xmldump
    saved to directory /home4/s4752295/Internship/Initial_simulations/Point_charge_model/1_electron/Madelung_charges_9_active_space/Mo
--- Module scf spent 8 seconds ---

*** symbolic link created: INPORB -> molybdenum_so_cf.ScfOrb
--- Start Module: rasscf at Wed Mar 26 11:19:15 2025 ---

()()()()()()()()()()()()()()()()()()()()()()()()()()()()()()()()()()()()()()()()()()()()()()()()()()

                                              &RASSCF

                                   only a single process is used
                       available to each process: 4.1 GB of memory, 1 thread?
                                            pid: 3920779
()()()()()()()()()()()()()()()()()()()()()()()()()()()()()()()()()()()()()()()()()()()()()()()()()()


      Header of the ONEINT file:
      --------------------------
      
      Integrals generated by seward 4.2.0  , Wed Mar 26 11:18:57 2025


      OrdInt status: non-squared


      Cartesian coordinates in Angstrom:
      -----------------------------------------------------
      No.  Label        X            Y            Z        
      -----------------------------------------------------
       1   MO        -0.00000000  -0.00000000   0.00463220
      -----------------------------------------------------
      Nuclear repulsion energy = -768.51216292

++    Wave function specifications:
      -----------------------------

      Number of closed shell electrons          18
      Number of electrons in active shells       1
      Max number of holes in RAS1 space          0
      Max nr of electrons in RAS3 space          0
      Number of inactive orbitals                9
      Number of active orbitals                  9
      Number of secondary orbitals             164
      Spin quantum number                      0.5
      State symmetry                             1
--

++    Orbital specifications:
      -----------------------

      Symmetry species                           1
                                                 a
      Frozen orbitals                            0
      Inactive orbitals                          9
      Active orbitals                            9
      RAS1 orbitals                              0
      RAS2 orbitals                              9
      RAS3 orbitals                              0
      Secondary orbitals                       164
      Deleted orbitals                           0
      Number of basis functions                182
--

++    CI expansion specifications:
      ----------------------------

      Number of CSFs                             9
      Number of determinants                     9
      Number of root(s) required                 9
      Root chosen for geometry opt.              9
      CI roots used                              1     2     3     4     5     6     7     8     9
      weights                                0.111 0.111 0.111 0.111 0.111 0.111 0.111 0.111 0.111
      highest root included in the CI            9
      max. size of the explicit Hamiltonian      9
--

++    Optimization specifications:
      ----------------------------

      RASSCF algorithm: Conventional
      Maximum number of macro iterations       200
      Maximum number of SX iterations          100
      Threshold for RASSCF energy            0.100E-07
      Threshold for max MO rotation          0.100E+00
      Threshold for max BLB element          0.100E-03
      Level shift parameter                  0.500E+00
      Make Quasi-Newton update
--

      The MO-coefficients are taken from the file:
      INPORB                                                                                                                          
      Title: SCF orbitals                                                                  

      Total molecular charge   23.00

      ************************************************************************************************************************
      *                                                                                                                      *
      *                                            Wave function control section                                             *
      *                                                                                                                      *
      ************************************************************************************************************************


                                         RASSCF iterations: Energy and convergence statistics
                                         ----------------------------------------------------

      Iter CI   SX   CI       RASSCF       Energy    max ROT     max BLB   max BLB  Level Ln srch  Step   QN   Walltime
          iter iter root      energy       change     param      element    value   shift minimum  type update hh:mm:ss
 Nr of preliminary CI iterations:   1
      Total energies have been shifted. Add                -4000.00 au
        1   1    5    0  -137.27927405    0.00E+00   0.92E-02    8  17 1 -0.39E+00*  0.00   0.00    SX    NO    0:00:03
        2   1    4    0  -137.30416594   -0.25E-01* -0.19E-02    8 175 1  0.31E-01*  0.00   0.00    SX    NO    0:00:01
        3   1    4    0  -137.30430206   -0.14E-03* -0.13E-02    7 176 1 -0.26E-02*  0.00   0.00    SX    NO    0:00:01
        4   1    4    0  -137.30431183   -0.98E-05*  0.91E-03   10  19 1  0.11E-02*  0.00   0.00    SX    NO    0:00:01
        5   1    4    0  -137.30431456   -0.27E-05* -0.34E-03   10  19 1 -0.77E-03*  0.00   0.69    QN   YES    0:00:01
        6   1    4    0  -137.30431595   -0.14E-05*  0.32E-03   18  23 1 -0.29E-03*  0.00   1.27    QN   YES    0:00:01
        7   1    4    0  -137.30431631   -0.36E-06*  0.43E-03   18  23 1 -0.21E-03*  0.00   1.69    QN   YES    0:00:01
        8   1    4    0  -137.30431651   -0.19E-06* -0.21E-03   18  23 1 -0.97E-04   0.00   1.27    QN   YES    0:00:01
        9   1    3    0  -137.30431656   -0.51E-07*  0.13E-03   16  32 1 -0.50E-04   0.00   1.42    QN   YES    0:00:01
       10   1    3    0  -137.30431658   -0.19E-07*  0.24E-04   16  32 1 -0.22E-04   0.00   1.21    QN   YES    0:00:01
       11   1    3    0  -137.30431658   -0.33E-08   0.98E-05   10  19 1 -0.11E-04   0.00   1.20    QN   YES    0:00:01
      Convergence after 11 iterations
       12   1    3    0  -137.30431658   -0.56E-09   0.98E-05   18  23 1 -0.44E-05   0.00   1.20    QN   YES    0:00:01

      ************************************************************************************************************************
                                                      Wave function printout:
                       occupation of active orbitals, and spin coupling of open shells (u,d: Spin up or down)
      ************************************************************************************************************************

      Note: transformation to natural orbitals
      has been made, which may change the order of the CSFs.

      printout of CI-coefficients larger than  0.05 for root  1
      energy=   -4144.597149
      conf/sym  111111111     Coeff  Weight
[...]
    12            14.7468339286      401.2817939366        3236555.9403         0.9
    13            16.5966984668      451.6191723893        3642554.2779         1.4
    14            16.5966984668      451.6191723893        3642554.2779         1.4
    15            16.5997110998      451.7011503073        3643215.4744         1.4
    16            16.5997110998      451.7011503073        3643215.4744         1.4
    17            17.4358131447      474.4526459920        3826718.6624         1.3
    18            17.4358131447      474.4526459920        3826718.6624         1.3


 Weights of the five most important spin-orbit-free states for each spin-orbit state.

 SO State  Total energy (au)           Spin-free states, spin, and weights
 -------------------------------------------------------------------------------------------------------
    1         0.000000       1 0.5  1.0000    9 0.5  0.0000    8 0.5  0.0000    7 0.5  0.0000    6 0.5  0.0000
    2         0.000000       1 0.5  1.0000    9 0.5  0.0000    8 0.5  0.0000    7 0.5  0.0000    6 0.5  0.0000
    3         0.000050       2 0.5  1.0000    9 0.5  0.0000    8 0.5  0.0000    7 0.5  0.0000    6 0.5  0.0000
    4         0.000050       2 0.5  1.0000    9 0.5  0.0000    8 0.5  0.0000    7 0.5  0.0000    6 0.5  0.0000
    5         0.073438       3 0.5  1.0000    9 0.5  0.0000    8 0.5  0.0000    7 0.5  0.0000    6 0.5  0.0000
    6         0.073438       3 0.5  1.0000    9 0.5  0.0000    8 0.5  0.0000    7 0.5  0.0000    6 0.5  0.0000
    7         0.073550       4 0.5  1.0000    9 0.5  0.0000    8 0.5  0.0000    7 0.5  0.0000    6 0.5  0.0000
    8         0.073550       4 0.5  1.0000    9 0.5  0.0000    8 0.5  0.0000    7 0.5  0.0000    6 0.5  0.0000
    9         0.109402       5 0.5  1.0000    9 0.5  0.0000    8 0.5  0.0000    7 0.5  0.0000    6 0.5  0.0000
   10         0.109402       5 0.5  1.0000    9 0.5  0.0000    8 0.5  0.0000    7 0.5  0.0000    6 0.5  0.0000
   11        14.746834       6 0.5  1.0000    9 0.5  0.0000    8 0.5  0.0000    7 0.5  0.0000    5 0.5  0.0000
   12        14.746834       6 0.5  1.0000    9 0.5  0.0000    8 0.5  0.0000    7 0.5  0.0000    5 0.5  0.0000
   13        16.596698       7 0.5  1.0000    9 0.5  0.0000    8 0.5  0.0000    6 0.5  0.0000    5 0.5  0.0000
   14        16.596698       7 0.5  1.0000    9 0.5  0.0000    8 0.5  0.0000    6 0.5  0.0000    5 0.5  0.0000
   15        16.599711       8 0.5  1.0000    9 0.5  0.0000    7 0.5  0.0000    6 0.5  0.0000    5 0.5  0.0000
   16        16.599711       8 0.5  1.0000    9 0.5  0.0000    7 0.5  0.0000    6 0.5  0.0000    5 0.5  0.0000
   17        17.435813       9 0.5  1.0000    8 0.5  0.0000    7 0.5  0.0000    6 0.5  0.0000    5 0.5  0.0000
   18        17.435813       9 0.5  1.0000    8 0.5  0.0000    7 0.5  0.0000    6 0.5  0.0000    5 0.5  0.0000
 -------------------------------------------------------------------------------------------------------


      ****************************************************************************************************
      *                                                                                                  *
      *                                    Special properties section                                    *
      *                                                                                                  *
      ****************************************************************************************************


++ Dipole transition strengths (SO states):
   ----------------------------------------
    for osc. strength at least    1.0000000000000001E-005

      From   To        Osc. strength     Einstein coefficients Ax, Ay, Az (sec-1)    Total A (sec-1)
     -----------------------------------------------------------------------------------------------
         1   13       1.09911312E-02  6.98221267E-08  9.72736413E+10  2.16334151E-05  9.72736413E+10
         1   15       1.10886187E-02  4.90210486E+08  2.17017916E-05  9.76818444E+10  9.81720549E+10
         2   14       1.09911312E-02  6.98221267E-08  9.72736413E+10  2.16334151E-05  9.72736413E+10
         2   16       1.10886187E-02  4.90210486E+08  2.17017916E-05  9.76818444E+10  9.81720549E+10
         3   13       1.10162569E-02  3.30024615E+08  2.16527322E-05  9.71654017E+10  9.74954263E+10
         3   15       1.10139611E-02  1.02752296E-07  9.75104982E+10  2.17414530E-05  9.75104982E+10
         4   14       1.10162569E-02  3.30024615E+08  2.16527322E-05  9.71654017E+10  9.74954263E+10
         4   16       1.10139611E-02  1.02752296E-07  9.75104982E+10  2.17414530E-05  9.75104982E+10
         5   11       3.30254671E-03  1.26893433E+06  5.68184520E-07  2.28452290E+10  2.28464979E+10
         5   13       2.35719260E-02  2.06728838E+11  3.85574781E-10  4.51777301E+07  2.06774015E+11
         5   17       1.71792827E-03  5.52596936E+06  4.11726727E-07  1.66336836E+10  1.66392095E+10
         6   12       3.30254671E-03  1.26893433E+06  5.68184520E-07  2.28452290E+10  2.28464979E+10
         6   14       2.35719260E-02  2.06728838E+11  3.85574781E-10  4.51777301E+07  2.06774015E+11
         6   18       1.71792827E-03  5.52596936E+06  4.11726727E-07  1.66336836E+10  1.66392095E+10
         7   11       3.27862600E-03  1.00908513E-10  2.26806706E+10  5.73025956E-07  2.26806706E+10
         7   15       2.34791022E-02  2.06016678E+11  7.46352776E-10  1.53899032E+07  2.06032068E+11
         7   17       1.69334959E-03  4.92038920E-10  1.64009372E+10  4.17069873E-07  1.64009372E+10
         8   12       3.27862600E-03  1.00908513E-10  2.26806706E+10  5.73025956E-07  2.26806706E+10
         8   16       2.34791022E-02  2.06016678E+11  7.46352776E-10  1.53899032E+07  2.06032068E+11
         8   18       1.69334959E-03  4.92038920E-10  1.64009372E+10  4.17069873E-07  1.64009372E+10
         9   11       6.54906564E-03  4.50825712E+10  1.09927936E-11  1.01676525E+06  4.50835880E+10
         9   13       1.31235910E-03  6.91217269E+06  4.68986716E-10  1.14551019E+10  1.14620140E+10
         9   15       1.33330767E-03  8.30604871E-11  1.16492328E+10  4.87514006E-10  1.16492328E+10
         9   17       2.64908525E-02  2.55515577E+11  6.00231739E-12  3.02457398E+06  2.55518601E+11
        10   12       6.54906564E-03  4.50825712E+10  1.09927936E-11  1.01676525E+06  4.50835880E+10
        10   14       1.31235910E-03  6.91217269E+06  4.68986716E-10  1.14551019E+10  1.14620140E+10
        10   16       1.33330767E-03  8.30604871E-11  1.16492328E+10  4.87514006E-10  1.16492328E+10
        10   18       2.64908525E-02  2.55515577E+11  6.00231739E-12  3.02457398E+06  2.55518601E+11
        11   13       1.85767897E-01  1.78099536E+04  8.40307733E-10  2.04248800E+10  2.04248978E+10
        11   15       1.85660633E-01  1.89185300E-15  2.04796468E+10  8.46231788E-10  2.04796468E+10
        11   17       1.28262151E-01  2.97976635E+10  1.09220825E-15  3.93931953E+04  2.97977029E+10
        12   14       1.85767897E-01  1.78099536E+04  8.40307733E-10  2.04248800E+10  2.04248978E+10
        12   16       1.85660633E-01  1.89185300E-15  2.04796468E+10  8.46231788E-10  2.04796468E+10
        12   18       1.28262151E-01  2.97976635E+10  1.09220825E-15  3.93931953E+04  2.97977029E+10
        13   17       2.78186395E-02  8.62010747E+03  2.62754325E-11  6.29335089E+08  6.29343709E+08
        14   18       2.78186395E-02  8.62010747E+03  2.62754325E-11  6.29335089E+08  6.29343709E+08
        15   17       2.80776069E-02  1.82076125E-16  6.30649468E+08  2.56733216E-11  6.30649468E+08
        16   18       2.80776069E-02  1.82076125E-16  6.30649468E+08  2.56733216E-11  6.30649468E+08
     -----------------------------------------------------------------------------------------------
--

++ Velocity transition strengths (SO states):
   ------------------------------------------
    for osc. strength at least    1.0000000000000001E-005

      From   To        Osc. strength     Einstein coefficients Ax, Ay, Az (sec-1)    Total A (sec-1)
     -----------------------------------------------------------------------------------------------
         1    3       3.33579239E-05  1.99262698E-20  2.63633982E-03  1.85620214E-21  2.63633982E-03
         1    5       8.01398122E-04  4.30807095E-16  1.38866121E+05  1.29921392E-11  1.38866121E+05
         1    7       7.99159113E-04  1.73731529E-01  1.30305095E-11  1.38902326E+05  1.38902500E+05
         1   13       1.04787780E-02  5.69089327E-08  9.27395390E+10  2.06209614E-05  9.27395390E+10
         1   15       1.05626558E-02  4.05067152E+08  2.06881073E-05  9.31107498E+10  9.35158170E+10
         2    4       3.33579239E-05  1.99262698E-20  2.63633982E-03  1.85620214E-21  2.63633982E-03
         2    6       8.01398122E-04  4.30807095E-16  1.38866121E+05  1.29921392E-11  1.38866121E+05
         2    8       7.99159113E-04  1.73731529E-01  1.30305095E-11  1.38902326E+05  1.38902500E+05
         2   14       1.04787780E-02  5.69089327E-08  9.27395390E+10  2.06209614E-05  9.27395390E+10
         2   16       1.05626558E-02  4.05067152E+08  2.06881073E-05  9.31107498E+10  9.35158170E+10
         3    5       8.00285188E-04  2.16933265E+00  1.30110824E-11  1.38483861E+05  1.38486030E+05
         3    7       8.01119590E-04  3.40925660E-17  1.39055528E+05  1.30078153E-11  1.39055528E+05
         3   13       1.04983879E-02  2.67998963E+08  2.06395413E-05  9.26445365E+10  9.29125354E+10
         3   15       1.05009701E-02  8.49443467E-08  9.29691304E+10  2.07202220E-05  9.29691304E+10
         4    6       8.00285188E-04  2.16933265E+00  1.30110824E-11  1.38483861E+05  1.38486030E+05
         4    8       8.01119590E-04  3.40925660E-17  1.39055528E+05  1.30078153E-11  1.39055528E+05
         4   14       1.04983879E-02  2.67998963E+08  2.06395413E-05  9.26445365E+10  9.29125354E+10
         4   16       1.05009701E-02  8.49443467E-08  9.29691304E+10  2.07202220E-05  9.29691304E+10
         5    9       6.10764076E-03  8.99009056E-01  6.38532238E-12  2.53826570E+05  2.53827469E+05
         5   11       3.18599515E-03  1.20222661E+06  5.48918214E-07  2.20390870E+10  2.20402892E+10
         5   13       2.09832519E-02  1.84035834E+11  1.96566713E-10  3.08540939E+07  1.84066688E+11
         5   17       1.81434641E-03  4.95452262E+06  4.35028781E-07  1.75681861E+10  1.75731406E+10
         6   10       6.10764076E-03  8.99009056E-01  6.38532238E-12  2.53826570E+05  2.53827469E+05
         6   12       3.18599515E-03  1.20222661E+06  5.48918214E-07  2.20390870E+10  2.20402892E+10
         6   14       2.09832519E-02  1.84035834E+11  1.96566713E-10  3.08540939E+07  1.84066688E+11
         6   18       1.81434641E-03  4.95452262E+06  4.35028781E-07  1.75681861E+10  1.75731406E+10
         7    9       6.12011045E-03  1.08688688E-17  2.52757877E+05  6.37663366E-12  2.52757877E+05
         7   11       3.16545552E-03  9.98070695E-11  2.18978632E+10  5.52376638E-07  2.18978632E+10
         7   15       2.09096395E-02  1.83477643E+11  4.47070776E-10  7.70542132E+06  1.83485348E+11
         7   17       1.79210168E-03  4.40122319E-10  1.73574609E+10  4.40345148E-07  1.73574609E+10
         8   10       6.12011045E-03  1.08688688E-17  2.52757877E+05  6.37663366E-12  2.52757877E+05
         8   12       3.16545552E-03  9.98070695E-11  2.18978632E+10  5.52376638E-07  2.18978632E+10
         8   16       2.09096395E-02  1.83477643E+11  4.47070776E-10  7.70542132E+06  1.83485348E+11
         8   18       1.79210168E-03  4.40122319E-10  1.73574609E+10  4.40345148E-07  1.73574609E+10
         9   11       6.06652721E-03  4.17610051E+10  9.90748407E-12  9.46726955E+05  4.17619519E+10
         9   13       1.40919083E-03  6.03038177E+06  4.97409283E-10  1.23017452E+10  1.23077755E+10
         9   15       1.42807704E-03  7.22610258E-11  1.24772849E+10  5.19526342E-10  1.24772849E+10
         9   17       2.24666510E-02  2.16701014E+11  7.83136411E-12  2.74018206E+06  2.16703754E+11
        10   12       6.06652721E-03  4.17610051E+10  9.90748407E-12  9.46726955E+05  4.17619519E+10
        10   14       1.40919083E-03  6.03038177E+06  4.97409283E-10  1.23017452E+10  1.23077755E+10
        10   16       1.42807704E-03  7.22610258E-11  1.24772849E+10  5.19526342E-10  1.24772849E+10
        10   18       2.24666510E-02  2.16701014E+11  7.83136411E-12  2.74018206E+06  2.16703754E+11
        11   13       1.77125263E-01  1.65816419E+04  8.02799236E-10  1.94747045E+10  1.94747211E+10
        11   15       1.77022455E-01  4.09269853E-16  1.95268641E+10  8.03484294E-10  1.95268641E+10
        11   17       1.21513502E-01  2.82299241E+10  2.07289890E-16  3.90521451E+04  2.82299632E+10
        12   14       1.77125263E-01  1.65816419E+04  8.02799236E-10  1.94747045E+10  1.94747211E+10
        12   16       1.77022455E-01  4.09269853E-16  1.95268641E+10  8.03484294E-10  1.95268641E+10
        12   18       1.21513502E-01  2.82299241E+10  2.07289890E-16  3.90521451E+04  2.82299632E+10
        13   17       3.24076545E-02  8.15796684E+03  3.05804088E-11  7.33155821E+08  7.33163979E+08
        14   18       3.24076545E-02  8.15796684E+03  3.05804088E-11  7.33155821E+08  7.33163979E+08
        15   17       3.26821184E-02  1.20112155E-19  7.34073683E+08  3.02460207E-11  7.34073683E+08
        16   18       3.26821184E-02  1.20112155E-19  7.34073683E+08  3.02460207E-11  7.34073683E+08
     -----------------------------------------------------------------------------------------------
--

++ Length and velocity gauge comparison (SO states):

 --------------------------------------------------
 A comparison between the dipole oscillator strengths in 
 length and velocity gauge will be performed

 All dipole oscillator differences above the tolerance of   0.10000000000000001       will be printed 

 Due to basis set deficiency these oscillator may be problematic 

 The tolerance is defined as ABS(1-O_l/O_v) 
 O_l : dipole oscillator strength in length gauge
 O_p : dipole oscillator strength in velocity gauge
 --------------------------------------------------

  Problematic transitions have been found

      From   To       Difference (%) Osc. st. (len.) Osc. st. (vel.)
     ---------------------------------------------------------------
         1    3      --------------- below threshold  3.33579239E-05
         1    5      --------------- below threshold  8.01398122E-04
         1    7      --------------- below threshold  7.99159113E-04
         2    4      --------------- below threshold  3.33579239E-05
         2    6      --------------- below threshold  8.01398122E-04
         2    8      --------------- below threshold  7.99159113E-04
         3    5      --------------- below threshold  8.00285188E-04
         3    7      --------------- below threshold  8.01119590E-04
         4    6      --------------- below threshold  8.00285188E-04
         4    8      --------------- below threshold  8.01119590E-04
         5    9      --------------- below threshold  6.10764076E-03
         5   13            12.336858  2.35719260E-02  2.09832519E-02
         6   10      --------------- below threshold  6.10764076E-03
         6   14            12.336858  2.35719260E-02  2.09832519E-02
         7    9      --------------- below threshold  6.12011045E-03
         7   15            12.288412  2.34791022E-02  2.09096395E-02
         8   10      --------------- below threshold  6.12011045E-03
         8   16            12.288412  2.34791022E-02  2.09096395E-02
         9   17            17.911889  2.64908525E-02  2.24666510E-02
        10   18            17.911889  2.64908525E-02  2.24666510E-02
        13   17            14.160281  2.78186395E-02  3.24076545E-02
        14   18            14.160281  2.78186395E-02  3.24076545E-02
        15   17            14.088779  2.80776069E-02  3.26821184E-02
        16   18            14.088779  2.80776069E-02  3.26821184E-02
     ---------------------------------------------------------------

 Number of problematic transitions =                    24

--

 Electric-dipole - electric-octupole not included
++ Total transition strengths for the second-order expansion of the wave vector (SO states):
   -----------------------------------------------------------------------------------------
    for osc. strength at least    1.0000000000000001E-005

      From   To        Osc. strength
     -------------------------------
         1   17       1.52868270E-05
         2   18       1.52868270E-05
         3   17       1.52875935E-05
         4   18       1.52875935E-05
     -------------------------------
--

++ I/O STATISTICS
 
  I. General I/O information
  - - - - - - - - - - - - - - - - - - - - - - - - - - - - - - - - - - - - - - - - - - -
  Unit  Name          Flsize      Write/Read            MBytes           Write/Read
                      (MBytes)       Calls              In/Out           Time, sec.
  - - - - - - - - - - - - - - - - - - - - - - - - - - - - - - - - - - - - - - - - - - -
   1  SCRATCH           0.00 .       9/      45 .      0.0/      0.0 .       0/       0
   2  ANNI              0.00 .       0/       0 .      0.0/      0.0 .       0/       0
   3  RUNFILE          14.92 .     322/   10733 .      2.3/     77.8 .       0/       0
   4  ONEINT            5.68 .       0/   24849 .      0.0/   3743.6 .       0/       0
   5  JOBIPH            6.59 .       0/      92 .      0.0/      0.8 .       0/       0
   6  ORDINT          529.03 .       1/    4233 .      0.0/   1058.0 .       0/       0
  - - - - - - - - - - - - - - - - - - - - - - - - - - - - - - - - - - - - - - - - - - -
   *  TOTAL           556.23 .     332/   39952 .      2.3/   4880.2 .       0/       0
  - - - - - - - - - - - - - - - - - - - - - - - - - - - - - - - - - - - - - - - - - - -
 
  II. I/O Access Patterns
  - - - - - - - - - - - - - - - - - - - -
  Unit  Name               % of random
                         Write/Read calls
  - - - - - - - - - - - - - - - - - - - -
   1  SCRATCH             88.9/ 100.0
   2  ANNI                 0.0/   0.0
   3  RUNFILE             28.6/  10.8
   4  ONEINT               0.0/  15.5
   5  JOBIPH               0.0/  76.1
   6  ORDINT             100.0/   0.0
  - - - - - - - - - - - - - - - - - - - -
--
--- Stop Module: rassi at Wed Mar 26 11:19:51 2025 /rc=_RC_ALL_IS_WELL_ ---
*** files: xmldump
    saved to directory /home4/s4752295/Internship/Initial_simulations/Point_charge_model/1_electron/Madelung_charges_9_active_space/Mo
--- Module rassi spent 2 seconds ---

.##################.
.# Happy landing! #.
.##################.

    Timing: Wall=54.09 User=44.32 System=8.80

###############################################################################
Hbrk Cluster
Job 15905518 for user s4752295
Finished at: Wed Mar 26 11:19:55 CET 2025

Job details:
============

Job ID                         : 15905518
Name                           : Mo_no_SO
User                           : s4752295
Partition                      : regularmedium
Nodes                          : node100
Number of Nodes                : 1
Cores                          : 1
Number of Tasks                : 1
State                          : COMPLETED  
Submit                         : 2025-03-26T11:18:25
Start                          : 2025-03-26T11:18:53
End                            : 2025-03-26T11:19:51
Reserved walltime              : 15:00:00
Used walltime                  : 00:00:58
Used CPU time                  : 00:00:54 (Efficiency: 93.46%)
% User (Computation)           : 83.37%
% System (I/O)                 : 16.63%
Total memory reserved          : 25000M
Maximum memory used            : 2.12G

Acknowledgements:
=================

Please see this page for information about acknowledging Hbrk in your publications:

https://wiki.hpc.rug.nl/habrok/introduction/scientific_output

################################################################################
