   This run of MOLCAS is using the pymolcas driver

                             OPE
                             OPE          NMOL  CASOP  ENMOLC A   SO
                 OPE        NMOLC        AS  OP EN  MO LC     AS  OP
                OPENM       OL CA        SO  PE NM  OL CA     SOP EN
                OP EN      MO   LC       AS  OP ENMOL  CASO   PENMOL
                OP  EN     MO   LC       AS  OP EN     MO     LC ASO
               OP   E  NMOL  C  AS       OP  EN MO     LC     AS  OP
               OP  E   NMO   LC AS        OPEN  MO     LCASOP EN   M
               O  PEN   MO  LCA  SO
            OPE   NMO   L   CAS    OP
        OPENMOL  CASOP     ENMOL   CASOPE
     OPENMOLCA   SOPENMOLCASOPEN   MOLCASOPE
    OPENMOLCAS   OP           EN   MOL    CAS
    OPENMOLCAS       OP  ENM        O     LCA
    OPENMOLCAS    OPEN  MOLCASO     P  E  NMO
    OPENMOLCAS     OP               E  N  MOL
    OPENMOLCA   SO           PENM   O  L  CAS    OPEN    MO    LCAS
    OPENMOLCA   SOP           ENM   O  L  CAS   OP  EN  MOLC  AS   O
    OPENMOLCA   SOPE           NM      O  LCA   S      OP  EN MO
    OPENMOLC                AS         O  PEN   M      OL  CA  SOPE
    OPENMO        LCASOPE  NMOL        C  ASO   P      ENMOLC     AS
    OPE     NMO      LCA  SO     P     E   NM   OL  CA SO  PE N   MO
          OPENMOLCA            SOPE   NMO        LCAS  O    P  ENMO
     OPENMOLCASOPENMOLCASOPENMOLCASOPENMOLCA
        OPENMOLCASOPENMOLCASOPENMOLCASOPE
            OPENMOLCASOPENMOLCASOPENM
               OPENMOLCASOPENMOLCA        version: o91e1abe7de707b ?
                   OPENMOLCASO
                       OPE                tag:

 OpenMolcas is free software; you can redistribute it and/or modify it
 under the terms of the GNU Lesser General Public License version 2.1.
 OpenMolcas is distributed in the hope that it will be useful, but it
 is provided "as is" and without any express or implied warranties.
 For more details see the full text of the license in the file
 LICENSE or in <http://www.gnu.org/licenses/>.

                 Copyright (C) The OpenMolcas Authors
           For the author list and the recommended citation,
                   consult the file CONTRIBUTORS.md

           *************************************************
           * pymolcas version py2.10                       *
           *   build 3068ae8b88c9345ec6cfef6fef7f1169      *
           *   (after the EMIL interpreter by V. Veryazov) *
           *************************************************

configuration info
------------------
Host name: login1 (Linux)
C Compiler ID: GNU
C flags: -std=gnu99
Fortran Compiler ID: GNU
Fortran flags: -fno-aggressive-loop-optimizations -cpp -fdefault-integer-8 -fmax-stack-var-size=1048576
Definitions: _MOLCAS_;_I8_;_LINUX_;_MKL_
Parallel: OFF (GA=OFF)


   -----------------------------------------------------------------------------------------------------------------------------------
  |
  |           Project: molybdenum_so_cf
  |    Submitted from: /home4/s4752295/Internship/Initial_simulations/Point_charge_model/1_electron/Madelung_charges_9_active_space/Mo
  |      Scratch area: /tmp/molybdenum_so_cf
  |   Save outputs to: /home4/s4752295/Internship/Initial_simulations/Point_charge_model/1_electron/Madelung_charges_9_active_space/Mo
  |            Molcas: /home4/s4752295/Internship/Molcas/recomp_try/OpenMolcas-master/build
  |
  | Scratch area is empty
  |
  |    MOLCAS_DRIVER = /home4/s4752295/Internship/Molcas/bin/pymolcas
  |    MOLCAS_NPROCS = 1
  |    MOLCAS_SOURCE = /home4/s4752295/Internship/Molcas/recomp_try/OpenMolcas-master
  | MOLCAS_STRUCTURE = 0
  |
   -----------------------------------------------------------------------------------------------------------------------------------

++ ---------   Input file   ---------

&SEWARD
AMFi

CLIG
$R

Basis Set
Mo.ANO-rcc.Roos.21s18p13d6f4g2h.10s9p9d6f4g2h.
Spherical d
Mo           -1.0658140267135469e-14    -3.5527134223784897e-15 0.008753588724385739
End of Basis

Xfield

414
-4.802641296,-1.8479999999999999,1.0669427999999999     -0.625931
-4.802641296,-0.0,-2.1338868    -0.625931
-4.802641296,1.8479999999999999,1.0669427999999999      -0.625931
-4.794415284,0.0,0.0    1.892092
3.191015628,-1.8479999999999999,-1.0669427999999999     2.515516
3.191015628,0.0,2.1338868       2.515516
3.191015628,1.8479999999999999,-1.0669427999999999      2.515516
4.275585936,-3.6959999999999997,0.0     0.004632
4.275585936,-1.8479999999999999,-3.2008296      0.004632
4.275585936,-1.8479999999999999,3.2008296       0.004632
4.275585936,1.8479999999999999,-3.2008296       0.004632
4.275585936,1.8479999999999999,3.2008296        0.004632
4.275585936,3.6959999999999997,0.0      0.004632
4.9549804680000005,-1.8479999999999999,1.0669427999999999       -2.519484
4.9549804680000005,-0.0,-2.1338868      -2.519484
4.9549804680000005,1.8479999999999999,1.0669427999999999        -2.519484
-3.519726564,-0.0,-0.0  -3.142907
-5.970117192,-3.6959999999999997,-2.1338868     -0.625931
-5.970117192,0.0,4.2677724      -0.625931
-5.970117192,3.6959999999999997,-2.1338868      -0.625931
-7.9312499999999995,-3.6959999999999997,0.0     1.892092
-7.9312499999999995,-1.8479999999999999,-3.2008296      1.892092
-7.9312499999999995,-1.8479999999999999,3.2008296       1.892092
-7.9312499999999995,1.8479999999999999,-3.2008296       1.892092
-7.9312499999999995,1.8479999999999999,3.2008296        1.892092
-7.9312499999999995,3.6959999999999997,0.0      1.892092
30.206249999999997,-3.6959999999999997,2.1338868        2.515516
30.206249999999997,-0.0,-4.2677724      2.515516
30.206249999999997,3.6959999999999997,2.1338868 2.515516
4.366406255999999,-3.6959999999999997,-2.1338868        -2.519484
4.366406255999999,0.0,4.2677724 -2.519484
4.366406255999999,3.6959999999999997,-2.1338868 -2.519484
-3.8789062559999996,-3.6959999999999997,-0.0    -3.142907
-3.8789062559999996,-1.8479999999999999,-3.2008296      -3.142907
-3.8789062559999996,-1.8479999999999999,3.2008296       -3.142907
-3.8789062559999996,1.8479999999999999,-3.2008296       -3.142907
-3.8789062559999996,1.8479999999999999,3.2008296        -3.142907
-3.8789062559999996,3.6959999999999997,-0.0     -3.142907
-11.428125,-3.6959999999999997,4.2677724        -0.625931
-11.428125,3.6959999999999997,4.2677724 -0.625931
-11.428125,-5.544,1.0669427999999999    -0.625931
-11.428125,5.544,1.0669427999999999     -0.625931
-11.428125,-1.8479999999999999,-5.3347164000000005      -0.625931
-11.428125,1.8479999999999999,-5.3347164000000005       -0.625931
7.209375,-1.8479999999999999,-1.0669427999999999        4.409069
7.209375,1.8479999999999999,-1.0669427999999999 4.409069
7.209375,0.0,2.1338868  4.409069
-210.29999999999998,-0.0,-0.0   -5.030367
-210.29999999999998,0.0,0.0     5.039632
16.221093743999997,-3.6959999999999997,-4.2677724       2.515516
16.221093743999997,3.6959999999999997,-4.2677724        2.515516
16.221093743999997,-5.544,-1.0669427999999999   2.515516
16.221093743999997,5.544,-1.0669427999999999    2.515516
16.221093743999997,-1.8479999999999999,5.3347164000000005       2.515516
16.221093743999997,1.8479999999999999,5.3347164000000005        2.515516
22.846875,-5.544,-3.2008296     0.004632
22.846875,-5.544,3.2008296      0.004632
22.846875,5.544,-3.2008296      0.004632
22.846875,5.544,3.2008296       0.004632
22.846875,-0.0,-6.4016592       0.004632
22.846875,0.0,6.4016592 0.004632
57.693749999999994,-3.6959999999999997,4.2677724        -2.519484
57.693749999999994,3.6959999999999997,4.2677724 -2.519484
57.693749999999994,-5.544,1.0669427999999999    -2.519484
57.693749999999994,5.544,1.0669427999999999     -2.519484
57.693749999999994,-1.8479999999999999,-5.3347164000000005      -2.519484
57.693749999999994,1.8479999999999999,-5.3347164000000005       -2.519484
-175.04999999999998,-5.544,-3.2008296   1.892092
-175.04999999999998,-5.544,3.2008296    1.892092
-175.04999999999998,5.544,-3.2008296    1.892092
-175.04999999999998,5.544,3.2008296     1.892092
-175.04999999999998,-0.0,-6.4016592     1.892092
-175.04999999999998,0.0,6.4016592       1.892092
-141.29999999999998,-3.6959999999999997,2.1338868       4.409069
-141.29999999999998,-0.0,-4.2677724     4.409069
-141.29999999999998,3.6959999999999997,2.1338868        4.409069
-106.8,-3.6959999999999997,-0.0 -5.030367
-106.8,-1.8479999999999999,-3.2008296   -5.030367
-106.8,-1.8479999999999999,3.2008296    -5.030367
-106.8,1.8479999999999999,-3.2008296    -5.030367
-106.8,-3.6959999999999997,0.0  5.039632
-106.8,3.6959999999999997,-0.0  -5.030367
-106.8,1.8479999999999999,3.2008296     -5.030367
-106.8,-1.8479999999999999,-3.2008296   5.039632
-106.8,-1.8479999999999999,3.2008296    5.039632
-106.8,1.8479999999999999,-3.2008296    5.039632
-106.8,3.6959999999999997,0.0   5.039632
-106.8,1.8479999999999999,3.2008296     5.039632
-55.949999999999996,-1.8479999999999999,-1.0669427999999999     -5.660931
-55.949999999999996,0.0,2.1338868       -5.660931
-55.949999999999996,1.8479999999999999,-1.0669427999999999      -5.660931
1.059375,-7.3919988,0.0 0.004632
1.059375,-3.6959999999999997,-6.4016592 0.004632
1.059375,-3.6959999999999997,6.4016592  0.004632
1.059375,3.6959999999999997,-6.4016592  0.004632
1.059375,7.3919988,0.0  0.004632
1.059375,3.6959999999999997,6.4016592   0.004632
81.52499999999999,-5.544,3.2008296      -3.142907
81.52499999999999,-5.544,-3.2008296     -3.142907
81.52499999999999,5.544,-3.2008296      -3.142907
81.52499999999999,5.544,3.2008296       -3.142907
81.52499999999999,-0.0,-6.4016592       -3.142907
81.52499999999999,0.0,6.4016592 -3.142907
103.64999999999999,-7.3919988,-2.1338868        -0.625931
103.64999999999999,-5.544,-5.3347164000000005   -0.625931
103.64999999999999,-1.8479999999999999,7.468602 -0.625931
103.64999999999999,5.544,-5.3347164000000005    -0.625931
103.64999999999999,7.3919988,-2.1338868 -0.625931
103.64999999999999,1.8479999999999999,7.468602  -0.625931
1.436718744,-7.3919988,0.0      1.892092
1.436718744,-3.6959999999999997,-6.4016592      1.892092
1.436718744,-3.6959999999999997,6.4016592       1.892092
1.436718744,3.6959999999999997,-6.4016592       1.892092
1.436718744,7.3919988,0.0       1.892092
1.436718744,3.6959999999999997,6.4016592        1.892092
40.6125,-3.6959999999999997,-4.2677724  4.409069
40.6125,3.6959999999999997,-4.2677724   4.409069
40.6125,-5.544,-1.0669427999999999      4.409069
40.6125,5.544,-1.0669427999999999       4.409069
40.6125,-1.8479999999999999,5.3347164000000005  4.409069
40.6125,1.8479999999999999,5.3347164000000005   4.409069
194.8875,-3.6959999999999997,2.1338868  -5.660931
194.8875,-0.0,-4.2677724        -5.660931
194.8875,3.6959999999999997,2.1338868   -5.660931
0.4125,-7.3919988,2.1338868     2.515516
0.4125,-1.8479999999999999,-7.468602    2.515516
0.4125,-5.544,5.3347164000000005        2.515516
0.4125,1.8479999999999999,-7.468602     2.515516
0.4125,7.3919988,2.1338868      2.515516
0.4125,5.544,5.3347164000000005 2.515516
-113.02499999999999,-7.3919988,-2.1338868       -2.519484
-113.02499999999999,-5.544,-5.3347164000000005  -2.519484
-113.02499999999999,-1.8479999999999999,7.468602        -2.519484
-113.02499999999999,5.544,-5.3347164000000005   -2.519484
-113.02499999999999,1.8479999999999999,7.468602 -2.519484
-113.02499999999999,7.3919988,-2.1338868        -2.519484
-26.484375,-7.3919988,-0.0      -3.142907
-26.484375,-3.6959999999999997,-6.4016592       -3.142907
-26.484375,-3.6959999999999997,6.4016592        -3.142907
-26.484375,3.6959999999999997,-6.4016592        -3.142907
-26.484375,3.6959999999999997,6.4016592 -3.142907
-26.484375,7.3919988,-0.0       -3.142907
727.8,0.0,0.0   6.927092
387.9,-7.3919988,4.2677724      -0.625931
387.9,7.3919988,4.2677724       -0.625931
387.9,-0.0,-8.535546    -0.625931
-6.50625,-5.544,3.2008296       -5.030367
-6.50625,-5.544,-3.2008296      -5.030367
-6.50625,-5.544,3.2008296       5.039632
-6.50625,-5.544,-3.2008296      5.039632
-6.50625,5.544,-3.2008296       -5.030367
-6.50625,5.544,3.2008296        -5.030367
-6.50625,5.544,-3.2008296       5.039632
-6.50625,5.544,3.2008296        5.039632
-6.50625,-0.0,-6.4016592        -5.030367
-6.50625,0.0,6.4016592  -5.030367
-6.50625,-0.0,-6.4016592        5.039632
-6.50625,0.0,6.4016592  5.039632
110.175,-3.6959999999999997,-4.2677724  -5.660931
110.175,3.6959999999999997,-4.2677724   -5.660931
110.175,-5.544,-1.0669427999999999      -5.660931
110.175,5.544,-1.0669427999999999       -5.660931
110.175,-1.8479999999999999,5.3347164000000005  -5.660931
110.175,1.8479999999999999,5.3347164000000005   -5.660931
360.59999999999997,-7.3919988,-4.2677724        2.515516
360.59999999999997,7.3919988,-4.2677724 2.515516
360.59999999999997,0.0,8.535546 2.515516
-620.6999999999999,-7.3919988,4.2677724 -2.519484
-620.6999999999999,7.3919988,4.2677724  -2.519484
-620.6999999999999,-0.0,-8.535546       -2.519484
64.27499999999999,-3.6959999999999997,0.0       6.927092
64.27499999999999,-1.8479999999999999,-3.2008296        6.927092
64.27499999999999,-1.8479999999999999,3.2008296 6.927092
64.27499999999999,1.8479999999999999,-3.2008296 6.927092
64.27499999999999,1.8479999999999999,3.2008296  6.927092
64.27499999999999,3.6959999999999997,0.0        6.927092
-66.3,-1.8479999999999999,1.0669427999999999    7.550516
-66.3,0.0,-2.1338868    7.550516
-66.3,1.8479999999999999,1.0669427999999999     7.550516
18.6375,-1.8479999999999999,-1.0669427999999999 -7.554483
18.6375,1.8479999999999999,-1.0669427999999999  -7.554483
18.6375,-0.0,2.1338868  -7.554483
-149.85,-9.2399988,1.0669427999999999   -0.625931
-149.85,-5.544,7.468602 -0.625931
-149.85,-3.6959999999999997,-8.535546   -0.625931
-149.85,3.6959999999999997,-8.535546    -0.625931
-149.85,9.2399988,1.0669427999999999    -0.625931
-149.85,5.544,7.468602  -0.625931
-80.925,-7.3919988,2.1338868    4.409069
-80.925,-5.544,5.3347164000000005       4.409069
-80.925,-1.8479999999999999,-7.468602   4.409069
-80.925,1.8479999999999999,-7.468602    4.409069
-80.925,5.544,5.3347164000000005        4.409069
-80.925,7.3919988,2.1338868     4.409069
58.9875,-7.3919988,-0.0 -5.030367
58.9875,-3.6959999999999997,-6.4016592  -5.030367
58.9875,-3.6959999999999997,6.4016592   -5.030367
58.9875,-7.3919988,0.0  5.039632
58.9875,-3.6959999999999997,-6.4016592  5.039632
58.9875,3.6959999999999997,-6.4016592   -5.030367
58.9875,3.6959999999999997,6.4016592    -5.030367
58.9875,7.3919988,-0.0  -5.030367
58.9875,-3.6959999999999997,6.4016592   5.039632
58.9875,3.6959999999999997,-6.4016592   5.039632
58.9875,7.3919988,0.0   5.039632
58.9875,3.6959999999999997,6.4016592    5.039632
216.9,-9.2399988,-1.0669427999999999    2.515516
216.9,-5.544,-7.468602  2.515516
216.9,-3.6959999999999997,8.535546      2.515516
216.9,5.544,-7.468602   2.515516
216.9,9.2399988,-1.0669427999999999     2.515516
216.9,3.6959999999999997,8.535546       2.515516
-28.0125,-9.2399988,-3.2008296  0.004632
-28.0125,-9.2399988,3.2008296   0.004632
-28.0125,-7.3919988,-6.4016592  0.004632
-28.0125,-7.3919988,6.4016592   0.004632
-28.0125,-1.8479999999999999,-9.6024888 0.004632
-28.0125,1.8479999999999999,-9.6024888  0.004632
-28.0125,-1.8479999999999999,9.6024888  0.004632
-28.0125,7.3919988,-6.4016592   0.004632
-28.0125,1.8479999999999999,9.6024888   0.004632
-28.0125,9.2399988,-3.2008296   0.004632
-28.0125,9.2399988,3.2008296    0.004632
-28.0125,7.3919988,6.4016592    0.004632
-171.75,-9.2399988,1.0669427999999999   -2.519484
-171.75,-5.544,7.468602 -2.519484
-171.75,-3.6959999999999997,-8.535546   -2.519484
-171.75,3.6959999999999997,-8.535546    -2.519484
-171.75,9.2399988,1.0669427999999999    -2.519484
-171.75,5.544,7.468602  -2.519484
3638.4,-0.0,-0.0        -8.177907
-139.2,-3.6959999999999997,-2.1338868   7.550516
-139.2,0.0,4.2677724    7.550516
-139.2,3.6959999999999997,-2.1338868    7.550516
-724.1999999999999,-3.6959999999999997,2.1338868        -7.554483
-724.1999999999999,-0.0,-4.2677724      -7.554483
-724.1999999999999,3.6959999999999997,2.1338868 -7.554483
58.6875,-9.2399988,3.2008296    1.892092
58.6875,-9.2399988,-3.2008296   1.892092
58.6875,-7.3919988,-6.4016592   1.892092
58.6875,-7.3919988,6.4016592    1.892092
58.6875,-1.8479999999999999,-9.6024888  1.892092
58.6875,1.8479999999999999,-9.6024888   1.892092
58.6875,-1.8479999999999999,9.6024888   1.892092
58.6875,7.3919988,-6.4016592    1.892092
58.6875,1.8479999999999999,9.6024888    1.892092
58.6875,9.2399988,-3.2008296    1.892092
58.6875,9.2399988,3.2008296     1.892092
58.6875,7.3919988,6.4016592     1.892092
-606.0,-7.3919988,-4.2677724    4.409069
-606.0,7.3919988,-4.2677724     4.409069
-606.0,0.0,8.535546     4.409069
30.984375,-7.3919988,2.1338868  -5.660931
30.984375,-1.8479999999999999,-7.468602 -5.660931
30.984375,-5.544,5.3347164000000005     -5.660931
30.984375,1.8479999999999999,-7.468602  -5.660931
30.984375,5.544,5.3347164000000005      -5.660931
30.984375,7.3919988,2.1338868   -5.660931
-69.825,-7.3919988,-6.4016592   -3.142907
-69.825,-9.2399988,3.2008296    -3.142907
-69.825,-9.2399988,-3.2008296   -3.142907
-69.825,-7.3919988,6.4016592    -3.142907
-69.825,-1.8479999999999999,-9.6024888  -3.142907
-69.825,1.8479999999999999,-9.6024888   -3.142907
-69.825,-1.8479999999999999,9.6024888   -3.142907
-69.825,9.2399988,-3.2008296    -3.142907
-69.825,7.3919988,-6.4016592    -3.142907
-69.825,1.8479999999999999,9.6024888    -3.142907
-69.825,9.2399988,3.2008296     -3.142907
-69.825,7.3919988,6.4016592     -3.142907
78.4875,-5.544,-3.2008296       6.927092
78.4875,-5.544,3.2008296        6.927092
78.4875,5.544,-3.2008296        6.927092
78.4875,5.544,3.2008296 6.927092
78.4875,-0.0,-6.4016592 6.927092
78.4875,0.0,6.4016592   6.927092
-99.89999999999999,-3.6959999999999997,-0.0     -8.177907
-99.89999999999999,-1.8479999999999999,3.2008296        -8.177907
-99.89999999999999,-1.8479999999999999,-3.2008296       -8.177907
-99.89999999999999,1.8479999999999999,-3.2008296        -8.177907
-99.89999999999999,3.6959999999999997,-0.0      -8.177907
-99.89999999999999,1.8479999999999999,3.2008296 -8.177907
-109.08749999999999,-3.6959999999999997,4.2677724       7.550516
-109.08749999999999,3.6959999999999997,4.2677724        7.550516
-109.08749999999999,-5.544,1.0669427999999999   7.550516
-109.08749999999999,5.544,1.0669427999999999    7.550516
-109.08749999999999,-1.8479999999999999,-5.3347164000000005     7.550516
-109.08749999999999,1.8479999999999999,-5.3347164000000005      7.550516
-54.824999999999996,-3.6959999999999997,-4.2677724      -7.554483
-54.824999999999996,3.6959999999999997,-4.2677724       -7.554483
-54.824999999999996,-5.544,-1.0669427999999999  -7.554483
-54.824999999999996,5.544,-1.0669427999999999   -7.554483
-54.824999999999996,-1.8479999999999999,5.3347164000000005      -7.554483
-54.824999999999996,1.8479999999999999,5.3347164000000005       -7.554483
-600.3,0.0,10.6694316   -0.625931
-600.3,-9.2399988,-5.3347164000000005   -0.625931
-600.3,9.2399988,-5.3347164000000005    -0.625931
-323.7,-9.2399988,-1.0669427999999999   4.409069
-323.7,-5.544,-7.468602 4.409069
-323.7,-3.6959999999999997,8.535546     4.409069
-323.7,5.544,-7.468602  4.409069
-323.7,9.2399988,-1.0669427999999999    4.409069
-323.7,3.6959999999999997,8.535546      4.409069
372.45,-7.3919988,-4.2677724    -5.660931
372.45,7.3919988,-4.2677724     -5.660931
372.45,0.0,8.535546     -5.660931
704.4,-0.0,-10.6694316  2.515516
704.4,-9.2399988,5.3347164000000005     2.515516
704.4,9.2399988,5.3347164000000005      2.515516
-112.64999999999999,-11.0879988,-0.0    0.004632
-112.64999999999999,5.544,-9.6024888    0.004632
-112.64999999999999,-5.544,9.6024888    0.004632
-112.64999999999999,11.0879988,-0.0     0.004632
-112.64999999999999,-5.544,-9.6024888   0.004632
-112.64999999999999,5.544,9.6024888     0.004632
-462.9,0.0,10.6694316   -2.519484
-462.9,-9.2399988,-5.3347164000000005   -2.519484
-462.9,9.2399988,-5.3347164000000005    -2.519484
273.59999999999997,-7.3919988,0.0       6.927092
273.59999999999997,-3.6959999999999997,-6.4016592       6.927092
273.59999999999997,-3.6959999999999997,6.4016592        6.927092
273.59999999999997,3.6959999999999997,-6.4016592        6.927092
273.59999999999997,7.3919988,0.0        6.927092
273.59999999999997,3.6959999999999997,6.4016592 6.927092
254.25,-11.0879988,-2.1338868   -0.625931
254.25,-3.6959999999999997,10.6694316   -0.625931
254.25,-7.3919988,-8.535546     -0.625931
254.25,7.3919988,-8.535546      -0.625931
254.25,3.6959999999999997,10.6694316    -0.625931
254.25,11.0879988,-2.1338868    -0.625931
134.325,-11.0879988,0.0 1.892092
134.325,-5.544,-9.6024888       1.892092
134.325,-5.544,9.6024888        1.892092
134.325,5.544,-9.6024888        1.892092
134.325,11.0879988,0.0  1.892092
134.325,5.544,9.6024888 1.892092
-5.184375,-9.2399988,3.2008296  -5.030367
-5.184375,-9.2399988,-3.2008296 -5.030367
-5.184375,-7.3919988,-6.4016592 -5.030367
-5.184375,-7.3919988,6.4016592  -5.030367
-5.184375,-9.2399988,3.2008296  5.039632
-5.184375,1.8479999999999999,-9.6024888 -5.030367
-5.184375,-1.8479999999999999,-9.6024888        -5.030367
-5.184375,-9.2399988,-3.2008296 5.039632
-5.184375,-7.3919988,-6.4016592 5.039632
-5.184375,-1.8479999999999999,9.6024888 -5.030367
-5.184375,1.8479999999999999,-9.6024888 5.039632
-5.184375,-7.3919988,6.4016592  5.039632
-5.184375,-1.8479999999999999,-9.6024888        5.039632
-5.184375,7.3919988,-6.4016592  -5.030367
-5.184375,1.8479999999999999,9.6024888  -5.030367
-5.184375,9.2399988,-3.2008296  -5.030367
-5.184375,9.2399988,3.2008296   -5.030367
-5.184375,7.3919988,6.4016592   -5.030367
-5.184375,-1.8479999999999999,9.6024888 5.039632
-5.184375,7.3919988,-6.4016592  5.039632
-5.184375,9.2399988,-3.2008296  5.039632
-5.184375,1.8479999999999999,9.6024888  5.039632
-5.184375,9.2399988,3.2008296   5.039632
-5.184375,7.3919988,6.4016592   5.039632
-0.825,-9.2399988,-1.0669427999999999   -5.660931
-0.825,-5.544,-7.468602 -5.660931
-0.825,-3.6959999999999997,8.535546     -5.660931
-0.825,5.544,-7.468602  -5.660931
-0.825,3.6959999999999997,8.535546      -5.660931
-0.825,9.2399988,-1.0669427999999999    -5.660931
139.2,-1.8479999999999999,1.0669427999999999    9.444068
139.2,0.0,-2.1338868    9.444068
139.2,1.8479999999999999,1.0669427999999999     9.444068
61.574999999999996,-11.0879988,2.1338868        2.515516
61.574999999999996,-3.6959999999999997,-10.6694316      2.515516
61.574999999999996,3.6959999999999997,-10.6694316       2.515516
61.574999999999996,-7.3919988,8.535546  2.515516
61.574999999999996,11.0879988,2.1338868 2.515516
61.574999999999996,7.3919988,8.535546   2.515516
188.25,-11.0879988,-2.1338868   -2.519484
188.25,-3.6959999999999997,10.6694316   -2.519484
188.25,-7.3919988,-8.535546     -2.519484
188.25,7.3919988,-8.535546      -2.519484
188.25,11.0879988,-2.1338868    -2.519484
188.25,3.6959999999999997,10.6694316    -2.519484
263.55,-11.0879988,-0.0 -3.142907
263.55,-5.544,-9.6024888        -3.142907
263.55,-5.544,9.6024888 -3.142907
263.55,5.544,-9.6024888 -3.142907
263.55,11.0879988,-0.0  -3.142907
263.55,5.544,9.6024888  -3.142907
10.374609372,-5.544,-3.2008296  -8.177907
10.374609372,-5.544,3.2008296   -8.177907
10.374609372,5.544,3.2008296    -8.177907
10.374609372,5.544,-3.2008296   -8.177907
10.374609372,-0.0,-6.4016592    -8.177907
10.374609372,0.0,6.4016592      -8.177907
302.25,-5.544,-5.3347164000000005       7.550516
302.25,-7.3919988,-2.1338868    7.550516
302.25,-1.8479999999999999,7.468602     7.550516
302.25,5.544,-5.3347164000000005        7.550516
302.25,1.8479999999999999,7.468602      7.550516
302.25,7.3919988,-2.1338868     7.550516
-417.59999999999997,-5.544,5.3347164000000005   -7.554483
-417.59999999999997,-7.3919988,2.1338868        -7.554483
-417.59999999999997,-1.8479999999999999,-7.468602       -7.554483
-417.59999999999997,1.8479999999999999,-7.468602        -7.554483
-417.59999999999997,7.3919988,2.1338868 -7.554483
-417.59999999999997,5.544,5.3347164000000005    -7.554483
85.51875,-9.2399988,7.468602    -0.625931
85.51875,-11.0879988,4.2677724  -0.625931
85.51875,-1.8479999999999999,-11.736375599999999        -0.625931
85.51875,1.8479999999999999,-11.736375599999999 -0.625931
85.51875,11.0879988,4.2677724   -0.625931
85.51875,9.2399988,7.468602     -0.625931
-580.5,-0.0,-10.6694316 4.409069
-580.5,-9.2399988,5.3347164000000005    4.409069
-580.5,9.2399988,5.3347164000000005     4.409069

End of input

&SCF
Occupied
9
Iterations
   50  100
End of Input

&RASSCF
LumOrb
Symmetry
1
Spin
2
Nactel
1 0 0
CIRoot
9 9 1
inactive
9
ras2
9
End of Input

>>> COPY molybdenum_so_cf.JobIph $SLURM_SUBMIT_DIR/molybdenum_so_cf.doublet.JobIph

>>> COPY $SLURM_SUBMIT_DIR/molybdenum_so_cf.doublet.JobIph ./JOB002

&RASSI
NROFJobIph
1 All
SpinOrbit
End of Input

EOF

-- ----------------------------------

--- Start Module: seward at Wed Mar 26 12:39:14 2025 ---

()()()()()()()()()()()()()()()()()()()()()()()()()()()()()()()()()()()()()()()()()()()()()()()()()()

                                              &SEWARD

                                   only a single process is used
                       available to each process: 4.1 GB of memory, 1 thread?
                                            pid: 3935962
()()()()()()()()()()()()()()()()()()()()()()()()()()()()()()()()()()()()()()()()()()()()()()()()()()

 The speed of LIGHT in this CALCULATION =   137.03599917700001     
               SEWARD will generate:
                  Multipole Moment integrals up to order  2
                  Kinetic Energy integrals
                  Nuclear Attraction integrals (point charge)
                  One-Electron Hamiltonian integrals
                  Velocity integrals
                  Relativistic Douglas-Kroll-Hess integrals:
                    - Parametrization         : EXP
                    - DKH order of Hamiltonian: 2
                    - DKH order of Properties : 0
                         - multipole moment operators
                         - electric potential operators
                         - contact operators
                  External field from   414 point(s) added to the one-electron Hamiltonian
                  Orbital angular momentum around (-0.0000 -0.0000  0.0088 )
                  Velocity quadrupole around (-0.0000 -0.0000  0.0088 )
                  Atomic mean-field integrals
                  Two-Electron Repulsion integrals

                   Integrals are discarded if absolute value <: 0.10E-13
                   Integral cutoff threshold is set to       <: 0.10E-15

++    Symmetry information:
      ---------------------

                    Character Table for C1 

                             E  
                    a        1  x, y, xy, Rz, z, xz, Ry, yz, Rx, I
--


++    Basis set information:
      ----------------------


      Basis set label: MO.ANO-RCC.ROOS.21S18P13D6F4G2H.10S9P9D6F4G2H......

      Electronic valence basis set:
      ------------------
      Associated Effective Charge  42.000000 au
      Associated Actual Charge     42.000000 au
      Nuclear Model: Point charge

      Shell  nPrim  nBasis  Cartesian Spherical Contaminant
         s      21      10        X                  
         p      18       9        X                  
         d      13       9                 X         
         f       6       6                 X         
         g       4       4                 X         
         h       2       2                 X         
--


++    Molecular structure info:
      -------------------------

                    ************************************************ 
                    **** Cartesian Coordinates / Bohr, Angstrom **** 
                    ************************************************ 

     Center  Label                x              y              z                     x              y              z
        1      MO              -0.000000      -0.000000       0.008754             -0.000000      -0.000000       0.004632
--


++    Operator info:
      --------------


  Net charge from external field:   -39.268449999999902     
--


            Nuclear Potential Energy              0.00000000 au

                    Nuclear-External Field Potential Energy    -320.21388755 au
                    External Field Potential Energy            1338.03075115 au 


            Total Nuclear Potential Energy           -320.21388755 au


      Basis set specifications :
      Symmetry species         a  
      Basis functions          182

 Sorry, Molden does not know how to handle
 functions with angular momentum larger than g
Note: The following floating-point exceptions are signalling: IEEE_UNDERFLOW_FLAG IEEE_DENORMAL
--- Stop Module: seward at Wed Mar 26 12:39:24 2025 /rc=_RC_ALL_IS_WELL_ ---
*** files: molybdenum_so_cf.GssOrb xmldump
    saved to directory /home4/s4752295/Internship/Initial_simulations/Point_charge_model/1_electron/Madelung_charges_9_active_space/Mo
--- Module seward spent 10 seconds ---

*** symbolic link created: INPORB -> molybdenum_so_cf.GssOrb
--- Start Module: scf at Wed Mar 26 12:39:24 2025 ---

()()()()()()()()()()()()()()()()()()()()()()()()()()()()()()()()()()()()()()()()()()()()()()()()()()

                                                &SCF

                                   only a single process is used
                       available to each process: 4.1 GB of memory, 1 thread?
                                            pid: 3936032
()()()()()()()()()()()()()()()()()()()()()()()()()()()()()()()()()()()()()()()()()()()()()()()()()()

++    Input section:
      --------------

      Header of the integral files:
      
       Integrals generated by seward 4.2.0  , Wed Mar 26 12:39:14 2025


      Cartesian coordinates in Angstrom:
      -----------------------------------------------------
      No.  Label        X            Y            Z        
      -----------------------------------------------------
       1   MO        -0.00000000  -0.00000000   0.00463220
      -----------------------------------------------------
      Nuclear repulsion energy = -320.21388755
--

++    Orbital specifications:
      -----------------------

      Symmetry species               1
                                     a
      Frozen orbitals                0
      Occupied orbitals              9
      Secondary orbitals           173
      Deleted orbitals               0
      Total number of orbitals     182
      Number of basis functions    182
--

      Molecular charge                          24.000

++    Optimization specifications:
      ----------------------------

      SCF Algorithm: Conventional
      Minimized density differences are used
      Number of density matrices in core                5
      Maximum number of NDDO SCF iterations            50
      Maximum number of HF SCF iterations             100
      Threshold for SCF energy change            0.10E-08
      Threshold for density matrix               0.10E-03
      Threshold for Fock matrix                  0.15E-03
      Threshold for linear dependence            0.10E-08
      Threshold at which DIIS is turned on       0.15E+00
      Threshold at which QNR/C2DIIS is turned on 0.75E-01
      Threshold for Norm(delta) (QNR/C2DIIS)     0.20E-04
      DIIS extrapolation of the SCF procedure
      All orbitals punched on: SCFORB
--

      Detected guessorb starting orbitals                                             


++ Convergence information
                                   SCF        iterations: Energy and convergence statistics

Iter     Tot. SCF        One-elec.       Two-elec.     Energy      Max Dij or  Max Fij      DNorm      TNorm      AccCon     Time
         Energy          Energy          Energy        Change      Delta Norm                                                in Sec.

 The total and one-electron energies are shifted by a value of      3000. a.u.

   1  -860.633978565 -1161.530379129   621.110288109   0.00E+00    0.33E+00*   0.30E+01*    0.60E+01   0.35E+03   None         1.
   2  -866.623579166 -1204.025935056   657.616243436  -0.60E+01*   0.92E-02*   0.27E+00*    0.14E+01   0.36E+03   EDIIS        1.
   3  -866.642080105 -1202.195850438   655.767657879  -0.19E-01*   0.81E-03*   0.13E-01*    0.46E-01   0.36E+03   EDIIS        1.
   4  -866.642149642 -1202.317977323   655.889715227  -0.70E-04*   0.69E-04    0.80E-03*    0.21E-02   0.36E+03   c2DIIS       1.
   5  -866.642150067 -1202.311469708   655.883207187  -0.43E-06*   0.98E-05    0.68E-04     0.12E-03   0.36E+03   QNRc2DIIS    1.
   6  -866.642150069 -1202.311468083   655.883205560  -0.18E-08*   0.14E-05    0.11E-04     0.70E-05   0.36E+03   QNRc2DIIS    1.
   7  -866.642150069 -1202.311469412   655.883206888  -0.52E-10    0.23E-06    0.83E-06     0.96E-03   0.36E+03   QNRc2DIIS    1.

       Convergence after  7 Macro Iterations
--

 *****************************************************************************************************************************
 *                                                                                                                           *
 *                                             SCF/KS-DFT Program, Final results                                             *
 *                                                                                                                           *
 *                                                                                                                           *
 *                                                                                                                           *
 *                                                       Final Results                                                       *
 *                                                                                                                           *
 *****************************************************************************************************************************

::    Total SCF energy                              -3866.6421500688
      One-electron energy                           -4202.3114694116
      Two-electron energy                             655.8832068883
      Nuclear repulsion energy                       -320.2138875454
      Kinetic energy (interpolated)                  4119.5184354704
      Virial theorem                                    0.9386150859
      Total spin, S(S+1)                                0.0000000000
      Total spin, S                                     0.0000000000
      Max non-diagonal density matrix element           0.0000003391
      Max non-diagonal Fock matrix element              0.0000003845


      All orbitals with orbital energies smaller than  E(LUMO)+0.5 are printed

++    Molecular orbitals:
      -------------------

      Title: SCF orbitals

      Molecular orbitals for symmetry species 1: a  

          Orbital            1         2         3         4         5         6         7         8         9        10    
          Energy         -769.5251 -137.3351 -125.9504 -125.9504 -125.9498  -43.1463  -39.1414  -39.1414  -39.1325  -31.9758
          Occ. No.          2.0000    2.0000    2.0000    2.0000    2.0000    2.0000    2.0000    2.0000    2.0000    0.0000

        1 MO     1s         1.0000   -0.0001    0.0000   -0.0000   -0.0000    0.0001   -0.0000    0.0000    0.0000    0.0000
        2 MO     2s         0.0001    0.9999    0.0000   -0.0000   -0.0016    0.0129    0.0000   -0.0000   -0.0006    0.0000
        3 MO     3s        -0.0001   -0.0122   -0.0000    0.0000    0.0002    0.9886    0.0000   -0.0000   -0.0279    0.0000
        4 MO     4s         0.0000    0.0030    0.0000   -0.0000   -0.0000   -0.0993   -0.0000    0.0000    0.0045   -0.0000
        5 MO     5s        -0.0000   -0.0007   -0.0000    0.0000    0.0000    0.0214    0.0000   -0.0000   -0.0010    0.0000
        6 MO     6s         0.0000    0.0008    0.0000   -0.0000   -0.0000   -0.0251   -0.0000    0.0000    0.0012   -0.0000
        7 MO     7s        -0.0000   -0.0025   -0.0000    0.0000    0.0000    0.0692    0.0000   -0.0000   -0.0032    0.0000
        8 MO     8s         0.0000    0.0023    0.0000   -0.0000   -0.0000   -0.0530   -0.0000    0.0000    0.0025   -0.0000
        9 MO     9s        -0.0000   -0.0025   -0.0000    0.0000    0.0000    0.0464    0.0000   -0.0000   -0.0022    0.0000
       10 MO    10s         0.0001    0.0029    0.0000   -0.0000   -0.0000   -0.0316   -0.0000    0.0000    0.0015   -0.0000
       11 MO     2px        0.0000    0.0016   -0.0023    0.0000    0.9999    0.0002   -0.0000    0.0000    0.0145    0.0000
       12 MO     3px       -0.0000    0.0001    0.0000   -0.0000   -0.0137    0.0286   -0.0018    0.0000    0.9844    0.0000
       13 MO     4px        0.0000   -0.0000   -0.0000    0.0000    0.0030   -0.0020    0.0002   -0.0000   -0.1073   -0.0000
       14 MO     5px       -0.0000    0.0000    0.0000   -0.0000   -0.0010    0.0006   -0.0001    0.0000    0.0343    0.0000
       15 MO     6px        0.0000   -0.0000   -0.0000    0.0000    0.0026   -0.0013    0.0001   -0.0000   -0.0792   -0.0000
       16 MO     7px       -0.0000    0.0000    0.0000   -0.0000   -0.0023    0.0010   -0.0001    0.0000    0.0632    0.0000
       17 MO     8px        0.0000   -0.0000   -0.0000    0.0000    0.0029   -0.0009    0.0001   -0.0000   -0.0632   -0.0000
       18 MO     9px       -0.0000    0.0000    0.0000   -0.0000   -0.0027    0.0006   -0.0001    0.0000    0.0464    0.0000
       19 MO    10px        0.0000   -0.0000   -0.0000    0.0000    0.0022   -0.0002    0.0000   -0.0000   -0.0212    0.0000
       20 MO     2py        0.0000    0.0000    0.0000    0.9999   -0.0000    0.0000    0.0000    0.0145    0.0000    0.0000
       21 MO     3py        0.0000   -0.0000   -0.0000   -0.0137    0.0000    0.0000    0.0000    0.9849    0.0000    0.0001
       22 MO     4py       -0.0000    0.0000    0.0000    0.0030   -0.0000   -0.0000   -0.0000   -0.1072   -0.0000   -0.0000
       23 MO     5py        0.0000   -0.0000   -0.0000   -0.0010    0.0000    0.0000    0.0000    0.0342    0.0000    0.0000
       24 MO     6py       -0.0000    0.0000    0.0000    0.0026   -0.0000   -0.0000   -0.0000   -0.0791   -0.0000   -0.0000
       25 MO     7py        0.0000   -0.0000   -0.0000   -0.0023    0.0000    0.0000    0.0000    0.0631    0.0000    0.0000
       26 MO     8py       -0.0000    0.0000    0.0000    0.0029   -0.0000   -0.0000   -0.0000   -0.0631   -0.0000   -0.0000
       27 MO     9py        0.0000   -0.0000   -0.0000   -0.0027    0.0000    0.0000    0.0000    0.0464    0.0000    0.0000
       28 MO    10py       -0.0000    0.0000    0.0000    0.0022   -0.0000   -0.0000   -0.0000   -0.0211   -0.0000   -0.0000
       29 MO     2pz        0.0000    0.0000    0.9999   -0.0000    0.0023    0.0000    0.0145   -0.0000    0.0000    0.0000
       30 MO     3pz       -0.0000    0.0000   -0.0137    0.0000   -0.0000    0.0000    0.9849   -0.0000    0.0018    0.0000
       31 MO     4pz        0.0000   -0.0000    0.0030   -0.0000    0.0000   -0.0000   -0.1072    0.0000   -0.0002   -0.0000
       32 MO     5pz       -0.0000    0.0000   -0.0010    0.0000   -0.0000    0.0000    0.0342   -0.0000    0.0001    0.0000
       33 MO     6pz        0.0000   -0.0000    0.0026   -0.0000    0.0000   -0.0000   -0.0791    0.0000   -0.0001   -0.0000
       34 MO     7pz       -0.0000    0.0000   -0.0023    0.0000   -0.0000    0.0000    0.0631   -0.0000    0.0001    0.0000
       35 MO     8pz        0.0000   -0.0000    0.0029   -0.0000    0.0000   -0.0000   -0.0631    0.0000   -0.0001   -0.0000
       36 MO     9pz       -0.0000    0.0000   -0.0027    0.0000   -0.0000    0.0000    0.0464   -0.0000    0.0001    0.0000
       37 MO    10pz        0.0000   -0.0000    0.0022   -0.0000    0.0000   -0.0000   -0.0211    0.0000   -0.0000   -0.0000
       38 MO     3d2-       0.0000    0.0000    0.0000    0.0001   -0.0000    0.0000    0.0000    0.0144    0.0000   -0.0057
       39 MO     4d2-       0.0000   -0.0000   -0.0000   -0.0000    0.0000   -0.0000   -0.0000   -0.0008   -0.0000    0.0006
       40 MO     5d2-      -0.0000    0.0000    0.0000    0.0000   -0.0000    0.0000    0.0000    0.0008    0.0000   -0.0006
       41 MO     6d2-       0.0000   -0.0000   -0.0000   -0.0000    0.0000   -0.0000   -0.0000   -0.0006   -0.0000    0.0005
       42 MO     7d2-      -0.0000    0.0000    0.0000    0.0000   -0.0000    0.0000    0.0000    0.0004    0.0000   -0.0005
       43 MO     8d2-       0.0000   -0.0000   -0.0000   -0.0000    0.0000   -0.0000   -0.0000   -0.0003   -0.0000    0.0005
       44 MO     9d2-      -0.0000    0.0000    0.0000    0.0000   -0.0000    0.0000    0.0000    0.0001    0.0000   -0.0004
       45 MO    10d2-       0.0000   -0.0000   -0.0000   -0.0000    0.0000   -0.0000    0.0000    0.0000    0.0000    0.0003
       46 MO    11d2-      -0.0000    0.0000    0.0000    0.0000   -0.0000    0.0000   -0.0000   -0.0000   -0.0000   -0.0001
       47 MO     3d1-       0.0000   -0.0000    0.0000    0.0000   -0.0000   -0.0000    0.0000    0.0000   -0.0000    0.9757
       48 MO     4d1-      -0.0000    0.0000   -0.0000   -0.0000    0.0000    0.0000   -0.0000   -0.0000    0.0000   -0.0981
       49 MO     5d1-       0.0000   -0.0000    0.0000    0.0000   -0.0000   -0.0000    0.0000    0.0000   -0.0000    0.1046
       50 MO     6d1-      -0.0000    0.0000   -0.0000   -0.0000    0.0000    0.0000   -0.0000   -0.0000    0.0000   -0.0889
       51 MO     7d1-       0.0000   -0.0000    0.0000    0.0000   -0.0000   -0.0000    0.0000    0.0000   -0.0000    0.0774
       52 MO     8d1-      -0.0000    0.0000   -0.0000   -0.0000    0.0000    0.0000    0.0000    0.0000    0.0000   -0.0793
       53 MO     9d1-       0.0000   -0.0000    0.0000    0.0000   -0.0000    0.0000    0.0000    0.0000   -0.0000    0.0604
       54 MO    10d1-      -0.0000    0.0000   -0.0000   -0.0000    0.0000   -0.0000   -0.0000   -0.0000    0.0000   -0.0591
       55 MO    11d1-       0.0000   -0.0000    0.0000    0.0000    0.0000    0.0000   -0.0000   -0.0000    0.0000    0.0088
       56 MO     3d0        0.0000    0.0000    0.0000   -0.0000   -0.0001    0.0001    0.0000   -0.0000   -0.0084   -0.0000
       57 MO     4d0       -0.0000   -0.0000   -0.0000    0.0000    0.0000   -0.0000   -0.0000    0.0000    0.0005    0.0000
       58 MO     5d0        0.0000    0.0000    0.0000   -0.0000   -0.0000   -0.0000    0.0000   -0.0000   -0.0005   -0.0000
       59 MO     6d0       -0.0000   -0.0000   -0.0000    0.0000    0.0000    0.0000   -0.0000    0.0000    0.0003    0.0000
       60 MO     7d0        0.0000    0.0000    0.0000   -0.0000   -0.0000   -0.0000    0.0000   -0.0000   -0.0002   -0.0000
       61 MO     8d0       -0.0000   -0.0000   -0.0000    0.0000    0.0000    0.0000   -0.0000    0.0000    0.0001    0.0000
       62 MO     9d0        0.0000    0.0000    0.0000   -0.0000   -0.0000   -0.0000    0.0000    0.0000   -0.0001   -0.0000
       63 MO    10d0       -0.0000   -0.0000   -0.0000    0.0000    0.0000    0.0000    0.0000   -0.0000   -0.0000    0.0000
       64 MO    11d0        0.0000    0.0000    0.0000   -0.0000   -0.0000   -0.0000   -0.0000    0.0000    0.0000   -0.0000
       65 MO     3d1+      -0.0000   -0.0000    0.0001   -0.0000    0.0000   -0.0000    0.0144   -0.0000    0.0000   -0.0000
       66 MO     4d1+       0.0000    0.0000   -0.0000    0.0000   -0.0000    0.0000   -0.0008    0.0000   -0.0000    0.0000
       67 MO     5d1+      -0.0000   -0.0000    0.0000   -0.0000    0.0000    0.0000    0.0008   -0.0000    0.0000   -0.0000
       68 MO     6d1+       0.0000    0.0000   -0.0000    0.0000   -0.0000   -0.0000   -0.0006    0.0000   -0.0000    0.0000
       69 MO     7d1+      -0.0000   -0.0000    0.0000   -0.0000    0.0000    0.0000    0.0004   -0.0000    0.0000   -0.0000
       70 MO     8d1+       0.0000    0.0000   -0.0000    0.0000   -0.0000   -0.0000   -0.0003    0.0000   -0.0000    0.0000
       71 MO     9d1+      -0.0000   -0.0000    0.0000   -0.0000    0.0000    0.0000    0.0001   -0.0000    0.0000   -0.0000
       72 MO    10d1+       0.0000    0.0000   -0.0000    0.0000   -0.0000   -0.0000    0.0000   -0.0000    0.0000    0.0000
       73 MO    11d1+      -0.0000   -0.0000    0.0000   -0.0000    0.0000    0.0000   -0.0000    0.0000   -0.0000   -0.0000
       74 MO     3d2+      -0.0000   -0.0000   -0.0000    0.0000    0.0001   -0.0001   -0.0000    0.0000    0.0146   -0.0000
       75 MO     4d2+       0.0000    0.0000    0.0000   -0.0000   -0.0000    0.0000    0.0000   -0.0000   -0.0008    0.0000
       76 MO     5d2+      -0.0000   -0.0000   -0.0000    0.0000    0.0000    0.0000   -0.0000    0.0000    0.0008   -0.0000
       77 MO     6d2+       0.0000    0.0000    0.0000   -0.0000   -0.0000   -0.0000    0.0000   -0.0000   -0.0006    0.0000
       78 MO     7d2+      -0.0000   -0.0000   -0.0000    0.0000    0.0000    0.0000   -0.0000    0.0000    0.0004   -0.0000
       79 MO     8d2+       0.0000    0.0000    0.0000   -0.0000   -0.0000   -0.0000    0.0000   -0.0000   -0.0003    0.0000
       80 MO     9d2+      -0.0000   -0.0000   -0.0000    0.0000    0.0000    0.0000   -0.0000    0.0000    0.0001   -0.0000
       81 MO    10d2+       0.0000    0.0000    0.0000   -0.0000   -0.0000   -0.0000   -0.0000   -0.0000    0.0000    0.0000
       82 MO    11d2+      -0.0000   -0.0000   -0.0000    0.0000    0.0000    0.0000    0.0000   -0.0000   -0.0000   -0.0000
       83 MO     4f3-      -0.0000   -0.0000   -0.0000   -0.0000    0.0000    0.0000   -0.0000   -0.0000   -0.0000   -0.0000
       84 MO     5f3-      -0.0000   -0.0000   -0.0000   -0.0000    0.0000    0.0000   -0.0000   -0.0000   -0.0000   -0.0000
       85 MO     6f3-       0.0000    0.0000    0.0000    0.0000   -0.0000   -0.0000    0.0000    0.0000    0.0000    0.0000
       86 MO     7f3-      -0.0000   -0.0000   -0.0000   -0.0000    0.0000    0.0000   -0.0000   -0.0000   -0.0000   -0.0000
       87 MO     8f3-       0.0000   -0.0000   -0.0000   -0.0000    0.0000    0.0000   -0.0000   -0.0000   -0.0000   -0.0000
       88 MO     9f3-      -0.0000    0.0000    0.0000    0.0000   -0.0000   -0.0000    0.0000    0.0001    0.0000    0.0000
       89 MO     4f2-       0.0000   -0.0000   -0.0000   -0.0000    0.0000   -0.0000   -0.0000   -0.0000   -0.0000    0.0009
       90 MO     5f2-       0.0000   -0.0000   -0.0000   -0.0000    0.0000   -0.0000   -0.0000   -0.0000   -0.0000    0.0011
       91 MO     6f2-      -0.0000    0.0000    0.0000    0.0000   -0.0000    0.0000    0.0000    0.0000   -0.0000   -0.0010
       92 MO     7f2-       0.0000   -0.0000   -0.0000   -0.0000    0.0000   -0.0000   -0.0000   -0.0000   -0.0000    0.0009
       93 MO     8f2-       0.0000   -0.0000   -0.0000   -0.0000    0.0000   -0.0000   -0.0000   -0.0000   -0.0000    0.0006
       94 MO     9f2-       0.0000    0.0000    0.0000    0.0000   -0.0000    0.0000    0.0000    0.0000    0.0000   -0.0023
       95 MO     4f1-       0.0000    0.0000    0.0000    0.0000   -0.0000    0.0000    0.0000    0.0000    0.0000    0.0000
       96 MO     5f1-       0.0000    0.0000    0.0000    0.0000   -0.0000    0.0000    0.0000    0.0000    0.0000    0.0000
       97 MO     6f1-      -0.0000   -0.0000   -0.0000   -0.0000    0.0000   -0.0000   -0.0000   -0.0000   -0.0000   -0.0000
       98 MO     7f1-       0.0000    0.0000    0.0000    0.0000   -0.0000    0.0000    0.0000    0.0000    0.0000    0.0000
       99 MO     8f1-       0.0000    0.0000    0.0000    0.0000   -0.0000    0.0000    0.0000    0.0000    0.0000    0.0000
      100 MO     9f1-       0.0000   -0.0000   -0.0000   -0.0000    0.0000   -0.0000   -0.0000   -0.0000   -0.0000   -0.0000
      101 MO     4f0        0.0000    0.0000    0.0000   -0.0000    0.0000    0.0000    0.0000   -0.0000    0.0000    0.0000
      102 MO     5f0       -0.0000   -0.0000    0.0000   -0.0000    0.0000   -0.0000    0.0000   -0.0000    0.0000    0.0000
      103 MO     6f0       -0.0000   -0.0000   -0.0000    0.0000   -0.0000   -0.0000   -0.0000    0.0000   -0.0000   -0.0000
      104 MO     7f0       -0.0000   -0.0000    0.0000   -0.0000    0.0000   -0.0000    0.0000   -0.0000    0.0000    0.0000
      105 MO     8f0        0.0000    0.0000    0.0000   -0.0000    0.0000    0.0000    0.0000   -0.0000    0.0000    0.0000
      106 MO     9f0        0.0000    0.0000   -0.0000    0.0000   -0.0000   -0.0000   -0.0000    0.0000   -0.0000   -0.0000
      107 MO     4f1+       0.0000   -0.0000   -0.0000    0.0000    0.0000   -0.0000    0.0000   -0.0000    0.0000   -0.0000
      108 MO     5f1+       0.0000   -0.0000   -0.0000    0.0000    0.0000   -0.0000    0.0000   -0.0000    0.0000   -0.0000
      109 MO     6f1+       0.0000    0.0000   -0.0000   -0.0000   -0.0000    0.0000   -0.0000    0.0000   -0.0000    0.0000
      110 MO     7f1+       0.0000    0.0000   -0.0000    0.0000    0.0000   -0.0000    0.0000   -0.0000    0.0000   -0.0000
      111 MO     8f1+       0.0000   -0.0000   -0.0000    0.0000    0.0000   -0.0000    0.0000   -0.0000    0.0000   -0.0000
      112 MO     9f1+      -0.0000    0.0000    0.0000   -0.0000   -0.0000    0.0000   -0.0000    0.0000   -0.0000    0.0000
      113 MO     4f2+       0.0000    0.0000   -0.0000    0.0000   -0.0000    0.0000   -0.0000    0.0000    0.0000   -0.0000
      114 MO     5f2+      -0.0000   -0.0000   -0.0000    0.0000   -0.0000   -0.0000   -0.0000    0.0000    0.0000   -0.0000
      115 MO     6f2+      -0.0000   -0.0000    0.0000   -0.0000    0.0000   -0.0000    0.0000   -0.0000   -0.0000    0.0000
      116 MO     7f2+      -0.0000   -0.0000   -0.0000    0.0000   -0.0000   -0.0000   -0.0000    0.0000    0.0000   -0.0000
      117 MO     8f2+       0.0000    0.0000   -0.0000    0.0000   -0.0000    0.0000   -0.0000    0.0000   -0.0000   -0.0000
      118 MO     9f2+       0.0000   -0.0000    0.0000   -0.0000    0.0000   -0.0000    0.0000   -0.0000    0.0000    0.0000
      119 MO     4f3+      -0.0000    0.0000    0.0000   -0.0000   -0.0000    0.0000    0.0000   -0.0000   -0.0000   -0.0000
      120 MO     5f3+      -0.0000    0.0000    0.0000   -0.0000   -0.0000    0.0000    0.0000   -0.0000   -0.0000   -0.0000
      121 MO     6f3+      -0.0000   -0.0000   -0.0000    0.0000    0.0000   -0.0000   -0.0000    0.0000    0.0000    0.0000
      122 MO     7f3+      -0.0000   -0.0000    0.0000   -0.0000   -0.0000    0.0000    0.0000   -0.0000   -0.0000   -0.0000
      123 MO     8f3+      -0.0000    0.0000    0.0000   -0.0000   -0.0000    0.0000    0.0000   -0.0000   -0.0000   -0.0000
      124 MO     9f3+       0.0000   -0.0000   -0.0000    0.0000    0.0000   -0.0000   -0.0000    0.0000    0.0001    0.0000
      125 MO     5g4-      -0.0000    0.0000    0.0000    0.0000   -0.0000    0.0000    0.0000    0.0000    0.0000    0.0000
      126 MO     6g4-       0.0000   -0.0000   -0.0000   -0.0000    0.0000   -0.0000   -0.0000   -0.0000   -0.0000   -0.0000
      127 MO     7g4-      -0.0000    0.0000    0.0000    0.0000   -0.0000    0.0000    0.0000    0.0000    0.0000    0.0000
      128 MO     8g4-       0.0000   -0.0000   -0.0000   -0.0000    0.0000   -0.0000   -0.0000   -0.0000   -0.0000   -0.0000
      129 MO     5g3-       0.0000    0.0000   -0.0000   -0.0000    0.0000    0.0000   -0.0000   -0.0000   -0.0000   -0.0000
      130 MO     6g3-      -0.0000   -0.0000   -0.0000   -0.0000    0.0000   -0.0000    0.0000    0.0000    0.0000    0.0000
      131 MO     7g3-       0.0000    0.0000   -0.0000   -0.0000   -0.0000    0.0000   -0.0000   -0.0000   -0.0000   -0.0000
      132 MO     8g3-      -0.0000   -0.0000    0.0000    0.0000   -0.0000   -0.0000    0.0000    0.0000    0.0000    0.0000
      133 MO     5g2-      -0.0000   -0.0000   -0.0000   -0.0000    0.0000   -0.0000   -0.0000   -0.0000   -0.0000   -0.0000
      134 MO     6g2-       0.0000    0.0000    0.0000    0.0000   -0.0000    0.0000    0.0000    0.0000   -0.0000    0.0000
      135 MO     7g2-      -0.0000   -0.0000   -0.0000   -0.0000    0.0000   -0.0000   -0.0000   -0.0000    0.0000   -0.0000
      136 MO     8g2-       0.0000    0.0000    0.0000    0.0000   -0.0000    0.0000    0.0000    0.0000   -0.0000    0.0000
      137 MO     5g1-       0.0000   -0.0000    0.0000    0.0000   -0.0000    0.0000    0.0000    0.0000   -0.0000    0.0000
      138 MO     6g1-      -0.0000    0.0000    0.0000    0.0000   -0.0000   -0.0000   -0.0000   -0.0000    0.0000   -0.0000
      139 MO     7g1-       0.0000   -0.0000    0.0000    0.0000   -0.0000    0.0000    0.0000    0.0000   -0.0000    0.0000
      140 MO     8g1-      -0.0000    0.0000    0.0000    0.0000   -0.0000   -0.0000    0.0000    0.0000    0.0000   -0.0000
      141 MO     5g0       -0.0000   -0.0000   -0.0000    0.0000    0.0000   -0.0000   -0.0000    0.0000    0.0000   -0.0000
      142 MO     6g0       -0.0000   -0.0000    0.0000   -0.0000   -0.0000    0.0000    0.0000   -0.0000   -0.0000    0.0000
      143 MO     7g0       -0.0000   -0.0000    0.0000   -0.0000    0.0000   -0.0000   -0.0000    0.0000    0.0000   -0.0000
      144 MO     8g0       -0.0000   -0.0000    0.0000   -0.0000   -0.0000    0.0000    0.0000   -0.0000   -0.0000    0.0000
      145 MO     5g1+       0.0000    0.0000   -0.0000    0.0000    0.0000    0.0000   -0.0000    0.0000    0.0000   -0.0000
      146 MO     6g1+       0.0000    0.0000    0.0000   -0.0000    0.0000   -0.0000    0.0000   -0.0000   -0.0000    0.0000
      147 MO     7g1+       0.0000    0.0000   -0.0000    0.0000    0.0000    0.0000   -0.0000    0.0000    0.0000   -0.0000
      148 MO     8g1+       0.0000    0.0000    0.0000   -0.0000   -0.0000   -0.0000    0.0000   -0.0000   -0.0000    0.0000
      149 MO     5g2+       0.0000    0.0000    0.0000   -0.0000   -0.0000    0.0000    0.0000   -0.0000   -0.0000    0.0000
      150 MO     6g2+       0.0000    0.0000   -0.0000    0.0000    0.0000   -0.0000   -0.0000    0.0000    0.0000   -0.0000
      151 MO     7g2+       0.0000    0.0000    0.0000   -0.0000   -0.0000    0.0000    0.0000   -0.0000   -0.0000    0.0000
      152 MO     8g2+       0.0000    0.0000   -0.0000    0.0000    0.0000   -0.0000   -0.0000    0.0000    0.0000   -0.0000
      153 MO     5g3+       0.0000    0.0000    0.0000   -0.0000    0.0000    0.0000    0.0000   -0.0000    0.0000    0.0000
      154 MO     6g3+       0.0000    0.0000   -0.0000    0.0000   -0.0000   -0.0000   -0.0000    0.0000   -0.0000   -0.0000
      155 MO     7g3+       0.0000    0.0000    0.0000   -0.0000    0.0000    0.0000    0.0000   -0.0000    0.0000    0.0000
      156 MO     8g3+       0.0000    0.0000   -0.0000    0.0000   -0.0000   -0.0000   -0.0000    0.0000   -0.0000   -0.0000
      157 MO     5g4+      -0.0000   -0.0000    0.0000   -0.0000    0.0000   -0.0000    0.0000   -0.0000    0.0000    0.0000
      158 MO     6g4+      -0.0000   -0.0000    0.0000    0.0000   -0.0000    0.0000   -0.0000    0.0000   -0.0000   -0.0000
      159 MO     7g4+      -0.0000   -0.0000    0.0000   -0.0000    0.0000   -0.0000    0.0000   -0.0000    0.0000    0.0000
      160 MO     8g4+      -0.0000   -0.0000   -0.0000    0.0000   -0.0000    0.0000   -0.0000    0.0000   -0.0000   -0.0000
      161 MO     6h5-      -0.0000   -0.0000   -0.0000   -0.0000   -0.0000   -0.0000   -0.0000   -0.0000    0.0000    0.0000
      162 MO     7h5-       0.0000    0.0000    0.0000    0.0000    0.0000    0.0000    0.0000    0.0000   -0.0000   -0.0000
      163 MO     6h4-      -0.0000   -0.0000    0.0000    0.0000   -0.0000    0.0000    0.0000    0.0000    0.0000    0.0000
      164 MO     7h4-       0.0000    0.0000   -0.0000   -0.0000    0.0000    0.0000   -0.0000   -0.0000   -0.0000   -0.0000
      165 MO     6h3-      -0.0000   -0.0000    0.0000    0.0000   -0.0000   -0.0000    0.0000    0.0000    0.0000   -0.0000
      166 MO     7h3-       0.0000    0.0000   -0.0000   -0.0000    0.0000    0.0000   -0.0000   -0.0000   -0.0000    0.0000
      167 MO     6h2-       0.0000    0.0000    0.0000    0.0000   -0.0000    0.0000    0.0000    0.0000    0.0000   -0.0000
      168 MO     7h2-       0.0000    0.0000   -0.0000   -0.0000    0.0000    0.0000   -0.0000   -0.0000   -0.0000    0.0000
      169 MO     6h1-      -0.0000   -0.0000   -0.0000   -0.0000   -0.0000   -0.0000   -0.0000   -0.0000    0.0000   -0.0000
      170 MO     7h1-       0.0000    0.0000    0.0000    0.0000    0.0000    0.0000    0.0000    0.0000   -0.0000    0.0000
      171 MO     6h0        0.0000    0.0000   -0.0000    0.0000   -0.0000   -0.0000   -0.0000    0.0000   -0.0000    0.0000
      172 MO     7h0        0.0000    0.0000    0.0000   -0.0000    0.0000    0.0000    0.0000   -0.0000    0.0000   -0.0000
      173 MO     6h1+      -0.0000   -0.0000    0.0000   -0.0000   -0.0000    0.0000    0.0000   -0.0000   -0.0000    0.0000
      174 MO     7h1+      -0.0000   -0.0000   -0.0000    0.0000   -0.0000   -0.0000   -0.0000    0.0000    0.0000   -0.0000
      175 MO     6h2+      -0.0000   -0.0000    0.0000   -0.0000    0.0000    0.0000    0.0000   -0.0000    0.0000   -0.0000
      176 MO     7h2+      -0.0000   -0.0000   -0.0000    0.0000   -0.0000   -0.0000   -0.0000    0.0000   -0.0000    0.0000
      177 MO     6h3+       0.0000    0.0000    0.0000   -0.0000    0.0000   -0.0000    0.0000   -0.0000    0.0000   -0.0000
      178 MO     7h3+       0.0000    0.0000   -0.0000    0.0000    0.0000    0.0000   -0.0000    0.0000   -0.0000    0.0000
      179 MO     6h4+      -0.0000   -0.0000   -0.0000    0.0000    0.0000    0.0000   -0.0000    0.0000    0.0000    0.0000
      180 MO     7h4+      -0.0000   -0.0000    0.0000   -0.0000   -0.0000   -0.0000    0.0000   -0.0000   -0.0000   -0.0000
      181 MO     6h5+      -0.0000   -0.0000    0.0000   -0.0000   -0.0000    0.0000    0.0000   -0.0000   -0.0000   -0.0000
      182 MO     7h5+      -0.0000   -0.0000    0.0000   -0.0000   -0.0000   -0.0000    0.0000   -0.0000    0.0000    0.0000

          Orbital           11        12        13        14    
          Energy          -31.9758  -31.9715  -31.9715  -31.9700
          Occ. No.          0.0000    0.0000    0.0000    0.0000

        1 MO     1s        -0.0000    0.0000    0.0000    0.0000
        2 MO     2s         0.0000   -0.0000    0.0000    0.0000
        3 MO     3s         0.0000   -0.0000    0.0000    0.0006
        4 MO     4s         0.0000   -0.0000   -0.0000   -0.0002
        5 MO     5s        -0.0000    0.0000    0.0000    0.0000
        6 MO     6s         0.0000   -0.0000   -0.0000   -0.0000
        7 MO     7s        -0.0000    0.0000    0.0000    0.0001
        8 MO     8s         0.0000   -0.0000   -0.0000   -0.0001
        9 MO     9s         0.0000   -0.0000    0.0000    0.0001
       10 MO    10s        -0.0000    0.0000   -0.0000   -0.0000
       11 MO     2px       -0.0000    0.0000    0.0000   -0.0004
       12 MO     3px       -0.0000    0.0000    0.0000   -0.0161
       13 MO     4px        0.0000   -0.0000   -0.0000    0.0031
       14 MO     5px       -0.0000    0.0000    0.0000   -0.0010
       15 MO     6px        0.0000   -0.0000   -0.0000    0.0024
       16 MO     7px       -0.0000    0.0000    0.0000   -0.0019
       17 MO     8px        0.0000   -0.0000   -0.0000    0.0019
       18 MO     9px       -0.0000    0.0000    0.0000   -0.0014
       19 MO    10px        0.0000   -0.0000   -0.0000    0.0005
       20 MO     2py        0.0000    0.0000   -0.0004    0.0000
       21 MO     3py        0.0000    0.0000   -0.0138    0.0000
       22 MO     4py       -0.0000   -0.0000    0.0027   -0.0000
       23 MO     5py        0.0000    0.0000   -0.0009    0.0000
       24 MO     6py       -0.0000   -0.0000    0.0020   -0.0000
       25 MO     7py        0.0000    0.0000   -0.0016    0.0000
       26 MO     8py       -0.0000   -0.0000    0.0016   -0.0000
       27 MO     9py        0.0000    0.0000   -0.0012    0.0000
       28 MO    10py       -0.0000   -0.0000    0.0005   -0.0000
       29 MO     2pz       -0.0000   -0.0004   -0.0000   -0.0000
       30 MO     3pz       -0.0000   -0.0138   -0.0000   -0.0000
       31 MO     4pz        0.0000    0.0027    0.0000    0.0000
       32 MO     5pz       -0.0000   -0.0009   -0.0000   -0.0000
       33 MO     6pz        0.0000    0.0020    0.0000    0.0000
       34 MO     7pz       -0.0000   -0.0016   -0.0000   -0.0000
       35 MO     8pz        0.0000    0.0016    0.0000    0.0000
       36 MO     9pz       -0.0000   -0.0012   -0.0000   -0.0000
       37 MO    10pz        0.0000    0.0005    0.0000    0.0000
       38 MO     3d2-      -0.0000   -0.0000    0.9756   -0.0000
       39 MO     4d2-       0.0000    0.0000   -0.0981    0.0000
       40 MO     5d2-      -0.0000   -0.0000    0.1046   -0.0000
       41 MO     6d2-       0.0000    0.0000   -0.0889    0.0000
       42 MO     7d2-      -0.0000   -0.0000    0.0775   -0.0000
       43 MO     8d2-       0.0000    0.0000   -0.0794    0.0000
       44 MO     9d2-      -0.0000   -0.0000    0.0604   -0.0000
       45 MO    10d2-       0.0000    0.0000   -0.0592    0.0000
       46 MO    11d2-      -0.0000   -0.0000    0.0088   -0.0000
       47 MO     3d1-       0.0000   -0.0000    0.0057   -0.0000
       48 MO     4d1-      -0.0000    0.0000   -0.0006    0.0000
       49 MO     5d1-       0.0000   -0.0000    0.0006   -0.0000
       50 MO     6d1-      -0.0000    0.0000   -0.0005    0.0000
       51 MO     7d1-       0.0000   -0.0000    0.0005   -0.0000
       52 MO     8d1-      -0.0000    0.0000   -0.0005    0.0000
       53 MO     9d1-       0.0000   -0.0000    0.0004   -0.0000
       54 MO    10d1-      -0.0000    0.0000   -0.0003    0.0000
       55 MO    11d1-       0.0000   -0.0000    0.0001   -0.0000
       56 MO     3d0        0.8450    0.0003   -0.0000   -0.4878
       57 MO     4d0       -0.0849   -0.0000    0.0000    0.0491
       58 MO     5d0        0.0906    0.0000   -0.0000   -0.0523
       59 MO     6d0       -0.0770   -0.0000    0.0000    0.0445
       60 MO     7d0        0.0670    0.0000   -0.0000   -0.0387
       61 MO     8d0       -0.0687   -0.0000    0.0000    0.0397
       62 MO     9d0        0.0523    0.0000   -0.0000   -0.0302
       63 MO    10d0       -0.0512   -0.0000    0.0000    0.0296
       64 MO    11d0        0.0077    0.0000   -0.0000   -0.0044
       65 MO     3d1+       0.0016    0.9756    0.0000    0.0034
       66 MO     4d1+      -0.0002   -0.0981   -0.0000   -0.0003
       67 MO     5d1+       0.0002    0.1046    0.0000    0.0004
       68 MO     6d1+      -0.0001   -0.0889   -0.0000   -0.0003
       69 MO     7d1+       0.0001    0.0775    0.0000    0.0003
       70 MO     8d1+      -0.0001   -0.0794   -0.0000   -0.0003
       71 MO     9d1+       0.0001    0.0604    0.0000    0.0002
       72 MO    10d1+      -0.0001   -0.0592   -0.0000   -0.0002
       73 MO    11d1+       0.0000    0.0088    0.0000    0.0000
       74 MO     3d2+       0.4879   -0.0038   -0.0000    0.8448
       75 MO     4d2+      -0.0490    0.0004    0.0000   -0.0850
       76 MO     5d2+       0.0523   -0.0004   -0.0000    0.0906
       77 MO     6d2+      -0.0444    0.0003    0.0000   -0.0770
       78 MO     7d2+       0.0387   -0.0003   -0.0000    0.0671
       79 MO     8d2+      -0.0397    0.0003    0.0000   -0.0688
       80 MO     9d2+       0.0302   -0.0002   -0.0000    0.0523
       81 MO    10d2+      -0.0296    0.0002    0.0000   -0.0513
       82 MO    11d2+       0.0044   -0.0000   -0.0000    0.0077
       83 MO     4f3-      -0.0000   -0.0000    0.0011   -0.0000
       84 MO     5f3-      -0.0000   -0.0000    0.0013   -0.0000
       85 MO     6f3-       0.0000    0.0000   -0.0013    0.0000
       86 MO     7f3-      -0.0000   -0.0000    0.0011   -0.0000
       87 MO     8f3-      -0.0000   -0.0000    0.0007   -0.0000
       88 MO     9f3-       0.0000    0.0000   -0.0028    0.0000
       89 MO     4f2-       0.0000   -0.0000    0.0000   -0.0000
       90 MO     5f2-       0.0000   -0.0000    0.0000   -0.0000
       91 MO     6f2-      -0.0000    0.0000   -0.0000    0.0000
       92 MO     7f2-       0.0000   -0.0000    0.0000   -0.0000
       93 MO     8f2-       0.0000   -0.0000    0.0000   -0.0000
       94 MO     9f2-      -0.0000    0.0000   -0.0000    0.0000
       95 MO     4f1-       0.0000    0.0000   -0.0003    0.0000
       96 MO     5f1-       0.0000    0.0000   -0.0003    0.0000
       97 MO     6f1-      -0.0000   -0.0000    0.0003   -0.0000
       98 MO     7f1-       0.0000    0.0000   -0.0003    0.0000
       99 MO     8f1-       0.0000    0.0000   -0.0002    0.0000
      100 MO     9f1-      -0.0000   -0.0000    0.0007   -0.0000
      101 MO     4f0       -0.0000   -0.0007   -0.0000   -0.0000
      102 MO     5f0       -0.0000   -0.0008   -0.0000   -0.0000
      103 MO     6f0        0.0000    0.0008    0.0000    0.0000
      104 MO     7f0       -0.0000   -0.0007   -0.0000   -0.0000
      105 MO     8f0       -0.0000   -0.0004   -0.0000   -0.0000
      106 MO     9f0        0.0000    0.0018    0.0000    0.0000
      107 MO     4f1+       0.0007    0.0000    0.0000   -0.0008
      108 MO     5f1+       0.0008    0.0000    0.0000   -0.0009
      109 MO     6f1+      -0.0008   -0.0000   -0.0000    0.0009
      110 MO     7f1+       0.0007    0.0000    0.0000   -0.0008
      111 MO     8f1+       0.0004    0.0000    0.0000   -0.0005
      112 MO     9f1+      -0.0018   -0.0000   -0.0000    0.0019
      113 MO     4f2+       0.0000    0.0009    0.0000    0.0000
      114 MO     5f2+       0.0000    0.0011    0.0000    0.0000
      115 MO     6f2+      -0.0000   -0.0011   -0.0000   -0.0000
      116 MO     7f2+       0.0000    0.0009    0.0000    0.0000
      117 MO     8f2+       0.0000    0.0006    0.0000    0.0000
      118 MO     9f2+      -0.0000   -0.0023   -0.0000   -0.0000
      119 MO     4f3+       0.0006   -0.0000   -0.0000    0.0010
      120 MO     5f3+       0.0006   -0.0000   -0.0000    0.0011
      121 MO     6f3+      -0.0006    0.0000    0.0000   -0.0011
      122 MO     7f3+       0.0006   -0.0000   -0.0000    0.0010
      123 MO     8f3+       0.0003   -0.0000   -0.0000    0.0006
      124 MO     9f3+      -0.0014    0.0000    0.0000   -0.0025
      125 MO     5g4-       0.0000    0.0000   -0.0000    0.0000
      126 MO     6g4-      -0.0000   -0.0000    0.0000   -0.0000
      127 MO     7g4-       0.0000    0.0000   -0.0000    0.0000
      128 MO     8g4-      -0.0000   -0.0000    0.0000   -0.0000
      129 MO     5g3-      -0.0000    0.0000   -0.0000    0.0000
      130 MO     6g3-       0.0000   -0.0000    0.0000   -0.0000
      131 MO     7g3-      -0.0000    0.0000   -0.0000    0.0000
      132 MO     8g3-       0.0000   -0.0000    0.0000   -0.0000
      133 MO     5g2-      -0.0000   -0.0000    0.0000   -0.0000
      134 MO     6g2-       0.0000    0.0000   -0.0000    0.0000
      135 MO     7g2-      -0.0000   -0.0000    0.0000   -0.0000
      136 MO     8g2-       0.0000    0.0000   -0.0000    0.0000
      137 MO     5g1-       0.0000   -0.0000    0.0000   -0.0000
      138 MO     6g1-      -0.0000    0.0000   -0.0000    0.0000
      139 MO     7g1-       0.0000   -0.0000    0.0000   -0.0000
      140 MO     8g1-      -0.0000    0.0000   -0.0000    0.0000
      141 MO     5g0        0.0000    0.0000    0.0000   -0.0000
      142 MO     6g0       -0.0000   -0.0000   -0.0000    0.0000
      143 MO     7g0        0.0000    0.0000    0.0000   -0.0000
      144 MO     8g0       -0.0000   -0.0000   -0.0000    0.0000
      145 MO     5g1+       0.0000    0.0000    0.0000    0.0000
      146 MO     6g1+      -0.0000   -0.0000   -0.0000   -0.0000
      147 MO     7g1+       0.0000    0.0000    0.0000    0.0000
      148 MO     8g1+      -0.0000   -0.0000   -0.0000   -0.0000
      149 MO     5g2+      -0.0000    0.0000    0.0000    0.0000
      150 MO     6g2+       0.0000   -0.0000   -0.0000   -0.0000
      151 MO     7g2+      -0.0000    0.0000    0.0000    0.0000
      152 MO     8g2+       0.0000   -0.0000   -0.0000   -0.0000
      153 MO     5g3+      -0.0000   -0.0000   -0.0000   -0.0000
      154 MO     6g3+       0.0000    0.0000    0.0000    0.0000
      155 MO     7g3+      -0.0000   -0.0000   -0.0000   -0.0000
      156 MO     8g3+       0.0000    0.0000    0.0000    0.0000
      157 MO     5g4+      -0.0000    0.0000    0.0000   -0.0000
      158 MO     6g4+       0.0000   -0.0000   -0.0000    0.0000
      159 MO     7g4+      -0.0000    0.0000    0.0000   -0.0000
      160 MO     8g4+       0.0000   -0.0000   -0.0000    0.0000
      161 MO     6h5-       0.0000   -0.0000    0.0000   -0.0000
      162 MO     7h5-      -0.0000    0.0000   -0.0000    0.0000
      163 MO     6h4-       0.0000    0.0000   -0.0000   -0.0000
      164 MO     7h4-      -0.0000   -0.0000    0.0000    0.0000
      165 MO     6h3-      -0.0000    0.0000   -0.0000   -0.0000
      166 MO     7h3-       0.0000   -0.0000    0.0000    0.0000
      167 MO     6h2-      -0.0000   -0.0000    0.0000   -0.0000
      168 MO     7h2-       0.0000    0.0000   -0.0000   -0.0000
      169 MO     6h1-      -0.0000   -0.0000    0.0000   -0.0000
      170 MO     7h1-       0.0000    0.0000   -0.0000    0.0000
      171 MO     6h0       -0.0000    0.0000    0.0000   -0.0000
      172 MO     7h0        0.0000   -0.0000   -0.0000    0.0000
      173 MO     6h1+      -0.0000   -0.0000   -0.0000    0.0000
      174 MO     7h1+       0.0000    0.0000    0.0000   -0.0000
      175 MO     6h2+       0.0000   -0.0000   -0.0000   -0.0000
      176 MO     7h2+      -0.0000    0.0000    0.0000   -0.0000
      177 MO     6h3+       0.0000    0.0000    0.0000   -0.0000
      178 MO     7h3+      -0.0000   -0.0000   -0.0000    0.0000
      179 MO     6h4+      -0.0000    0.0000    0.0000    0.0000
      180 MO     7h4+       0.0000   -0.0000   -0.0000   -0.0000
      181 MO     6h5+       0.0000    0.0000    0.0000    0.0000
      182 MO     7h5+      -0.0000   -0.0000   -0.0000   -0.0000
--


++    Molecular charges:
      ------------------

      Mulliken charges per centre and basis function type
      ---------------------------------------------------

                MO    
      1s       2.0000
      2s       2.0000
      2px      2.0000
      2pz      2.0000
      2py      2.0000
      3s       1.9565
      3px      1.9403
      3pz      1.9406
      3py      1.9406
      4s       0.0198
      3d2+     0.0004
      3d1+     0.0004
      3d0      0.0001
      3d1-     0.0000
      3d2-     0.0004
      4px      0.0230
      4pz      0.0230
      4py      0.0230
      5s       0.0009
      4d2+     0.0000
      4d1+     0.0000
      4d0      0.0000
      4d1-     0.0000
      4d2-     0.0000
      5px      0.0024
      5pz      0.0023
      5py      0.0023
      6s       0.0013
      4f3+     0.0000
      4f2+     0.0000
      4f1+     0.0000
      4f0      0.0000
      4f1-     0.0000
      4f2-     0.0000
      4f3-     0.0000
      5d2+     0.0000
      5d1+     0.0000
      5d0      0.0000
      5d1-     0.0000
      5d2-     0.0000
      6px      0.0125
      6pz      0.0125
      6py      0.0125
      7s       0.0096
      5f3+     0.0000
      5f2+     0.0000
      5f1+     0.0000
      5f0      0.0000
      5f1-     0.0000
      5f2-     0.0000
      5f3-     0.0000
      6d2+     0.0000
      6d1+     0.0000
      6d0      0.0000
      6d1-     0.0000
      6d2-     0.0000
      7px      0.0080
      7pz      0.0080
      7py      0.0080
      5g4+     0.0000
      5g3+     0.0000
      5g2+     0.0000
      5g1+     0.0000
      5g0      0.0000
      5g1-     0.0000
      5g2-     0.0000
      5g3-     0.0000
      5g4-     0.0000
      6f3+     0.0000
      6f2+     0.0000
      6f1+     0.0000
      6f0      0.0000
      6f1-     0.0000
      6f2-     0.0000
      6f3-     0.0000
      6g4+     0.0000
      6g3+     0.0000
      6g2+     0.0000
      6g1+     0.0000
      6g0      0.0000
      6g1-     0.0000
      6g2-     0.0000
      6g3-     0.0000
      6g4-     0.0000
      6h5+     0.0000
      6h4+     0.0000
      6h3+     0.0000
      6h2+     0.0000
      6h1+     0.0000
      6h0      0.0000
      6h1-     0.0000
      6h2-     0.0000
      6h3-     0.0000
      6h4-     0.0000
      6h5-     0.0000
      7d2+     0.0000
      7d1+     0.0000
      7d0      0.0000
      7d1-     0.0000
      7d2-     0.0000
      7f3+     0.0000
      7f2+     0.0000
      7f1+     0.0000
      7f0      0.0000
      7f1-     0.0000
      7f2-     0.0000
      7f3-     0.0000
      7g4+     0.0000
      7g3+     0.0000
      7g2+     0.0000
      7g1+     0.0000
      7g0      0.0000
      7g1-     0.0000
      7g2-     0.0000
      7g3-     0.0000
      7g4-     0.0000
      7h5+     0.0000
      7h4+     0.0000
      7h3+     0.0000
      7h2+     0.0000
      7h1+     0.0000
      7h0      0.0000
      7h1-     0.0000
      7h2-     0.0000
      7h3-     0.0000
      7h4-     0.0000
      7h5-     0.0000
      8s       0.0056
      8px      0.0080
      8pz      0.0080
      8py      0.0080
      8d2+     0.0000
      8d1+     0.0000
      8d0      0.0000
      8d1-     0.0000
      8d2-     0.0000
      8f3+     0.0000
      8f2+     0.0000
      8f1+     0.0000
      8f0      0.0000
      8f1-     0.0000
      8f2-     0.0000
      8f3-     0.0000
      8g4+     0.0000
      8g3+     0.0000
      8g2+     0.0000
      8g1+     0.0000
      8g0      0.0000
      8g1-     0.0000
      8g2-     0.0000
      8g3-     0.0000
      8g4-     0.0000
      9s       0.0043
      9px      0.0043
      9pz      0.0043
      9py      0.0043
      9d2+     0.0000
      9d1+     0.0000
      9d0      0.0000
      9d1-     0.0000
      9d2-     0.0000
      9f3+     0.0000
      9f2+     0.0000
      9f1+     0.0000
      9f0      0.0000
      9f1-     0.0000
      9f2-     0.0000
      9f3-     0.0000
     10s       0.0020
     10px      0.0009
     10pz      0.0009
     10py      0.0009
     10d2+     0.0000
     10d1+     0.0000
     10d0      0.0000
     10d1-     0.0000
     10d2-     0.0000
     11d2+     0.0000
     11d1+     0.0000
     11d0      0.0000
     11d1-     0.0000
     11d2-     0.0000
      Total   18.0000

      N-E     24.0000

      Total electronic charge=   18.000000

      Total            charge=   24.000000
--

 Sorry, Molden does not know how to handle
 functions with angular momentum larger than g

++    Static properties:
      ------------------


      LoProp Charges per center


                   MO    
      Nuclear     42.0000
      Electronic -18.0000

      Total       24.0000
--


++    Molecular properties:
      ---------------------

      Charge (e):
                      =   24.0000
      Dipole Moment (Debye):
      Origin of the operator (Ang)=    0.0000    0.0000    0.0000
                   X= -8.4329E-02               Y= -1.8856E-13               Z=  5.3392E-01           Total=  5.4054E-01
      Center of Charge (Ang)
                     X=   -0.00073154               Y=   -0.00000000               Z=    0.00463165
      Quadrupole Moment (Debye*Ang):
      Origin of the operator (Ang)=   -0.0000   -0.0000    0.0046
                  XX= -6.7791E-01              XY= -3.9435E-17              XZ=  9.4421E-07              YY= -6.7825E-01
                  YZ=  7.7926E-16              ZZ= -6.7825E-01
      In traceless form (Debye*Ang)
                  XX=  3.4507E-04              XY= -5.9152E-17              XZ=  1.4163E-06              YY= -1.7252E-04
                  YZ=  1.1689E-15              ZZ= -1.7255E-04
--

 Sorry, Molden does not know how to handle
 functions with angular momentum larger than g
 ###############################################################################
 ###############################################################################
 ###                                                                         ###
 ###                                                                         ###
 ###    WARNING: RunFile label nBas                                          ###
 ###    was used       62 times                                              ###
 ###                                                                         ###
 ###                                                                         ###
 ###############################################################################
 ###############################################################################
Note: The following floating-point exceptions are signalling: IEEE_UNDERFLOW_FLAG IEEE_DENORMAL
--- Stop Module: scf at Wed Mar 26 12:39:31 2025 /rc=_RC_ALL_IS_WELL_ ---
*** files: molybdenum_so_cf.LprOrb molybdenum_so_cf.ScfOrb xmldump
    saved to directory /home4/s4752295/Internship/Initial_simulations/Point_charge_model/1_electron/Madelung_charges_9_active_space/Mo
--- Module scf spent 7 seconds ---

*** symbolic link created: INPORB -> molybdenum_so_cf.ScfOrb
--- Start Module: rasscf at Wed Mar 26 12:39:31 2025 ---

()()()()()()()()()()()()()()()()()()()()()()()()()()()()()()()()()()()()()()()()()()()()()()()()()()

                                              &RASSCF

                                   only a single process is used
                       available to each process: 4.1 GB of memory, 1 thread?
                                            pid: 3936042
()()()()()()()()()()()()()()()()()()()()()()()()()()()()()()()()()()()()()()()()()()()()()()()()()()


      Header of the ONEINT file:
      --------------------------
      
      Integrals generated by seward 4.2.0  , Wed Mar 26 12:39:14 2025


      OrdInt status: non-squared


      Cartesian coordinates in Angstrom:
      -----------------------------------------------------
      No.  Label        X            Y            Z        
      -----------------------------------------------------
       1   MO        -0.00000000  -0.00000000   0.00463220
      -----------------------------------------------------
      Nuclear repulsion energy = -320.21388755

++    Wave function specifications:
      -----------------------------

      Number of closed shell electrons          18
      Number of electrons in active shells       1
      Max number of holes in RAS1 space          0
      Max nr of electrons in RAS3 space          0
      Number of inactive orbitals                9
      Number of active orbitals                  9
      Number of secondary orbitals             164
      Spin quantum number                      0.5
      State symmetry                             1
--

++    Orbital specifications:
      -----------------------

      Symmetry species                           1
                                                 a
      Frozen orbitals                            0
      Inactive orbitals                          9
      Active orbitals                            9
      RAS1 orbitals                              0
      RAS2 orbitals                              9
      RAS3 orbitals                              0
      Secondary orbitals                       164
      Deleted orbitals                           0
      Number of basis functions                182
--

++    CI expansion specifications:
      ----------------------------

      Number of CSFs                             9
      Number of determinants                     9
      Number of root(s) required                 9
      Root chosen for geometry opt.              9
      CI roots used                              1     2     3     4     5     6     7     8     9
      weights                                0.111 0.111 0.111 0.111 0.111 0.111 0.111 0.111 0.111
      highest root included in the CI            9
      max. size of the explicit Hamiltonian      9
--

++    Optimization specifications:
      ----------------------------

      RASSCF algorithm: Conventional
      Maximum number of macro iterations       200
[...]
     9             0.0059051320        0.1606868270           1296.0267         2.1
    10             0.0059051320        0.1606868270           1296.0267         2.1
    11            15.8667574821      431.7564663175        3482350.7493         0.5
    12            15.8667574821      431.7564663175        3482350.7493         0.5
    13            17.2984764727      470.7155247660        3796576.7470         1.2
    14            17.2984764727      470.7155247660        3796576.7470         1.2
    15            17.2984829847      470.7157019655        3796578.1762         1.2
    16            17.2984829847      470.7157019655        3796578.1762         1.2
    17            17.3703315324      472.6708005503        3812347.1097         1.2
    18            17.3703315324      472.6708005503        3812347.1097         1.2


 Weights of the five most important spin-orbit-free states for each spin-orbit state.

 SO State  Total energy (au)           Spin-free states, spin, and weights
 -------------------------------------------------------------------------------------------------------
    1         0.000000       1 0.5  1.0000    9 0.5  0.0000    8 0.5  0.0000    7 0.5  0.0000    6 0.5  0.0000
    2         0.000000       1 0.5  1.0000    9 0.5  0.0000    8 0.5  0.0000    7 0.5  0.0000    6 0.5  0.0000
    3         0.000000       2 0.5  1.0000    9 0.5  0.0000    8 0.5  0.0000    7 0.5  0.0000    6 0.5  0.0000
    4         0.000000       2 0.5  1.0000    9 0.5  0.0000    8 0.5  0.0000    7 0.5  0.0000    6 0.5  0.0000
    5         0.004351       3 0.5  1.0000    9 0.5  0.0000    8 0.5  0.0000    7 0.5  0.0000    6 0.5  0.0000
    6         0.004351       3 0.5  1.0000    9 0.5  0.0000    8 0.5  0.0000    7 0.5  0.0000    6 0.5  0.0000
    7         0.004352       4 0.5  1.0000    9 0.5  0.0000    8 0.5  0.0000    7 0.5  0.0000    6 0.5  0.0000
    8         0.004352       4 0.5  1.0000    9 0.5  0.0000    8 0.5  0.0000    7 0.5  0.0000    6 0.5  0.0000
    9         0.005905       5 0.5  1.0000    9 0.5  0.0000    8 0.5  0.0000    7 0.5  0.0000    6 0.5  0.0000
   10         0.005905       5 0.5  1.0000    9 0.5  0.0000    8 0.5  0.0000    7 0.5  0.0000    6 0.5  0.0000
   11        15.866757       6 0.5  1.0000    9 0.5  0.0000    8 0.5  0.0000    7 0.5  0.0000    5 0.5  0.0000
   12        15.866757       6 0.5  1.0000    9 0.5  0.0000    8 0.5  0.0000    7 0.5  0.0000    5 0.5  0.0000
   13        17.298476       7 0.5  1.0000    9 0.5  0.0000    8 0.5  0.0000    6 0.5  0.0000    5 0.5  0.0000
   14        17.298476       7 0.5  1.0000    9 0.5  0.0000    8 0.5  0.0000    6 0.5  0.0000    5 0.5  0.0000
   15        17.298483       8 0.5  1.0000    9 0.5  0.0000    7 0.5  0.0000    6 0.5  0.0000    5 0.5  0.0000
   16        17.298483       8 0.5  1.0000    9 0.5  0.0000    7 0.5  0.0000    6 0.5  0.0000    5 0.5  0.0000
   17        17.370332       9 0.5  1.0000    8 0.5  0.0000    7 0.5  0.0000    6 0.5  0.0000    5 0.5  0.0000
   18        17.370332       9 0.5  1.0000    8 0.5  0.0000    7 0.5  0.0000    6 0.5  0.0000    5 0.5  0.0000
 -------------------------------------------------------------------------------------------------------


      ****************************************************************************************************
      *                                                                                                  *
      *                                    Special properties section                                    *
      *                                                                                                  *
      ****************************************************************************************************


++ Dipole transition strengths (SO states):
   ----------------------------------------
    for osc. strength at least    1.0000000000000001E-005

      From   To        Osc. strength     Einstein coefficients Ax, Ay, Az (sec-1)    Total A (sec-1)
     -----------------------------------------------------------------------------------------------
         1   13       1.68641688E-02  2.04400468E-05  1.62139946E+11  5.61457972E+00  1.62139946E+11
         1   15       1.68647163E-02  5.89177074E+06  5.61509352E+00  1.62139441E+11  1.62145333E+11
         2   14       1.68641688E-02  2.04400468E-05  1.62139946E+11  5.61457972E+00  1.62139946E+11
         2   16       1.68647163E-02  5.89177074E+06  5.61509352E+00  1.62139441E+11  1.62145333E+11
         3   13       1.68639834E-02  5.55498384E+05  5.61475480E+00  1.62137603E+11  1.62138159E+11
         3   15       1.68648811E-02  2.06715408E-04  1.62146912E+11  5.61473885E+00  1.62146912E+11
         4   14       1.68639834E-02  5.55498384E+05  5.61475480E+00  1.62137603E+11  1.62138159E+11
         4   16       1.68648811E-02  2.06715408E-04  1.62146912E+11  5.61473885E+00  1.62146912E+11
         5   11       5.18941326E-04  4.56172967E+04  1.72563324E-03  4.19528076E+09  4.19532638E+09
         5   13       1.72827979E-02  1.66081162E+11  1.41217608E-06  8.97106063E+04  1.66081252E+11
         5   17       1.61215583E-02  1.20305579E+06  6.42618133E-02  1.56211011E+11  1.56212214E+11
         6   12       5.18941326E-04  4.56172967E+04  1.72563324E-03  4.19528076E+09  4.19532638E+09
         6   14       1.72827979E-02  1.66081162E+11  1.41217608E-06  8.97106063E+04  1.66081252E+11
         6   18       1.61215583E-02  1.20305579E+06  6.42618133E-02  1.56211011E+11  1.56212214E+11
         7   11       5.18855438E-04  2.66974345E-08  4.19463163E+09  1.72587202E-03  4.19463163E+09
         7   15       1.72825632E-02  1.66074130E+11  1.02139060E-06  4.97717960E+06  1.66079107E+11
         7   17       1.61211526E-02  7.53497476E-07  1.56208269E+11  6.42628266E-02  1.56208269E+11
         8   12       5.18855438E-04  2.66974345E-08  4.19463163E+09  1.72587202E-03  4.19463163E+09
         8   16       1.72825632E-02  1.66074130E+11  1.02139060E-06  4.97717960E+06  1.66079107E+11
         8   18       1.61211526E-02  7.53497476E-07  1.56208269E+11  6.42628266E-02  1.56208269E+11
         9   11       7.07609143E-04  5.71943188E+09  5.16045542E-10  3.90149490E+04  5.71947089E+09
         9   13       5.50226547E-03  6.70849830E+05  5.36032191E-05  5.28645519E+10  5.28652227E+10
         9   15       5.50133959E-03  2.95506922E-08  5.28563667E+10  5.46191214E-05  5.28563667E+10
         9   17       2.23065204E-02  2.16102501E+11  1.94930316E-08  1.14257341E+06  2.16103643E+11
        10   12       7.07609143E-04  5.71943188E+09  5.16045542E-10  3.90149490E+04  5.71947089E+09
        10   14       5.50226547E-03  6.70849830E+05  5.36032191E-05  5.28645519E+10  5.28652227E+10
        10   16       5.50133959E-03  2.95506922E-08  5.28563667E+10  5.46191214E-05  5.28563667E+10
        10   18       2.23065204E-02  2.16102501E+11  1.94930316E-08  1.14257341E+06  2.16103643E+11
        11   13       1.83544715E-01  1.90460961E+04  1.23744682E-05  1.20883255E+10  1.20883445E+10
        11   15       1.83544442E-01  1.29245093E-11  1.20884365E+10  1.23747005E-05  1.20884365E+10
        11   17       1.77367905E-01  1.28834846E+10  8.15055500E-13  2.10515868E+04  1.28835057E+10
        12   14       1.83544715E-01  1.90460961E+04  1.23744682E-05  1.20883255E+10  1.20883445E+10
        12   16       1.83544442E-01  1.29245093E-11  1.20884365E+10  1.23747005E-05  1.20884365E+10
        12   18       1.77367905E-01  1.28834846E+10  8.15055500E-13  2.10515868E+04  1.28835057E+10
        13   17       2.62427698E-04  1.48315461E-01  4.45768974E-11  4.35343711E+04  4.35345194E+04
        14   18       2.62427698E-04  1.48315461E-01  4.45768974E-11  4.35343711E+04  4.35345194E+04
        15   17       2.62465188E-04  9.33264434E-17  4.35328471E+04  4.45534003E-11  4.35328471E+04
        16   18       2.62465188E-04  9.33264434E-17  4.35328471E+04  4.45534003E-11  4.35328471E+04
     -----------------------------------------------------------------------------------------------
--

++ Velocity transition strengths (SO states):
   ------------------------------------------
    for osc. strength at least    1.0000000000000001E-005

      From   To        Osc. strength     Einstein coefficients Ax, Ay, Az (sec-1)    Total A (sec-1)
     -----------------------------------------------------------------------------------------------
         1    3       3.71606648E-05  1.50406490E-21  8.31225020E-08  3.05120774E-21  8.31225020E-08
         1    5       3.35215683E-04  3.76675902E-15  2.03944918E+02  5.67414300E-09  2.03944918E+02
         1    7       3.35121299E-04  9.31691511E-05  5.67704850E-09  2.03959325E+02  2.03959418E+02
         1   13       1.60910129E-02  1.90653826E-05  1.54707005E+11  5.35719345E+00  1.54707005E+11
         1   15       1.60915222E-02  5.56898588E+06  5.35768129E+00  1.54706449E+11  1.54712018E+11
         2    4       3.71606648E-05  1.50406490E-21  8.31225020E-08  3.05120774E-21  8.31225020E-08
         2    6       3.35215683E-04  3.76675902E-15  2.03944918E+02  5.67414300E-09  2.03944918E+02
         2    8       3.35121299E-04  9.31691511E-05  5.67704850E-09  2.03959325E+02  2.03959418E+02
         2   14       1.60910129E-02  1.90653826E-05  1.54707005E+11  5.35719345E+00  1.54707005E+11
         2   16       1.60915222E-02  5.56898588E+06  5.35768129E+00  1.54706449E+11  1.54712018E+11
         3    5       3.35180725E-04  1.38374500E-04  5.67539222E-09  2.03898782E+02  2.03898921E+02
         3    7       3.35178913E-04  2.18640314E-15  2.03969750E+02  5.67582643E-09  2.03969750E+02
         3   13       1.60908412E-02  5.17959297E+05  5.35735809E+00  1.54704831E+11  1.54705349E+11
         3   15       1.60916951E-02  1.95383663E-04  1.54713675E+11  5.35734045E+00  1.54713675E+11
         4    6       3.35180725E-04  1.38374500E-04  5.67539222E-09  2.03898782E+02  2.03898921E+02
         4    8       3.35178913E-04  2.18640314E-15  2.03969750E+02  5.67582643E-09  2.03969750E+02
         4   14       1.60908412E-02  5.17959297E+05  5.35735809E+00  1.54704831E+11  1.54705349E+11
         4   16       1.60916951E-02  1.95383663E-04  1.54713675E+11  5.35734045E+00  1.54713675E+11
         5    9       2.88434292E-03  1.32829670E-04  9.19987927E-11  2.23694168E+02  2.23694301E+02
         5   11       4.98445027E-04  4.37331920E+04  1.65747278E-03  4.02959649E+09  4.02964023E+09
         5   13       1.64452272E-02  1.58032970E+11  1.35968994E-06  8.94560329E+04  1.58033059E+11
         5   17       1.53896697E-02  1.14282449E+06  6.13446059E-02  1.49119846E+11  1.49120989E+11
         6   10       2.88434292E-03  1.32829670E-04  9.19987927E-11  2.23694168E+02  2.23694301E+02
         6   12       4.98445027E-04  4.37331920E+04  1.65747278E-03  4.02959649E+09  4.02964023E+09
         6   14       1.64452272E-02  1.58032970E+11  1.35968994E-06  8.94560329E+04  1.58033059E+11
         6   18       1.53896697E-02  1.14282449E+06  6.13446059E-02  1.49119846E+11  1.49120989E+11
         7    9       2.88549887E-03  3.66862737E-17  2.23562919E+02  9.19839779E-11  2.23562919E+02
         7   11       4.98369851E-04  2.55885072E-08  4.02903208E+09  1.65770564E-03  4.02903208E+09
         7   15       1.64450409E-02  1.58026590E+11  9.86688522E-07  4.78367636E+06  1.58031374E+11
         7   17       1.53893018E-02  7.16366852E-07  1.49117412E+11  6.13454885E-02  1.49117412E+11
         8   10       2.88549887E-03  3.66862737E-17  2.23562919E+02  9.19839779E-11  2.23562919E+02
         8   12       4.98369851E-04  2.55885072E-08  4.02903208E+09  1.65770564E-03  4.02903208E+09
         8   16       1.64450409E-02  1.58026590E+11  9.86688522E-07  4.78367636E+06  1.58031374E+11
         8   18       1.53893018E-02  7.16366852E-07  1.49117412E+11  6.13454885E-02  1.49117412E+11
         9   11       6.77999764E-04  5.48012551E+09  4.88889761E-10  3.74289666E+04  5.48016294E+09
         9   13       5.25957522E-03  6.37840190E+05  5.12410698E-05  5.05330166E+10  5.05336545E+10
         9   15       5.25867544E-03  2.80475644E-08  5.05250475E+10  5.22111307E-05  5.05250475E+10
         9   17       2.12124030E-02  2.05503551E+11  1.85052152E-08  1.09111936E+06  2.05504642E+11
        10   12       6.77999764E-04  5.48012551E+09  4.88889761E-10  3.74289666E+04  5.48016294E+09
        10   14       5.25957522E-03  6.37840190E+05  5.12410698E-05  5.05330166E+10  5.05336545E+10
        10   16       5.25867544E-03  2.80475644E-08  5.05250475E+10  5.22111307E-05  5.05250475E+10
        10   18       2.12124030E-02  2.05503551E+11  1.85052152E-08  1.09111936E+06  2.05504642E+11
        11   13       1.70137425E-01  1.76469005E+04  1.14703848E-05  1.12053552E+10  1.12053728E+10
        11   15       1.70137195E-01  1.17901257E-11  1.12054596E+10  1.14703761E-05  1.12054596E+10
        11   17       1.64270964E-01  1.19322027E+10  6.66435396E-13  1.95064243E+04  1.19322222E+10
        12   14       1.70137425E-01  1.76469005E+04  1.14703848E-05  1.12053552E+10  1.12053728E+10
        12   16       1.70137195E-01  1.17901257E-11  1.12054596E+10  1.14703761E-05  1.12054596E+10
        12   18       1.64270964E-01  1.19322027E+10  6.66435396E-13  1.95064243E+04  1.19322222E+10
        13   17       5.40605972E-04  1.87276152E-01  9.18910387E-11  8.96820498E+04  8.96822370E+04
        14   18       5.40605972E-04  1.87276152E-01  9.18910387E-11  8.96820498E+04  8.96822370E+04
        15   17       5.40671722E-04  6.02983299E-16  8.96768880E+04  9.18647726E-11  8.96768880E+04
        16   18       5.40671722E-04  6.02983299E-16  8.96768880E+04  9.18647726E-11  8.96768880E+04
     -----------------------------------------------------------------------------------------------
--

++ Length and velocity gauge comparison (SO states):

 --------------------------------------------------
 A comparison between the dipole oscillator strengths in 
 length and velocity gauge will be performed

 All dipole oscillator differences above the tolerance of   0.10000000000000001       will be printed 

 Due to basis set deficiency these oscillator may be problematic 

 The tolerance is defined as ABS(1-O_l/O_v) 
 O_l : dipole oscillator strength in length gauge
 O_p : dipole oscillator strength in velocity gauge
 --------------------------------------------------

  Problematic transitions have been found

      From   To       Difference (%) Osc. st. (len.) Osc. st. (vel.)
     ---------------------------------------------------------------
         1    3      --------------- below threshold  3.71606648E-05
         1    5      --------------- below threshold  3.35215683E-04
         1    7      --------------- below threshold  3.35121299E-04
         2    4      --------------- below threshold  3.71606648E-05
         2    6      --------------- below threshold  3.35215683E-04
         2    8      --------------- below threshold  3.35121299E-04
         3    5      --------------- below threshold  3.35180725E-04
         3    7      --------------- below threshold  3.35178913E-04
         4    6      --------------- below threshold  3.35180725E-04
         4    8      --------------- below threshold  3.35178913E-04
         5    9      --------------- below threshold  2.88434292E-03
         6   10      --------------- below threshold  2.88434292E-03
         7    9      --------------- below threshold  2.88549887E-03
         8   10      --------------- below threshold  2.88549887E-03
        13   17            51.456752  2.62427698E-04  5.40605972E-04
        14   18            51.456752  2.62427698E-04  5.40605972E-04
        15   17            51.455721  2.62465188E-04  5.40671722E-04
        16   18            51.455721  2.62465188E-04  5.40671722E-04
     ---------------------------------------------------------------

 Number of problematic transitions =                    18

--

 Electric-dipole - electric-octupole not included
++ Total transition strengths for the second-order expansion of the wave vector (SO states):
   -----------------------------------------------------------------------------------------
    for osc. strength at least    1.0000000000000001E-005

      From   To        Osc. strength
     -------------------------------
         1   11       1.14662153E-05
         2   12       1.14662153E-05
         3   11       1.14661901E-05
         4   12       1.14661901E-05
         5   11       1.16948534E-05
         6   12       1.16948534E-05
         7   11       1.16947574E-05
         8   12       1.16947574E-05
         9   11       1.17695807E-05
        10   12       1.17695807E-05
     -------------------------------
--

++ I/O STATISTICS
 
  I. General I/O information
  - - - - - - - - - - - - - - - - - - - - - - - - - - - - - - - - - - - - - - - - - - -
  Unit  Name          Flsize      Write/Read            MBytes           Write/Read
                      (MBytes)       Calls              In/Out           Time, sec.
  - - - - - - - - - - - - - - - - - - - - - - - - - - - - - - - - - - - - - - - - - - -
   1  SCRATCH           0.00 .       9/      45 .      0.0/      0.0 .       0/       0
   2  ANNI              0.00 .       0/       0 .      0.0/      0.0 .       0/       0
   3  RUNFILE          14.92 .     322/   10733 .      2.3/     77.8 .       0/       0
   4  ONEINT            5.68 .       0/   24849 .      0.0/   3743.6 .       0/       0
   5  JOBIPH            6.59 .       0/      92 .      0.0/      0.8 .       0/       0
   6  ORDINT          529.03 .       1/    4233 .      0.0/   1058.0 .       0/       0
  - - - - - - - - - - - - - - - - - - - - - - - - - - - - - - - - - - - - - - - - - - -
   *  TOTAL           556.23 .     332/   39952 .      2.3/   4880.2 .       0/       0
  - - - - - - - - - - - - - - - - - - - - - - - - - - - - - - - - - - - - - - - - - - -
 
  II. I/O Access Patterns
  - - - - - - - - - - - - - - - - - - - -
  Unit  Name               % of random
                         Write/Read calls
  - - - - - - - - - - - - - - - - - - - -
   1  SCRATCH             88.9/ 100.0
   2  ANNI                 0.0/   0.0
   3  RUNFILE             28.6/  10.8
   4  ONEINT               0.0/  15.5
   5  JOBIPH               0.0/  76.1
   6  ORDINT             100.0/   0.0
  - - - - - - - - - - - - - - - - - - - -
--
--- Stop Module: rassi at Wed Mar 26 12:40:09 2025 /rc=_RC_ALL_IS_WELL_ ---
*** files: xmldump
    saved to directory /home4/s4752295/Internship/Initial_simulations/Point_charge_model/1_electron/Madelung_charges_9_active_space/Mo
--- Module rassi spent 2 seconds ---

.##################.
.# Happy landing! #.
.##################.

    Timing: Wall=54.84 User=44.31 System=9.07

###############################################################################
Hbrk Cluster
Job 15906053 for user s4752295
Finished at: Wed Mar 26 12:40:13 CET 2025

Job details:
============

Job ID                         : 15906053
Name                           : Mo_no_SO
User                           : s4752295
Partition                      : regularmedium
Nodes                          : node100
Number of Nodes                : 1
Cores                          : 1
Number of Tasks                : 1
State                          : COMPLETED  
Submit                         : 2025-03-26T12:38:02
Start                          : 2025-03-26T12:39:11
End                            : 2025-03-26T12:40:09
Reserved walltime              : 15:00:00
Used walltime                  : 00:00:58
Used CPU time                  : 00:00:55 (Efficiency: 94.00%)
% User (Computation)           : 82.95%
% System (I/O)                 : 17.05%
Total memory reserved          : 25000M
Maximum memory used            : 2.12G

Acknowledgements:
=================

Please see this page for information about acknowledging Hbrk in your publications:

https://wiki.hpc.rug.nl/habrok/introduction/scientific_output

################################################################################
