   This run of MOLCAS is using the pymolcas driver

                             OPE
                             OPE          NMOL  CASOP  ENMOLC A   SO
                 OPE        NMOLC        AS  OP EN  MO LC     AS  OP
                OPENM       OL CA        SO  PE NM  OL CA     SOP EN
                OP EN      MO   LC       AS  OP ENMOL  CASO   PENMOL
                OP  EN     MO   LC       AS  OP EN     MO     LC ASO
               OP   E  NMOL  C  AS       OP  EN MO     LC     AS  OP
               OP  E   NMO   LC AS        OPEN  MO     LCASOP EN   M
               O  PEN   MO  LCA  SO
            OPE   NMO   L   CAS    OP
        OPENMOL  CASOP     ENMOL   CASOPE
     OPENMOLCA   SOPENMOLCASOPEN   MOLCASOPE
    OPENMOLCAS   OP           EN   MOL    CAS
    OPENMOLCAS       OP  ENM        O     LCA
    OPENMOLCAS    OPEN  MOLCASO     P  E  NMO
    OPENMOLCAS     OP               E  N  MOL
    OPENMOLCA   SO           PENM   O  L  CAS    OPEN    MO    LCAS
    OPENMOLCA   SOP           ENM   O  L  CAS   OP  EN  MOLC  AS   O
    OPENMOLCA   SOPE           NM      O  LCA   S      OP  EN MO
    OPENMOLC                AS         O  PEN   M      OL  CA  SOPE
    OPENMO        LCASOPE  NMOL        C  ASO   P      ENMOLC     AS
    OPE     NMO      LCA  SO     P     E   NM   OL  CA SO  PE N   MO
          OPENMOLCA            SOPE   NMO        LCAS  O    P  ENMO
     OPENMOLCASOPENMOLCASOPENMOLCASOPENMOLCA
        OPENMOLCASOPENMOLCASOPENMOLCASOPE
            OPENMOLCASOPENMOLCASOPENM
               OPENMOLCASOPENMOLCA        version: o91e1abe7de707b ?
                   OPENMOLCASO
                       OPE                tag:

 OpenMolcas is free software; you can redistribute it and/or modify it
 under the terms of the GNU Lesser General Public License version 2.1.
 OpenMolcas is distributed in the hope that it will be useful, but it
 is provided "as is" and without any express or implied warranties.
 For more details see the full text of the license in the file
 LICENSE or in <http://www.gnu.org/licenses/>.

                 Copyright (C) The OpenMolcas Authors
           For the author list and the recommended citation,
                   consult the file CONTRIBUTORS.md

           *************************************************
           * pymolcas version py2.10                       *
           *   build 3068ae8b88c9345ec6cfef6fef7f1169      *
           *   (after the EMIL interpreter by V. Veryazov) *
           *************************************************

configuration info
------------------
Host name: login1 (Linux)
C Compiler ID: GNU
C flags: -std=gnu99
Fortran Compiler ID: GNU
Fortran flags: -fno-aggressive-loop-optimizations -cpp -fdefault-integer-8 -fmax-stack-var-size=1048576
Definitions: _MOLCAS_;_I8_;_LINUX_;_MKL_
Parallel: OFF (GA=OFF)


   -----------------------------------------------------------------------------------------------------------------------------------
  |
  |           Project: molybdenum_so_cf
  |    Submitted from: /home4/s4752295/Internship/Initial_simulations/Point_charge_model/1_electron/Madelung_charges_9_active_space/Mo
  |      Scratch area: /tmp/molybdenum_so_cf
  |   Save outputs to: /home4/s4752295/Internship/Initial_simulations/Point_charge_model/1_electron/Madelung_charges_9_active_space/Mo
  |            Molcas: /home4/s4752295/Internship/Molcas/recomp_try/OpenMolcas-master/build
  |
  | Scratch area is empty
  |
  |    MOLCAS_DRIVER = /home4/s4752295/Internship/Molcas/bin/pymolcas
  |    MOLCAS_NPROCS = 1
  |    MOLCAS_SOURCE = /home4/s4752295/Internship/Molcas/recomp_try/OpenMolcas-master
  | MOLCAS_STRUCTURE = 0
  |
   -----------------------------------------------------------------------------------------------------------------------------------

++ ---------   Input file   ---------

&SEWARD
AMFi

CLIG
$R

Basis Set
Mo.ANO-rcc.Roos.21s18p13d6f4g2h.10s9p9d6f4g2h.
Spherical d
Mo           -1.0658140267135469e-14    -3.5527134223784897e-15 0.008753588724385739
End of Basis

Xfield

414
-1.600880432,-0.6160000000000001,0.3556476      -0.625931
-1.600880432,-0.0,-0.7112956    -0.625931
-1.600880432,0.6160000000000001,0.3556476       -0.625931
-1.5981384280000002,0.0,0.0     1.892092
1.0636718760000001,-0.6160000000000001,-0.3556476       2.515516
1.0636718760000001,0.0,0.7112956        2.515516
1.0636718760000001,0.6160000000000001,-0.3556476        2.515516
1.425195312,-1.2320000000000002,0.0     0.004632
1.425195312,-0.6160000000000001,-1.0669432      0.004632
1.425195312,-0.6160000000000001,1.0669432       0.004632
1.425195312,0.6160000000000001,-1.0669432       0.004632
1.425195312,0.6160000000000001,1.0669432        0.004632
1.425195312,1.2320000000000002,0.0      0.004632
1.6516601560000002,-0.6160000000000001,0.3556476        -2.519484
1.6516601560000002,-0.0,-0.7112956      -2.519484
1.6516601560000002,0.6160000000000001,0.3556476 -2.519484
-1.1732421880000001,-0.0,-0.0   -3.142907
-1.9900390640000003,-1.2320000000000002,-0.7112956      -0.625931
-1.9900390640000003,0.0,1.4225908       -0.625931
-1.9900390640000003,1.2320000000000002,-0.7112956       -0.625931
-2.6437500000000003,-1.2320000000000002,0.0     1.892092
-2.6437500000000003,-0.6160000000000001,-1.0669432      1.892092
-2.6437500000000003,-0.6160000000000001,1.0669432       1.892092
-2.6437500000000003,0.6160000000000001,-1.0669432       1.892092
-2.6437500000000003,0.6160000000000001,1.0669432        1.892092
-2.6437500000000003,1.2320000000000002,0.0      1.892092
10.068750000000001,-1.2320000000000002,0.7112956        2.515516
10.068750000000001,-0.0,-1.4225908      2.515516
10.068750000000001,1.2320000000000002,0.7112956 2.515516
1.455468752,-1.2320000000000002,-0.7112956      -2.519484
1.455468752,0.0,1.4225908       -2.519484
1.455468752,1.2320000000000002,-0.7112956       -2.519484
-1.2929687520000002,-1.2320000000000002,-0.0    -3.142907
-1.2929687520000002,-0.6160000000000001,-1.0669432      -3.142907
-1.2929687520000002,-0.6160000000000001,1.0669432       -3.142907
-1.2929687520000002,0.6160000000000001,-1.0669432       -3.142907
-1.2929687520000002,0.6160000000000001,1.0669432        -3.142907
-1.2929687520000002,1.2320000000000002,-0.0     -3.142907
-3.809375,-1.2320000000000002,1.4225908 -0.625931
-3.809375,1.2320000000000002,1.4225908  -0.625931
-3.809375,-1.848,0.3556476      -0.625931
-3.809375,1.848,0.3556476       -0.625931
-3.809375,-0.6160000000000001,-1.7782388000000002       -0.625931
-3.809375,0.6160000000000001,-1.7782388000000002        -0.625931
2.403125,-0.6160000000000001,-0.3556476 4.409069
2.403125,0.6160000000000001,-0.3556476  4.409069
2.403125,0.0,0.7112956  4.409069
-70.10000000000001,-0.0,-0.0    -5.030367
-70.10000000000001,0.0,0.0      5.039632
5.407031248,-1.2320000000000002,-1.4225908      2.515516
5.407031248,1.2320000000000002,-1.4225908       2.515516
5.407031248,-1.848,-0.3556476   2.515516
5.407031248,1.848,-0.3556476    2.515516
5.407031248,-0.6160000000000001,1.7782388000000002      2.515516
5.407031248,0.6160000000000001,1.7782388000000002       2.515516
7.6156250000000005,-1.848,-1.0669432    0.004632
7.6156250000000005,-1.848,1.0669432     0.004632
7.6156250000000005,1.848,-1.0669432     0.004632
7.6156250000000005,1.848,1.0669432      0.004632
7.6156250000000005,-0.0,-2.1338864      0.004632
7.6156250000000005,0.0,2.1338864        0.004632
19.231250000000003,-1.2320000000000002,1.4225908        -2.519484
19.231250000000003,1.2320000000000002,1.4225908 -2.519484
19.231250000000003,-1.848,0.3556476     -2.519484
19.231250000000003,1.848,0.3556476      -2.519484
19.231250000000003,-0.6160000000000001,-1.7782388000000002      -2.519484
19.231250000000003,0.6160000000000001,-1.7782388000000002       -2.519484
-58.35,-1.848,-1.0669432        1.892092
-58.35,-1.848,1.0669432 1.892092
-58.35,1.848,-1.0669432 1.892092
-58.35,1.848,1.0669432  1.892092
-58.35,-0.0,-2.1338864  1.892092
-58.35,0.0,2.1338864    1.892092
-47.1,-1.2320000000000002,0.7112956     4.409069
-47.1,-0.0,-1.4225908   4.409069
-47.1,1.2320000000000002,0.7112956      4.409069
-35.6,-1.2320000000000002,-0.0  -5.030367
-35.6,-0.6160000000000001,-1.0669432    -5.030367
-35.6,-0.6160000000000001,1.0669432     -5.030367
-35.6,0.6160000000000001,-1.0669432     -5.030367
-35.6,-1.2320000000000002,0.0   5.039632
-35.6,1.2320000000000002,-0.0   -5.030367
-35.6,0.6160000000000001,1.0669432      -5.030367
-35.6,-0.6160000000000001,-1.0669432    5.039632
-35.6,-0.6160000000000001,1.0669432     5.039632
-35.6,0.6160000000000001,-1.0669432     5.039632
-35.6,1.2320000000000002,0.0    5.039632
-35.6,0.6160000000000001,1.0669432      5.039632
-18.650000000000002,-0.6160000000000001,-0.3556476      -5.660931
-18.650000000000002,0.0,0.7112956       -5.660931
-18.650000000000002,0.6160000000000001,-0.3556476       -5.660931
0.353125,-2.4639996,0.0 0.004632
0.353125,-1.2320000000000002,-2.1338864 0.004632
0.353125,-1.2320000000000002,2.1338864  0.004632
0.353125,1.2320000000000002,-2.1338864  0.004632
0.353125,2.4639996,0.0  0.004632
0.353125,1.2320000000000002,2.1338864   0.004632
27.175,-1.848,1.0669432 -3.142907
27.175,-1.848,-1.0669432        -3.142907
27.175,1.848,-1.0669432 -3.142907
27.175,1.848,1.0669432  -3.142907
27.175,-0.0,-2.1338864  -3.142907
27.175,0.0,2.1338864    -3.142907
34.550000000000004,-2.4639996,-0.7112956        -0.625931
34.550000000000004,-1.848,-1.7782388000000002   -0.625931
34.550000000000004,-0.6160000000000001,2.4895340000000004       -0.625931
34.550000000000004,1.848,-1.7782388000000002    -0.625931
34.550000000000004,2.4639996,-0.7112956 -0.625931
34.550000000000004,0.6160000000000001,2.4895340000000004        -0.625931
0.47890624800000003,-2.4639996,0.0      1.892092
0.47890624800000003,-1.2320000000000002,-2.1338864      1.892092
0.47890624800000003,-1.2320000000000002,2.1338864       1.892092
0.47890624800000003,1.2320000000000002,-2.1338864       1.892092
0.47890624800000003,2.4639996,0.0       1.892092
0.47890624800000003,1.2320000000000002,2.1338864        1.892092
13.537500000000001,-1.2320000000000002,-1.4225908       4.409069
13.537500000000001,1.2320000000000002,-1.4225908        4.409069
13.537500000000001,-1.848,-0.3556476    4.409069
13.537500000000001,1.848,-0.3556476     4.409069
13.537500000000001,-0.6160000000000001,1.7782388000000002       4.409069
13.537500000000001,0.6160000000000001,1.7782388000000002        4.409069
64.9625,-1.2320000000000002,0.7112956   -5.660931
64.9625,-0.0,-1.4225908 -5.660931
64.9625,1.2320000000000002,0.7112956    -5.660931
0.1375,-2.4639996,0.7112956     2.515516
0.1375,-0.6160000000000001,-2.4895340000000004  2.515516
0.1375,-1.848,1.7782388000000002        2.515516
0.1375,0.6160000000000001,-2.4895340000000004   2.515516
0.1375,2.4639996,0.7112956      2.515516
0.1375,1.848,1.7782388000000002 2.515516
-37.675000000000004,-2.4639996,-0.7112956       -2.519484
-37.675000000000004,-1.848,-1.7782388000000002  -2.519484
-37.675000000000004,-0.6160000000000001,2.4895340000000004      -2.519484
-37.675000000000004,1.848,-1.7782388000000002   -2.519484
-37.675000000000004,0.6160000000000001,2.4895340000000004       -2.519484
-37.675000000000004,2.4639996,-0.7112956        -2.519484
-8.828125,-2.4639996,-0.0       -3.142907
-8.828125,-1.2320000000000002,-2.1338864        -3.142907
-8.828125,-1.2320000000000002,2.1338864 -3.142907
-8.828125,1.2320000000000002,-2.1338864 -3.142907
-8.828125,1.2320000000000002,2.1338864  -3.142907
-8.828125,2.4639996,-0.0        -3.142907
242.60000000000002,0.0,0.0      6.927092
129.3,-2.4639996,1.4225908      -0.625931
129.3,2.4639996,1.4225908       -0.625931
129.3,-0.0,-2.8451820000000003  -0.625931
-2.16875,-1.848,1.0669432       -5.030367
-2.16875,-1.848,-1.0669432      -5.030367
-2.16875,-1.848,1.0669432       5.039632
-2.16875,-1.848,-1.0669432      5.039632
-2.16875,1.848,-1.0669432       -5.030367
-2.16875,1.848,1.0669432        -5.030367
-2.16875,1.848,-1.0669432       5.039632
-2.16875,1.848,1.0669432        5.039632
-2.16875,-0.0,-2.1338864        -5.030367
-2.16875,0.0,2.1338864  -5.030367
-2.16875,-0.0,-2.1338864        5.039632
-2.16875,0.0,2.1338864  5.039632
36.725,-1.2320000000000002,-1.4225908   -5.660931
36.725,1.2320000000000002,-1.4225908    -5.660931
36.725,-1.848,-0.3556476        -5.660931
36.725,1.848,-0.3556476 -5.660931
36.725,-0.6160000000000001,1.7782388000000002   -5.660931
36.725,0.6160000000000001,1.7782388000000002    -5.660931
120.2,-2.4639996,-1.4225908     2.515516
120.2,2.4639996,-1.4225908      2.515516
120.2,0.0,2.8451820000000003    2.515516
-206.9,-2.4639996,1.4225908     -2.519484
-206.9,2.4639996,1.4225908      -2.519484
-206.9,-0.0,-2.8451820000000003 -2.519484
21.425,-1.2320000000000002,0.0  6.927092
21.425,-0.6160000000000001,-1.0669432   6.927092
21.425,-0.6160000000000001,1.0669432    6.927092
21.425,0.6160000000000001,-1.0669432    6.927092
21.425,0.6160000000000001,1.0669432     6.927092
21.425,1.2320000000000002,0.0   6.927092
-22.1,-0.6160000000000001,0.3556476     7.550516
-22.1,0.0,-0.7112956    7.550516
-22.1,0.6160000000000001,0.3556476      7.550516
6.2125,-0.6160000000000001,-0.3556476   -7.554483
6.2125,0.6160000000000001,-0.3556476    -7.554483
6.2125,-0.0,0.7112956   -7.554483
-49.95,-3.0799996000000003,0.3556476    -0.625931
-49.95,-1.848,2.4895340000000004        -0.625931
-49.95,-1.2320000000000002,-2.8451820000000003  -0.625931
-49.95,1.2320000000000002,-2.8451820000000003   -0.625931
-49.95,3.0799996000000003,0.3556476     -0.625931
-49.95,1.848,2.4895340000000004 -0.625931
-26.975,-2.4639996,0.7112956    4.409069
-26.975,-1.848,1.7782388000000002       4.409069
-26.975,-0.6160000000000001,-2.4895340000000004 4.409069
-26.975,0.6160000000000001,-2.4895340000000004  4.409069
-26.975,1.848,1.7782388000000002        4.409069
-26.975,2.4639996,0.7112956     4.409069
19.6625,-2.4639996,-0.0 -5.030367
19.6625,-1.2320000000000002,-2.1338864  -5.030367
19.6625,-1.2320000000000002,2.1338864   -5.030367
19.6625,-2.4639996,0.0  5.039632
19.6625,-1.2320000000000002,-2.1338864  5.039632
19.6625,1.2320000000000002,-2.1338864   -5.030367
19.6625,1.2320000000000002,2.1338864    -5.030367
19.6625,2.4639996,-0.0  -5.030367
19.6625,-1.2320000000000002,2.1338864   5.039632
19.6625,1.2320000000000002,-2.1338864   5.039632
19.6625,2.4639996,0.0   5.039632
19.6625,1.2320000000000002,2.1338864    5.039632
72.3,-3.0799996000000003,-0.3556476     2.515516
72.3,-1.848,-2.4895340000000004 2.515516
72.3,-1.2320000000000002,2.8451820000000003     2.515516
72.3,1.848,-2.4895340000000004  2.515516
72.3,3.0799996000000003,-0.3556476      2.515516
72.3,1.2320000000000002,2.8451820000000003      2.515516
-9.3375,-3.0799996000000003,-1.0669432  0.004632
-9.3375,-3.0799996000000003,1.0669432   0.004632
-9.3375,-2.4639996,-2.1338864   0.004632
-9.3375,-2.4639996,2.1338864    0.004632
-9.3375,-0.6160000000000001,-3.2008296000000005 0.004632
-9.3375,0.6160000000000001,-3.2008296000000005  0.004632
-9.3375,-0.6160000000000001,3.2008296000000005  0.004632
-9.3375,2.4639996,-2.1338864    0.004632
-9.3375,0.6160000000000001,3.2008296000000005   0.004632
-9.3375,3.0799996000000003,-1.0669432   0.004632
-9.3375,3.0799996000000003,1.0669432    0.004632
-9.3375,2.4639996,2.1338864     0.004632
-57.25,-3.0799996000000003,0.3556476    -2.519484
-57.25,-1.848,2.4895340000000004        -2.519484
-57.25,-1.2320000000000002,-2.8451820000000003  -2.519484
-57.25,1.2320000000000002,-2.8451820000000003   -2.519484
-57.25,3.0799996000000003,0.3556476     -2.519484
-57.25,1.848,2.4895340000000004 -2.519484
1212.8,-0.0,-0.0        -8.177907
-46.400000000000006,-1.2320000000000002,-0.7112956      7.550516
-46.400000000000006,0.0,1.4225908       7.550516
-46.400000000000006,1.2320000000000002,-0.7112956       7.550516
-241.4,-1.2320000000000002,0.7112956    -7.554483
-241.4,-0.0,-1.4225908  -7.554483
-241.4,1.2320000000000002,0.7112956     -7.554483
19.5625,-3.0799996000000003,1.0669432   1.892092
19.5625,-3.0799996000000003,-1.0669432  1.892092
19.5625,-2.4639996,-2.1338864   1.892092
19.5625,-2.4639996,2.1338864    1.892092
19.5625,-0.6160000000000001,-3.2008296000000005 1.892092
19.5625,0.6160000000000001,-3.2008296000000005  1.892092
19.5625,-0.6160000000000001,3.2008296000000005  1.892092
19.5625,2.4639996,-2.1338864    1.892092
19.5625,0.6160000000000001,3.2008296000000005   1.892092
19.5625,3.0799996000000003,-1.0669432   1.892092
19.5625,3.0799996000000003,1.0669432    1.892092
19.5625,2.4639996,2.1338864     1.892092
-202.0,-2.4639996,-1.4225908    4.409069
-202.0,2.4639996,-1.4225908     4.409069
-202.0,0.0,2.8451820000000003   4.409069
10.328125,-2.4639996,0.7112956  -5.660931
10.328125,-0.6160000000000001,-2.4895340000000004       -5.660931
10.328125,-1.848,1.7782388000000002     -5.660931
10.328125,0.6160000000000001,-2.4895340000000004        -5.660931
10.328125,1.848,1.7782388000000002      -5.660931
10.328125,2.4639996,0.7112956   -5.660931
-23.275000000000002,-2.4639996,-2.1338864       -3.142907
-23.275000000000002,-3.0799996000000003,1.0669432       -3.142907
-23.275000000000002,-3.0799996000000003,-1.0669432      -3.142907
-23.275000000000002,-2.4639996,2.1338864        -3.142907
-23.275000000000002,-0.6160000000000001,-3.2008296000000005     -3.142907
-23.275000000000002,0.6160000000000001,-3.2008296000000005      -3.142907
-23.275000000000002,-0.6160000000000001,3.2008296000000005      -3.142907
-23.275000000000002,3.0799996000000003,-1.0669432       -3.142907
-23.275000000000002,2.4639996,-2.1338864        -3.142907
-23.275000000000002,0.6160000000000001,3.2008296000000005       -3.142907
-23.275000000000002,3.0799996000000003,1.0669432        -3.142907
-23.275000000000002,2.4639996,2.1338864 -3.142907
26.1625,-1.848,-1.0669432       6.927092
26.1625,-1.848,1.0669432        6.927092
26.1625,1.848,-1.0669432        6.927092
26.1625,1.848,1.0669432 6.927092
26.1625,-0.0,-2.1338864 6.927092
26.1625,0.0,2.1338864   6.927092
-33.300000000000004,-1.2320000000000002,-0.0    -8.177907
-33.300000000000004,-0.6160000000000001,1.0669432       -8.177907
-33.300000000000004,-0.6160000000000001,-1.0669432      -8.177907
-33.300000000000004,0.6160000000000001,-1.0669432       -8.177907
-33.300000000000004,1.2320000000000002,-0.0     -8.177907
-33.300000000000004,0.6160000000000001,1.0669432        -8.177907
-36.362500000000004,-1.2320000000000002,1.4225908       7.550516
-36.362500000000004,1.2320000000000002,1.4225908        7.550516
-36.362500000000004,-1.848,0.3556476    7.550516
-36.362500000000004,1.848,0.3556476     7.550516
-36.362500000000004,-0.6160000000000001,-1.7782388000000002     7.550516
-36.362500000000004,0.6160000000000001,-1.7782388000000002      7.550516
-18.275000000000002,-1.2320000000000002,-1.4225908      -7.554483
-18.275000000000002,1.2320000000000002,-1.4225908       -7.554483
-18.275000000000002,-1.848,-0.3556476   -7.554483
-18.275000000000002,1.848,-0.3556476    -7.554483
-18.275000000000002,-0.6160000000000001,1.7782388000000002      -7.554483
-18.275000000000002,0.6160000000000001,1.7782388000000002       -7.554483
-200.10000000000002,0.0,3.5564772       -0.625931
-200.10000000000002,-3.0799996000000003,-1.7782388000000002     -0.625931
-200.10000000000002,3.0799996000000003,-1.7782388000000002      -0.625931
-107.9,-3.0799996000000003,-0.3556476   4.409069
-107.9,-1.848,-2.4895340000000004       4.409069
-107.9,-1.2320000000000002,2.8451820000000003   4.409069
-107.9,1.848,-2.4895340000000004        4.409069
-107.9,3.0799996000000003,-0.3556476    4.409069
-107.9,1.2320000000000002,2.8451820000000003    4.409069
124.15,-2.4639996,-1.4225908    -5.660931
124.15,2.4639996,-1.4225908     -5.660931
124.15,0.0,2.8451820000000003   -5.660931
234.8,-0.0,-3.5564772   2.515516
234.8,-3.0799996000000003,1.7782388000000002    2.515516
234.8,3.0799996000000003,1.7782388000000002     2.515516
-37.550000000000004,-3.6959996,-0.0     0.004632
-37.550000000000004,1.848,-3.2008296000000005   0.004632
-37.550000000000004,-1.848,3.2008296000000005   0.004632
-37.550000000000004,3.6959996,-0.0      0.004632
-37.550000000000004,-1.848,-3.2008296000000005  0.004632
-37.550000000000004,1.848,3.2008296000000005    0.004632
-154.3,0.0,3.5564772    -2.519484
-154.3,-3.0799996000000003,-1.7782388000000002  -2.519484
-154.3,3.0799996000000003,-1.7782388000000002   -2.519484
91.2,-2.4639996,0.0     6.927092
91.2,-1.2320000000000002,-2.1338864     6.927092
91.2,-1.2320000000000002,2.1338864      6.927092
91.2,1.2320000000000002,-2.1338864      6.927092
91.2,2.4639996,0.0      6.927092
91.2,1.2320000000000002,2.1338864       6.927092
84.75,-3.6959996,-0.7112956     -0.625931
84.75,-1.2320000000000002,3.5564772     -0.625931
84.75,-2.4639996,-2.8451820000000003    -0.625931
84.75,2.4639996,-2.8451820000000003     -0.625931
84.75,1.2320000000000002,3.5564772      -0.625931
84.75,3.6959996,-0.7112956      -0.625931
44.775000000000006,-3.6959996,0.0       1.892092
44.775000000000006,-1.848,-3.2008296000000005   1.892092
44.775000000000006,-1.848,3.2008296000000005    1.892092
44.775000000000006,1.848,-3.2008296000000005    1.892092
44.775000000000006,3.6959996,0.0        1.892092
44.775000000000006,1.848,3.2008296000000005     1.892092
-1.7281250000000001,-3.0799996000000003,1.0669432       -5.030367
-1.7281250000000001,-3.0799996000000003,-1.0669432      -5.030367
-1.7281250000000001,-2.4639996,-2.1338864       -5.030367
-1.7281250000000001,-2.4639996,2.1338864        -5.030367
-1.7281250000000001,-3.0799996000000003,1.0669432       5.039632
-1.7281250000000001,0.6160000000000001,-3.2008296000000005      -5.030367
-1.7281250000000001,-0.6160000000000001,-3.2008296000000005     -5.030367
-1.7281250000000001,-3.0799996000000003,-1.0669432      5.039632
-1.7281250000000001,-2.4639996,-2.1338864       5.039632
-1.7281250000000001,-0.6160000000000001,3.2008296000000005      -5.030367
-1.7281250000000001,0.6160000000000001,-3.2008296000000005      5.039632
-1.7281250000000001,-2.4639996,2.1338864        5.039632
-1.7281250000000001,-0.6160000000000001,-3.2008296000000005     5.039632
-1.7281250000000001,2.4639996,-2.1338864        -5.030367
-1.7281250000000001,0.6160000000000001,3.2008296000000005       -5.030367
-1.7281250000000001,3.0799996000000003,-1.0669432       -5.030367
-1.7281250000000001,3.0799996000000003,1.0669432        -5.030367
-1.7281250000000001,2.4639996,2.1338864 -5.030367
-1.7281250000000001,-0.6160000000000001,3.2008296000000005      5.039632
-1.7281250000000001,2.4639996,-2.1338864        5.039632
-1.7281250000000001,3.0799996000000003,-1.0669432       5.039632
-1.7281250000000001,0.6160000000000001,3.2008296000000005       5.039632
-1.7281250000000001,3.0799996000000003,1.0669432        5.039632
-1.7281250000000001,2.4639996,2.1338864 5.039632
-0.275,-3.0799996000000003,-0.3556476   -5.660931
-0.275,-1.848,-2.4895340000000004       -5.660931
-0.275,-1.2320000000000002,2.8451820000000003   -5.660931
-0.275,1.848,-2.4895340000000004        -5.660931
-0.275,1.2320000000000002,2.8451820000000003    -5.660931
-0.275,3.0799996000000003,-0.3556476    -5.660931
46.400000000000006,-0.6160000000000001,0.3556476        9.444068
46.400000000000006,0.0,-0.7112956       9.444068
46.400000000000006,0.6160000000000001,0.3556476 9.444068
20.525000000000002,-3.6959996,0.7112956 2.515516
20.525000000000002,-1.2320000000000002,-3.5564772       2.515516
20.525000000000002,1.2320000000000002,-3.5564772        2.515516
20.525000000000002,-2.4639996,2.8451820000000003        2.515516
20.525000000000002,3.6959996,0.7112956  2.515516
20.525000000000002,2.4639996,2.8451820000000003 2.515516
62.75,-3.6959996,-0.7112956     -2.519484
62.75,-1.2320000000000002,3.5564772     -2.519484
62.75,-2.4639996,-2.8451820000000003    -2.519484
62.75,2.4639996,-2.8451820000000003     -2.519484
62.75,3.6959996,-0.7112956      -2.519484
62.75,1.2320000000000002,3.5564772      -2.519484
87.85000000000001,-3.6959996,-0.0       -3.142907
87.85000000000001,-1.848,-3.2008296000000005    -3.142907
87.85000000000001,-1.848,3.2008296000000005     -3.142907
87.85000000000001,1.848,-3.2008296000000005     -3.142907
87.85000000000001,3.6959996,-0.0        -3.142907
87.85000000000001,1.848,3.2008296000000005      -3.142907
3.458203124,-1.848,-1.0669432   -8.177907
3.458203124,-1.848,1.0669432    -8.177907
3.458203124,1.848,1.0669432     -8.177907
3.458203124,1.848,-1.0669432    -8.177907
3.458203124,-0.0,-2.1338864     -8.177907
3.458203124,0.0,2.1338864       -8.177907
100.75,-1.848,-1.7782388000000002       7.550516
100.75,-2.4639996,-0.7112956    7.550516
100.75,-0.6160000000000001,2.4895340000000004   7.550516
100.75,1.848,-1.7782388000000002        7.550516
100.75,0.6160000000000001,2.4895340000000004    7.550516
100.75,2.4639996,-0.7112956     7.550516
-139.20000000000002,-1.848,1.7782388000000002   -7.554483
-139.20000000000002,-2.4639996,0.7112956        -7.554483
-139.20000000000002,-0.6160000000000001,-2.4895340000000004     -7.554483
-139.20000000000002,0.6160000000000001,-2.4895340000000004      -7.554483
-139.20000000000002,2.4639996,0.7112956 -7.554483
-139.20000000000002,1.848,1.7782388000000002    -7.554483
28.50625,-3.0799996000000003,2.4895340000000004 -0.625931
28.50625,-3.6959996,1.4225908   -0.625931
28.50625,-0.6160000000000001,-3.9121252 -0.625931
28.50625,0.6160000000000001,-3.9121252  -0.625931
28.50625,3.6959996,1.4225908    -0.625931
28.50625,3.0799996000000003,2.4895340000000004  -0.625931
-193.5,-0.0,-3.5564772  4.409069
-193.5,-3.0799996000000003,1.7782388000000002   4.409069
-193.5,3.0799996000000003,1.7782388000000002    4.409069

End of input

&SCF
Occupied
9
Iterations
   50  100
End of Input

&RASSCF
LumOrb
Symmetry
1
Spin
2
Nactel
1 0 0
CIRoot
9 9 1
inactive
9
ras2
9
End of Input

>>> COPY molybdenum_so_cf.JobIph $SLURM_SUBMIT_DIR/molybdenum_so_cf.doublet.JobIph

>>> COPY $SLURM_SUBMIT_DIR/molybdenum_so_cf.doublet.JobIph ./JOB002

&RASSI
NROFJobIph
1 All
SpinOrbit
End of Input

EOF

-- ----------------------------------

--- Start Module: seward at Tue Mar 25 17:57:08 2025 ---

()()()()()()()()()()()()()()()()()()()()()()()()()()()()()()()()()()()()()()()()()()()()()()()()()()

                                              &SEWARD

                                   only a single process is used
                       available to each process: 4.1 GB of memory, 1 thread?
                                            pid: 1257860
()()()()()()()()()()()()()()()()()()()()()()()()()()()()()()()()()()()()()()()()()()()()()()()()()()

 The speed of LIGHT in this CALCULATION =   137.03599917700001     
               SEWARD will generate:
                  Multipole Moment integrals up to order  2
                  Kinetic Energy integrals
                  Nuclear Attraction integrals (point charge)
                  One-Electron Hamiltonian integrals
                  Velocity integrals
                  Relativistic Douglas-Kroll-Hess integrals:
                    - Parametrization         : EXP
                    - DKH order of Hamiltonian: 2
                    - DKH order of Properties : 0
                         - multipole moment operators
                         - electric potential operators
                         - contact operators
                  External field from   414 point(s) added to the one-electron Hamiltonian
                  Orbital angular momentum around (-0.0000 -0.0000  0.0088 )
                  Velocity quadrupole around (-0.0000 -0.0000  0.0088 )
                  Atomic mean-field integrals
                  Two-Electron Repulsion integrals

                   Integrals are discarded if absolute value <: 0.10E-13
                   Integral cutoff threshold is set to       <: 0.10E-15

++    Symmetry information:
      ---------------------

                    Character Table for C1 

                             E  
                    a        1  x, y, xy, Rz, z, xz, Ry, yz, Rx, I
--


++    Basis set information:
      ----------------------


      Basis set label: MO.ANO-RCC.ROOS.21S18P13D6F4G2H.10S9P9D6F4G2H......

      Electronic valence basis set:
      ------------------
      Associated Effective Charge  42.000000 au
      Associated Actual Charge     42.000000 au
      Nuclear Model: Point charge

      Shell  nPrim  nBasis  Cartesian Spherical Contaminant
         s      21      10        X                  
         p      18       9        X                  
         d      13       9                 X         
         f       6       6                 X         
         g       4       4                 X         
         h       2       2                 X         
--


++    Molecular structure info:
      -------------------------

                    ************************************************ 
                    **** Cartesian Coordinates / Bohr, Angstrom **** 
                    ************************************************ 

     Center  Label                x              y              z                     x              y              z
        1      MO              -0.000000      -0.000000       0.008754             -0.000000      -0.000000       0.004632
--


++    Operator info:
      --------------


  Net charge from external field:   -39.268449999999902     
--


            Nuclear Potential Energy              0.00000000 au

                    Nuclear-External Field Potential Energy    -960.63921058 au
                    External Field Potential Energy            4014.09225346 au 


            Total Nuclear Potential Energy           -960.63921058 au


      Basis set specifications :
      Symmetry species         a  
      Basis functions          182

 Sorry, Molden does not know how to handle
 functions with angular momentum larger than g
Note: The following floating-point exceptions are signalling: IEEE_UNDERFLOW_FLAG IEEE_DENORMAL
--- Stop Module: seward at Tue Mar 25 17:57:20 2025 /rc=_RC_ALL_IS_WELL_ ---
*** files: molybdenum_so_cf.GssOrb xmldump
    saved to directory /home4/s4752295/Internship/Initial_simulations/Point_charge_model/1_electron/Madelung_charges_9_active_space/Mo
--- Module seward spent 12 seconds ---

*** symbolic link created: INPORB -> molybdenum_so_cf.GssOrb
--- Start Module: scf at Tue Mar 25 17:57:20 2025 ---

()()()()()()()()()()()()()()()()()()()()()()()()()()()()()()()()()()()()()()()()()()()()()()()()()()

                                                &SCF

                                   only a single process is used
                       available to each process: 4.1 GB of memory, 1 thread?
                                            pid: 1257869
()()()()()()()()()()()()()()()()()()()()()()()()()()()()()()()()()()()()()()()()()()()()()()()()()()

++    Input section:
      --------------

      Header of the integral files:
      
       Integrals generated by seward 4.2.0  , Tue Mar 25 17:57:09 2025


      Cartesian coordinates in Angstrom:
      -----------------------------------------------------
      No.  Label        X            Y            Z        
      -----------------------------------------------------
       1   MO        -0.00000000  -0.00000000   0.00463220
      -----------------------------------------------------
      Nuclear repulsion energy = -960.63921058
--

++    Orbital specifications:
      -----------------------

      Symmetry species               1
                                     a
      Frozen orbitals                0
      Occupied orbitals              9
      Secondary orbitals           173
      Deleted orbitals               0
      Total number of orbitals     182
      Number of basis functions    182
--

      Molecular charge                          24.000

++    Optimization specifications:
      ----------------------------

      SCF Algorithm: Conventional
      Minimized density differences are used
      Number of density matrices in core                5
      Maximum number of NDDO SCF iterations            50
      Maximum number of HF SCF iterations             100
      Threshold for SCF energy change            0.10E-08
      Threshold for density matrix               0.10E-03
      Threshold for Fock matrix                  0.15E-03
      Threshold for linear dependence            0.10E-08
      Threshold at which DIIS is turned on       0.15E+00
      Threshold at which QNR/C2DIIS is turned on 0.75E-01
      Threshold for Norm(delta) (QNR/C2DIIS)     0.20E-04
      DIIS extrapolation of the SCF procedure
      All orbitals punched on: SCFORB
--

      Detected guessorb starting orbitals                                             


++ Convergence information
                                   SCF        iterations: Energy and convergence statistics

Iter     Tot. SCF        One-elec.       Two-elec.     Energy      Max Dij or  Max Fij      DNorm      TNorm      AccCon     Time
         Energy          Energy          Energy        Change      Delta Norm                                                in Sec.

 The total and one-electron energies are shifted by a value of      4000. a.u.

   1  -226.591614709   112.937307760   621.110288109   0.00E+00    0.32E+00*   0.30E+01*    0.60E+01   0.35E+03   None         1.
   2  -233.530033710    69.683086974   657.426089894  -0.69E+01*   0.36E-01*   0.33E+00*    0.17E+01   0.36E+03   EDIIS        1.
   3  -233.570530514    71.655564337   655.413115727  -0.40E-01*   0.74E-02*   0.39E-01*    0.98E-01   0.36E+03   EDIIS        1.
   4  -233.571120460    71.502516228   655.565573890  -0.59E-03*   0.35E-03*   0.53E-02*    0.72E-02   0.36E+03   c2DIIS       1.
   5  -233.571133857    71.512784032   655.555292688  -0.13E-04*   0.98E-04*   0.59E-03*    0.10E-02   0.36E+03   QNRc2DIIS    1.
   6  -233.571134047    71.513153400   655.554923131  -0.19E-06*   0.50E-04*   0.17E-03*    0.54E-04   0.36E+03   QNRc2DIIS    1.
   7  -233.571134071    71.513132361   655.554944145  -0.24E-07*   0.11E-05    0.78E-05     0.54E-05   0.36E+03   QNRc2DIIS    1.
   8  -233.571134071    71.513134655   655.554941851  -0.27E-10    0.83E-07    0.80E-06     0.13E-02   0.36E+03   QNRc2DIIS    1.

       Convergence after  8 Macro Iterations
--

 *****************************************************************************************************************************
 *                                                                                                                           *
 *                                             SCF/KS-DFT Program, Final results                                             *
 *                                                                                                                           *
 *                                                                                                                           *
 *                                                                                                                           *
 *                                                       Final Results                                                       *
 *                                                                                                                           *
 *****************************************************************************************************************************

::    Total SCF energy                              -4233.5711340710
      One-electron energy                           -3928.4868653447
      Two-electron energy                             655.5549418512
      Nuclear repulsion energy                       -960.6392105775
      Kinetic energy (interpolated)                  4116.1886603631
      Virial theorem                                    1.0285172725
      Total spin, S(S+1)                                0.0000000000
      Total spin, S                                     0.0000000000
      Max non-diagonal density matrix element           0.0000001600
      Max non-diagonal Fock matrix element              0.0000001235


      All orbitals with orbital energies smaller than  E(LUMO)+0.5 are printed

++    Molecular orbitals:
      -------------------

      Title: SCF orbitals

      Molecular orbitals for symmetry species 1: a  

          Orbital            1         2         3         4         5         6         7         8         9        10    
          Energy         -754.3693 -122.1293 -110.7512 -110.7512 -110.7342  -28.1542  -24.0511  -24.0509  -23.6972  -16.8165
          Occ. No.          2.0000    2.0000    2.0000    2.0000    2.0000    2.0000    2.0000    2.0000    2.0000    0.0000

        1 MO     1s         1.0000   -0.0001    0.0000   -0.0000   -0.0001    0.0001   -0.0000   -0.0000    0.0000    0.0000
        2 MO     2s         0.0001    0.9998    0.0001   -0.0000   -0.0150    0.0123    0.0000    0.0000   -0.0046   -0.0000
        3 MO     3s        -0.0001   -0.0123   -0.0000    0.0000    0.0018    0.9622    0.0005    0.0000   -0.2267   -0.0000
        4 MO     4s         0.0000    0.0030    0.0000   -0.0000   -0.0004   -0.0928   -0.0001    0.0000    0.0364    0.0000
        5 MO     5s        -0.0000   -0.0007   -0.0000    0.0000    0.0001    0.0200    0.0000    0.0000   -0.0080   -0.0000
        6 MO     6s         0.0000    0.0008    0.0000   -0.0000   -0.0001   -0.0234   -0.0000    0.0000    0.0095    0.0000
        7 MO     7s        -0.0000   -0.0025   -0.0000    0.0000    0.0003    0.0645    0.0001   -0.0000   -0.0263   -0.0000
        8 MO     8s         0.0000    0.0023    0.0000   -0.0000   -0.0003   -0.0494   -0.0000   -0.0000    0.0203    0.0000
        9 MO     9s        -0.0000   -0.0025   -0.0000    0.0000    0.0003    0.0434    0.0000   -0.0000   -0.0179   -0.0000
       10 MO    10s         0.0001    0.0029    0.0000   -0.0000   -0.0003   -0.0297   -0.0000    0.0000    0.0120    0.0000
       11 MO     2px        0.0001    0.0150   -0.0066    0.0000    0.9997    0.0017   -0.0001    0.0000    0.0143    0.0000
       12 MO     3px       -0.0000    0.0013    0.0001   -0.0000   -0.0138    0.2335   -0.0039    0.0000    0.9442    0.0000
       13 MO     4px        0.0000   -0.0003   -0.0000    0.0000    0.0030   -0.0159    0.0004   -0.0000   -0.1031   -0.0000
       14 MO     5px       -0.0000    0.0001    0.0000   -0.0000   -0.0010    0.0048   -0.0001    0.0000    0.0330    0.0000
       15 MO     6px        0.0000   -0.0003   -0.0000    0.0000    0.0026   -0.0105    0.0003   -0.0000   -0.0765   -0.0000
       16 MO     7px       -0.0000    0.0002    0.0000   -0.0000   -0.0024    0.0077   -0.0002    0.0000    0.0614    0.0000
       17 MO     8px        0.0000   -0.0003   -0.0000    0.0000    0.0029   -0.0068    0.0002   -0.0000   -0.0620   -0.0000
       18 MO     9px       -0.0000    0.0003    0.0000   -0.0000   -0.0027    0.0043   -0.0002    0.0000    0.0461    0.0000
       19 MO    10px        0.0000   -0.0002   -0.0000    0.0000    0.0022   -0.0015    0.0001   -0.0000   -0.0214   -0.0000
       20 MO     2py        0.0000    0.0000    0.0000    0.9999   -0.0000    0.0000    0.0000    0.0142    0.0000    0.0001
       21 MO     3py        0.0000   -0.0000   -0.0000   -0.0136    0.0000    0.0000    0.0000    0.9783    0.0000    0.0040
       22 MO     4py       -0.0000    0.0000    0.0000    0.0030   -0.0000   -0.0000   -0.0000   -0.1040   -0.0000   -0.0008
       23 MO     5py        0.0000   -0.0000   -0.0000   -0.0010    0.0000    0.0000    0.0000    0.0332    0.0000    0.0003
       24 MO     6py       -0.0000    0.0000    0.0000    0.0026   -0.0000   -0.0000   -0.0000   -0.0766   -0.0000   -0.0006
       25 MO     7py        0.0000   -0.0000   -0.0000   -0.0023    0.0000    0.0000    0.0000    0.0612    0.0000    0.0005
       26 MO     8py       -0.0000    0.0000    0.0000    0.0029   -0.0000   -0.0000   -0.0000   -0.0612   -0.0000   -0.0005
       27 MO     9py        0.0000   -0.0000   -0.0000   -0.0027    0.0000    0.0000    0.0000    0.0451    0.0000    0.0003
       28 MO    10py       -0.0000    0.0000    0.0000    0.0022   -0.0000   -0.0000   -0.0000   -0.0207   -0.0000   -0.0001
       29 MO     2pz        0.0000    0.0000    0.9999   -0.0000    0.0066    0.0000    0.0142   -0.0000    0.0001    0.0000
       30 MO     3pz       -0.0000    0.0000   -0.0136    0.0000   -0.0001    0.0005    0.9783   -0.0000    0.0039    0.0000
       31 MO     4pz        0.0000   -0.0000    0.0030   -0.0000    0.0000   -0.0000   -0.1040    0.0000   -0.0004   -0.0000
       32 MO     5pz       -0.0000    0.0000   -0.0010    0.0000   -0.0000    0.0000    0.0332   -0.0000    0.0001    0.0000
       33 MO     6pz        0.0000   -0.0000    0.0026   -0.0000    0.0000   -0.0000   -0.0766    0.0000   -0.0003   -0.0000
       34 MO     7pz       -0.0000    0.0000   -0.0023    0.0000   -0.0000    0.0000    0.0611   -0.0000    0.0003    0.0000
       35 MO     8pz        0.0000   -0.0000    0.0029   -0.0000    0.0000   -0.0000   -0.0612    0.0000   -0.0003   -0.0000
       36 MO     9pz       -0.0000    0.0000   -0.0027    0.0000   -0.0000    0.0000    0.0451   -0.0000    0.0002    0.0000
       37 MO    10pz        0.0000   -0.0000    0.0022   -0.0000    0.0000   -0.0000   -0.0207    0.0000   -0.0001   -0.0000
       38 MO     3d2-       0.0000    0.0000    0.0000    0.0011   -0.0000    0.0000    0.0000    0.1221    0.0000   -0.0332
       39 MO     4d2-      -0.0000   -0.0000   -0.0000   -0.0002    0.0000   -0.0000   -0.0000   -0.0068   -0.0000    0.0030
       40 MO     5d2-       0.0000    0.0000    0.0000    0.0002   -0.0000    0.0000    0.0000    0.0065    0.0000   -0.0032
       41 MO     6d2-      -0.0000   -0.0000   -0.0000   -0.0002    0.0000   -0.0000   -0.0000   -0.0047   -0.0000    0.0027
       42 MO     7d2-       0.0000    0.0000    0.0000    0.0002   -0.0000   -0.0000    0.0000    0.0032    0.0000   -0.0024
       43 MO     8d2-       0.0000   -0.0000   -0.0000   -0.0003    0.0000   -0.0000   -0.0000   -0.0021   -0.0000    0.0025
       44 MO     9d2-      -0.0000    0.0000    0.0000    0.0002   -0.0000   -0.0000    0.0000    0.0007   -0.0000   -0.0020
       45 MO    10d2-       0.0000   -0.0000   -0.0000   -0.0003    0.0000    0.0000    0.0000    0.0003    0.0000    0.0020
       46 MO    11d2-      -0.0000    0.0000    0.0000    0.0002   -0.0000    0.0000   -0.0000   -0.0003   -0.0000   -0.0003
       47 MO     3d1-       0.0000   -0.0000    0.0000    0.0000   -0.0000   -0.0000    0.0000    0.0000   -0.0000    0.9756
       48 MO     4d1-      -0.0000    0.0000   -0.0000   -0.0000    0.0000    0.0000   -0.0000   -0.0000    0.0000   -0.0965
       49 MO     5d1-       0.0000   -0.0000    0.0000    0.0000   -0.0000   -0.0000    0.0000    0.0001    0.0000    0.1028
       50 MO     6d1-      -0.0000    0.0000   -0.0000   -0.0000    0.0000    0.0000   -0.0000   -0.0000    0.0000   -0.0872
       51 MO     7d1-       0.0000   -0.0000    0.0000    0.0000   -0.0000   -0.0000    0.0000    0.0000   -0.0000    0.0759
       52 MO     8d1-      -0.0000    0.0000   -0.0000   -0.0000    0.0000    0.0000   -0.0000   -0.0000    0.0000   -0.0778
       53 MO     9d1-       0.0000   -0.0000    0.0000    0.0000   -0.0000    0.0000    0.0000    0.0000   -0.0000    0.0593
       54 MO    10d1-      -0.0000    0.0000   -0.0000   -0.0000    0.0000    0.0000    0.0000    0.0000    0.0000   -0.0582
       55 MO    11d1-       0.0000   -0.0000    0.0000    0.0000    0.0000    0.0000   -0.0000   -0.0000    0.0000    0.0089
       56 MO     3d0        0.0000    0.0001    0.0000   -0.0000   -0.0007   -0.0047    0.0008   -0.0000   -0.0801   -0.0000
       57 MO     4d0       -0.0000   -0.0000   -0.0000    0.0000    0.0001    0.0000   -0.0000   -0.0000    0.0046    0.0000
       58 MO     5d0        0.0000    0.0000    0.0000   -0.0000   -0.0001    0.0000    0.0000    0.0000   -0.0044   -0.0000
       59 MO     6d0       -0.0000   -0.0000   -0.0000    0.0000    0.0001   -0.0001    0.0000   -0.0000    0.0033    0.0000
       60 MO     7d0        0.0000    0.0000    0.0000   -0.0000   -0.0001    0.0001   -0.0000    0.0000   -0.0022   -0.0000
       61 MO     8d0       -0.0000   -0.0000   -0.0000    0.0000    0.0001   -0.0002   -0.0000   -0.0000    0.0016    0.0000
       62 MO     9d0        0.0000    0.0000    0.0000   -0.0000   -0.0001    0.0002    0.0000    0.0000   -0.0007   -0.0000
       63 MO    10d0       -0.0000   -0.0000   -0.0000    0.0000    0.0002   -0.0002   -0.0000   -0.0000    0.0001    0.0000
       64 MO    11d0        0.0000   -0.0000    0.0000   -0.0000   -0.0001    0.0000   -0.0000    0.0000    0.0001   -0.0000
       65 MO     3d1+      -0.0000   -0.0000    0.0011   -0.0000    0.0000   -0.0001    0.1222   -0.0000    0.0010   -0.0000
       66 MO     4d1+       0.0000    0.0000   -0.0002    0.0000   -0.0000    0.0000   -0.0068    0.0000   -0.0001    0.0000
       67 MO     5d1+      -0.0000   -0.0000    0.0002   -0.0000    0.0000   -0.0000    0.0065   -0.0000    0.0001   -0.0000
       68 MO     6d1+       0.0000    0.0000   -0.0002    0.0000   -0.0000    0.0000   -0.0047    0.0000   -0.0000    0.0000
       69 MO     7d1+      -0.0000   -0.0000    0.0002   -0.0000    0.0000    0.0000    0.0032   -0.0000    0.0000   -0.0000
       70 MO     8d1+       0.0000    0.0000   -0.0003    0.0000   -0.0000   -0.0000   -0.0021    0.0000   -0.0000    0.0000
       71 MO     9d1+      -0.0000   -0.0000    0.0002   -0.0000    0.0000    0.0000    0.0007   -0.0000    0.0000   -0.0000
       72 MO    10d1+       0.0000    0.0000   -0.0003    0.0000   -0.0000   -0.0000    0.0003   -0.0000   -0.0000    0.0000
       73 MO    11d1+      -0.0000   -0.0000    0.0002   -0.0000    0.0000    0.0000   -0.0003    0.0000   -0.0000   -0.0000
       74 MO     3d2+      -0.0000   -0.0001   -0.0000    0.0000    0.0012    0.0082   -0.0004    0.0000    0.1389   -0.0000
       75 MO     4d2+       0.0000    0.0000    0.0000   -0.0000   -0.0002   -0.0000    0.0000   -0.0000   -0.0080    0.0000
       76 MO     5d2+      -0.0000   -0.0000   -0.0000    0.0000    0.0002   -0.0001   -0.0000    0.0000    0.0077   -0.0000
       77 MO     6d2+       0.0000    0.0000    0.0000   -0.0000   -0.0002    0.0002    0.0000   -0.0000   -0.0056    0.0000
       78 MO     7d2+      -0.0000   -0.0000   -0.0000    0.0000    0.0002   -0.0003   -0.0000    0.0000    0.0039   -0.0000
       79 MO     8d2+       0.0000    0.0000    0.0000   -0.0000   -0.0003    0.0003    0.0000   -0.0000   -0.0028    0.0000
       80 MO     9d2+      -0.0000   -0.0000   -0.0000    0.0000    0.0002   -0.0003   -0.0000    0.0000    0.0012   -0.0000
       81 MO    10d2+       0.0000    0.0000    0.0000   -0.0000   -0.0003    0.0003   -0.0000   -0.0000   -0.0002    0.0000
       82 MO    11d2+      -0.0000    0.0000   -0.0000    0.0000    0.0001   -0.0000    0.0000   -0.0000   -0.0001   -0.0000
       83 MO     4f3-       0.0000    0.0000   -0.0000   -0.0000    0.0000    0.0000    0.0000    0.0005    0.0000   -0.0006
       84 MO     5f3-       0.0000   -0.0000   -0.0000   -0.0000    0.0000    0.0000    0.0000    0.0005    0.0000   -0.0007
       85 MO     6f3-       0.0000    0.0000    0.0000    0.0000   -0.0000   -0.0000   -0.0000   -0.0005   -0.0000    0.0006
       86 MO     7f3-       0.0000   -0.0000   -0.0000   -0.0000    0.0000    0.0000    0.0000    0.0004    0.0000   -0.0005
       87 MO     8f3-       0.0000   -0.0000   -0.0000   -0.0000    0.0000    0.0000    0.0000    0.0002    0.0000   -0.0003
       88 MO     9f3-      -0.0000    0.0000    0.0000    0.0000   -0.0000   -0.0000   -0.0000   -0.0005   -0.0000    0.0010
       89 MO     4f2-       0.0000   -0.0000   -0.0000   -0.0000    0.0000   -0.0000   -0.0000   -0.0003   -0.0000    0.0076
       90 MO     5f2-       0.0000   -0.0000   -0.0000   -0.0000    0.0000   -0.0000   -0.0000   -0.0003   -0.0000    0.0089
       91 MO     6f2-      -0.0000    0.0000    0.0000    0.0000   -0.0000    0.0000    0.0000    0.0003    0.0000   -0.0089
       92 MO     7f2-       0.0000   -0.0000   -0.0000   -0.0000    0.0000   -0.0000   -0.0000   -0.0002   -0.0000    0.0080
       93 MO     8f2-       0.0000   -0.0000   -0.0000   -0.0000    0.0000   -0.0000   -0.0000   -0.0001   -0.0000    0.0048
       94 MO     9f2-       0.0000    0.0000    0.0000    0.0000   -0.0000    0.0000    0.0000    0.0002    0.0000   -0.0198
       95 MO     4f1-       0.0000    0.0000    0.0000    0.0000   -0.0000    0.0000   -0.0000   -0.0001   -0.0000    0.0002
       96 MO     5f1-       0.0000    0.0000    0.0000    0.0000   -0.0000    0.0000   -0.0000   -0.0001   -0.0000    0.0002
       97 MO     6f1-      -0.0000   -0.0000   -0.0000   -0.0000    0.0000   -0.0000    0.0000    0.0001    0.0000   -0.0002
       98 MO     7f1-       0.0000    0.0000    0.0000    0.0000   -0.0000    0.0000   -0.0000   -0.0001    0.0000    0.0001
       99 MO     8f1-       0.0000   -0.0000    0.0000    0.0000   -0.0000    0.0000   -0.0000   -0.0000    0.0000    0.0001
      100 MO     9f1-       0.0000   -0.0000   -0.0000   -0.0000    0.0000   -0.0000    0.0000    0.0001   -0.0000   -0.0003
      101 MO     4f0        0.0000    0.0000    0.0000   -0.0000    0.0000    0.0000   -0.0003    0.0000    0.0002    0.0000
      102 MO     5f0       -0.0000   -0.0000    0.0000   -0.0000    0.0000    0.0000   -0.0003    0.0000    0.0002    0.0000
      103 MO     6f0        0.0000    0.0000   -0.0000    0.0000   -0.0000   -0.0000    0.0003   -0.0000   -0.0002   -0.0000
      104 MO     7f0        0.0000    0.0000    0.0000   -0.0000    0.0000    0.0000   -0.0002    0.0000    0.0001    0.0000
      105 MO     8f0        0.0000    0.0000    0.0000   -0.0000    0.0000    0.0000   -0.0001    0.0000    0.0000    0.0000
      106 MO     9f0        0.0000    0.0000   -0.0000    0.0000   -0.0000   -0.0000    0.0003   -0.0000   -0.0001   -0.0000
      107 MO     4f1+       0.0000   -0.0000    0.0000   -0.0000    0.0000   -0.0002    0.0002   -0.0000   -0.0001   -0.0000
      108 MO     5f1+       0.0000   -0.0000    0.0000   -0.0000    0.0000   -0.0002    0.0002   -0.0000   -0.0002   -0.0000
      109 MO     6f1+      -0.0000    0.0000   -0.0000    0.0000   -0.0000    0.0002   -0.0002    0.0000    0.0001    0.0000
      110 MO     7f1+       0.0000   -0.0000    0.0000   -0.0000    0.0000   -0.0002    0.0001   -0.0000   -0.0001   -0.0000
      111 MO     8f1+       0.0000   -0.0000    0.0000   -0.0000    0.0000   -0.0001    0.0001   -0.0000   -0.0000   -0.0000
      112 MO     9f1+      -0.0000    0.0000   -0.0000    0.0000   -0.0000    0.0004   -0.0001    0.0000    0.0002    0.0000
      113 MO     4f2+       0.0000    0.0000   -0.0000    0.0000    0.0000    0.0000    0.0004   -0.0000    0.0001   -0.0000
      114 MO     5f2+      -0.0000   -0.0000   -0.0000    0.0000    0.0000    0.0000    0.0004   -0.0000    0.0001   -0.0000
      115 MO     6f2+       0.0000    0.0000    0.0000   -0.0000   -0.0000   -0.0000   -0.0004    0.0000   -0.0001    0.0000
      116 MO     7f2+       0.0000    0.0000   -0.0000    0.0000    0.0000    0.0000    0.0003   -0.0000    0.0001   -0.0000
      117 MO     8f2+       0.0000    0.0000   -0.0000    0.0000    0.0000    0.0000    0.0001   -0.0000    0.0000   -0.0000
      118 MO     9f2+       0.0000   -0.0000    0.0000   -0.0000   -0.0000   -0.0000   -0.0004    0.0000   -0.0001    0.0000
      119 MO     4f3+      -0.0000    0.0000    0.0000   -0.0000   -0.0000    0.0003    0.0002   -0.0000    0.0002   -0.0000
      120 MO     5f3+      -0.0000    0.0000    0.0000   -0.0000   -0.0000    0.0003    0.0002   -0.0000    0.0002   -0.0000
      121 MO     6f3+       0.0000   -0.0000   -0.0000    0.0000    0.0000   -0.0003   -0.0002    0.0000   -0.0002    0.0000
      122 MO     7f3+      -0.0000    0.0000    0.0000   -0.0000   -0.0000    0.0003    0.0001   -0.0000    0.0001   -0.0000
      123 MO     8f3+      -0.0000    0.0000    0.0000   -0.0000   -0.0000    0.0002    0.0000   -0.0000    0.0001   -0.0000
      124 MO     9f3+       0.0000   -0.0000   -0.0000    0.0000    0.0000   -0.0006   -0.0001    0.0000   -0.0002    0.0000
      125 MO     5g4-      -0.0000    0.0000    0.0000    0.0000   -0.0000   -0.0000    0.0000    0.0003    0.0000   -0.0001
      126 MO     6g4-       0.0000   -0.0000   -0.0000   -0.0000    0.0000   -0.0000   -0.0000   -0.0003   -0.0000    0.0000
      127 MO     7g4-      -0.0000    0.0000    0.0000    0.0000   -0.0000    0.0000    0.0000    0.0003    0.0000    0.0000
      128 MO     8g4-       0.0000   -0.0000   -0.0000   -0.0000    0.0000   -0.0000   -0.0000   -0.0003   -0.0000   -0.0000
      129 MO     5g3-       0.0000    0.0000   -0.0000   -0.0000    0.0000    0.0000   -0.0000   -0.0002   -0.0000    0.0000
      130 MO     6g3-      -0.0000   -0.0000    0.0000    0.0000   -0.0000   -0.0000    0.0000    0.0002    0.0000    0.0000
      131 MO     7g3-       0.0000    0.0000   -0.0000   -0.0000    0.0000    0.0000   -0.0000   -0.0002   -0.0000   -0.0001
      132 MO     8g3-      -0.0000   -0.0000    0.0000    0.0000   -0.0000   -0.0000    0.0000    0.0001    0.0000    0.0002
      133 MO     5g2-      -0.0000   -0.0000   -0.0000   -0.0000    0.0000    0.0000   -0.0000   -0.0001    0.0000    0.0000
      134 MO     6g2-       0.0000    0.0000    0.0000    0.0000   -0.0000    0.0000    0.0000    0.0001    0.0000   -0.0000
      135 MO     7g2-      -0.0000   -0.0000   -0.0000   -0.0000    0.0000    0.0000   -0.0000   -0.0001    0.0000   -0.0000
      136 MO     8g2-       0.0000    0.0000    0.0000    0.0000   -0.0000    0.0000    0.0000    0.0001    0.0000    0.0000
      137 MO     5g1-       0.0000   -0.0000    0.0000    0.0000   -0.0000   -0.0000    0.0000    0.0001   -0.0000   -0.0000
      138 MO     6g1-      -0.0000    0.0000   -0.0000   -0.0000    0.0000   -0.0000   -0.0000   -0.0001   -0.0000    0.0000
      139 MO     7g1-       0.0000   -0.0000    0.0000    0.0000   -0.0000   -0.0000    0.0000    0.0001   -0.0000    0.0000
      140 MO     8g1-      -0.0000    0.0000   -0.0000   -0.0000    0.0000    0.0000   -0.0000   -0.0001    0.0000   -0.0001
      141 MO     5g0        0.0000   -0.0000   -0.0000    0.0000    0.0000   -0.0001   -0.0001    0.0000    0.0001   -0.0000
      142 MO     6g0       -0.0000   -0.0000    0.0000   -0.0000   -0.0000    0.0000    0.0001   -0.0000   -0.0001    0.0000
      143 MO     7g0        0.0000   -0.0000   -0.0000    0.0000    0.0000   -0.0001   -0.0001    0.0000    0.0001   -0.0000
      144 MO     8g0        0.0000    0.0000    0.0000   -0.0000   -0.0000    0.0001    0.0001   -0.0000   -0.0002    0.0000
      145 MO     5g1+       0.0000    0.0000   -0.0000    0.0000    0.0000    0.0002   -0.0002    0.0000    0.0001    0.0000
      146 MO     6g1+       0.0000   -0.0000    0.0000   -0.0000   -0.0000   -0.0002    0.0003   -0.0000   -0.0001   -0.0000
      147 MO     7g1+      -0.0000    0.0000   -0.0000    0.0000    0.0000    0.0002   -0.0003    0.0000    0.0001    0.0000
      148 MO     8g1+       0.0000   -0.0000    0.0000   -0.0000   -0.0000   -0.0001    0.0003   -0.0000   -0.0001    0.0000
      149 MO     5g2+      -0.0000    0.0000    0.0000   -0.0000   -0.0000    0.0001    0.0001   -0.0000   -0.0001   -0.0000
      150 MO     6g2+       0.0000    0.0000   -0.0000    0.0000    0.0000   -0.0001   -0.0001    0.0000    0.0001   -0.0000
      151 MO     7g2+      -0.0000    0.0000    0.0000   -0.0000   -0.0000    0.0001    0.0001   -0.0000   -0.0002    0.0000
      152 MO     8g2+      -0.0000   -0.0000   -0.0000    0.0000    0.0000   -0.0001   -0.0001    0.0000    0.0003   -0.0000
      153 MO     5g3+       0.0000    0.0000    0.0000   -0.0000    0.0000    0.0002    0.0002   -0.0000    0.0002   -0.0000
      154 MO     6g3+       0.0000   -0.0000   -0.0000    0.0000   -0.0000   -0.0002   -0.0002    0.0000   -0.0002    0.0000
      155 MO     7g3+      -0.0000    0.0000    0.0000   -0.0000    0.0000    0.0002    0.0002   -0.0000    0.0001    0.0000
      156 MO     8g3+       0.0000   -0.0000   -0.0000    0.0000   -0.0000   -0.0002   -0.0002    0.0000   -0.0001   -0.0000
      157 MO     5g4+       0.0000   -0.0000    0.0000   -0.0000    0.0000   -0.0001    0.0002   -0.0000    0.0002   -0.0000
      158 MO     6g4+      -0.0000   -0.0000   -0.0000    0.0000   -0.0000    0.0001   -0.0002    0.0000   -0.0002   -0.0000
      159 MO     7g4+       0.0000   -0.0000    0.0000   -0.0000    0.0000   -0.0001    0.0001   -0.0000    0.0003    0.0000
      160 MO     8g4+       0.0000    0.0000   -0.0000    0.0000   -0.0000    0.0001   -0.0001    0.0000   -0.0004   -0.0000
      161 MO     6h5-      -0.0000   -0.0000   -0.0000   -0.0000   -0.0000   -0.0000    0.0000    0.0001    0.0000    0.0000
      162 MO     7h5-       0.0000    0.0000    0.0000    0.0000    0.0000    0.0000   -0.0000   -0.0000   -0.0000   -0.0000
      163 MO     6h4-      -0.0000    0.0000    0.0000    0.0000   -0.0000    0.0000   -0.0000   -0.0001   -0.0000    0.0002
      164 MO     7h4-       0.0000   -0.0000   -0.0000   -0.0000    0.0000   -0.0000    0.0000    0.0001    0.0000   -0.0002
      165 MO     6h3-      -0.0000   -0.0000    0.0000    0.0000   -0.0000    0.0000   -0.0000   -0.0000    0.0000   -0.0000
      166 MO     7h3-       0.0000    0.0000   -0.0000   -0.0000    0.0000    0.0000    0.0000    0.0000   -0.0000    0.0000
      167 MO     6h2-       0.0000    0.0000    0.0000    0.0000   -0.0000   -0.0000    0.0000    0.0001    0.0000   -0.0001
      168 MO     7h2-      -0.0000    0.0000   -0.0000   -0.0000    0.0000    0.0000   -0.0000   -0.0001   -0.0000    0.0001
      169 MO     6h1-      -0.0000   -0.0000   -0.0000   -0.0000   -0.0000   -0.0000   -0.0000   -0.0000    0.0000   -0.0000
      170 MO     7h1-       0.0000    0.0000    0.0000    0.0000    0.0000    0.0000    0.0000    0.0000    0.0000    0.0000
      171 MO     6h0       -0.0000   -0.0000   -0.0000    0.0000   -0.0000   -0.0001    0.0000   -0.0000   -0.0001    0.0000
      172 MO     7h0        0.0000    0.0000    0.0000   -0.0000    0.0000    0.0001   -0.0000    0.0000    0.0001   -0.0000
      173 MO     6h1+      -0.0000   -0.0000    0.0000   -0.0000   -0.0000   -0.0001   -0.0000    0.0000   -0.0001    0.0000
      174 MO     7h1+      -0.0000   -0.0000   -0.0000    0.0000    0.0000    0.0000    0.0000   -0.0000    0.0001   -0.0000
      175 MO     6h2+       0.0000    0.0000    0.0000   -0.0000    0.0000    0.0001   -0.0000    0.0000    0.0001    0.0000
      176 MO     7h2+      -0.0000   -0.0000   -0.0000    0.0000   -0.0000   -0.0001    0.0000   -0.0000   -0.0001   -0.0000
      177 MO     6h3+       0.0000    0.0000    0.0000   -0.0000    0.0000    0.0001    0.0001   -0.0000    0.0001   -0.0000
      178 MO     7h3+       0.0000    0.0000   -0.0000    0.0000   -0.0000   -0.0000   -0.0001    0.0000   -0.0001    0.0000
      179 MO     6h4+       0.0000    0.0000   -0.0000    0.0000    0.0000    0.0002    0.0000   -0.0000    0.0002    0.0000
      180 MO     7h4+      -0.0000   -0.0000    0.0000   -0.0000   -0.0000   -0.0002   -0.0000    0.0000   -0.0002   -0.0000
      181 MO     6h5+      -0.0000   -0.0000    0.0000   -0.0000   -0.0000   -0.0001    0.0001   -0.0000   -0.0002   -0.0000
      182 MO     7h5+      -0.0000   -0.0000   -0.0000    0.0000    0.0000    0.0001   -0.0001    0.0000    0.0002    0.0000

          Orbital           11        12        13        14    
          Energy          -16.8163  -16.6684  -16.6679  -16.5799
          Occ. No.          0.0000    0.0000    0.0000    0.0000

        1 MO     1s        -0.0000    0.0000    0.0000   -0.0000
        2 MO     2s         0.0000    0.0000   -0.0000    0.0008
        3 MO     3s         0.0000   -0.0000   -0.0000    0.0270
        4 MO     4s        -0.0000   -0.0000   -0.0000   -0.0062
        5 MO     5s         0.0000    0.0000    0.0000    0.0014
        6 MO     6s        -0.0000   -0.0000   -0.0000   -0.0016
        7 MO     7s         0.0000    0.0000    0.0000    0.0047
        8 MO     8s        -0.0000   -0.0000    0.0000   -0.0037
        9 MO     9s         0.0000    0.0000    0.0000    0.0033
       10 MO    10s        -0.0000    0.0000    0.0000   -0.0021
       11 MO     2px       -0.0000    0.0000    0.0000   -0.0039
       12 MO     3px       -0.0001    0.0007    0.0000   -0.1511
       13 MO     4px        0.0000   -0.0001   -0.0000    0.0293
       14 MO     5px       -0.0000    0.0000    0.0000   -0.0096
       15 MO     6px        0.0000   -0.0001   -0.0000    0.0223
       16 MO     7px       -0.0000    0.0001    0.0000   -0.0179
       17 MO     8px        0.0000   -0.0001   -0.0000    0.0179
       18 MO     9px       -0.0000    0.0001    0.0000   -0.0129
       19 MO    10px        0.0000   -0.0000   -0.0000    0.0053
       20 MO     2py        0.0000    0.0000   -0.0030   -0.0000
       21 MO     3py        0.0000    0.0000   -0.1167   -0.0000
       22 MO     4py       -0.0000   -0.0000    0.0223    0.0000
       23 MO     5py        0.0000    0.0000   -0.0073   -0.0000
       24 MO     6py       -0.0000   -0.0000    0.0169    0.0000
       25 MO     7py        0.0000    0.0000   -0.0136   -0.0000
       26 MO     8py       -0.0000   -0.0000    0.0135    0.0000
       27 MO     9py        0.0000    0.0000   -0.0098   -0.0000
       28 MO    10py       -0.0000   -0.0000    0.0041   -0.0000
       29 MO     2pz       -0.0001   -0.0030   -0.0000   -0.0000
       30 MO     3pz       -0.0032   -0.1169   -0.0000   -0.0008
       31 MO     4pz        0.0007    0.0223    0.0000    0.0002
       32 MO     5pz       -0.0002   -0.0073   -0.0000   -0.0001
       33 MO     6pz        0.0005    0.0169    0.0000    0.0001
       34 MO     7pz       -0.0004   -0.0136   -0.0000   -0.0001
       35 MO     8pz        0.0004    0.0136    0.0000    0.0001
       36 MO     9pz       -0.0003   -0.0098   -0.0000   -0.0001
       37 MO    10pz        0.0001    0.0041    0.0000    0.0000
       38 MO     3d2-      -0.0000   -0.0000    0.9672    0.0000
       39 MO     4d2-       0.0000    0.0000   -0.0966   -0.0000
       40 MO     5d2-      -0.0000   -0.0000    0.1031    0.0000
       41 MO     6d2-       0.0000    0.0000   -0.0878   -0.0000
       42 MO     7d2-      -0.0000   -0.0000    0.0767    0.0000
       43 MO     8d2-       0.0000    0.0000   -0.0790   -0.0000
       44 MO     9d2-      -0.0000   -0.0000    0.0605    0.0000
       45 MO    10d2-       0.0000    0.0000   -0.0598   -0.0000
       46 MO    11d2-      -0.0000   -0.0000    0.0093    0.0000
       47 MO     3d1-       0.0000   -0.0000    0.0333   -0.0000
       48 MO     4d1-      -0.0000    0.0000   -0.0036    0.0000
       49 MO     5d1-       0.0000   -0.0000    0.0038   -0.0000
       50 MO     6d1-      -0.0000    0.0000   -0.0032    0.0000
       51 MO     7d1-       0.0000   -0.0000    0.0028   -0.0000
       52 MO     8d1-      -0.0000    0.0000   -0.0028    0.0000
       53 MO     9d1-       0.0000   -0.0000    0.0021   -0.0000
       54 MO    10d1-      -0.0000    0.0000   -0.0020    0.0000
       55 MO    11d1-       0.0000   -0.0000    0.0003   -0.0000
       56 MO     3d0        0.8450   -0.0165   -0.0000   -0.4812
       57 MO     4d0       -0.0836    0.0019    0.0000    0.0487
       58 MO     5d0        0.0890   -0.0020   -0.0000   -0.0520
       59 MO     6d0       -0.0756    0.0017    0.0000    0.0444
       60 MO     7d0        0.0658   -0.0014   -0.0000   -0.0388
       61 MO     8d0       -0.0674    0.0014    0.0000    0.0401
       62 MO     9d0        0.0513   -0.0011   -0.0000   -0.0307
       63 MO    10d0       -0.0504    0.0010    0.0000    0.0304
       64 MO    11d0        0.0077   -0.0002   -0.0000   -0.0047
       65 MO     3d1+       0.0232    0.9675    0.0000    0.0073
       66 MO     4d1+      -0.0021   -0.0966   -0.0000   -0.0007
       67 MO     5d1+       0.0022    0.1031    0.0000    0.0008
       68 MO     6d1+      -0.0019   -0.0878   -0.0000   -0.0007
       69 MO     7d1+       0.0017    0.0767    0.0000    0.0006
       70 MO     8d1+      -0.0018   -0.0790   -0.0000   -0.0006
       71 MO     9d1+       0.0014    0.0605    0.0000    0.0005
       72 MO    10d1+      -0.0014   -0.0598   -0.0000   -0.0005
       73 MO    11d1+       0.0002    0.0093    0.0000    0.0001
       74 MO     3d2+       0.4883   -0.0180   -0.0000    0.8323
       75 MO     4d2+      -0.0483    0.0019    0.0000   -0.0842
       76 MO     5d2+       0.0514   -0.0021   -0.0000    0.0900
       77 MO     6d2+      -0.0437    0.0017    0.0000   -0.0767
       78 MO     7d2+       0.0380   -0.0015   -0.0000    0.0672
       79 MO     8d2+      -0.0389    0.0015    0.0000   -0.0693
       80 MO     9d2+       0.0297   -0.0011   -0.0000    0.0532
       81 MO    10d2+      -0.0291    0.0011    0.0000   -0.0526
       82 MO    11d2+       0.0044   -0.0002   -0.0000    0.0082
       83 MO     4f3-      -0.0000   -0.0000    0.0102    0.0000
       84 MO     5f3-      -0.0000   -0.0000    0.0119    0.0000
       85 MO     6f3-       0.0000    0.0000   -0.0118   -0.0000
       86 MO     7f3-      -0.0000   -0.0000    0.0105    0.0000
       87 MO     8f3-      -0.0000   -0.0000    0.0063    0.0000
       88 MO     9f3-       0.0000    0.0000   -0.0257   -0.0000
       89 MO     4f2-       0.0000    0.0000   -0.0001   -0.0000
       90 MO     5f2-       0.0000    0.0000   -0.0000   -0.0000
       91 MO     6f2-      -0.0000    0.0000   -0.0001    0.0000
       92 MO     7f2-       0.0000   -0.0000    0.0001   -0.0000
       93 MO     8f2-       0.0000   -0.0000    0.0001   -0.0000
       94 MO     9f2-      -0.0000    0.0000   -0.0006    0.0000
       95 MO     4f1-       0.0000    0.0000   -0.0026   -0.0000
       96 MO     5f1-       0.0000    0.0000   -0.0031   -0.0000
       97 MO     6f1-      -0.0000   -0.0000    0.0030    0.0000
       98 MO     7f1-       0.0000    0.0000   -0.0027   -0.0000
       99 MO     8f1-       0.0000    0.0000   -0.0016   -0.0000
      100 MO     9f1-      -0.0000   -0.0000    0.0066    0.0000
      101 MO     4f0       -0.0003   -0.0065   -0.0000    0.0001
      102 MO     5f0       -0.0003   -0.0075   -0.0000    0.0000
      103 MO     6f0        0.0003    0.0075    0.0000    0.0000
      104 MO     7f0       -0.0002   -0.0067   -0.0000   -0.0000
      105 MO     8f0       -0.0001   -0.0040   -0.0000   -0.0000
      106 MO     9f0        0.0004    0.0163    0.0000    0.0001
      107 MO     4f1+       0.0060    0.0002    0.0000   -0.0069
      108 MO     5f1+       0.0070    0.0002    0.0000   -0.0081
      109 MO     6f1+      -0.0070   -0.0001   -0.0000    0.0081
      110 MO     7f1+       0.0063    0.0000    0.0000   -0.0073
      111 MO     8f1+       0.0038   -0.0000    0.0000   -0.0044
      112 MO     9f1+      -0.0156    0.0001    0.0000    0.0178
      113 MO     4f2+       0.0004    0.0084    0.0000    0.0002
      114 MO     5f2+       0.0005    0.0097    0.0000    0.0002
      115 MO     6f2+      -0.0004   -0.0096   -0.0000   -0.0002
      116 MO     7f2+       0.0003    0.0086    0.0000    0.0001
      117 MO     8f2+       0.0002    0.0052    0.0000    0.0001
      118 MO     9f2+      -0.0006   -0.0210   -0.0000   -0.0002
      119 MO     4f3+       0.0047    0.0000    0.0000    0.0089
      120 MO     5f3+       0.0055    0.0000    0.0000    0.0105
      121 MO     6f3+      -0.0054    0.0000    0.0000   -0.0105
      122 MO     7f3+       0.0049   -0.0001   -0.0000    0.0094
      123 MO     8f3+       0.0030   -0.0001   -0.0000    0.0056
      124 MO     9f3+      -0.0121    0.0004    0.0000   -0.0229
      125 MO     5g4-      -0.0000   -0.0000    0.0001    0.0000
      126 MO     6g4-       0.0000   -0.0000    0.0000    0.0000
      127 MO     7g4-       0.0000    0.0000   -0.0002    0.0000
      128 MO     8g4-      -0.0000   -0.0000    0.0004   -0.0000
      129 MO     5g3-       0.0000    0.0000   -0.0004    0.0000
      130 MO     6g3-       0.0000   -0.0000    0.0003    0.0000
      131 MO     7g3-      -0.0000    0.0000   -0.0002   -0.0000
      132 MO     8g3-       0.0000   -0.0000    0.0002    0.0000
      133 MO     5g2-       0.0000    0.0000   -0.0000   -0.0000
      134 MO     6g2-      -0.0000    0.0000   -0.0000    0.0000
      135 MO     7g2-      -0.0000   -0.0000    0.0001    0.0000
      136 MO     8g2-       0.0000    0.0000   -0.0002   -0.0000
      137 MO     5g1-      -0.0000   -0.0000    0.0003    0.0000
      138 MO     6g1-       0.0000    0.0000   -0.0002    0.0000
      139 MO     7g1-       0.0000   -0.0000    0.0002    0.0000
      140 MO     8g1-      -0.0000    0.0000   -0.0002    0.0000
      141 MO     5g0        0.0000   -0.0001   -0.0000   -0.0002
      142 MO     6g0       -0.0000    0.0001    0.0000    0.0003
      143 MO     7g0        0.0001   -0.0001   -0.0000   -0.0003
      144 MO     8g0       -0.0001    0.0000    0.0000    0.0004
      145 MO     5g1+      -0.0001   -0.0001   -0.0000    0.0001
      146 MO     6g1+       0.0000   -0.0000   -0.0000   -0.0001
      147 MO     7g1+      -0.0000    0.0002    0.0000    0.0000
      148 MO     8g1+      -0.0000   -0.0003   -0.0000   -0.0000
      149 MO     5g2+       0.0000    0.0003    0.0000    0.0003
      150 MO     6g2+       0.0000   -0.0003   -0.0000   -0.0004
      151 MO     7g2+      -0.0001    0.0002    0.0000    0.0005
      152 MO     8g2+       0.0001   -0.0001   -0.0000   -0.0005
      153 MO     5g3+       0.0000    0.0001    0.0000    0.0001
      154 MO     6g3+      -0.0000    0.0000    0.0000   -0.0001
      155 MO     7g3+      -0.0000   -0.0002   -0.0000    0.0000
      156 MO     8g3+       0.0000    0.0003    0.0000    0.0000
      157 MO     5g4+       0.0000    0.0003    0.0000   -0.0004
      158 MO     6g4+       0.0000   -0.0003   -0.0000    0.0005
      159 MO     7g4+      -0.0001    0.0002    0.0000   -0.0006
      160 MO     8g4+       0.0001   -0.0001   -0.0000    0.0007
      161 MO     6h5-       0.0000   -0.0000    0.0002   -0.0000
      162 MO     7h5-      -0.0000    0.0000   -0.0002    0.0000
      163 MO     6h4-       0.0000    0.0000   -0.0002   -0.0000
      164 MO     7h4-      -0.0000   -0.0000    0.0002    0.0000
      165 MO     6h3-      -0.0000    0.0000   -0.0001   -0.0000
      166 MO     7h3-       0.0000   -0.0000    0.0001    0.0000
      167 MO     6h2-      -0.0000   -0.0000    0.0002    0.0000
      168 MO     7h2-       0.0000    0.0000   -0.0002   -0.0000
      169 MO     6h1-      -0.0000   -0.0000    0.0000   -0.0000
      170 MO     7h1-       0.0000    0.0000   -0.0000    0.0000
      171 MO     6h0       -0.0000    0.0001    0.0000   -0.0001
      172 MO     7h0        0.0000   -0.0001   -0.0000    0.0001
      173 MO     6h1+      -0.0001   -0.0001   -0.0000    0.0001
      174 MO     7h1+       0.0001    0.0001    0.0000   -0.0001
      175 MO     6h2+      -0.0000   -0.0001   -0.0000    0.0000
      176 MO     7h2+       0.0000    0.0001    0.0000   -0.0000
      177 MO     6h3+       0.0001    0.0002    0.0000   -0.0001
      178 MO     7h3+      -0.0001   -0.0002   -0.0000    0.0001
      179 MO     6h4+      -0.0000    0.0001    0.0000    0.0001
      180 MO     7h4+       0.0000   -0.0001   -0.0000   -0.0001
      181 MO     6h5+       0.0001    0.0002    0.0000    0.0001
      182 MO     7h5+      -0.0001   -0.0002   -0.0000   -0.0001
--


++    Molecular charges:
      ------------------

      Mulliken charges per centre and basis function type
      ---------------------------------------------------

                MO    
      1s       2.0000
      2s       2.0000
      2px      1.9999
      2pz      1.9999
      2py      1.9999
      3s       1.9546
      3px      1.8926
      3pz      1.9144
      3py      1.9145
      4s       0.0199
      3d2+     0.0388
      3d1+     0.0299
      3d0      0.0129
      3d1-     0.0000
      3d2-     0.0298
      4px      0.0218
      4pz      0.0216
      4py      0.0216
      5s       0.0009
      4d2+     0.0001
      4d1+     0.0001
      4d0      0.0000
      4d1-     0.0000
      4d2-     0.0001
      5px      0.0022
      5pz      0.0022
      5py      0.0022
      6s       0.0013
      4f3+     0.0000
      4f2+     0.0000
      4f1+     0.0000
      4f0      0.0000
      4f1-     0.0000
      4f2-     0.0000
      4f3-     0.0000
      5d2+     0.0001
      5d1+     0.0001
      5d0      0.0000
      5d1-     0.0000
      5d2-     0.0001
      6px      0.0120
      6pz      0.0118
      6py      0.0118
      7s       0.0097
      5f3+     0.0000
      5f2+     0.0000
      5f1+     0.0000
      5f0      0.0000
      5f1-     0.0000
      5f2-     0.0000
      5f3-     0.0000
      6d2+     0.0001
      6d1+     0.0000
      6d0      0.0000
      6d1-     0.0000
      6d2-     0.0000
      7px      0.0077
      7pz      0.0075
      7py      0.0075
      5g4+     0.0000
      5g3+     0.0000
      5g2+     0.0000
      5g1+     0.0000
      5g0      0.0000
      5g1-     0.0000
      5g2-     0.0000
      5g3-     0.0000
      5g4-     0.0000
      6f3+     0.0000
      6f2+     0.0000
      6f1+     0.0000
      6f0      0.0000
      6f1-     0.0000
      6f2-     0.0000
      6f3-     0.0000
      6g4+     0.0000
      6g3+     0.0000
      6g2+     0.0000
      6g1+     0.0000
      6g0      0.0000
      6g1-     0.0000
      6g2-     0.0000
      6g3-     0.0000
      6g4-     0.0000
      6h5+     0.0000
      6h4+     0.0000
      6h3+     0.0000
      6h2+     0.0000
      6h1+     0.0000
      6h0      0.0000
      6h1-     0.0000
      6h2-     0.0000
      6h3-     0.0000
      6h4-     0.0000
      6h5-     0.0000
      7d2+     0.0000
      7d1+     0.0000
      7d0      0.0000
      7d1-     0.0000
      7d2-     0.0000
      7f3+     0.0000
      7f2+     0.0000
      7f1+     0.0000
      7f0      0.0000
      7f1-     0.0000
      7f2-     0.0000
      7f3-     0.0000
      7g4+     0.0000
      7g3+     0.0000
      7g2+     0.0000
      7g1+     0.0000
      7g0      0.0000
      7g1-     0.0000
      7g2-     0.0000
      7g3-     0.0000
      7g4-     0.0000
      7h5+     0.0000
      7h4+     0.0000
      7h3+     0.0000
      7h2+     0.0000
      7h1+     0.0000
      7h0      0.0000
      7h1-     0.0000
      7h2-     0.0000
      7h3-     0.0000
      7h4-     0.0000
      7h5-     0.0000
      8s       0.0057
      8px      0.0078
      8pz      0.0075
      8py      0.0075
      8d2+     0.0000
      8d1+     0.0000
      8d0      0.0000
      8d1-     0.0000
      8d2-     0.0000
      8f3+     0.0000
      8f2+     0.0000
      8f1+     0.0000
      8f0      0.0000
      8f1-     0.0000
      8f2-     0.0000
      8f3-     0.0000
      8g4+     0.0000
      8g3+     0.0000
      8g2+     0.0000
      8g1+     0.0000
      8g0      0.0000
      8g1-     0.0000
      8g2-     0.0000
      8g3-     0.0000
      8g4-     0.0000
      9s       0.0044
      9px      0.0043
      9pz      0.0041
      9py      0.0041
      9d2+     0.0000
      9d1+     0.0000
      9d0      0.0000
      9d1-     0.0000
      9d2-     0.0000
      9f3+     0.0000
      9f2+     0.0000
      9f1+     0.0000
      9f0      0.0000
      9f1-     0.0000
      9f2-     0.0000
      9f3-     0.0000
     10s       0.0021
     10px      0.0009
     10pz      0.0009
     10py      0.0009
     10d2+     0.0000
     10d1+     0.0000
     10d0      0.0000
     10d1-     0.0000
     10d2-     0.0000
     11d2+     0.0000
     11d1+     0.0000
     11d0      0.0000
     11d1-     0.0000
     11d2-     0.0000
      Total   18.0000

      N-E     24.0000

      Total electronic charge=   18.000000

      Total            charge=   24.000000
--

 Sorry, Molden does not know how to handle
 functions with angular momentum larger than g

++    Static properties:
      ------------------


      LoProp Charges per center


                   MO    
      Nuclear     42.0000
      Electronic -18.0000

      Total       24.0000
--


++    Molecular properties:
      ---------------------

      Charge (e):
                      =   24.0000
      Dipole Moment (Debye):
      Origin of the operator (Ang)=    0.0000    0.0000    0.0000
                   X= -7.5041E-01               Y= -1.9043E-13               Z=  5.3231E-01           Total=  9.2004E-01
      Center of Charge (Ang)
                     X=   -0.00650962               Y=   -0.00000000               Z=    0.00461770
      Quadrupole Moment (Debye*Ang):
      Origin of the operator (Ang)=   -0.0000   -0.0000    0.0046
                  XX= -6.7755E-01              XY=  4.2722E-16              XZ=  6.6104E-05              YY= -6.8279E-01
                  YZ=  6.6052E-16              ZZ= -6.8279E-01
      In traceless form (Debye*Ang)
                  XX=  5.2385E-03              XY=  6.4082E-16              XZ=  9.9156E-05              YY= -2.6175E-03
                  YZ=  9.9078E-16              ZZ= -2.6210E-03
--

 Sorry, Molden does not know how to handle
 functions with angular momentum larger than g
 ###############################################################################
 ###############################################################################
 ###                                                                         ###
 ###                                                                         ###
 ###    WARNING: RunFile label nBas                                          ###
 ###    was used       62 times                                              ###
 ###                                                                         ###
 ###                                                                         ###
 ###############################################################################
 ###############################################################################
Note: The following floating-point exceptions are signalling: IEEE_UNDERFLOW_FLAG IEEE_DENORMAL
--- Stop Module: scf at Tue Mar 25 17:57:30 2025 /rc=_RC_ALL_IS_WELL_ ---
*** files: molybdenum_so_cf.LprOrb molybdenum_so_cf.ScfOrb xmldump
    saved to directory /home4/s4752295/Internship/Initial_simulations/Point_charge_model/1_electron/Madelung_charges_9_active_space/Mo
--- Module scf spent 9 seconds ---

*** symbolic link created: INPORB -> molybdenum_so_cf.ScfOrb
--- Start Module: rasscf at Tue Mar 25 17:57:30 2025 ---

()()()()()()()()()()()()()()()()()()()()()()()()()()()()()()()()()()()()()()()()()()()()()()()()()()

                                              &RASSCF

                                   only a single process is used
                       available to each process: 4.1 GB of memory, 1 thread?
                                            pid: 1257877
()()()()()()()()()()()()()()()()()()()()()()()()()()()()()()()()()()()()()()()()()()()()()()()()()()


      Header of the ONEINT file:
      --------------------------
      
      Integrals generated by seward 4.2.0  , Tue Mar 25 17:57:09 2025


      OrdInt status: non-squared


      Cartesian coordinates in Angstrom:
      -----------------------------------------------------
      No.  Label        X            Y            Z        
      -----------------------------------------------------
       1   MO        -0.00000000  -0.00000000   0.00463220
      -----------------------------------------------------
      Nuclear repulsion energy = -960.63921058

++    Wave function specifications:
      -----------------------------

      Number of closed shell electrons          18
      Number of electrons in active shells       1
      Max number of holes in RAS1 space          0
      Max nr of electrons in RAS3 space          0
      Number of inactive orbitals                9
      Number of active orbitals                  9
      Number of secondary orbitals             164
      Spin quantum number                      0.5
      State symmetry                             1
--

++    Orbital specifications:
      -----------------------

[...]
         2    6       2.31739169E-05  1.15671369E-18  1.68664670E+04  1.17240990E-13  1.68664670E+04
         2    8       2.32196457E-05  5.76098440E+01  1.18221495E-13  1.69374437E+04  1.69950536E+04
         2   12       2.83054485E-05  8.98929102E-13  1.73494989E+08  3.74448629E-10  1.73494989E+08
         2   14       7.72018898E-03  6.93370015E-09  6.25852485E+10  1.64989329E-07  6.25852485E+10
         2   16       8.19877674E-03  3.03579352E+09  1.66979036E-07  6.35219575E+10  6.65577510E+10
         2   18       3.89177717E-05  7.37564028E-12  3.68262508E+08  6.69661516E-10  3.68262508E+08
         3    5       2.32447803E-05  2.97927585E+01  1.16713133E-13  1.68443139E+04  1.68741066E+04
         3    7       2.31093759E-05  4.57151431E-17  1.68705409E+04  1.17709255E-13  1.68705409E+04
         3   11       2.30253179E-05  7.85557450E+05  4.64699819E-10  1.40341482E+08  1.41127040E+08
         3   13       7.97369310E-03  2.43611840E+09  1.66082652E-07  6.22026201E+10  6.46387385E+10
         3   15       7.75236733E-03  8.61290554E-09  6.29322464E+10  1.68659405E-07  6.29322464E+10
         3   17       2.65281867E-05  5.59294861E+06  1.01659540E-09  2.45426405E+08  2.51019354E+08
         4    6       2.32447803E-05  2.97927585E+01  1.16713133E-13  1.68443139E+04  1.68741066E+04
         4    8       2.31093759E-05  4.57151431E-17  1.68705409E+04  1.17709255E-13  1.68705409E+04
         4   12       2.30253179E-05  7.85557450E+05  4.64699819E-10  1.40341482E+08  1.41127040E+08
         4   14       7.97369310E-03  2.43611840E+09  1.66082652E-07  6.22026201E+10  6.46387385E+10
         4   16       7.75236733E-03  8.61290554E-09  6.29322464E+10  1.68659405E-07  6.29322464E+10
         4   18       2.65281867E-05  5.59294861E+06  1.01659540E-09  2.45426405E+08  2.51019354E+08
         5   11       3.25875802E-03  1.50953204E+06  1.77532463E-08  1.95397303E+10  1.95412398E+10
         5   13       2.93345608E-02  2.32580909E+11  5.36150172E-10  7.40349837E+08  2.33321258E+11
         5   15       1.00482462E-04  2.34401944E-07  8.00343283E+08  5.29279028E-10  8.00343283E+08
         6   12       3.25875802E-03  1.50953204E+06  1.77532463E-08  1.95397303E+10  1.95412398E+10
         6   14       2.93345608E-02  2.32580909E+11  5.36150172E-10  7.40349837E+08  2.33321258E+11
         6   16       1.00482462E-04  2.34401944E-07  8.00343283E+08  5.29279028E-10  8.00343283E+08
         7   11       3.18562540E-03  3.00895186E-14  1.91015127E+10  1.81352896E-08  1.91015127E+10
         7   13       8.58277570E-05  2.36293391E-07  6.82620123E+08  5.81119288E-10  6.82620123E+08
         7   15       2.90022449E-02  2.30320543E+11  6.49404292E-10  6.70040472E+08  2.30990583E+11
         8   12       3.18562540E-03  3.00895186E-14  1.91015127E+10  1.81352896E-08  1.91015127E+10
         8   14       8.58277570E-05  2.36293391E-07  6.82620123E+08  5.81119288E-10  6.82620123E+08
         8   16       2.90022449E-02  2.30320543E+11  6.49404292E-10  6.70040472E+08  2.30990583E+11
         9   11       7.99696401E-03  4.73238673E+10  2.27034815E-13  1.67283253E+06  4.73255401E+10
         9   13       9.89064448E-05  1.97534027E+07  3.33885689E-12  7.57972525E+08  7.77725928E+08
         9   15       1.18124391E-04  3.85936064E-12  9.30157298E+08  6.50371076E-13  9.30157298E+08
         9   17       3.28510331E-02  3.02202060E+11  9.83205286E-17  7.96902357E+06  3.02210029E+11
        10   12       7.99696401E-03  4.73238673E+10  2.27034815E-13  1.67283253E+06  4.73255401E+10
        10   14       9.89064448E-05  1.97534027E+07  3.33885689E-12  7.57972525E+08  7.77725928E+08
        10   16       1.18124391E-04  3.85936064E-12  9.30157298E+08  6.50371076E-13  9.30157298E+08
        10   18       3.28510331E-02  3.02202060E+11  9.83205286E-17  7.96902357E+06  3.02210029E+11
        11   13       1.88780467E-01  1.70953332E+02  5.12043811E-11  2.60494006E+10  2.60494007E+10
        11   15       1.88632572E-01  2.07417063E-16  2.63080032E+10  5.22651006E-11  2.63080032E+10
        11   17       1.08106336E-01  3.89663878E+10  2.04671003E-17  5.45711144E+04  3.89664423E+10
        12   14       1.88780467E-01  1.70953332E+02  5.12043811E-11  2.60494006E+10  2.60494007E+10
        12   16       1.88632572E-01  2.07417063E-16  2.63080032E+10  5.22651006E-11  2.63080032E+10
        12   18       1.08106336E-01  3.89663878E+10  2.04671003E-17  5.45711144E+04  3.89664423E+10
        13   15       1.43323003E-05  3.24988551E-22  5.65071822E+01  4.09474297E-19  5.65071822E+01
        13   17       4.52564241E-02  6.99071611E+04  4.87633318E-12  2.37123383E+09  2.37130374E+09
        14   16       1.43323003E-05  3.24988551E-22  5.65071822E+01  4.09474297E-19  5.65071822E+01
        14   18       4.52564241E-02  6.99071611E+04  4.87633318E-12  2.37123383E+09  2.37130374E+09
        15   17       4.66459696E-02  6.78907647E-17  2.40189325E+09  4.56816303E-12  2.40189325E+09
        16   18       4.66459696E-02  6.78907647E-17  2.40189325E+09  4.56816303E-12  2.40189325E+09
     -----------------------------------------------------------------------------------------------
--

++ Velocity transition strengths (SO states):
   ------------------------------------------
    for osc. strength at least    1.0000000000000001E-005

      From   To        Osc. strength     Einstein coefficients Ax, Ay, Az (sec-1)    Total A (sec-1)
     -----------------------------------------------------------------------------------------------
         1    3       3.80104528E-05  3.49488478E-20  4.67067503E-02  3.88232401E-19  4.67067503E-02
         1    5       1.05490330E-03  2.01351470E-16  7.67783605E+05  5.28155901E-12  7.67783605E+05
         1    7       1.04932233E-03  2.80793149E+01  5.27348561E-12  7.68000484E+05  7.68028564E+05
         1   11       2.27322818E-05  7.02046897E-13  1.39335390E+08  2.95460608E-10  1.39335390E+08
         1   13       7.35066358E-03  5.44186353E-09  5.95898245E+10  1.57233308E-07  5.95898245E+10
         1   15       7.73734983E-03  2.37703247E+09  1.59000893E-07  6.04350687E+10  6.28121012E+10
         1   17       3.13074582E-05  5.52976480E-12  2.96250341E+08  5.34566697E-10  2.96250341E+08
         2    4       3.80104528E-05  3.49488478E-20  4.67067503E-02  3.88232401E-19  4.67067503E-02
         2    6       1.05490330E-03  2.01351470E-16  7.67783605E+05  5.28155901E-12  7.67783605E+05
         2    8       1.04932233E-03  2.80793149E+01  5.27348561E-12  7.68000484E+05  7.68028564E+05
         2   12       2.27322818E-05  7.02046897E-13  1.39335390E+08  2.95460608E-10  1.39335390E+08
         2   14       7.35066358E-03  5.44186353E-09  5.95898245E+10  1.57233308E-07  5.95898245E+10
         2   16       7.73734983E-03  2.37703247E+09  1.59000893E-07  6.04350687E+10  6.28121012E+10
         2   18       3.13074582E-05  5.52976480E-12  2.96250341E+08  5.34566697E-10  2.96250341E+08
         3    5       1.05229267E-03  5.57519707E+01  5.24949983E-12  7.63838775E+05  7.63894527E+05
         3    7       1.05428650E-03  1.87626412E-16  7.69663598E+05  5.24744212E-12  7.69663598E+05
         3   11       1.81773872E-05  6.01858945E+05  3.78237121E-10  1.10811576E+08  1.11413435E+08
         3   13       7.54420253E-03  1.89031135E+09  1.58067413E-07  5.92669747E+10  6.11572861E+10
         3   15       7.38383257E-03  6.75631599E-09  5.99407596E+10  1.60419311E-07  5.99407596E+10
         3   17       2.05062838E-05  4.25480138E+06  8.28655617E-10  1.89783791E+08  1.94038592E+08
         4    6       1.05229267E-03  5.57519707E+01  5.24949983E-12  7.63838775E+05  7.63894527E+05
         4    8       1.05428650E-03  1.87626412E-16  7.69663598E+05  5.24744212E-12  7.69663598E+05
         4   12       1.81773872E-05  6.01858945E+05  3.78237121E-10  1.10811576E+08  1.11413435E+08
         4   14       7.54420253E-03  1.89031135E+09  1.58067413E-07  5.92669747E+10  6.11572861E+10
         4   16       7.38383257E-03  6.75631599E-09  5.99407596E+10  1.60419311E-07  5.99407596E+10
         4   18       2.05062838E-05  4.25480138E+06  8.28655617E-10  1.89783791E+08  1.94038592E+08
         5    9       7.55203242E-03  9.91704422E+00  1.77139668E-12  1.95755705E+06  1.95756697E+06
         5   11       3.14119416E-03  1.43017903E+06  1.71206220E-08  1.88348999E+10  1.88363301E+10
         5   13       2.49788608E-02  1.98149741E+11  3.67186804E-10  5.27837127E+08  1.98677578E+11
         5   15       7.07240691E-05  1.99573306E-07  5.63319505E+08  3.55168408E-10  5.63319505E+08
         6   10       7.55203242E-03  9.91704422E+00  1.77139668E-12  1.95755705E+06  1.95756697E+06
         6   12       3.14119416E-03  1.43017903E+06  1.71206220E-08  1.88348999E+10  1.88363301E+10
         6   14       2.49788608E-02  1.98149741E+11  3.67186804E-10  5.27837127E+08  1.98677578E+11
         6   16       7.07240691E-05  1.99573306E-07  5.63319505E+08  3.55168408E-10  5.63319505E+08
         7    9       7.57365129E-03  3.90097652E-16  1.94468920E+06  1.77212078E-12  1.94468920E+06
         7   11       3.07909461E-03  1.77543898E-14  1.84628015E+10  1.74748211E-08  1.84628015E+10
         7   13       5.93412464E-05  2.01171244E-07  4.71964679E+08  4.13479796E-10  4.71964679E+08
         7   15       2.47208866E-02  1.96430316E+11  4.60584716E-10  4.61748531E+08  1.96892065E+11
         8   10       7.57365129E-03  3.90097652E-16  1.94468920E+06  1.77212078E-12  1.94468920E+06
         8   12       3.07909461E-03  1.77543898E-14  1.84628015E+10  1.74748211E-08  1.84628015E+10
         8   14       5.93412464E-05  2.01171244E-07  4.71964679E+08  4.13479796E-10  4.71964679E+08
         8   16       2.47208866E-02  1.96430316E+11  4.60584716E-10  4.61748531E+08  1.96892065E+11
         9   11       7.21087425E-03  4.26721622E+10  4.73006351E-13  1.49555840E+06  4.26736577E+10
         9   13       1.83389522E-04  1.60914300E+07  5.16082140E-12  1.42595092E+09  1.44204235E+09
         9   15       2.06712000E-04  4.82800894E-12  1.62773617E+09  1.62005873E-12  1.62773617E+09
         9   17       2.62707269E-02  2.41669235E+11  1.70722777E-14  6.71789601E+06  2.41675953E+11
        10   12       7.21087425E-03  4.26721622E+10  4.73006351E-13  1.49555840E+06  4.26736577E+10
        10   14       1.83389522E-04  1.60914300E+07  5.16082140E-12  1.42595092E+09  1.44204235E+09
        10   16       2.06712000E-04  4.82800894E-12  1.62773617E+09  1.62005873E-12  1.62773617E+09
        10   18       2.62707269E-02  2.41669235E+11  1.70722777E-14  6.71789601E+06  2.41675953E+11
        11   13       1.85362391E-01  5.04530953E+02  5.07029472E-11  2.55778365E+10  2.55778370E+10
        11   15       1.85167214E-01  1.38780422E-15  2.58247902E+10  5.08341188E-11  2.58247902E+10
        11   17       1.03663432E-01  3.73651082E+10  2.27822123E-16  3.95154618E+04  3.73651478E+10
        12   14       1.85362391E-01  5.04530953E+02  5.07029472E-11  2.55778365E+10  2.55778370E+10
        12   16       1.85167214E-01  1.38780422E-15  2.58247902E+10  5.08341188E-11  2.58247902E+10
        12   18       1.03663432E-01  3.73651082E+10  2.27822123E-16  3.95154618E+04  3.73651478E+10
        13   15       1.66392782E-05  1.13880027E-17  6.56030070E+01  1.70181173E-18  6.56030070E+01
        13   17       5.35834909E-02  6.37429585E+04  5.68275407E-12  2.80756360E+09  2.80762735E+09
        14   16       1.66392782E-05  1.13880027E-17  6.56030070E+01  1.70181173E-18  6.56030070E+01
        14   18       5.35834909E-02  6.37429585E+04  5.68275407E-12  2.80756360E+09  2.80762735E+09
        15   17       5.50802274E-02  7.33344149E-17  2.83619973E+09  5.52520770E-12  2.83619973E+09
        16   18       5.50802274E-02  7.33344149E-17  2.83619973E+09  5.52520770E-12  2.83619973E+09
     -----------------------------------------------------------------------------------------------
--

++ Length and velocity gauge comparison (SO states):

 --------------------------------------------------
 A comparison between the dipole oscillator strengths in 
 length and velocity gauge will be performed

 All dipole oscillator differences above the tolerance of   0.10000000000000001       will be printed 

 Due to basis set deficiency these oscillator may be problematic 

 The tolerance is defined as ABS(1-O_l/O_v) 
 O_l : dipole oscillator strength in length gauge
 O_p : dipole oscillator strength in velocity gauge
 --------------------------------------------------

  Problematic transitions have been found

      From   To       Difference (%) Osc. st. (len.) Osc. st. (vel.)
     ---------------------------------------------------------------
         1    3      --------------- below threshold  3.80104528E-05
         1    5            97.803219  2.31739169E-05  1.05490330E-03
         1    7            97.787177  2.32196457E-05  1.04932233E-03
         1   11            24.516530  2.83054485E-05  2.27322818E-05
         1   17            24.308309  3.89177717E-05  3.13074582E-05
         2    4      --------------- below threshold  3.80104528E-05
         2    6            97.803219  2.31739169E-05  1.05490330E-03
         2    8            97.787177  2.32196457E-05  1.04932233E-03
         2   12            24.516530  2.83054485E-05  2.27322818E-05
         2   18            24.308309  3.89177717E-05  3.13074582E-05
         3    5            97.791035  2.32447803E-05  1.05229267E-03
         3    7            97.808055  2.31093759E-05  1.05428650E-03
         3   11            26.670119  2.30253179E-05  1.81773872E-05
         3   17            29.366135  2.65281867E-05  2.05062838E-05
         4    6            97.791035  2.32447803E-05  1.05229267E-03
         4    8            97.808055  2.31093759E-05  1.05428650E-03
         4   12            26.670119  2.30253179E-05  1.81773872E-05
         4   18            29.366135  2.65281867E-05  2.05062838E-05
         5    9      --------------- below threshold  7.55203242E-03
         5   13            17.437545  2.93345608E-02  2.49788608E-02
         5   15            42.076754  1.00482462E-04  7.07240691E-05
         6   10      --------------- below threshold  7.55203242E-03
         6   14            17.437545  2.93345608E-02  2.49788608E-02
         6   16            42.076754  1.00482462E-04  7.07240691E-05
         7    9      --------------- below threshold  7.57365129E-03
         7   13            44.634234  8.58277570E-05  5.93412464E-05
         7   15            17.318789  2.90022449E-02  2.47208866E-02
         8   10      --------------- below threshold  7.57365129E-03
         8   14            44.634234  8.58277570E-05  5.93412464E-05
         8   16            17.318789  2.90022449E-02  2.47208866E-02
         9   11            10.901449  7.99696401E-03  7.21087425E-03
         9   13            46.067559  9.89064448E-05  1.83389522E-04
         9   15            42.855571  1.18124391E-04  2.06712000E-04
         9   17            25.048055  3.28510331E-02  2.62707269E-02
        10   12            10.901449  7.99696401E-03  7.21087425E-03
        10   14            46.067559  9.89064448E-05  1.83389522E-04
        10   16            42.855571  1.18124391E-04  2.06712000E-04
        10   18            25.048055  3.28510331E-02  2.62707269E-02
        13   15            13.864652  1.43323003E-05  1.66392782E-05
        13   17            15.540359  4.52564241E-02  5.35834909E-02
        14   16            13.864652  1.43323003E-05  1.66392782E-05
        14   18            15.540359  4.52564241E-02  5.35834909E-02
        15   17            15.312678  4.66459696E-02  5.50802274E-02
        16   18            15.312678  4.66459696E-02  5.50802274E-02
     ---------------------------------------------------------------

 Number of problematic transitions =                    44

--

 Electric-dipole - electric-octupole not included
++ Total transition strengths for the second-order expansion of the wave vector (SO states):
   -----------------------------------------------------------------------------------------
    for osc. strength at least    1.0000000000000001E-005

      From   To        Osc. strength
     -------------------------------
         1   17       1.72997385E-05
         2   18       1.72997385E-05
         3   17       1.72976325E-05
         4   18       1.72976325E-05
        11   13       1.23406309E-05
        11   15       1.24497545E-05
        12   14       1.23406309E-05
        12   16       1.24497545E-05
        13   17       1.33254328E-05
        14   18       1.33254328E-05
        15   17       1.32367721E-05
        16   18       1.32367721E-05
     -------------------------------
--

++ I/O STATISTICS
 
  I. General I/O information
  - - - - - - - - - - - - - - - - - - - - - - - - - - - - - - - - - - - - - - - - - - -
  Unit  Name          Flsize      Write/Read            MBytes           Write/Read
                      (MBytes)       Calls              In/Out           Time, sec.
  - - - - - - - - - - - - - - - - - - - - - - - - - - - - - - - - - - - - - - - - - - -
   1  SCRATCH           0.00 .       9/      45 .      0.0/      0.0 .       0/       0
   2  ANNI              0.00 .       0/       0 .      0.0/      0.0 .       0/       0
   3  RUNFILE          14.92 .     322/   10733 .      2.3/     77.8 .       0/       0
   4  ONEINT            5.68 .       0/   24849 .      0.0/   3743.6 .       0/       0
   5  JOBIPH            6.59 .       0/      92 .      0.0/      0.8 .       0/       0
   6  ORDINT          529.03 .       1/    4233 .      0.0/   1058.0 .       0/       0
  - - - - - - - - - - - - - - - - - - - - - - - - - - - - - - - - - - - - - - - - - - -
   *  TOTAL           556.23 .     332/   39952 .      2.3/   4880.2 .       0/       0
  - - - - - - - - - - - - - - - - - - - - - - - - - - - - - - - - - - - - - - - - - - -
 
  II. I/O Access Patterns
  - - - - - - - - - - - - - - - - - - - -
  Unit  Name               % of random
                         Write/Read calls
  - - - - - - - - - - - - - - - - - - - -
   1  SCRATCH             88.9/ 100.0
   2  ANNI                 0.0/   0.0
   3  RUNFILE             28.6/  10.8
   4  ONEINT               0.0/  15.5
   5  JOBIPH               0.0/  76.1
   6  ORDINT             100.0/   0.0
  - - - - - - - - - - - - - - - - - - - -
--
--- Stop Module: rassi at Tue Mar 25 17:58:14 2025 /rc=_RC_ALL_IS_WELL_ ---
*** files: xmldump
    saved to directory /home4/s4752295/Internship/Initial_simulations/Point_charge_model/1_electron/Madelung_charges_9_active_space/Mo
--- Module rassi spent 5 seconds ---

.##################.
.# Happy landing! #.
.##################.

    Timing: Wall=64.54 User=51.02 System=8.97

###############################################################################
Hbrk Cluster
Job 15900839 for user s4752295
Finished at: Tue Mar 25 17:58:19 CET 2025

Job details:
============

Job ID                         : 15900839
Name                           : Mo_no_SO
User                           : s4752295
Partition                      : regularmedium
Nodes                          : node99
Number of Nodes                : 1
Cores                          : 1
Number of Tasks                : 1
State                          : COMPLETED  
Submit                         : 2025-03-25T17:56:31
Start                          : 2025-03-25T17:57:03
End                            : 2025-03-25T17:58:15
Reserved walltime              : 15:00:00
Used walltime                  : 00:01:12
Used CPU time                  : 00:01:01 (Efficiency: 85.18%)
% User (Computation)           : 85.01%
% System (I/O)                 : 14.99%
Total memory reserved          : 25000M
Maximum memory used            : 2.12G

Acknowledgements:
=================

Please see this page for information about acknowledging Hbrk in your publications:

https://wiki.hpc.rug.nl/habrok/introduction/scientific_output

################################################################################
