   This run of MOLCAS is using the pymolcas driver

                             OPE
                             OPE          NMOL  CASOP  ENMOLC A   SO
                 OPE        NMOLC        AS  OP EN  MO LC     AS  OP
                OPENM       OL CA        SO  PE NM  OL CA     SOP EN
                OP EN      MO   LC       AS  OP ENMOL  CASO   PENMOL
                OP  EN     MO   LC       AS  OP EN     MO     LC ASO
               OP   E  NMOL  C  AS       OP  EN MO     LC     AS  OP
               OP  E   NMO   LC AS        OPEN  MO     LCASOP EN   M
               O  PEN   MO  LCA  SO
            OPE   NMO   L   CAS    OP
        OPENMOL  CASOP     ENMOL   CASOPE
     OPENMOLCA   SOPENMOLCASOPEN   MOLCASOPE
    OPENMOLCAS   OP           EN   MOL    CAS
    OPENMOLCAS       OP  ENM        O     LCA
    OPENMOLCAS    OPEN  MOLCASO     P  E  NMO
    OPENMOLCAS     OP               E  N  MOL
    OPENMOLCA   SO           PENM   O  L  CAS    OPEN    MO    LCAS
    OPENMOLCA   SOP           ENM   O  L  CAS   OP  EN  MOLC  AS   O
    OPENMOLCA   SOPE           NM      O  LCA   S      OP  EN MO
    OPENMOLC                AS         O  PEN   M      OL  CA  SOPE
    OPENMO        LCASOPE  NMOL        C  ASO   P      ENMOLC     AS
    OPE     NMO      LCA  SO     P     E   NM   OL  CA SO  PE N   MO
          OPENMOLCA            SOPE   NMO        LCAS  O    P  ENMO
     OPENMOLCASOPENMOLCASOPENMOLCASOPENMOLCA
        OPENMOLCASOPENMOLCASOPENMOLCASOPE
            OPENMOLCASOPENMOLCASOPENM
               OPENMOLCASOPENMOLCA        version: o91e1abe7de707b ?
                   OPENMOLCASO
                       OPE                tag:

 OpenMolcas is free software; you can redistribute it and/or modify it
 under the terms of the GNU Lesser General Public License version 2.1.
 OpenMolcas is distributed in the hope that it will be useful, but it
 is provided "as is" and without any express or implied warranties.
 For more details see the full text of the license in the file
 LICENSE or in <http://www.gnu.org/licenses/>.

                 Copyright (C) The OpenMolcas Authors
           For the author list and the recommended citation,
                   consult the file CONTRIBUTORS.md

           *************************************************
           * pymolcas version py2.10                       *
           *   build 3068ae8b88c9345ec6cfef6fef7f1169      *
           *   (after the EMIL interpreter by V. Veryazov) *
           *************************************************

configuration info
------------------
Host name: login1 (Linux)
C Compiler ID: GNU
C flags: -std=gnu99
Fortran Compiler ID: GNU
Fortran flags: -fno-aggressive-loop-optimizations -cpp -fdefault-integer-8 -fmax-stack-var-size=1048576
Definitions: _MOLCAS_;_I8_;_LINUX_;_MKL_
Parallel: OFF (GA=OFF)


   -----------------------------------------------------------------------------------------------------------------------------------
  |
  |           Project: niobium_so_cf
  |    Submitted from: /home4/s4752295/Internship/Initial_simulations/Point_charge_model/1_electron/Madelung_charges_9_active_space/Nb
  |      Scratch area: /tmp/niobium_so_cf
  |   Save outputs to: /home4/s4752295/Internship/Initial_simulations/Point_charge_model/1_electron/Madelung_charges_9_active_space/Nb
  |            Molcas: /home4/s4752295/Internship/Molcas/recomp_try/OpenMolcas-master/build
  |
  | Scratch area is empty
  |
  |    MOLCAS_DRIVER = /home4/s4752295/Internship/Molcas/bin/pymolcas
  |    MOLCAS_NPROCS = 1
  |    MOLCAS_SOURCE = /home4/s4752295/Internship/Molcas/recomp_try/OpenMolcas-master
  | MOLCAS_STRUCTURE = 0
  |
   -----------------------------------------------------------------------------------------------------------------------------------

++ ---------   Input file   ---------

&SEWARD
AMFi

CLIG
$R

Basis Set
Nb.ANO-rcc.Roos.21s18p13d6f4g2h.10s9p8d5f4g2h.
Spherical d
Nb            -1.0658140267135469e-14   -3.5527134223784897e-15 0.008753588724385739
End of Basis

Xfield

414
-4.402421188,-1.6940000000000002,0.9780309      -0.625931
-4.402421188,-0.0,-1.9560629    -0.625931
-4.402421188,1.6940000000000002,0.9780309       -0.625931
-4.394880677000001,0.0,0.0      1.892092
2.9250976590000004,-1.6940000000000002,-0.9780309       2.515516
2.9250976590000004,0.0,1.9560629        2.515516
2.9250976590000004,1.6940000000000002,-0.9780309        2.515516
3.9192871080000002,-3.3880000000000003,0.0      0.004632
3.9192871080000002,-1.6940000000000002,-2.9340938000000003      0.004632
3.9192871080000002,-1.6940000000000002,2.9340938000000003       0.004632
3.9192871080000002,1.6940000000000002,-2.9340938000000003       0.004632
3.9192871080000002,1.6940000000000002,2.9340938000000003        0.004632
3.9192871080000002,3.3880000000000003,0.0       0.004632
4.542065429000001,-1.6940000000000002,0.9780309 -2.519484
4.542065429000001,-0.0,-1.9560629       -2.519484
4.542065429000001,1.6940000000000002,0.9780309  -2.519484
-3.2264160170000005,-0.0,-0.0   -3.142907
-5.472607426000001,-3.3880000000000003,-1.9560629       -0.625931
-5.472607426000001,0.0,3.9121247000000006       -0.625931
-5.472607426000001,3.3880000000000003,-1.9560629        -0.625931
-7.2703125,-3.3880000000000003,0.0      1.892092
-7.2703125,-1.6940000000000002,-2.9340938000000003      1.892092
-7.2703125,-1.6940000000000002,2.9340938000000003       1.892092
-7.2703125,1.6940000000000002,-2.9340938000000003       1.892092
-7.2703125,1.6940000000000002,2.9340938000000003        1.892092
-7.2703125,3.3880000000000003,0.0       1.892092
27.689062500000002,-3.3880000000000003,1.9560629        2.515516
27.689062500000002,-0.0,-3.9121247000000006     2.515516
27.689062500000002,3.3880000000000003,1.9560629 2.515516
4.002539068,-3.3880000000000003,-1.9560629      -2.519484
4.002539068,0.0,3.9121247000000006      -2.519484
4.002539068,3.3880000000000003,-1.9560629       -2.519484
-3.5556640680000005,-3.3880000000000003,-0.0    -3.142907
-3.5556640680000005,-1.6940000000000002,-2.9340938000000003     -3.142907
-3.5556640680000005,-1.6940000000000002,2.9340938000000003      -3.142907
-3.5556640680000005,1.6940000000000002,-2.9340938000000003      -3.142907
-3.5556640680000005,1.6940000000000002,2.9340938000000003       -3.142907
-3.5556640680000005,3.3880000000000003,-0.0     -3.142907
-10.47578125,-3.3880000000000003,3.9121247000000006     -0.625931
-10.47578125,3.3880000000000003,3.9121247000000006      -0.625931
-10.47578125,-5.082000000000001,0.9780309       -0.625931
-10.47578125,5.082000000000001,0.9780309        -0.625931
-10.47578125,-1.6940000000000002,-4.8901567     -0.625931
-10.47578125,1.6940000000000002,-4.8901567      -0.625931
6.608593750000001,-1.6940000000000002,-0.9780309        4.409069
6.608593750000001,1.6940000000000002,-0.9780309 4.409069
6.608593750000001,0.0,1.9560629 4.409069
-192.775,-0.0,-0.0      -5.030367
-192.775,0.0,0.0        5.039632
14.869335932,-3.3880000000000003,-3.9121247000000006    2.515516
14.869335932,3.3880000000000003,-3.9121247000000006     2.515516
14.869335932,-5.082000000000001,-0.9780309      2.515516
14.869335932,5.082000000000001,-0.9780309       2.515516
14.869335932,-1.6940000000000002,4.8901567      2.515516
14.869335932,1.6940000000000002,4.8901567       2.515516
20.942968750000002,-5.082000000000001,-2.9340938000000003       0.004632
20.942968750000002,-5.082000000000001,2.9340938000000003        0.004632
20.942968750000002,5.082000000000001,-2.9340938000000003        0.004632
20.942968750000002,5.082000000000001,2.9340938000000003 0.004632
20.942968750000002,-0.0,-5.868187600000001      0.004632
20.942968750000002,0.0,5.868187600000001        0.004632
52.885937500000004,-3.3880000000000003,3.9121247000000006       -2.519484
52.885937500000004,3.3880000000000003,3.9121247000000006        -2.519484
52.885937500000004,-5.082000000000001,0.9780309 -2.519484
52.885937500000004,5.082000000000001,0.9780309  -2.519484
52.885937500000004,-1.6940000000000002,-4.8901567       -2.519484
52.885937500000004,1.6940000000000002,-4.8901567        -2.519484
-160.4625,-5.082000000000001,-2.9340938000000003        1.892092
-160.4625,-5.082000000000001,2.9340938000000003 1.892092
-160.4625,5.082000000000001,-2.9340938000000003 1.892092
-160.4625,5.082000000000001,2.9340938000000003  1.892092
-160.4625,-0.0,-5.868187600000001       1.892092
-160.4625,0.0,5.868187600000001 1.892092
-129.525,-3.3880000000000003,1.9560629  4.409069
-129.525,-0.0,-3.9121247000000006       4.409069
-129.525,3.3880000000000003,1.9560629   4.409069
-97.9,-3.3880000000000003,-0.0  -5.030367
-97.9,-1.6940000000000002,-2.9340938000000003   -5.030367
-97.9,-1.6940000000000002,2.9340938000000003    -5.030367
-97.9,1.6940000000000002,-2.9340938000000003    -5.030367
-97.9,-3.3880000000000003,0.0   5.039632
-97.9,3.3880000000000003,-0.0   -5.030367
-97.9,1.6940000000000002,2.9340938000000003     -5.030367
-97.9,-1.6940000000000002,-2.9340938000000003   5.039632
-97.9,-1.6940000000000002,2.9340938000000003    5.039632
-97.9,1.6940000000000002,-2.9340938000000003    5.039632
-97.9,3.3880000000000003,0.0    5.039632
-97.9,1.6940000000000002,2.9340938000000003     5.039632
-51.2875,-1.6940000000000002,-0.9780309 -5.660931
-51.2875,0.0,1.9560629  -5.660931
-51.2875,1.6940000000000002,-0.9780309  -5.660931
0.9710937500000001,-6.7759989,0.0       0.004632
0.9710937500000001,-3.3880000000000003,-5.868187600000001       0.004632
0.9710937500000001,-3.3880000000000003,5.868187600000001        0.004632
0.9710937500000001,3.3880000000000003,-5.868187600000001        0.004632
0.9710937500000001,6.7759989,0.0        0.004632
0.9710937500000001,3.3880000000000003,5.868187600000001 0.004632
74.73125,-5.082000000000001,2.9340938000000003  -3.142907
74.73125,-5.082000000000001,-2.9340938000000003 -3.142907
74.73125,5.082000000000001,-2.9340938000000003  -3.142907
74.73125,5.082000000000001,2.9340938000000003   -3.142907
74.73125,-0.0,-5.868187600000001        -3.142907
74.73125,0.0,5.868187600000001  -3.142907
95.0125,-6.7759989,-1.9560629   -0.625931
95.0125,-5.082000000000001,-4.8901567   -0.625931
95.0125,-1.6940000000000002,6.846218500000001   -0.625931
95.0125,5.082000000000001,-4.8901567    -0.625931
95.0125,6.7759989,-1.9560629    -0.625931
95.0125,1.6940000000000002,6.846218500000001    -0.625931
1.3169921820000001,-6.7759989,0.0       1.892092
1.3169921820000001,-3.3880000000000003,-5.868187600000001       1.892092
1.3169921820000001,-3.3880000000000003,5.868187600000001        1.892092
1.3169921820000001,3.3880000000000003,-5.868187600000001        1.892092
1.3169921820000001,6.7759989,0.0        1.892092
1.3169921820000001,3.3880000000000003,5.868187600000001 1.892092
37.228125000000006,-3.3880000000000003,-3.9121247000000006      4.409069
37.228125000000006,3.3880000000000003,-3.9121247000000006       4.409069
37.228125000000006,-5.082000000000001,-0.9780309        4.409069
37.228125000000006,5.082000000000001,-0.9780309 4.409069
37.228125000000006,-1.6940000000000002,4.8901567        4.409069
37.228125000000006,1.6940000000000002,4.8901567 4.409069
178.64687500000002,-3.3880000000000003,1.9560629        -5.660931
178.64687500000002,-0.0,-3.9121247000000006     -5.660931
178.64687500000002,3.3880000000000003,1.9560629 -5.660931
0.37812500000000004,-6.7759989,1.9560629        2.515516
0.37812500000000004,-1.6940000000000002,-6.846218500000001      2.515516
0.37812500000000004,-5.082000000000001,4.8901567        2.515516
0.37812500000000004,1.6940000000000002,-6.846218500000001       2.515516
0.37812500000000004,6.7759989,1.9560629 2.515516
0.37812500000000004,5.082000000000001,4.8901567 2.515516
-103.60625,-6.7759989,-1.9560629        -2.519484
-103.60625,-5.082000000000001,-4.8901567        -2.519484
-103.60625,-1.6940000000000002,6.846218500000001        -2.519484
-103.60625,5.082000000000001,-4.8901567 -2.519484
-103.60625,1.6940000000000002,6.846218500000001 -2.519484
-103.60625,6.7759989,-1.9560629 -2.519484
-24.277343750000004,-6.7759989,-0.0     -3.142907
-24.277343750000004,-3.3880000000000003,-5.868187600000001      -3.142907
-24.277343750000004,-3.3880000000000003,5.868187600000001       -3.142907
-24.277343750000004,3.3880000000000003,-5.868187600000001       -3.142907
-24.277343750000004,3.3880000000000003,5.868187600000001        -3.142907
-24.277343750000004,6.7759989,-0.0      -3.142907
667.1500000000001,0.0,0.0       6.927092
355.57500000000005,-6.7759989,3.9121247000000006        -0.625931
355.57500000000005,6.7759989,3.9121247000000006 -0.625931
355.57500000000005,-0.0,-7.824250500000001      -0.625931
-5.964062500000001,-5.082000000000001,2.9340938000000003        -5.030367
-5.964062500000001,-5.082000000000001,-2.9340938000000003       -5.030367
-5.964062500000001,-5.082000000000001,2.9340938000000003        5.039632
-5.964062500000001,-5.082000000000001,-2.9340938000000003       5.039632
-5.964062500000001,5.082000000000001,-2.9340938000000003        -5.030367
-5.964062500000001,5.082000000000001,2.9340938000000003 -5.030367
-5.964062500000001,5.082000000000001,-2.9340938000000003        5.039632
-5.964062500000001,5.082000000000001,2.9340938000000003 5.039632
-5.964062500000001,-0.0,-5.868187600000001      -5.030367
-5.964062500000001,0.0,5.868187600000001        -5.030367
-5.964062500000001,-0.0,-5.868187600000001      5.039632
-5.964062500000001,0.0,5.868187600000001        5.039632
100.99375,-3.3880000000000003,-3.9121247000000006       -5.660931
100.99375,3.3880000000000003,-3.9121247000000006        -5.660931
100.99375,-5.082000000000001,-0.9780309 -5.660931
100.99375,5.082000000000001,-0.9780309  -5.660931
100.99375,-1.6940000000000002,4.8901567 -5.660931
100.99375,1.6940000000000002,4.8901567  -5.660931
330.55,-6.7759989,-3.9121247000000006   2.515516
330.55,6.7759989,-3.9121247000000006    2.515516
330.55,0.0,7.824250500000001    2.515516
-568.975,-6.7759989,3.9121247000000006  -2.519484
-568.975,6.7759989,3.9121247000000006   -2.519484
-568.975,-0.0,-7.824250500000001        -2.519484
58.91875,-3.3880000000000003,0.0        6.927092
58.91875,-1.6940000000000002,-2.9340938000000003        6.927092
58.91875,-1.6940000000000002,2.9340938000000003 6.927092
58.91875,1.6940000000000002,-2.9340938000000003 6.927092
58.91875,1.6940000000000002,2.9340938000000003  6.927092
58.91875,3.3880000000000003,0.0 6.927092
-60.775000000000006,-1.6940000000000002,0.9780309       7.550516
-60.775000000000006,0.0,-1.9560629      7.550516
-60.775000000000006,1.6940000000000002,0.9780309        7.550516
17.084375,-1.6940000000000002,-0.9780309        -7.554483
17.084375,1.6940000000000002,-0.9780309 -7.554483
17.084375,-0.0,1.9560629        -7.554483
-137.3625,-8.4699989,0.9780309  -0.625931
-137.3625,-5.082000000000001,6.846218500000001  -0.625931
-137.3625,-3.3880000000000003,-7.824250500000001        -0.625931
-137.3625,3.3880000000000003,-7.824250500000001 -0.625931
-137.3625,8.4699989,0.9780309   -0.625931
-137.3625,5.082000000000001,6.846218500000001   -0.625931
-74.18125,-6.7759989,1.9560629  4.409069
-74.18125,-5.082000000000001,4.8901567  4.409069
-74.18125,-1.6940000000000002,-6.846218500000001        4.409069
-74.18125,1.6940000000000002,-6.846218500000001 4.409069
-74.18125,5.082000000000001,4.8901567   4.409069
-74.18125,6.7759989,1.9560629   4.409069
54.071875000000006,-6.7759989,-0.0      -5.030367
54.071875000000006,-3.3880000000000003,-5.868187600000001       -5.030367
54.071875000000006,-3.3880000000000003,5.868187600000001        -5.030367
54.071875000000006,-6.7759989,0.0       5.039632
54.071875000000006,-3.3880000000000003,-5.868187600000001       5.039632
54.071875000000006,3.3880000000000003,-5.868187600000001        -5.030367
54.071875000000006,3.3880000000000003,5.868187600000001 -5.030367
54.071875000000006,6.7759989,-0.0       -5.030367
54.071875000000006,-3.3880000000000003,5.868187600000001        5.039632
54.071875000000006,3.3880000000000003,-5.868187600000001        5.039632
54.071875000000006,6.7759989,0.0        5.039632
54.071875000000006,3.3880000000000003,5.868187600000001 5.039632
198.82500000000002,-8.4699989,-0.9780309        2.515516
198.82500000000002,-5.082000000000001,-6.846218500000001        2.515516
198.82500000000002,-3.3880000000000003,7.824250500000001        2.515516
198.82500000000002,5.082000000000001,-6.846218500000001 2.515516
198.82500000000002,8.4699989,-0.9780309 2.515516
198.82500000000002,3.3880000000000003,7.824250500000001 2.515516
-25.678125,-8.4699989,-2.9340938000000003       0.004632
-25.678125,-8.4699989,2.9340938000000003        0.004632
-25.678125,-6.7759989,-5.868187600000001        0.004632
-25.678125,-6.7759989,5.868187600000001 0.004632
-25.678125,-1.6940000000000002,-8.802281400000002       0.004632
-25.678125,1.6940000000000002,-8.802281400000002        0.004632
-25.678125,-1.6940000000000002,8.802281400000002        0.004632
-25.678125,6.7759989,-5.868187600000001 0.004632
-25.678125,1.6940000000000002,8.802281400000002 0.004632
-25.678125,8.4699989,-2.9340938000000003        0.004632
-25.678125,8.4699989,2.9340938000000003 0.004632
-25.678125,6.7759989,5.868187600000001  0.004632
-157.4375,-8.4699989,0.9780309  -2.519484
-157.4375,-5.082000000000001,6.846218500000001  -2.519484
-157.4375,-3.3880000000000003,-7.824250500000001        -2.519484
-157.4375,3.3880000000000003,-7.824250500000001 -2.519484
-157.4375,8.4699989,0.9780309   -2.519484
-157.4375,5.082000000000001,6.846218500000001   -2.519484
3335.2000000000003,-0.0,-0.0    -8.177907
-127.60000000000001,-3.3880000000000003,-1.9560629      7.550516
-127.60000000000001,0.0,3.9121247000000006      7.550516
-127.60000000000001,3.3880000000000003,-1.9560629       7.550516
-663.85,-3.3880000000000003,1.9560629   -7.554483
-663.85,-0.0,-3.9121247000000006        -7.554483
-663.85,3.3880000000000003,1.9560629    -7.554483
53.79687500000001,-8.4699989,2.9340938000000003 1.892092
53.79687500000001,-8.4699989,-2.9340938000000003        1.892092
53.79687500000001,-6.7759989,-5.868187600000001 1.892092
53.79687500000001,-6.7759989,5.868187600000001  1.892092
53.79687500000001,-1.6940000000000002,-8.802281400000002        1.892092
53.79687500000001,1.6940000000000002,-8.802281400000002 1.892092
53.79687500000001,-1.6940000000000002,8.802281400000002 1.892092
53.79687500000001,6.7759989,-5.868187600000001  1.892092
53.79687500000001,1.6940000000000002,8.802281400000002  1.892092
53.79687500000001,8.4699989,-2.9340938000000003 1.892092
53.79687500000001,8.4699989,2.9340938000000003  1.892092
53.79687500000001,6.7759989,5.868187600000001   1.892092
-555.5,-6.7759989,-3.9121247000000006   4.409069
-555.5,6.7759989,-3.9121247000000006    4.409069
-555.5,0.0,7.824250500000001    4.409069
28.402343750000004,-6.7759989,1.9560629 -5.660931
28.402343750000004,-1.6940000000000002,-6.846218500000001       -5.660931
28.402343750000004,-5.082000000000001,4.8901567 -5.660931
28.402343750000004,1.6940000000000002,-6.846218500000001        -5.660931
28.402343750000004,5.082000000000001,4.8901567  -5.660931
28.402343750000004,6.7759989,1.9560629  -5.660931
-64.00625000000001,-6.7759989,-5.868187600000001        -3.142907
-64.00625000000001,-8.4699989,2.9340938000000003        -3.142907
-64.00625000000001,-8.4699989,-2.9340938000000003       -3.142907
-64.00625000000001,-6.7759989,5.868187600000001 -3.142907
-64.00625000000001,-1.6940000000000002,-8.802281400000002       -3.142907
-64.00625000000001,1.6940000000000002,-8.802281400000002        -3.142907
-64.00625000000001,-1.6940000000000002,8.802281400000002        -3.142907
-64.00625000000001,8.4699989,-2.9340938000000003        -3.142907
-64.00625000000001,6.7759989,-5.868187600000001 -3.142907
-64.00625000000001,1.6940000000000002,8.802281400000002 -3.142907
-64.00625000000001,8.4699989,2.9340938000000003 -3.142907
-64.00625000000001,6.7759989,5.868187600000001  -3.142907
71.946875,-5.082000000000001,-2.9340938000000003        6.927092
71.946875,-5.082000000000001,2.9340938000000003 6.927092
71.946875,5.082000000000001,-2.9340938000000003 6.927092
71.946875,5.082000000000001,2.9340938000000003  6.927092
71.946875,-0.0,-5.868187600000001       6.927092
71.946875,0.0,5.868187600000001 6.927092
-91.575,-3.3880000000000003,-0.0        -8.177907
-91.575,-1.6940000000000002,2.9340938000000003  -8.177907
-91.575,-1.6940000000000002,-2.9340938000000003 -8.177907
-91.575,1.6940000000000002,-2.9340938000000003  -8.177907
-91.575,3.3880000000000003,-0.0 -8.177907
-91.575,1.6940000000000002,2.9340938000000003   -8.177907
-99.996875,-3.3880000000000003,3.9121247000000006       7.550516
-99.996875,3.3880000000000003,3.9121247000000006        7.550516
-99.996875,-5.082000000000001,0.9780309 7.550516
-99.996875,5.082000000000001,0.9780309  7.550516
-99.996875,-1.6940000000000002,-4.8901567       7.550516
-99.996875,1.6940000000000002,-4.8901567        7.550516
-50.25625,-3.3880000000000003,-3.9121247000000006       -7.554483
-50.25625,3.3880000000000003,-3.9121247000000006        -7.554483
-50.25625,-5.082000000000001,-0.9780309 -7.554483
-50.25625,5.082000000000001,-0.9780309  -7.554483
-50.25625,-1.6940000000000002,4.8901567 -7.554483
-50.25625,1.6940000000000002,4.8901567  -7.554483
-550.2750000000001,0.0,9.7803123        -0.625931
-550.2750000000001,-8.4699989,-4.8901567        -0.625931
-550.2750000000001,8.4699989,-4.8901567 -0.625931
-296.725,-8.4699989,-0.9780309  4.409069
-296.725,-5.082000000000001,-6.846218500000001  4.409069
-296.725,-3.3880000000000003,7.824250500000001  4.409069
-296.725,5.082000000000001,-6.846218500000001   4.409069
-296.725,8.4699989,-0.9780309   4.409069
-296.725,3.3880000000000003,7.824250500000001   4.409069
341.4125,-6.7759989,-3.9121247000000006 -5.660931
341.4125,6.7759989,-3.9121247000000006  -5.660931
341.4125,0.0,7.824250500000001  -5.660931
645.7,-0.0,-9.7803123   2.515516
645.7,-8.4699989,4.8901567      2.515516
645.7,8.4699989,4.8901567       2.515516
-103.2625,-10.1639989,-0.0      0.004632
-103.2625,5.082000000000001,-8.802281400000002  0.004632
-103.2625,-5.082000000000001,8.802281400000002  0.004632
-103.2625,10.1639989,-0.0       0.004632
-103.2625,-5.082000000000001,-8.802281400000002 0.004632
-103.2625,5.082000000000001,8.802281400000002   0.004632
-424.32500000000005,0.0,9.7803123       -2.519484
-424.32500000000005,-8.4699989,-4.8901567       -2.519484
-424.32500000000005,8.4699989,-4.8901567        -2.519484
250.8,-6.7759989,0.0    6.927092
250.8,-3.3880000000000003,-5.868187600000001    6.927092
250.8,-3.3880000000000003,5.868187600000001     6.927092
250.8,3.3880000000000003,-5.868187600000001     6.927092
250.8,6.7759989,0.0     6.927092
250.8,3.3880000000000003,5.868187600000001      6.927092
233.06250000000003,-10.1639989,-1.9560629       -0.625931
233.06250000000003,-3.3880000000000003,9.7803123        -0.625931
233.06250000000003,-6.7759989,-7.824250500000001        -0.625931
233.06250000000003,6.7759989,-7.824250500000001 -0.625931
233.06250000000003,3.3880000000000003,9.7803123 -0.625931
233.06250000000003,10.1639989,-1.9560629        -0.625931
123.13125000000001,-10.1639989,0.0      1.892092
123.13125000000001,-5.082000000000001,-8.802281400000002        1.892092
123.13125000000001,-5.082000000000001,8.802281400000002 1.892092
123.13125000000001,5.082000000000001,-8.802281400000002 1.892092
123.13125000000001,10.1639989,0.0       1.892092
123.13125000000001,5.082000000000001,8.802281400000002  1.892092
-4.7523437500000005,-8.4699989,2.9340938000000003       -5.030367
-4.7523437500000005,-8.4699989,-2.9340938000000003      -5.030367
-4.7523437500000005,-6.7759989,-5.868187600000001       -5.030367
-4.7523437500000005,-6.7759989,5.868187600000001        -5.030367
-4.7523437500000005,-8.4699989,2.9340938000000003       5.039632
-4.7523437500000005,1.6940000000000002,-8.802281400000002       -5.030367
-4.7523437500000005,-1.6940000000000002,-8.802281400000002      -5.030367
-4.7523437500000005,-8.4699989,-2.9340938000000003      5.039632
-4.7523437500000005,-6.7759989,-5.868187600000001       5.039632
-4.7523437500000005,-1.6940000000000002,8.802281400000002       -5.030367
-4.7523437500000005,1.6940000000000002,-8.802281400000002       5.039632
-4.7523437500000005,-6.7759989,5.868187600000001        5.039632
-4.7523437500000005,-1.6940000000000002,-8.802281400000002      5.039632
-4.7523437500000005,6.7759989,-5.868187600000001        -5.030367
-4.7523437500000005,1.6940000000000002,8.802281400000002        -5.030367
-4.7523437500000005,8.4699989,-2.9340938000000003       -5.030367
-4.7523437500000005,8.4699989,2.9340938000000003        -5.030367
-4.7523437500000005,6.7759989,5.868187600000001 -5.030367
-4.7523437500000005,-1.6940000000000002,8.802281400000002       5.039632
-4.7523437500000005,6.7759989,-5.868187600000001        5.039632
-4.7523437500000005,8.4699989,-2.9340938000000003       5.039632
-4.7523437500000005,1.6940000000000002,8.802281400000002        5.039632
-4.7523437500000005,8.4699989,2.9340938000000003        5.039632
-4.7523437500000005,6.7759989,5.868187600000001 5.039632
-0.7562500000000001,-8.4699989,-0.9780309       -5.660931
-0.7562500000000001,-5.082000000000001,-6.846218500000001       -5.660931
-0.7562500000000001,-3.3880000000000003,7.824250500000001       -5.660931
-0.7562500000000001,5.082000000000001,-6.846218500000001        -5.660931
-0.7562500000000001,3.3880000000000003,7.824250500000001        -5.660931
-0.7562500000000001,8.4699989,-0.9780309        -5.660931
127.60000000000001,-1.6940000000000002,0.9780309        9.444068
127.60000000000001,0.0,-1.9560629       9.444068
127.60000000000001,1.6940000000000002,0.9780309 9.444068
56.44375,-10.1639989,1.9560629  2.515516
56.44375,-3.3880000000000003,-9.7803123 2.515516
56.44375,3.3880000000000003,-9.7803123  2.515516
56.44375,-6.7759989,7.824250500000001   2.515516
56.44375,10.1639989,1.9560629   2.515516
56.44375,6.7759989,7.824250500000001    2.515516
172.5625,-10.1639989,-1.9560629 -2.519484
172.5625,-3.3880000000000003,9.7803123  -2.519484
172.5625,-6.7759989,-7.824250500000001  -2.519484
172.5625,6.7759989,-7.824250500000001   -2.519484
172.5625,10.1639989,-1.9560629  -2.519484
172.5625,3.3880000000000003,9.7803123   -2.519484
241.5875,-10.1639989,-0.0       -3.142907
241.5875,-5.082000000000001,-8.802281400000002  -3.142907
241.5875,-5.082000000000001,8.802281400000002   -3.142907
241.5875,5.082000000000001,-8.802281400000002   -3.142907
241.5875,10.1639989,-0.0        -3.142907
241.5875,5.082000000000001,8.802281400000002    -3.142907
9.510058591,-5.082000000000001,-2.9340938000000003      -8.177907
9.510058591,-5.082000000000001,2.9340938000000003       -8.177907
9.510058591,5.082000000000001,2.9340938000000003        -8.177907
9.510058591,5.082000000000001,-2.9340938000000003       -8.177907
9.510058591,-0.0,-5.868187600000001     -8.177907
9.510058591,0.0,5.868187600000001       -8.177907
277.0625,-5.082000000000001,-4.8901567  7.550516
277.0625,-6.7759989,-1.9560629  7.550516
277.0625,-1.6940000000000002,6.846218500000001  7.550516
277.0625,5.082000000000001,-4.8901567   7.550516
277.0625,1.6940000000000002,6.846218500000001   7.550516
277.0625,6.7759989,-1.9560629   7.550516
-382.8,-5.082000000000001,4.8901567     -7.554483
-382.8,-6.7759989,1.9560629     -7.554483
-382.8,-1.6940000000000002,-6.846218500000001   -7.554483
-382.8,1.6940000000000002,-6.846218500000001    -7.554483
-382.8,6.7759989,1.9560629      -7.554483
-382.8,5.082000000000001,4.8901567      -7.554483
78.3921875,-8.4699989,6.846218500000001 -0.625931
78.3921875,-10.1639989,3.9121247000000006       -0.625931
78.3921875,-1.6940000000000002,-10.758344300000001      -0.625931
78.3921875,1.6940000000000002,-10.758344300000001       -0.625931
78.3921875,10.1639989,3.9121247000000006        -0.625931
78.3921875,8.4699989,6.846218500000001  -0.625931
-532.125,-0.0,-9.7803123        4.409069
-532.125,-8.4699989,4.8901567   4.409069
-532.125,8.4699989,4.8901567    4.409069

End of input

&SCF
Occupied
9
Iterations
   50  100
End of Input

&RASSCF
LumOrb
Symmetry
1
Spin
2
Nactel
1 0 0
CIRoot
9 9 1
inactive
9
ras2
9
End of Input

>>> COPY niobium_so_cf.JobIph $SLURM_SUBMIT_DIR/niobium_so_cf.doublet.JobIph

>>> COPY $SLURM_SUBMIT_DIR/niobium_so_cf.doublet.JobIph ./JOB002

&RASSI
NROFJobIph
1 All
SpinOrbit
End of Input

EOF

-- ----------------------------------

--- Start Module: seward at Wed Mar 26 12:27:13 2025 ---

()()()()()()()()()()()()()()()()()()()()()()()()()()()()()()()()()()()()()()()()()()()()()()()()()()

                                              &SEWARD

                                   only a single process is used
                       available to each process: 4.1 GB of memory, 1 thread?
                                            pid: 2749232
()()()()()()()()()()()()()()()()()()()()()()()()()()()()()()()()()()()()()()()()()()()()()()()()()()

 The speed of LIGHT in this CALCULATION =   137.03599917700001     
               SEWARD will generate:
                  Multipole Moment integrals up to order  2
                  Kinetic Energy integrals
                  Nuclear Attraction integrals (point charge)
                  One-Electron Hamiltonian integrals
                  Velocity integrals
                  Relativistic Douglas-Kroll-Hess integrals:
                    - Parametrization         : EXP
                    - DKH order of Hamiltonian: 2
                    - DKH order of Properties : 0
                         - multipole moment operators
                         - electric potential operators
                         - contact operators
                  External field from   414 point(s) added to the one-electron Hamiltonian
                  Orbital angular momentum around (-0.0000 -0.0000  0.0088 )
                  Velocity quadrupole around (-0.0000 -0.0000  0.0088 )
                  Atomic mean-field integrals
                  Two-Electron Repulsion integrals

                   Integrals are discarded if absolute value <: 0.10E-13
                   Integral cutoff threshold is set to       <: 0.10E-15

++    Symmetry information:
      ---------------------

                    Character Table for C1 

                             E  
                    a        1  x, y, xy, Rz, z, xz, Ry, yz, Rx, I
--


++    Basis set information:
      ----------------------


      Basis set label: NB.ANO-RCC.ROOS.21S18P13D6F4G2H.10S9P8D5F4G2H......

      Electronic valence basis set:
      ------------------
      Associated Effective Charge  41.000000 au
      Associated Actual Charge     41.000000 au
      Nuclear Model: Point charge

      Shell  nPrim  nBasis  Cartesian Spherical Contaminant
         s      21      10        X                  
         p      18       9        X                  
         d      13       8                 X         
         f       6       5                 X         
         g       4       4                 X         
         h       2       2                 X         
--


++    Molecular structure info:
      -------------------------

                    ************************************************ 
                    **** Cartesian Coordinates / Bohr, Angstrom **** 
                    ************************************************ 

     Center  Label                x              y              z                     x              y              z
        1      NB              -0.000000      -0.000000       0.008754             -0.000000      -0.000000       0.004632
--


++    Operator info:
      --------------


  Net charge from external field:   -39.268449999999902     
--


            Nuclear Potential Energy              0.00000000 au

                    Nuclear-External Field Potential Energy    -341.00697644 au
                    External Field Potential Energy            1459.66991035 au 


            Total Nuclear Potential Energy           -341.00697644 au


      Basis set specifications :
      Symmetry species         a  
      Basis functions          170

 Sorry, Molden does not know how to handle
 functions with angular momentum larger than g
Note: The following floating-point exceptions are signalling: IEEE_UNDERFLOW_FLAG IEEE_DENORMAL
--- Stop Module: seward at Wed Mar 26 12:27:22 2025 /rc=_RC_ALL_IS_WELL_ ---
*** files: niobium_so_cf.GssOrb xmldump
    saved to directory /home4/s4752295/Internship/Initial_simulations/Point_charge_model/1_electron/Madelung_charges_9_active_space/Nb
--- Module seward spent 8 seconds ---

*** symbolic link created: INPORB -> niobium_so_cf.GssOrb
--- Start Module: scf at Wed Mar 26 12:27:22 2025 ---

()()()()()()()()()()()()()()()()()()()()()()()()()()()()()()()()()()()()()()()()()()()()()()()()()()

                                                &SCF

                                   only a single process is used
                       available to each process: 4.1 GB of memory, 1 thread?
                                            pid: 2749247
()()()()()()()()()()()()()()()()()()()()()()()()()()()()()()()()()()()()()()()()()()()()()()()()()()

++    Input section:
      --------------

      Header of the integral files:
      
       Integrals generated by seward 4.2.0  , Wed Mar 26 12:27:13 2025


      Cartesian coordinates in Angstrom:
      -----------------------------------------------------
      No.  Label        X            Y            Z        
      -----------------------------------------------------
       1   NB        -0.00000000  -0.00000000   0.00463220
      -----------------------------------------------------
      Nuclear repulsion energy = -341.00697644
--

++    Orbital specifications:
      -----------------------

      Symmetry species               1
                                     a
      Frozen orbitals                0
      Occupied orbitals              9
      Secondary orbitals           161
      Deleted orbitals               0
      Total number of orbitals     170
      Number of basis functions    170
--

      Molecular charge                          23.000

++    Optimization specifications:
      ----------------------------

      SCF Algorithm: Conventional
      Minimized density differences are used
      Number of density matrices in core                5
      Maximum number of NDDO SCF iterations            50
      Maximum number of HF SCF iterations             100
      Threshold for SCF energy change            0.10E-08
      Threshold for density matrix               0.10E-03
      Threshold for Fock matrix                  0.15E-03
      Threshold for linear dependence            0.10E-08
      Threshold at which DIIS is turned on       0.15E+00
      Threshold at which QNR/C2DIIS is turned on 0.75E-01
      Threshold for Norm(delta) (QNR/C2DIIS)     0.20E-04
      DIIS extrapolation of the SCF procedure
      All orbitals punched on: SCFORB
--

      Detected guessorb starting orbitals                                             


++ Convergence information
                                   SCF        iterations: Energy and convergence statistics

Iter     Tot. SCF        One-elec.       Two-elec.     Energy      Max Dij or  Max Fij      DNorm      TNorm      AccCon     Time
         Energy          Energy          Energy        Change      Delta Norm                                                in Sec.

 The total and one-electron energies are shifted by a value of      3000. a.u.

   1  -677.353063100  -938.822343609   602.476256953   0.00E+00    0.33E+00*   0.28E+01*    0.60E+01   0.31E+03   None         1.
   2  -683.163226928  -980.609498520   638.453248036  -0.58E+01*   0.97E-02*   0.26E+00*    0.14E+01   0.32E+03   EDIIS        1.
   3  -683.182522435  -978.739867203   636.564321211  -0.19E-01*   0.91E-03*   0.14E-01*    0.49E-01   0.32E+03   EDIIS        1.
   4  -683.182599731  -978.868911025   636.693287737  -0.77E-04*   0.64E-04    0.84E-03*    0.21E-02   0.32E+03   c2DIIS       1.
   5  -683.182600176  -978.861808806   636.686185074  -0.44E-06*   0.78E-05    0.55E-04     0.12E-03   0.32E+03   QNRc2DIIS    1.
   6  -683.182600177  -978.861808025   636.686184292  -0.11E-08*   0.11E-05    0.73E-05     0.90E-05   0.32E+03   QNRc2DIIS    1.
   7  -683.182600177  -978.861809682   636.686185949  -0.33E-10    0.36E-06    0.11E-05     0.25E-03   0.32E+03   QNRc2DIIS    1.

       Convergence after  7 Macro Iterations
--

 *****************************************************************************************************************************
 *                                                                                                                           *
 *                                             SCF/KS-DFT Program, Final results                                             *
 *                                                                                                                           *
 *                                                                                                                           *
 *                                                                                                                           *
 *                                                       Final Results                                                       *
 *                                                                                                                           *
 *****************************************************************************************************************************

::    Total SCF energy                              -3683.1826001770
      One-electron energy                           -3978.8618096818
      Two-electron energy                             636.6861859486
      Nuclear repulsion energy                       -341.0069764437
      Kinetic energy (interpolated)                  3884.2933447284
      Virial theorem                                    0.9482246250
      Total spin, S(S+1)                                0.0000000000
      Total spin, S                                     0.0000000000
      Max non-diagonal density matrix element           0.0000005084
      Max non-diagonal Fock matrix element              0.0000006137


      All orbitals with orbital energies smaller than  E(LUMO)+0.5 are printed

++    Molecular orbitals:
      -------------------

      Title: SCF orbitals

      Molecular orbitals for symmetry species 1: a  

          Orbital            1         2         3         4         5         6         7         8         9        10    
          Energy         -728.8864 -127.9443 -117.1011 -117.1011 -117.1002  -39.0217  -35.2009  -35.2009  -35.1880  -28.3017
          Occ. No.          2.0000    2.0000    2.0000    2.0000    2.0000    2.0000    2.0000    2.0000    2.0000    0.0000

        1 NB     1s         1.0000   -0.0001    0.0000    0.0000   -0.0000    0.0001   -0.0000    0.0000    0.0000    0.0000
        2 NB     2s         0.0001    0.9999    0.0000    0.0000   -0.0021    0.0127    0.0000    0.0000   -0.0007   -0.0000
        3 NB     3s        -0.0001   -0.0120   -0.0000   -0.0000    0.0003    0.9880    0.0000    0.0000   -0.0358   -0.0000
        4 NB     4s         0.0000    0.0029    0.0000    0.0000   -0.0001   -0.0995   -0.0000   -0.0000    0.0057    0.0000
        5 NB     5s        -0.0000   -0.0007   -0.0000   -0.0000    0.0000    0.0222    0.0000    0.0000   -0.0013   -0.0000
        6 NB     6s         0.0000    0.0009    0.0000    0.0000   -0.0000   -0.0273   -0.0000   -0.0000    0.0016    0.0000
        7 NB     7s        -0.0000   -0.0023   -0.0000   -0.0000    0.0000    0.0666    0.0000    0.0000   -0.0040   -0.0000
        8 NB     8s         0.0000    0.0022    0.0000    0.0000   -0.0000   -0.0537   -0.0000   -0.0000    0.0032    0.0000
        9 NB     9s        -0.0000   -0.0028   -0.0000   -0.0000    0.0000    0.0550    0.0000    0.0000   -0.0033   -0.0000
       10 NB    10s         0.0001    0.0027    0.0000    0.0000   -0.0000   -0.0285   -0.0000   -0.0000    0.0017    0.0000
       11 NB     2px        0.0000    0.0021   -0.0026   -0.0000    0.9999    0.0003   -0.0000   -0.0000    0.0143    0.0000
       12 NB     3px       -0.0000    0.0002    0.0000    0.0000   -0.0134    0.0366   -0.0020   -0.0000    0.9835    0.0000
       13 NB     4px        0.0000   -0.0000   -0.0000   -0.0000    0.0029   -0.0026    0.0002    0.0000   -0.1075   -0.0000
       14 NB     5px       -0.0000    0.0000    0.0000    0.0000   -0.0010    0.0008   -0.0001   -0.0000    0.0335    0.0000
       15 NB     6px        0.0000   -0.0000   -0.0000   -0.0000    0.0025   -0.0018    0.0002    0.0000   -0.0806   -0.0000
       16 NB     7px       -0.0000    0.0000    0.0000    0.0000   -0.0023    0.0013   -0.0001   -0.0000    0.0648    0.0000
       17 NB     8px        0.0000   -0.0000   -0.0000   -0.0000    0.0028   -0.0012    0.0001    0.0000   -0.0658   -0.0000
       18 NB     9px       -0.0000    0.0000    0.0000    0.0000   -0.0027    0.0008   -0.0001   -0.0000    0.0491    0.0000
       19 NB    10px        0.0000   -0.0000   -0.0000   -0.0000    0.0022   -0.0003    0.0000    0.0000   -0.0228   -0.0000
       20 NB     2py        0.0000    0.0000   -0.0000    0.9999    0.0000    0.0000   -0.0000    0.0143    0.0000    0.0000
       21 NB     3py       -0.0000   -0.0000    0.0000   -0.0134   -0.0000    0.0000   -0.0000    0.9843    0.0000    0.0001
       22 NB     4py        0.0000    0.0000   -0.0000    0.0029    0.0000   -0.0000    0.0000   -0.1074   -0.0000   -0.0000
       23 NB     5py       -0.0000   -0.0000    0.0000   -0.0010   -0.0000    0.0000   -0.0000    0.0335    0.0000    0.0000
       24 NB     6py        0.0000    0.0000   -0.0000    0.0025    0.0000   -0.0000    0.0000   -0.0805   -0.0000   -0.0000
       25 NB     7py       -0.0000   -0.0000    0.0000   -0.0023   -0.0000    0.0000   -0.0000    0.0647    0.0000    0.0000
       26 NB     8py        0.0000    0.0000   -0.0000    0.0028    0.0000   -0.0000    0.0000   -0.0658   -0.0000   -0.0000
       27 NB     9py       -0.0000   -0.0000    0.0000   -0.0027   -0.0000    0.0000   -0.0000    0.0490    0.0000    0.0000
       28 NB    10py        0.0000    0.0000   -0.0000    0.0022    0.0000   -0.0000    0.0000   -0.0228   -0.0000   -0.0000
       29 NB     2pz        0.0000    0.0000    0.9999    0.0000    0.0026    0.0000    0.0143    0.0000    0.0000    0.0000
       30 NB     3pz       -0.0000    0.0000   -0.0134   -0.0000   -0.0000    0.0000    0.9843    0.0000    0.0020    0.0000
       31 NB     4pz        0.0000   -0.0000    0.0029    0.0000    0.0000   -0.0000   -0.1074   -0.0000   -0.0002   -0.0000
       32 NB     5pz       -0.0000    0.0000   -0.0010   -0.0000   -0.0000    0.0000    0.0335    0.0000    0.0001    0.0000
       33 NB     6pz        0.0000   -0.0000    0.0025    0.0000    0.0000   -0.0000   -0.0805   -0.0000   -0.0002   -0.0000
       34 NB     7pz       -0.0000    0.0000   -0.0023   -0.0000   -0.0000    0.0000    0.0647    0.0000    0.0001    0.0000
       35 NB     8pz        0.0000   -0.0000    0.0028    0.0000    0.0000   -0.0000   -0.0658   -0.0000   -0.0001   -0.0000
       36 NB     9pz       -0.0000    0.0000   -0.0027   -0.0000   -0.0000    0.0000    0.0490    0.0000    0.0001    0.0000
       37 NB    10pz        0.0000   -0.0000    0.0022    0.0000    0.0000   -0.0000   -0.0228   -0.0000   -0.0000   -0.0000
       38 NB     3d2-      -0.0000    0.0000   -0.0000    0.0002    0.0000    0.0000   -0.0000    0.0184    0.0000   -0.0065
       39 NB     4d2-       0.0000   -0.0000    0.0000   -0.0000   -0.0000    0.0000    0.0000   -0.0010   -0.0000    0.0006
       40 NB     5d2-      -0.0000    0.0000   -0.0000    0.0000    0.0000   -0.0000   -0.0000    0.0010    0.0000   -0.0006
       41 NB     6d2-       0.0000   -0.0000    0.0000   -0.0000   -0.0000    0.0000    0.0000   -0.0008   -0.0000    0.0006
       42 NB     7d2-      -0.0000    0.0000   -0.0000    0.0000    0.0000   -0.0000   -0.0000    0.0006    0.0000   -0.0005
       43 NB     8d2-       0.0000   -0.0000    0.0000   -0.0000   -0.0000    0.0000    0.0000   -0.0005   -0.0000    0.0006
       44 NB     9d2-      -0.0000    0.0000   -0.0000    0.0000    0.0000   -0.0000   -0.0000    0.0003    0.0000   -0.0005
       45 NB    10d2-      -0.0000    0.0000   -0.0000    0.0000    0.0000   -0.0000    0.0000   -0.0000   -0.0000   -0.0005
       46 NB     3d1-       0.0000   -0.0000   -0.0000    0.0000    0.0000   -0.0000   -0.0000    0.0000   -0.0000    0.9741
       47 NB     4d1-      -0.0000    0.0000    0.0000   -0.0000   -0.0000    0.0000    0.0000   -0.0000    0.0000   -0.0954
       48 NB     5d1-       0.0000   -0.0000   -0.0000    0.0000    0.0000    0.0000   -0.0000    0.0000   -0.0000    0.0965
       49 NB     6d1-      -0.0000    0.0000    0.0000   -0.0000   -0.0000   -0.0000    0.0000   -0.0000    0.0000   -0.0849
       50 NB     7d1-       0.0000    0.0000   -0.0000    0.0000    0.0000    0.0000   -0.0000    0.0000   -0.0000    0.0759
       51 NB     8d1-      -0.0000   -0.0000    0.0000   -0.0000    0.0000   -0.0000    0.0000   -0.0000    0.0000   -0.0953
       52 NB     9d1-       0.0000    0.0000   -0.0000    0.0000   -0.0000    0.0000   -0.0000    0.0000   -0.0000    0.0773
       53 NB    10d1-       0.0000    0.0000   -0.0000    0.0000   -0.0000    0.0000    0.0000   -0.0000   -0.0000    0.0676
       54 NB     3d0        0.0000    0.0000    0.0000    0.0000   -0.0001    0.0001    0.0000    0.0000   -0.0108   -0.0000
       55 NB     4d0       -0.0000   -0.0000   -0.0000   -0.0000    0.0000   -0.0000   -0.0000   -0.0000    0.0006    0.0000
       56 NB     5d0        0.0000    0.0000    0.0000    0.0000   -0.0000    0.0000    0.0000    0.0000   -0.0006   -0.0000
       57 NB     6d0       -0.0000   -0.0000   -0.0000   -0.0000    0.0000    0.0000   -0.0000   -0.0000    0.0005    0.0000
       58 NB     7d0        0.0000    0.0000    0.0000    0.0000   -0.0000   -0.0000    0.0000    0.0000   -0.0004   -0.0000
       59 NB     8d0       -0.0000   -0.0000   -0.0000   -0.0000    0.0000    0.0000   -0.0000   -0.0000    0.0003    0.0000
       60 NB     9d0        0.0000    0.0000    0.0000    0.0000   -0.0000   -0.0000    0.0000    0.0000   -0.0001   -0.0000
       61 NB    10d0        0.0000    0.0000    0.0000    0.0000   -0.0000   -0.0000   -0.0000    0.0000    0.0000   -0.0000
       62 NB     3d1+      -0.0000   -0.0000    0.0002    0.0000    0.0000   -0.0000    0.0184    0.0000    0.0001   -0.0000
       63 NB     4d1+       0.0000    0.0000   -0.0000   -0.0000   -0.0000    0.0000   -0.0010   -0.0000   -0.0000    0.0000
       64 NB     5d1+      -0.0000   -0.0000    0.0000    0.0000    0.0000   -0.0000    0.0010    0.0000    0.0000   -0.0000
       65 NB     6d1+       0.0000    0.0000   -0.0000   -0.0000   -0.0000   -0.0000   -0.0008   -0.0000   -0.0000    0.0000
       66 NB     7d1+      -0.0000   -0.0000    0.0000    0.0000    0.0000    0.0000    0.0006    0.0000    0.0000   -0.0000
       67 NB     8d1+       0.0000    0.0000   -0.0000   -0.0000   -0.0000   -0.0000   -0.0005   -0.0000   -0.0000    0.0000
       68 NB     9d1+      -0.0000   -0.0000    0.0000    0.0000    0.0000    0.0000    0.0003    0.0000    0.0000   -0.0000
       69 NB    10d1+      -0.0000   -0.0000    0.0000    0.0000    0.0000    0.0000   -0.0000   -0.0000   -0.0000   -0.0000
       70 NB     3d2+      -0.0000   -0.0000   -0.0000   -0.0000    0.0002   -0.0002   -0.0000   -0.0000    0.0187   -0.0000
       71 NB     4d2+       0.0000    0.0000    0.0000    0.0000   -0.0000    0.0000    0.0000    0.0000   -0.0011    0.0000
       72 NB     5d2+      -0.0000   -0.0000   -0.0000   -0.0000    0.0000   -0.0000   -0.0000   -0.0000    0.0010   -0.0000
       73 NB     6d2+       0.0000    0.0000    0.0000    0.0000   -0.0000   -0.0000    0.0000    0.0000   -0.0008    0.0000
       74 NB     7d2+      -0.0000   -0.0000   -0.0000   -0.0000    0.0000    0.0000   -0.0000   -0.0000    0.0006   -0.0000
       75 NB     8d2+       0.0000    0.0000    0.0000    0.0000   -0.0000   -0.0000    0.0000    0.0000   -0.0005    0.0000
       76 NB     9d2+      -0.0000   -0.0000   -0.0000   -0.0000    0.0000    0.0000   -0.0000   -0.0000    0.0003   -0.0000
       77 NB    10d2+      -0.0000   -0.0000   -0.0000   -0.0000    0.0000    0.0000    0.0000    0.0000   -0.0000   -0.0000
       78 NB     4f3-      -0.0000    0.0000    0.0000   -0.0000   -0.0000    0.0000    0.0000   -0.0000   -0.0000   -0.0000
       79 NB     5f3-       0.0000    0.0000    0.0000   -0.0000   -0.0000    0.0000    0.0000   -0.0000   -0.0000   -0.0000
       80 NB     6f3-      -0.0000   -0.0000   -0.0000    0.0000    0.0000   -0.0000   -0.0000    0.0000    0.0000    0.0000
       81 NB     7f3-       0.0000    0.0000    0.0000   -0.0000   -0.0000    0.0000    0.0000   -0.0000   -0.0000   -0.0000
       82 NB     8f3-      -0.0000   -0.0000    0.0000   -0.0000   -0.0000   -0.0000    0.0000   -0.0000   -0.0000   -0.0000
       83 NB     4f2-      -0.0000    0.0000    0.0000   -0.0000   -0.0000    0.0000    0.0000   -0.0000   -0.0000    0.0009
       84 NB     5f2-      -0.0000    0.0000    0.0000   -0.0000   -0.0000    0.0000    0.0000   -0.0000   -0.0000    0.0010
       85 NB     6f2-       0.0000   -0.0000   -0.0000    0.0000    0.0000   -0.0000   -0.0000    0.0000    0.0000   -0.0010
       86 NB     7f2-      -0.0000    0.0000    0.0000   -0.0000   -0.0000    0.0000    0.0000   -0.0000   -0.0000    0.0010
       87 NB     8f2-      -0.0000    0.0000    0.0000   -0.0000   -0.0000   -0.0000    0.0000   -0.0000   -0.0000    0.0006
       88 NB     4f1-      -0.0000    0.0000   -0.0000    0.0000    0.0000    0.0000   -0.0000    0.0000    0.0000    0.0000
       89 NB     5f1-      -0.0000    0.0000   -0.0000    0.0000    0.0000    0.0000   -0.0000    0.0000    0.0000    0.0000
       90 NB     6f1-       0.0000    0.0000    0.0000   -0.0000    0.0000   -0.0000    0.0000   -0.0000   -0.0000   -0.0000
       91 NB     7f1-      -0.0000   -0.0000   -0.0000    0.0000    0.0000    0.0000   -0.0000    0.0000    0.0000    0.0000
       92 NB     8f1-      -0.0000   -0.0000   -0.0000    0.0000    0.0000    0.0000   -0.0000    0.0000    0.0000    0.0000
       93 NB     4f0        0.0000    0.0000    0.0000    0.0000    0.0000    0.0000    0.0000    0.0000    0.0000    0.0000
       94 NB     5f0       -0.0000   -0.0000    0.0000    0.0000    0.0000   -0.0000    0.0000    0.0000    0.0000    0.0000
       95 NB     6f0       -0.0000   -0.0000   -0.0000   -0.0000   -0.0000   -0.0000   -0.0000   -0.0000   -0.0000   -0.0000
       96 NB     7f0       -0.0000   -0.0000    0.0000    0.0000    0.0000   -0.0000    0.0000    0.0000    0.0000    0.0000
       97 NB     8f0        0.0000    0.0000    0.0000    0.0000    0.0000    0.0000    0.0000    0.0000    0.0000    0.0000
       98 NB     4f1+       0.0000   -0.0000    0.0000    0.0000    0.0000   -0.0000    0.0000    0.0000    0.0000   -0.0000
       99 NB     5f1+       0.0000   -0.0000   -0.0000   -0.0000    0.0000   -0.0000    0.0000    0.0000    0.0000   -0.0000
      100 NB     6f1+       0.0000    0.0000   -0.0000   -0.0000   -0.0000    0.0000   -0.0000   -0.0000   -0.0000    0.0000
      101 NB     7f1+       0.0000   -0.0000    0.0000    0.0000    0.0000   -0.0000    0.0000    0.0000    0.0000   -0.0000
      102 NB     8f1+       0.0000   -0.0000   -0.0000   -0.0000    0.0000   -0.0000    0.0000    0.0000    0.0000   -0.0000
      103 NB     4f2+       0.0000    0.0000   -0.0000   -0.0000    0.0000    0.0000   -0.0000   -0.0000    0.0000   -0.0000
      104 NB     5f2+      -0.0000   -0.0000   -0.0000   -0.0000   -0.0000   -0.0000   -0.0000   -0.0000    0.0000   -0.0000
      105 NB     6f2+      -0.0000   -0.0000    0.0000    0.0000   -0.0000   -0.0000    0.0000    0.0000   -0.0000    0.0000
      106 NB     7f2+      -0.0000   -0.0000   -0.0000   -0.0000   -0.0000   -0.0000   -0.0000   -0.0000    0.0000   -0.0000
      107 NB     8f2+       0.0000    0.0000   -0.0000   -0.0000    0.0000    0.0000   -0.0000   -0.0000    0.0000   -0.0000
      108 NB     4f3+      -0.0000    0.0000    0.0000    0.0000   -0.0000    0.0000    0.0000    0.0000   -0.0000   -0.0000
      109 NB     5f3+      -0.0000    0.0000    0.0000    0.0000   -0.0000    0.0000    0.0000    0.0000   -0.0000   -0.0000
      110 NB     6f3+      -0.0000   -0.0000   -0.0000   -0.0000    0.0000   -0.0000   -0.0000   -0.0000    0.0000    0.0000
      111 NB     7f3+      -0.0000    0.0000    0.0000    0.0000   -0.0000    0.0000    0.0000    0.0000   -0.0000   -0.0000
      112 NB     8f3+      -0.0000    0.0000    0.0000    0.0000   -0.0000    0.0000    0.0000    0.0000   -0.0000   -0.0000
      113 NB     5g4-      -0.0000   -0.0000   -0.0000    0.0000    0.0000   -0.0000   -0.0000    0.0000    0.0000    0.0000
      114 NB     6g4-       0.0000    0.0000    0.0000   -0.0000   -0.0000    0.0000    0.0000   -0.0000   -0.0000   -0.0000
      115 NB     7g4-      -0.0000    0.0000   -0.0000    0.0000    0.0000   -0.0000   -0.0000    0.0000    0.0000    0.0000
      116 NB     8g4-       0.0000   -0.0000    0.0000   -0.0000   -0.0000    0.0000    0.0000   -0.0000   -0.0000   -0.0000
      117 NB     5g3-       0.0000   -0.0000    0.0000   -0.0000   -0.0000    0.0000    0.0000   -0.0000    0.0000   -0.0000
      118 NB     6g3-      -0.0000    0.0000    0.0000   -0.0000   -0.0000   -0.0000   -0.0000    0.0000    0.0000    0.0000
      119 NB     7g3-       0.0000   -0.0000    0.0000   -0.0000    0.0000    0.0000    0.0000   -0.0000   -0.0000   -0.0000
      120 NB     8g3-      -0.0000   -0.0000   -0.0000    0.0000    0.0000   -0.0000   -0.0000    0.0000    0.0000    0.0000
      121 NB     5g2-      -0.0000    0.0000    0.0000   -0.0000    0.0000   -0.0000    0.0000   -0.0000   -0.0000   -0.0000
      122 NB     6g2-       0.0000   -0.0000   -0.0000    0.0000    0.0000    0.0000   -0.0000    0.0000    0.0000    0.0000
      123 NB     7g2-      -0.0000    0.0000    0.0000   -0.0000   -0.0000   -0.0000    0.0000   -0.0000   -0.0000   -0.0000
      124 NB     8g2-       0.0000   -0.0000   -0.0000    0.0000    0.0000    0.0000   -0.0000    0.0000    0.0000    0.0000
      125 NB     5g1-       0.0000    0.0000   -0.0000    0.0000   -0.0000    0.0000   -0.0000    0.0000    0.0000    0.0000
      126 NB     6g1-      -0.0000   -0.0000   -0.0000    0.0000   -0.0000   -0.0000   -0.0000    0.0000    0.0000   -0.0000
      127 NB     7g1-       0.0000   -0.0000   -0.0000    0.0000    0.0000    0.0000   -0.0000    0.0000   -0.0000    0.0000
      128 NB     8g1-      -0.0000    0.0000    0.0000   -0.0000    0.0000    0.0000   -0.0000    0.0000    0.0000   -0.0000
      129 NB     5g0        0.0000   -0.0000   -0.0000   -0.0000    0.0000   -0.0000   -0.0000   -0.0000    0.0000   -0.0000
      130 NB     6g0       -0.0000   -0.0000    0.0000   -0.0000   -0.0000    0.0000    0.0000    0.0000   -0.0000    0.0000
      131 NB     7g0       -0.0000   -0.0000    0.0000    0.0000    0.0000   -0.0000   -0.0000   -0.0000    0.0000   -0.0000
      132 NB     8g0       -0.0000   -0.0000    0.0000    0.0000   -0.0000    0.0000    0.0000    0.0000   -0.0000    0.0000
      133 NB     5g1+       0.0000    0.0000   -0.0000   -0.0000    0.0000    0.0000   -0.0000   -0.0000    0.0000   -0.0000
      134 NB     6g1+       0.0000    0.0000    0.0000    0.0000    0.0000   -0.0000    0.0000    0.0000   -0.0000    0.0000
      135 NB     7g1+       0.0000    0.0000   -0.0000   -0.0000    0.0000    0.0000   -0.0000   -0.0000    0.0000   -0.0000
      136 NB     8g1+       0.0000    0.0000    0.0000    0.0000   -0.0000   -0.0000    0.0000    0.0000   -0.0000   -0.0000
      137 NB     5g2+      -0.0000    0.0000    0.0000    0.0000   -0.0000    0.0000    0.0000    0.0000   -0.0000    0.0000
      138 NB     6g2+       0.0000    0.0000    0.0000    0.0000    0.0000   -0.0000   -0.0000   -0.0000    0.0000   -0.0000
      139 NB     7g2+       0.0000    0.0000    0.0000    0.0000   -0.0000    0.0000    0.0000    0.0000   -0.0000    0.0000
      140 NB     8g2+       0.0000    0.0000   -0.0000   -0.0000    0.0000   -0.0000   -0.0000   -0.0000    0.0000   -0.0000
      141 NB     5g3+       0.0000    0.0000    0.0000    0.0000    0.0000    0.0000    0.0000    0.0000    0.0000    0.0000
      142 NB     6g3+       0.0000    0.0000   -0.0000   -0.0000    0.0000   -0.0000   -0.0000   -0.0000   -0.0000   -0.0000
      143 NB     7g3+       0.0000    0.0000    0.0000    0.0000    0.0000    0.0000    0.0000    0.0000    0.0000    0.0000
      144 NB     8g3+       0.0000    0.0000   -0.0000   -0.0000   -0.0000   -0.0000   -0.0000   -0.0000   -0.0000   -0.0000
      145 NB     5g4+       0.0000   -0.0000    0.0000    0.0000    0.0000   -0.0000    0.0000    0.0000    0.0000    0.0000
      146 NB     6g4+      -0.0000   -0.0000    0.0000    0.0000   -0.0000    0.0000   -0.0000   -0.0000   -0.0000   -0.0000
      147 NB     7g4+      -0.0000   -0.0000    0.0000    0.0000    0.0000   -0.0000    0.0000    0.0000    0.0000    0.0000
      148 NB     8g4+      -0.0000   -0.0000   -0.0000   -0.0000   -0.0000    0.0000   -0.0000   -0.0000   -0.0000   -0.0000
      149 NB     6h5-       0.0000   -0.0000    0.0000   -0.0000    0.0000    0.0000    0.0000   -0.0000   -0.0000    0.0000
      150 NB     7h5-      -0.0000    0.0000   -0.0000    0.0000   -0.0000    0.0000   -0.0000    0.0000    0.0000   -0.0000
      151 NB     6h4-       0.0000   -0.0000   -0.0000    0.0000    0.0000    0.0000   -0.0000    0.0000    0.0000    0.0000
      152 NB     7h4-       0.0000   -0.0000    0.0000   -0.0000   -0.0000    0.0000    0.0000   -0.0000   -0.0000   -0.0000
      153 NB     6h3-      -0.0000    0.0000   -0.0000    0.0000    0.0000   -0.0000   -0.0000    0.0000   -0.0000   -0.0000
      154 NB     7h3-       0.0000   -0.0000    0.0000   -0.0000   -0.0000    0.0000    0.0000   -0.0000    0.0000    0.0000
      155 NB     6h2-       0.0000    0.0000   -0.0000    0.0000    0.0000    0.0000   -0.0000    0.0000    0.0000   -0.0000
      156 NB     7h2-       0.0000    0.0000   -0.0000    0.0000    0.0000   -0.0000    0.0000   -0.0000   -0.0000    0.0000
      157 NB     6h1-       0.0000   -0.0000    0.0000   -0.0000   -0.0000    0.0000    0.0000   -0.0000    0.0000   -0.0000
      158 NB     7h1-      -0.0000    0.0000   -0.0000    0.0000    0.0000    0.0000   -0.0000    0.0000    0.0000    0.0000
      159 NB     6h0        0.0000   -0.0000   -0.0000   -0.0000   -0.0000   -0.0000   -0.0000   -0.0000   -0.0000    0.0000
      160 NB     7h0       -0.0000   -0.0000    0.0000    0.0000   -0.0000    0.0000    0.0000    0.0000    0.0000   -0.0000
      161 NB     6h1+      -0.0000   -0.0000    0.0000    0.0000   -0.0000   -0.0000    0.0000    0.0000   -0.0000    0.0000
      162 NB     7h1+      -0.0000   -0.0000   -0.0000   -0.0000    0.0000   -0.0000   -0.0000   -0.0000    0.0000   -0.0000
      163 NB     6h2+      -0.0000    0.0000    0.0000    0.0000    0.0000    0.0000    0.0000    0.0000    0.0000   -0.0000
      164 NB     7h2+       0.0000    0.0000   -0.0000   -0.0000    0.0000   -0.0000   -0.0000   -0.0000   -0.0000    0.0000
      165 NB     6h3+       0.0000    0.0000    0.0000    0.0000    0.0000    0.0000    0.0000    0.0000    0.0000   -0.0000
      166 NB     7h3+       0.0000    0.0000    0.0000    0.0000   -0.0000    0.0000   -0.0000   -0.0000   -0.0000    0.0000
      167 NB     6h4+      -0.0000    0.0000   -0.0000   -0.0000    0.0000    0.0000   -0.0000   -0.0000    0.0000    0.0000
      168 NB     7h4+       0.0000   -0.0000    0.0000    0.0000    0.0000   -0.0000    0.0000    0.0000   -0.0000   -0.0000
      169 NB     6h5+      -0.0000   -0.0000    0.0000    0.0000   -0.0000   -0.0000    0.0000    0.0000   -0.0000   -0.0000
      170 NB     7h5+      -0.0000   -0.0000    0.0000    0.0000    0.0000   -0.0000    0.0000    0.0000    0.0000    0.0000

          Orbital           11        12        13        14    
          Energy          -28.3017  -28.2953  -28.2953  -28.2930
          Occ. No.          0.0000    0.0000    0.0000    0.0000

        1 NB     1s        -0.0000    0.0000   -0.0000    0.0000
        2 NB     2s         0.0000   -0.0000   -0.0000    0.0000
        3 NB     3s         0.0000   -0.0000   -0.0000    0.0009
        4 NB     4s         0.0000   -0.0000   -0.0000   -0.0003
        5 NB     5s         0.0000    0.0000    0.0000    0.0001
        6 NB     6s        -0.0000   -0.0000   -0.0000   -0.0001
        7 NB     7s        -0.0000    0.0000    0.0000    0.0002
        8 NB     8s        -0.0000   -0.0000   -0.0000   -0.0002
        9 NB     9s         0.0000   -0.0000    0.0000    0.0001
       10 NB    10s         0.0000    0.0000    0.0000   -0.0001
       11 NB     2px       -0.0000    0.0000    0.0000   -0.0005
       12 NB     3px       -0.0000    0.0001    0.0000   -0.0205
       13 NB     4px        0.0000   -0.0000   -0.0000    0.0041
       14 NB     5px       -0.0000    0.0000    0.0000   -0.0013
       15 NB     6px        0.0000   -0.0000   -0.0000    0.0031
       16 NB     7px       -0.0000    0.0000    0.0000   -0.0025
       17 NB     8px        0.0000   -0.0000   -0.0000    0.0026
       18 NB     9px       -0.0000    0.0000    0.0000   -0.0018
       19 NB    10px        0.0000   -0.0000   -0.0000    0.0008
       20 NB     2py        0.0000    0.0000   -0.0004   -0.0000
       21 NB     3py        0.0000    0.0000   -0.0176    0.0000
       22 NB     4py       -0.0000   -0.0000    0.0035   -0.0000
       23 NB     5py        0.0000    0.0000   -0.0011    0.0000
       24 NB     6py       -0.0000   -0.0000    0.0027   -0.0000
       25 NB     7py        0.0000    0.0000   -0.0022    0.0000
       26 NB     8py       -0.0000   -0.0000    0.0022   -0.0000
       27 NB     9py        0.0000    0.0000   -0.0016    0.0000
       28 NB    10py       -0.0000   -0.0000    0.0007   -0.0000
       29 NB     2pz       -0.0000   -0.0004   -0.0000   -0.0000
       30 NB     3pz       -0.0001   -0.0176   -0.0000   -0.0001
       31 NB     4pz        0.0000    0.0035    0.0000    0.0000
       32 NB     5pz       -0.0000   -0.0011   -0.0000   -0.0000
       33 NB     6pz        0.0000    0.0027    0.0000    0.0000
       34 NB     7pz       -0.0000   -0.0022   -0.0000   -0.0000
       35 NB     8pz        0.0000    0.0022    0.0000    0.0000
       36 NB     9pz       -0.0000   -0.0016   -0.0000   -0.0000
       37 NB    10pz        0.0000    0.0007    0.0000    0.0000
       38 NB     3d2-      -0.0000   -0.0000    0.9739   -0.0000
       39 NB     4d2-       0.0000    0.0000   -0.0955    0.0000
       40 NB     5d2-      -0.0000   -0.0000    0.0966   -0.0000
       41 NB     6d2-       0.0000    0.0000   -0.0849    0.0000
       42 NB     7d2-      -0.0000   -0.0000    0.0760   -0.0000
       43 NB     8d2-       0.0000    0.0000   -0.0954    0.0000
       44 NB     9d2-      -0.0000   -0.0000    0.0774   -0.0000
       45 NB    10d2-      -0.0000   -0.0000    0.0677   -0.0000
       46 NB     3d1-       0.0000   -0.0000    0.0065    0.0000
       47 NB     4d1-      -0.0000    0.0000   -0.0006   -0.0000
       48 NB     5d1-       0.0000   -0.0000    0.0006    0.0000
       49 NB     6d1-      -0.0000    0.0000   -0.0006   -0.0000
       50 NB     7d1-       0.0000   -0.0000    0.0005    0.0000
       51 NB     8d1-      -0.0000    0.0000   -0.0006   -0.0000
       52 NB     9d1-       0.0000   -0.0000    0.0005    0.0000
       53 NB    10d1-       0.0000   -0.0000    0.0005    0.0000
       54 NB     3d0        0.8436   -0.0001   -0.0000   -0.4870
       55 NB     4d0       -0.0826    0.0000    0.0000    0.0477
       56 NB     5d0        0.0836   -0.0000   -0.0000   -0.0483
       57 NB     6d0       -0.0735    0.0000    0.0000    0.0425
       58 NB     7d0        0.0657   -0.0000   -0.0000   -0.0380
       59 NB     8d0       -0.0825    0.0000    0.0000    0.0477
       60 NB     9d0        0.0669   -0.0000   -0.0000   -0.0387
       61 NB    10d0        0.0585   -0.0000   -0.0000   -0.0339
       62 NB     3d1+       0.0022    0.9739    0.0000    0.0036
       63 NB     4d1+      -0.0002   -0.0955   -0.0000   -0.0004
       64 NB     5d1+       0.0002    0.0966    0.0000    0.0004
       65 NB     6d1+      -0.0002   -0.0849   -0.0000   -0.0003
       66 NB     7d1+       0.0002    0.0760    0.0000    0.0003
       67 NB     8d1+      -0.0002   -0.0954   -0.0000   -0.0004
       68 NB     9d1+       0.0002    0.0774    0.0000    0.0003
       69 NB    10d1+       0.0002    0.0677    0.0000    0.0003
       70 NB     3d2+       0.4871   -0.0042   -0.0000    0.8434
       71 NB     4d2+      -0.0477    0.0004    0.0000   -0.0827
       72 NB     5d2+       0.0483   -0.0004   -0.0000    0.0837
       73 NB     6d2+      -0.0424    0.0004    0.0000   -0.0736
       74 NB     7d2+       0.0380   -0.0003   -0.0000    0.0658
       75 NB     8d2+      -0.0476    0.0004    0.0000   -0.0826
       76 NB     9d2+       0.0386   -0.0003   -0.0000    0.0670
       77 NB    10d2+       0.0338   -0.0003   -0.0000    0.0586
       78 NB     4f3-      -0.0000   -0.0000    0.0011   -0.0000
       79 NB     5f3-      -0.0000   -0.0000    0.0012   -0.0000
       80 NB     6f3-       0.0000    0.0000   -0.0012    0.0000
       81 NB     7f3-      -0.0000   -0.0000    0.0012   -0.0000
       82 NB     8f3-      -0.0000   -0.0000    0.0008   -0.0000
       83 NB     4f2-       0.0000   -0.0000    0.0000    0.0000
       84 NB     5f2-       0.0000   -0.0000    0.0000    0.0000
       85 NB     6f2-      -0.0000    0.0000   -0.0000   -0.0000
       86 NB     7f2-       0.0000   -0.0000    0.0000    0.0000
       87 NB     8f2-       0.0000   -0.0000    0.0000    0.0000
       88 NB     4f1-       0.0000    0.0000   -0.0003    0.0000
       89 NB     5f1-       0.0000    0.0000   -0.0003    0.0000
       90 NB     6f1-      -0.0000   -0.0000    0.0003   -0.0000
       91 NB     7f1-       0.0000    0.0000   -0.0003    0.0000
       92 NB     8f1-       0.0000    0.0000   -0.0002    0.0000
       93 NB     4f0       -0.0000   -0.0007   -0.0000   -0.0000
       94 NB     5f0       -0.0000   -0.0008   -0.0000   -0.0000
       95 NB     6f0        0.0000    0.0008    0.0000    0.0000
       96 NB     7f0       -0.0000   -0.0008   -0.0000   -0.0000
       97 NB     8f0       -0.0000   -0.0005   -0.0000    0.0000
       98 NB     4f1+       0.0007    0.0000    0.0000   -0.0007
       99 NB     5f1+       0.0008    0.0000    0.0000   -0.0008
      100 NB     6f1+      -0.0008   -0.0000   -0.0000    0.0008
      101 NB     7f1+       0.0008    0.0000    0.0000   -0.0008
      102 NB     8f1+       0.0005    0.0000    0.0000   -0.0005
      103 NB     4f2+       0.0000    0.0009    0.0000    0.0000
      104 NB     5f2+       0.0000    0.0010    0.0000    0.0000
      105 NB     6f2+      -0.0000   -0.0010   -0.0000   -0.0000
      106 NB     7f2+       0.0000    0.0010    0.0000    0.0000
      107 NB     8f2+       0.0000    0.0006    0.0000    0.0000
      108 NB     4f3+       0.0005   -0.0000   -0.0000    0.0010
      109 NB     5f3+       0.0006   -0.0000   -0.0000    0.0011
      110 NB     6f3+      -0.0006    0.0000    0.0000   -0.0011
      111 NB     7f3+       0.0006   -0.0000   -0.0000    0.0010
      112 NB     8f3+       0.0004   -0.0000   -0.0000    0.0007
      113 NB     5g4-       0.0000    0.0000   -0.0000    0.0000
      114 NB     6g4-      -0.0000   -0.0000    0.0000   -0.0000
      115 NB     7g4-       0.0000    0.0000   -0.0001    0.0000
      116 NB     8g4-      -0.0000   -0.0000    0.0001   -0.0000
      117 NB     5g3-      -0.0000    0.0000   -0.0000   -0.0000
      118 NB     6g3-       0.0000   -0.0000    0.0000    0.0000
      119 NB     7g3-      -0.0000   -0.0000    0.0000   -0.0000
      120 NB     8g3-       0.0000   -0.0000    0.0000    0.0000
      121 NB     5g2-      -0.0000   -0.0000    0.0000   -0.0000
      122 NB     6g2-       0.0000    0.0000   -0.0000    0.0000
      123 NB     7g2-      -0.0000   -0.0000    0.0000   -0.0000
      124 NB     8g2-       0.0000    0.0000   -0.0000    0.0000
      125 NB     5g1-       0.0000   -0.0000    0.0000    0.0000
      126 NB     6g1-      -0.0000    0.0000   -0.0000   -0.0000
      127 NB     7g1-       0.0000   -0.0000    0.0000    0.0000
      128 NB     8g1-      -0.0000    0.0000   -0.0000   -0.0000
      129 NB     5g0        0.0000    0.0000    0.0000   -0.0000
      130 NB     6g0       -0.0000   -0.0000   -0.0000    0.0000
      131 NB     7g0        0.0000    0.0000    0.0000   -0.0000
      132 NB     8g0       -0.0000   -0.0000   -0.0000    0.0000
      133 NB     5g1+       0.0000    0.0000    0.0000    0.0000
      134 NB     6g1+      -0.0000   -0.0000   -0.0000   -0.0000
      135 NB     7g1+       0.0000    0.0000    0.0000   -0.0000
      136 NB     8g1+       0.0000   -0.0001   -0.0000   -0.0000
      137 NB     5g2+      -0.0000    0.0000    0.0000    0.0000
      138 NB     6g2+       0.0000   -0.0000   -0.0000   -0.0000
      139 NB     7g2+      -0.0000   -0.0000   -0.0000    0.0000
      140 NB     8g2+       0.0000   -0.0000   -0.0000   -0.0000
      141 NB     5g3+      -0.0000   -0.0000   -0.0000   -0.0000
      142 NB     6g3+       0.0000    0.0000    0.0000    0.0000
      143 NB     7g3+      -0.0000   -0.0000   -0.0000   -0.0000
      144 NB     8g3+       0.0000    0.0000    0.0000   -0.0000
      145 NB     5g4+      -0.0000    0.0000    0.0000   -0.0000
      146 NB     6g4+       0.0000   -0.0000   -0.0000    0.0000
      147 NB     7g4+      -0.0000   -0.0000   -0.0000   -0.0001
      148 NB     8g4+       0.0000   -0.0000   -0.0000    0.0001
      149 NB     6h5-       0.0000   -0.0000    0.0000   -0.0000
      150 NB     7h5-      -0.0000    0.0000   -0.0000    0.0000
      151 NB     6h4-       0.0000    0.0000   -0.0000    0.0000
      152 NB     7h4-      -0.0000    0.0000   -0.0000   -0.0000
      153 NB     6h3-      -0.0000    0.0000   -0.0000    0.0000
      154 NB     7h3-       0.0000   -0.0000    0.0000   -0.0000
      155 NB     6h2-      -0.0000   -0.0000    0.0000   -0.0000
      156 NB     7h2-       0.0000   -0.0000    0.0000    0.0000
      157 NB     6h1-      -0.0000   -0.0000    0.0000   -0.0000
      158 NB     7h1-       0.0000    0.0000   -0.0000   -0.0000
      159 NB     6h0       -0.0000    0.0000    0.0000   -0.0000
      160 NB     7h0        0.0000   -0.0000   -0.0000   -0.0000
      161 NB     6h1+      -0.0000   -0.0000   -0.0000    0.0000
      162 NB     7h1+       0.0000   -0.0000   -0.0000   -0.0000
      163 NB     6h2+       0.0000   -0.0000   -0.0000    0.0000
      164 NB     7h2+      -0.0000    0.0000    0.0000    0.0000
      165 NB     6h3+       0.0000    0.0000    0.0000   -0.0000
      166 NB     7h3+      -0.0000    0.0000    0.0000    0.0000
      167 NB     6h4+      -0.0000    0.0000    0.0000    0.0000
      168 NB     7h4+       0.0000   -0.0000   -0.0000    0.0000
      169 NB     6h5+       0.0000    0.0000    0.0000    0.0000
      170 NB     7h5+      -0.0000    0.0000    0.0000   -0.0000
--


++    Molecular charges:
      ------------------

      Mulliken charges per centre and basis function type
      ---------------------------------------------------

                NB    
      1s       2.0000
      2s       2.0000
      2px      2.0000
      2pz      2.0000
      2py      2.0000
      3s       1.9552
      3px      1.9377
      3pz      1.9382
      3py      1.9382
      4s       0.0199
      3d2+     0.0007
      3d1+     0.0007
      3d0      0.0002
      3d1-     0.0000
      3d2-     0.0007
      4px      0.0231
      4pz      0.0231
      4py      0.0231
      5s       0.0010
      4d2+     0.0000
      4d1+     0.0000
      4d0      0.0000
      4d1-     0.0000
      4d2-     0.0000
      5px      0.0022
      5pz      0.0022
      5py      0.0022
      6s       0.0015
      4f3+     0.0000
      4f2+     0.0000
      4f1+     0.0000
      4f0      0.0000
      4f1-     0.0000
      4f2-     0.0000
      4f3-     0.0000
      5d2+     0.0000
      5d1+     0.0000
      5d0      0.0000
      5d1-     0.0000
      5d2-     0.0000
      6px      0.0130
      6pz      0.0130
      6py      0.0130
      7s       0.0089
      5f3+     0.0000
      5f2+     0.0000
      5f1+     0.0000
      5f0      0.0000
      5f1-     0.0000
      5f2-     0.0000
      5f3-     0.0000
      6d2+     0.0000
      6d1+     0.0000
      6d0      0.0000
      6d1-     0.0000
      6d2-     0.0000
      7px      0.0084
      7pz      0.0084
      7py      0.0084
      5g4+     0.0000
      5g3+     0.0000
      5g2+     0.0000
      5g1+     0.0000
      5g0      0.0000
      5g1-     0.0000
      5g2-     0.0000
      5g3-     0.0000
      5g4-     0.0000
      6f3+     0.0000
      6f2+     0.0000
      6f1+     0.0000
      6f0      0.0000
      6f1-     0.0000
      6f2-     0.0000
      6f3-     0.0000
      6g4+     0.0000
      6g3+     0.0000
      6g2+     0.0000
      6g1+     0.0000
      6g0      0.0000
      6g1-     0.0000
      6g2-     0.0000
      6g3-     0.0000
      6g4-     0.0000
      6h5+     0.0000
      6h4+     0.0000
      6h3+     0.0000
      6h2+     0.0000
      6h1+     0.0000
      6h0      0.0000
      6h1-     0.0000
      6h2-     0.0000
      6h3-     0.0000
      6h4-     0.0000
      6h5-     0.0000
      7d2+     0.0000
      7d1+     0.0000
      7d0      0.0000
      7d1-     0.0000
      7d2-     0.0000
      7f3+     0.0000
      7f2+     0.0000
      7f1+     0.0000
      7f0      0.0000
      7f1-     0.0000
      7f2-     0.0000
      7f3-     0.0000
      7g4+     0.0000
      7g3+     0.0000
      7g2+     0.0000
      7g1+     0.0000
      7g0      0.0000
      7g1-     0.0000
      7g2-     0.0000
      7g3-     0.0000
      7g4-     0.0000
      7h5+     0.0000
      7h4+     0.0000
      7h3+     0.0000
      7h2+     0.0000
      7h1+     0.0000
      7h0      0.0000
      7h1-     0.0000
      7h2-     0.0000
      7h3-     0.0000
      7h4-     0.0000
      7h5-     0.0000
      8s       0.0058
      8px      0.0087
      8pz      0.0087
      8py      0.0087
      8d2+     0.0000
      8d1+     0.0000
      8d0      0.0000
      8d1-     0.0000
      8d2-     0.0000
      8f3+     0.0000
      8f2+     0.0000
      8f1+     0.0000
      8f0      0.0000
      8f1-     0.0000
      8f2-     0.0000
      8f3-     0.0000
      8g4+     0.0000
      8g3+     0.0000
      8g2+     0.0000
      8g1+     0.0000
      8g0      0.0000
      8g1-     0.0000
      8g2-     0.0000
      8g3-     0.0000
      8g4-     0.0000
      9s       0.0061
      9px      0.0048
      9pz      0.0048
      9py      0.0048
      9d2+     0.0000
      9d1+     0.0000
      9d0      0.0000
      9d1-     0.0000
      9d2-     0.0000
     10s       0.0016
     10px      0.0011
     10pz      0.0010
     10py      0.0010
     10d2+     0.0000
     10d1+     0.0000
     10d0      0.0000
     10d1-     0.0000
     10d2-     0.0000
      Total   18.0000

      N-E     23.0000

      Total electronic charge=   18.000000

      Total            charge=   23.000000
--

 Sorry, Molden does not know how to handle
 functions with angular momentum larger than g

++    Static properties:
      ------------------


      LoProp Charges per center


                   NB    
      Nuclear     41.0000
      Electronic -18.0000

      Total       23.0000
--


++    Molecular properties:
      ---------------------

      Charge (e):
                      =   23.0000
      Dipole Moment (Debye):
      Origin of the operator (Ang)=    0.0000    0.0000    0.0000
                   X= -1.1179E-01               Y= -1.8969E-13               Z=  5.1164E-01           Total=  5.2371E-01
      Center of Charge (Ang)
                     X=   -0.00101188               Y=   -0.00000000               Z=    0.00463136
      Quadrupole Moment (Debye*Ang):
      Origin of the operator (Ang)=   -0.0000   -0.0000    0.0046
                  XX= -7.2181E-01              XY= -3.6800E-16              XZ=  1.1964E-06              YY= -7.2223E-01
                  YZ= -1.0917E-15              ZZ= -7.2223E-01
      In traceless form (Debye*Ang)
                  XX=  4.1861E-04              XY= -5.5200E-16              XZ=  1.7946E-06              YY= -2.0929E-04
                  YZ= -1.6375E-15              ZZ= -2.0932E-04
--

 Sorry, Molden does not know how to handle
 functions with angular momentum larger than g
 ###############################################################################
 ###############################################################################
 ###                                                                         ###
 ###                                                                         ###
 ###    WARNING: RunFile label nBas                                          ###
 ###    was used       62 times                                              ###
 ###                                                                         ###
 ###                                                                         ###
 ###############################################################################
 ###############################################################################
Note: The following floating-point exceptions are signalling: IEEE_UNDERFLOW_FLAG IEEE_DENORMAL
--- Stop Module: scf at Wed Mar 26 12:27:28 2025 /rc=_RC_ALL_IS_WELL_ ---
*** files: niobium_so_cf.LprOrb niobium_so_cf.ScfOrb xmldump
    saved to directory /home4/s4752295/Internship/Initial_simulations/Point_charge_model/1_electron/Madelung_charges_9_active_space/Nb
--- Module scf spent 6 seconds ---

*** symbolic link created: INPORB -> niobium_so_cf.ScfOrb
--- Start Module: rasscf at Wed Mar 26 12:27:28 2025 ---

()()()()()()()()()()()()()()()()()()()()()()()()()()()()()()()()()()()()()()()()()()()()()()()()()()

                                              &RASSCF

                                   only a single process is used
                       available to each process: 4.1 GB of memory, 1 thread?
                                            pid: 2749253
()()()()()()()()()()()()()()()()()()()()()()()()()()()()()()()()()()()()()()()()()()()()()()()()()()


      Header of the ONEINT file:
      --------------------------
      
      Integrals generated by seward 4.2.0  , Wed Mar 26 12:27:13 2025


      OrdInt status: non-squared


      Cartesian coordinates in Angstrom:
      -----------------------------------------------------
      No.  Label        X            Y            Z        
      -----------------------------------------------------
       1   NB        -0.00000000  -0.00000000   0.00463220
      -----------------------------------------------------
      Nuclear repulsion energy = -341.00697644

++    Wave function specifications:
      -----------------------------

      Number of closed shell electrons          18
      Number of electrons in active shells       1
      Max number of holes in RAS1 space          0
      Max nr of electrons in RAS3 space          0
      Number of inactive orbitals                9
      Number of active orbitals                  9
      Number of secondary orbitals             152
      Spin quantum number                      0.5
      State symmetry                             1
--

++    Orbital specifications:
      -----------------------

      Symmetry species                           1
                                                 a
      Frozen orbitals                            0
      Inactive orbitals                          9
      Active orbitals                            9
      RAS1 orbitals                              0
      RAS2 orbitals                              9
[...]
    13            15.9815417209      434.8799045748        3507542.9778         1.2
    14            15.9815417209      434.8799045748        3507542.9778         1.2
    15            15.9815555140      434.8802799031        3507546.0050         1.2
    16            15.9815555140      434.8802799031        3507546.0050         1.2
    17            16.0880196263      437.7773159855        3530912.1769         1.2
    18            16.0880196263      437.7773159855        3530912.1769         1.2


 Weights of the five most important spin-orbit-free states for each spin-orbit state.

 SO State  Total energy (au)           Spin-free states, spin, and weights
 -------------------------------------------------------------------------------------------------------
    1         0.000000       1 0.5  1.0000    9 0.5  0.0000    8 0.5  0.0000    7 0.5  0.0000    6 0.5  0.0000
    2         0.000000       1 0.5  1.0000    9 0.5  0.0000    8 0.5  0.0000    7 0.5  0.0000    6 0.5  0.0000
    3         0.000000       2 0.5  1.0000    9 0.5  0.0000    8 0.5  0.0000    7 0.5  0.0000    6 0.5  0.0000
    4         0.000000       2 0.5  1.0000    9 0.5  0.0000    8 0.5  0.0000    7 0.5  0.0000    6 0.5  0.0000
    5         0.006444       3 0.5  1.0000    9 0.5  0.0000    8 0.5  0.0000    7 0.5  0.0000    6 0.5  0.0000
    6         0.006444       3 0.5  1.0000    9 0.5  0.0000    8 0.5  0.0000    7 0.5  0.0000    6 0.5  0.0000
    7         0.006446       4 0.5  1.0000    9 0.5  0.0000    8 0.5  0.0000    7 0.5  0.0000    6 0.5  0.0000
    8         0.006446       4 0.5  1.0000    9 0.5  0.0000    8 0.5  0.0000    7 0.5  0.0000    6 0.5  0.0000
    9         0.008780       5 0.5  1.0000    9 0.5  0.0000    8 0.5  0.0000    7 0.5  0.0000    6 0.5  0.0000
   10         0.008780       5 0.5  1.0000    9 0.5  0.0000    8 0.5  0.0000    7 0.5  0.0000    6 0.5  0.0000
   11        14.611000       6 0.5  1.0000    9 0.5  0.0000    8 0.5  0.0000    7 0.5  0.0000    5 0.5  0.0000
   12        14.611000       6 0.5  1.0000    9 0.5  0.0000    8 0.5  0.0000    7 0.5  0.0000    5 0.5  0.0000
   13        15.981542       7 0.5  1.0000    9 0.5  0.0000    8 0.5  0.0000    6 0.5  0.0000    5 0.5  0.0000
   14        15.981542       7 0.5  1.0000    9 0.5  0.0000    8 0.5  0.0000    6 0.5  0.0000    5 0.5  0.0000
   15        15.981556       8 0.5  1.0000    9 0.5  0.0000    7 0.5  0.0000    6 0.5  0.0000    5 0.5  0.0000
   16        15.981556       8 0.5  1.0000    9 0.5  0.0000    7 0.5  0.0000    6 0.5  0.0000    5 0.5  0.0000
   17        16.088020       9 0.5  1.0000    8 0.5  0.0000    7 0.5  0.0000    6 0.5  0.0000    5 0.5  0.0000
   18        16.088020       9 0.5  1.0000    8 0.5  0.0000    7 0.5  0.0000    6 0.5  0.0000    5 0.5  0.0000
 -------------------------------------------------------------------------------------------------------


      ****************************************************************************************************
      *                                                                                                  *
      *                                    Special properties section                                    *
      *                                                                                                  *
      ****************************************************************************************************


++ Dipole transition strengths (SO states):
   ----------------------------------------
    for osc. strength at least    1.0000000000000001E-005

      From   To        Osc. strength     Einstein coefficients Ax, Ay, Az (sec-1)    Total A (sec-1)
     -----------------------------------------------------------------------------------------------
         1   13       1.69567135E-02  3.44626334E-06  1.39151663E+11  7.52533083E-01  1.39151663E+11
         1   15       1.69574824E-02  6.50824578E+06  7.52623716E-01  1.39151705E+11  1.39158213E+11
         2   14       1.69567135E-02  3.44626334E-06  1.39151663E+11  7.52533083E-01  1.39151663E+11
         2   16       1.69574824E-02  6.50824578E+06  7.52623716E-01  1.39151705E+11  1.39158213E+11
         3   13       1.69564423E-02  8.02887178E+05  7.52563227E-01  1.39148626E+11  1.39149429E+11
         3   15       1.69577659E-02  3.37465057E-05  1.39160531E+11  7.52561871E-01  1.39160531E+11
         4   14       1.69564423E-02  8.02887178E+05  7.52563227E-01  1.39148626E+11  1.39149429E+11
         4   16       1.69577659E-02  3.37465057E-05  1.39160531E+11  7.52561871E-01  1.39160531E+11
         5   11       8.35484604E-04  7.01026396E+04  9.09307437E-04  5.72557604E+09  5.72564614E+09
         5   13       1.72237452E-02  1.41228848E+11  4.00489896E-07  1.87954837E+05  1.41229036E+11
         5   17       1.58842125E-02  1.15300342E+06  2.09638746E-02  1.31986176E+11  1.31987329E+11
         6   12       8.35484604E-04  7.01026396E+04  9.09307437E-04  5.72557604E+09  5.72564614E+09
         6   14       1.72237452E-02  1.41228848E+11  4.00489896E-07  1.87954837E+05  1.41229036E+11
         6   18       1.58842125E-02  1.15300342E+06  2.09638746E-02  1.31986176E+11  1.31987329E+11
         7   11       8.35352770E-04  1.36520803E-08  5.72474160E+09  9.09420740E-04  5.72474160E+09
         7   15       1.72235512E-02  1.41222091E+11  3.53320785E-07  5.57408016E+06  1.41227665E+11
         7   17       1.58837297E-02  2.33371068E-07  1.31983295E+11  2.09641830E-02  1.31983295E+11
         8   12       8.35352770E-04  1.36520803E-08  5.72474160E+09  9.09420740E-04  5.72474160E+09
         8   16       1.72235512E-02  1.41222091E+11  3.53320785E-07  5.57408016E+06  1.41227665E+11
         8   18       1.58837297E-02  2.33371068E-07  1.31983295E+11  2.09641830E-02  1.31983295E+11
         9   11       1.13173899E-03  7.75336159E+09  9.63672267E-11  6.00349505E+04  7.75342163E+09
         9   13       5.58369449E-03  6.71784866E+05  1.46062725E-04  4.57703957E+10  4.57710674E+10
         9   15       5.58236135E-03  6.23124330E-12  4.57602184E+10  1.45437862E-04  4.57602184E+10
         9   17       2.16708584E-02  1.80017130E+11  2.20448597E-09  1.10330227E+06  1.80018234E+11
        10   12       1.13173899E-03  7.75336159E+09  9.63672267E-11  6.00349505E+04  7.75342163E+09
        10   14       5.58369449E-03  6.71784866E+05  1.46062725E-04  4.57703957E+10  4.57710674E+10
        10   16       5.58236135E-03  6.23124330E-12  4.57602184E+10  1.45437862E-04  4.57602184E+10
        10   18       2.16708584E-02  1.80017130E+11  2.20448597E-09  1.10330227E+06  1.80018234E+11
        11   13       1.85817465E-01  1.87926224E+04  3.57145009E-05  1.12144994E+10  1.12145181E+10
        11   15       1.85816850E-01  6.11136031E-11  1.12147067E+10  3.57159874E-05  1.12147067E+10
        11   17       1.75918172E-01  1.23308216E+10  9.92692671E-15  2.18954467E+04  1.23308435E+10
        12   14       1.85817465E-01  1.87926224E+04  3.57145009E-05  1.12144994E+10  1.12145181E+10
        12   16       1.85816850E-01  6.11136031E-11  1.12147067E+10  3.57159874E-05  1.12147067E+10
        12   18       1.75918172E-01  1.23308216E+10  9.92692671E-15  2.18954467E+04  1.23308435E+10
        13   17       6.66269319E-04  8.88056722E-01  7.73208379E-10  2.42703812E+05  2.42704700E+05
        14   18       6.66269319E-04  8.88056722E-01  7.73208379E-10  2.42703812E+05  2.42704700E+05
        15   17       6.66412082E-04  2.93873740E-15  2.42693816E+05  7.72642023E-10  2.42693816E+05
        16   18       6.66412082E-04  2.93873740E-15  2.42693816E+05  7.72642023E-10  2.42693816E+05
     -----------------------------------------------------------------------------------------------
--

++ Velocity transition strengths (SO states):
   ------------------------------------------
    for osc. strength at least    1.0000000000000001E-005

      From   To        Osc. strength     Einstein coefficients Ax, Ay, Az (sec-1)    Total A (sec-1)
     -----------------------------------------------------------------------------------------------
         1    3       1.91085550E-03  1.65586397E-22  1.52460289E-05  1.39930761E-19  1.52460289E-05
         1    5       1.96412872E-02  8.84644701E-14  2.62081245E+04  9.16791824E-08  2.62081245E+04
         1    7       1.96345670E-02  1.30268285E-02  9.17359526E-08  2.62103098E+04  2.62103228E+04
         1   13       1.71913707E-02  3.23404053E-06  1.41077819E+11  7.62950316E-01  1.41077819E+11
         1   15       1.71920802E-02  6.38072648E+06  7.63041814E-01  1.41077503E+11  1.41083884E+11
         2    4       1.91085550E-03  1.65586397E-22  1.52460289E-05  1.39930761E-19  1.52460289E-05
         2    6       1.96412872E-02  8.84644701E-14  2.62081245E+04  9.16791824E-08  2.62081245E+04
         2    8       1.96345670E-02  1.30268285E-02  9.17359526E-08  2.62103098E+04  2.62103228E+04
         2   14       1.71913707E-02  3.23404053E-06  1.41077819E+11  7.62950316E-01  1.41077819E+11
         2   16       1.71920802E-02  6.38072648E+06  7.63041814E-01  1.41077503E+11  1.41083884E+11
         3    5       1.96384816E-02  2.29401999E-02  9.16996752E-08  2.62003054E+04  2.62003284E+04
         3    7       1.96390678E-02  3.98957915E-14  2.62122776E+04  9.17101575E-08  2.62122776E+04
         3   13       1.71911126E-02  7.56620559E+05  7.62980150E-01  1.41074934E+11  1.41075691E+11
         3   15       1.71924446E-02  3.31044312E-05  1.41086866E+11  7.62976864E-01  1.41086866E+11
         4    6       1.96384816E-02  2.29401999E-02  9.16996752E-08  2.62003054E+04  2.62003284E+04
         4    8       1.96390678E-02  3.98957915E-14  2.62122776E+04  9.17101575E-08  2.62122776E+04
         4   14       1.71911126E-02  7.56620559E+05  7.62980150E-01  1.41074934E+11  1.41075691E+11
         4   16       1.71924446E-02  3.31044312E-05  1.41086866E+11  7.62976864E-01  1.41086866E+11
         5    7       1.19989066E-04  1.05930944E-20  7.26827475E-06  1.63363068E-20  7.26827475E-06
         5    9       1.65428654E-01  2.02657429E-02  4.60486947E-09  2.89996833E+04  2.89997036E+04
         5   11       8.57753383E-04  7.13680228E+04  9.33584918E-04  5.87820503E+09  5.87827639E+09
         5   13       1.72779405E-02  1.41673700E+11  4.17604689E-07  2.12342066E+05  1.41673913E+11
         5   17       1.61678664E-02  1.15146988E+06  2.13383433E-02  1.34343621E+11  1.34344772E+11
         6    8       1.19989066E-04  1.05930944E-20  7.26827475E-06  1.63363068E-20  7.26827475E-06
         6   10       1.65428654E-01  2.02657429E-02  4.60486947E-09  2.89996833E+04  2.89997036E+04
         6   12       8.57753383E-04  7.13680228E+04  9.33584918E-04  5.87820503E+09  5.87827639E+09
         6   14       1.72779405E-02  1.41673700E+11  4.17604689E-07  2.12342066E+05  1.41673913E+11
         6   18       1.61678664E-02  1.15146988E+06  2.13383433E-02  1.34343621E+11  1.34344772E+11
         7    9       1.65504806E-01  3.21023797E-15  2.89789536E+04  4.60367376E-09  2.89789536E+04
         7   11       8.57663276E-04  1.38790783E-08  5.87765778E+09  9.33666365E-04  5.87765778E+09
         7   15       1.72779166E-02  1.41668144E+11  3.72762187E-07  5.79255176E+06  1.41673937E+11
         7   17       1.61674596E-02  2.32789895E-07  1.34341369E+11  2.13385314E-02  1.34341369E+11
         8   10       1.65504806E-01  3.21023797E-15  2.89789536E+04  4.60367376E-09  2.89789536E+04
         8   12       8.57663276E-04  1.38790783E-08  5.87765778E+09  9.33666365E-04  5.87765778E+09
         8   16       1.72779166E-02  1.41668144E+11  3.72762187E-07  5.79255176E+06  1.41673937E+11
         8   18       1.61674596E-02  2.32789895E-07  1.34341369E+11  2.13385314E-02  1.34341369E+11
         9   11       1.15071105E-03  7.88336313E+09  9.73029827E-11  6.14650452E+04  7.88342459E+09
         9   13       5.71719164E-03  6.72816370E+05  1.49551009E-04  4.68648701E+10  4.68655429E+10
         9   15       5.71575718E-03  7.73351139E-12  4.68538652E+10  1.48915120E-04  4.68538652E+10
         9   17       2.16899801E-02  1.80176580E+11  2.24237233E-09  1.12259422E+06  1.80177703E+11
        10   12       1.15071105E-03  7.88336313E+09  9.73029827E-11  6.14650452E+04  7.88342459E+09
        10   14       5.71719164E-03  6.72816370E+05  1.49551009E-04  4.68648701E+10  4.68655429E+10
        10   16       5.71575718E-03  7.73351139E-12  4.68538652E+10  1.48915120E-04  4.68538652E+10
        10   18       2.16899801E-02  1.80176580E+11  2.24237233E-09  1.12259422E+06  1.80177703E+11
        11   13       1.74237714E-01  1.75917989E+04  3.34900567E-05  1.05156721E+10  1.05156897E+10
        11   15       1.74237130E-01  5.70952901E-11  1.05158660E+10  3.34900590E-05  1.05158660E+10
        11   17       1.64692419E-01  1.15440030E+10  1.09772003E-14  2.05371679E+04  1.15440235E+10
        12   14       1.74237714E-01  1.75917989E+04  3.34900567E-05  1.05156721E+10  1.05156897E+10
        12   16       1.74237130E-01  5.70952901E-11  1.05158660E+10  3.34900590E-05  1.05158660E+10
        12   18       1.64692419E-01  1.15440030E+10  1.09772003E-14  2.05371679E+04  1.15440235E+10
        13   17       1.71131797E-03  1.36770068E+00  1.98522309E-09  6.23389726E+05  6.23391094E+05
        14   18       1.71131797E-03  1.36770068E+00  1.98522309E-09  6.23389726E+05  6.23391094E+05
        15   17       1.71163646E-03  3.71315017E-15  6.23345584E+05  1.98503164E-09  6.23345584E+05
        16   18       1.71163646E-03  3.71315017E-15  6.23345584E+05  1.98503164E-09  6.23345584E+05
     -----------------------------------------------------------------------------------------------
--

++ Length and velocity gauge comparison (SO states):

 --------------------------------------------------
 A comparison between the dipole oscillator strengths in 
 length and velocity gauge will be performed

 All dipole oscillator differences above the tolerance of   0.10000000000000001       will be printed 

 Due to basis set deficiency these oscillator may be problematic 

 The tolerance is defined as ABS(1-O_l/O_v) 
 O_l : dipole oscillator strength in length gauge
 O_p : dipole oscillator strength in velocity gauge
 --------------------------------------------------

  Problematic transitions have been found

      From   To       Difference (%) Osc. st. (len.) Osc. st. (vel.)
     ---------------------------------------------------------------
         1    3      --------------- below threshold  1.91085550E-03
         1    5      --------------- below threshold  1.96412872E-02
         1    7      --------------- below threshold  1.96345670E-02
         2    4      --------------- below threshold  1.91085550E-03
         2    6      --------------- below threshold  1.96412872E-02
         2    8      --------------- below threshold  1.96345670E-02
         3    5      --------------- below threshold  1.96384816E-02
         3    7      --------------- below threshold  1.96390678E-02
         4    6      --------------- below threshold  1.96384816E-02
         4    8      --------------- below threshold  1.96390678E-02
         5    7      --------------- below threshold  1.19989066E-04
         5    9      --------------- below threshold  1.65428654E-01
         6    8      --------------- below threshold  1.19989066E-04
         6   10      --------------- below threshold  1.65428654E-01
         7    9      --------------- below threshold  1.65504806E-01
         8   10      --------------- below threshold  1.65504806E-01
        13   17            61.066889  6.66269319E-04  1.71131797E-03
        14   18            61.066889  6.66269319E-04  1.71131797E-03
        15   17            61.065793  6.66412082E-04  1.71163646E-03
        16   18            61.065793  6.66412082E-04  1.71163646E-03
     ---------------------------------------------------------------

 Number of problematic transitions =                    20

--

 Electric-dipole - electric-octupole not included
++ Total transition strengths for the second-order expansion of the wave vector (SO states):
   -----------------------------------------------------------------------------------------
    for osc. strength at least    1.0000000000000001E-005

      From   To        Osc. strength
     -------------------------------
         1   11       1.01763512E-05
         2   12       1.01763512E-05
         3   11       1.01763051E-05
         4   12       1.01763051E-05
         5   11       1.05316445E-05
         6   12       1.05316445E-05
         7   11       1.05314606E-05
         8   12       1.05314606E-05
         9   11       1.06485893E-05
        10   12       1.06485893E-05
     -------------------------------
--

++ I/O STATISTICS
 
  I. General I/O information
  - - - - - - - - - - - - - - - - - - - - - - - - - - - - - - - - - - - - - - - - - - -
  Unit  Name          Flsize      Write/Read            MBytes           Write/Read
                      (MBytes)       Calls              In/Out           Time, sec.
  - - - - - - - - - - - - - - - - - - - - - - - - - - - - - - - - - - - - - - - - - - -
   1  SCRATCH           0.00 .       9/      45 .      0.0/      0.0 .       0/       0
   2  ANNI              0.00 .       0/       0 .      0.0/      0.0 .       0/       0
   3  RUNFILE          14.69 .     322/   10733 .      2.3/     77.8 .       0/       0
   4  ONEINT            5.14 .       0/   22237 .      0.0/   3722.5 .       0/       0
   5  JOBIPH            5.91 .       0/      92 .      0.0/      0.7 .       0/       0
   6  ORDINT          403.03 .       1/    3225 .      0.0/    806.0 .       0/       0
  - - - - - - - - - - - - - - - - - - - - - - - - - - - - - - - - - - - - - - - - - - -
   *  TOTAL           428.78 .     332/   36332 .      2.3/   4607.0 .       0/       0
  - - - - - - - - - - - - - - - - - - - - - - - - - - - - - - - - - - - - - - - - - - -
 
  II. I/O Access Patterns
  - - - - - - - - - - - - - - - - - - - -
  Unit  Name               % of random
                         Write/Read calls
  - - - - - - - - - - - - - - - - - - - -
   1  SCRATCH             88.9/ 100.0
   2  ANNI                 0.0/   0.0
   3  RUNFILE             28.6/  10.8
   4  ONEINT               0.0/  17.4
   5  JOBIPH               0.0/  76.1
   6  ORDINT             100.0/   0.1
  - - - - - - - - - - - - - - - - - - - -
--
--- Stop Module: rassi at Wed Mar 26 12:27:59 2025 /rc=_RC_ALL_IS_WELL_ ---
*** files: xmldump
    saved to directory /home4/s4752295/Internship/Initial_simulations/Point_charge_model/1_electron/Madelung_charges_9_active_space/Nb
--- Module rassi spent 2 seconds ---

.##################.
.# Happy landing! #.
.##################.

    Timing: Wall=46.39 User=36.84 System=8.60

###############################################################################
Hbrk Cluster
Job 15905869 for user s4752295
Finished at: Wed Mar 26 12:28:04 CET 2025

Job details:
============

Job ID                         : 15905869
Name                           : Nb_no_SO
User                           : s4752295
Partition                      : regularmedium
Nodes                          : node84
Number of Nodes                : 1
Cores                          : 1
Number of Tasks                : 1
State                          : COMPLETED  
Submit                         : 2025-03-26T12:26:56
Start                          : 2025-03-26T12:27:08
End                            : 2025-03-26T12:27:59
Reserved walltime              : 15:00:00
Used walltime                  : 00:00:51
Used CPU time                  : 00:00:47 (Efficiency: 91.68%)
% User (Computation)           : 81.09%
% System (I/O)                 : 18.91%
Total memory reserved          : 25000M
Maximum memory used            : 397.81M

Acknowledgements:
=================

Please see this page for information about acknowledging Hbrk in your publications:

https://wiki.hpc.rug.nl/habrok/introduction/scientific_output

################################################################################
