   This run of MOLCAS is using the pymolcas driver

                             OPE
                             OPE          NMOL  CASOP  ENMOLC A   SO
                 OPE        NMOLC        AS  OP EN  MO LC     AS  OP
                OPENM       OL CA        SO  PE NM  OL CA     SOP EN
                OP EN      MO   LC       AS  OP ENMOL  CASO   PENMOL
                OP  EN     MO   LC       AS  OP EN     MO     LC ASO
               OP   E  NMOL  C  AS       OP  EN MO     LC     AS  OP
               OP  E   NMO   LC AS        OPEN  MO     LCASOP EN   M
               O  PEN   MO  LCA  SO
            OPE   NMO   L   CAS    OP
        OPENMOL  CASOP     ENMOL   CASOPE
     OPENMOLCA   SOPENMOLCASOPEN   MOLCASOPE
    OPENMOLCAS   OP           EN   MOL    CAS
    OPENMOLCAS       OP  ENM        O     LCA
    OPENMOLCAS    OPEN  MOLCASO     P  E  NMO
    OPENMOLCAS     OP               E  N  MOL
    OPENMOLCA   SO           PENM   O  L  CAS    OPEN    MO    LCAS
    OPENMOLCA   SOP           ENM   O  L  CAS   OP  EN  MOLC  AS   O
    OPENMOLCA   SOPE           NM      O  LCA   S      OP  EN MO
    OPENMOLC                AS         O  PEN   M      OL  CA  SOPE
    OPENMO        LCASOPE  NMOL        C  ASO   P      ENMOLC     AS
    OPE     NMO      LCA  SO     P     E   NM   OL  CA SO  PE N   MO
          OPENMOLCA            SOPE   NMO        LCAS  O    P  ENMO
     OPENMOLCASOPENMOLCASOPENMOLCASOPENMOLCA
        OPENMOLCASOPENMOLCASOPENMOLCASOPE
            OPENMOLCASOPENMOLCASOPENM
               OPENMOLCASOPENMOLCA        version: o91e1abe7de707b ?
                   OPENMOLCASO
                       OPE                tag:

 OpenMolcas is free software; you can redistribute it and/or modify it
 under the terms of the GNU Lesser General Public License version 2.1.
 OpenMolcas is distributed in the hope that it will be useful, but it
 is provided "as is" and without any express or implied warranties.
 For more details see the full text of the license in the file
 LICENSE or in <http://www.gnu.org/licenses/>.

                 Copyright (C) The OpenMolcas Authors
           For the author list and the recommended citation,
                   consult the file CONTRIBUTORS.md

           *************************************************
           * pymolcas version py2.10                       *
           *   build 3068ae8b88c9345ec6cfef6fef7f1169      *
           *   (after the EMIL interpreter by V. Veryazov) *
           *************************************************

configuration info
------------------
Host name: login1 (Linux)
C Compiler ID: GNU
C flags: -std=gnu99
Fortran Compiler ID: GNU
Fortran flags: -fno-aggressive-loop-optimizations -cpp -fdefault-integer-8 -fmax-stack-var-size=1048576
Definitions: _MOLCAS_;_I8_;_LINUX_;_MKL_
Parallel: OFF (GA=OFF)


   -----------------------------------------------------------------------------------------------------------------------------------
  |
  |           Project: niobium_so_cf
  |    Submitted from: /home4/s4752295/Internship/Initial_simulations/Point_charge_model/1_electron/Madelung_charges_9_active_space/Nb
  |      Scratch area: /tmp/niobium_so_cf
  |   Save outputs to: /home4/s4752295/Internship/Initial_simulations/Point_charge_model/1_electron/Madelung_charges_9_active_space/Nb
  |            Molcas: /home4/s4752295/Internship/Molcas/recomp_try/OpenMolcas-master/build
  |
  | Scratch area is empty
  |
  |    MOLCAS_DRIVER = /home4/s4752295/Internship/Molcas/bin/pymolcas
  |    MOLCAS_NPROCS = 1
  |    MOLCAS_SOURCE = /home4/s4752295/Internship/Molcas/recomp_try/OpenMolcas-master
  | MOLCAS_STRUCTURE = 0
  |
   -----------------------------------------------------------------------------------------------------------------------------------

++ ---------   Input file   ---------

&SEWARD
AMFi

CLIG
$R

Basis Set
Nb.ANO-rcc.Roos.21s18p13d6f4g2h.10s9p8d5f4g2h.
Spherical d
Nb            -1.0658140267135469e-14   -3.5527134223784897e-15 0.008753588724385739
End of Basis

Xfield

414
-4.00220108,-1.54,0.889119      -0.625931
-4.00220108,-0.0,-1.778239      -0.625931
-4.00220108,1.54,0.889119       -0.625931
-3.99534607,0.0,0.0     1.892092
2.65917969,-1.54,-0.889119      2.515516
2.65917969,0.0,1.778239 2.515516
2.65917969,1.54,-0.889119       2.515516
3.56298828,-3.08,0.0    0.004632
3.56298828,-1.54,-2.667358      0.004632
3.56298828,-1.54,2.667358       0.004632
3.56298828,1.54,-2.667358       0.004632
3.56298828,1.54,2.667358        0.004632
3.56298828,3.08,0.0     0.004632
4.12915039,-1.54,0.889119       -2.519484
4.12915039,-0.0,-1.778239       -2.519484
4.12915039,1.54,0.889119        -2.519484
-2.93310547,-0.0,-0.0   -3.142907
-4.97509766,-3.08,-1.778239     -0.625931
-4.97509766,0.0,3.556477        -0.625931
-4.97509766,3.08,-1.778239      -0.625931
-6.609375,-3.08,0.0     1.892092
-6.609375,-1.54,-2.667358       1.892092
-6.609375,-1.54,2.667358        1.892092
-6.609375,1.54,-2.667358        1.892092
-6.609375,1.54,2.667358 1.892092
-6.609375,3.08,0.0      1.892092
25.171875,-3.08,1.778239        2.515516
25.171875,-0.0,-3.556477        2.515516
25.171875,3.08,1.778239 2.515516
3.63867188,-3.08,-1.778239      -2.519484
3.63867188,0.0,3.556477 -2.519484
3.63867188,3.08,-1.778239       -2.519484
-3.23242188,-3.08,-0.0  -3.142907
-3.23242188,-1.54,-2.667358     -3.142907
-3.23242188,-1.54,2.667358      -3.142907
-3.23242188,1.54,-2.667358      -3.142907
-3.23242188,1.54,2.667358       -3.142907
-3.23242188,3.08,-0.0   -3.142907
-9.5234375,-3.08,3.556477       -0.625931
-9.5234375,3.08,3.556477        -0.625931
-9.5234375,-4.62,0.889119       -0.625931
-9.5234375,4.62,0.889119        -0.625931
-9.5234375,-1.54,-4.445597      -0.625931
-9.5234375,1.54,-4.445597       -0.625931
6.0078125,-1.54,-0.889119       4.409069
6.0078125,1.54,-0.889119        4.409069
6.0078125,0.0,1.778239  4.409069
-175.25,-0.0,-0.0       -5.030367
-175.25,0.0,0.0 5.039632
13.51757812,-3.08,-3.556477     2.515516
13.51757812,3.08,-3.556477      2.515516
13.51757812,-4.62,-0.889119     2.515516
13.51757812,4.62,-0.889119      2.515516
13.51757812,-1.54,4.445597      2.515516
13.51757812,1.54,4.445597       2.515516
19.0390625,-4.62,-2.667358      0.004632
19.0390625,-4.62,2.667358       0.004632
19.0390625,4.62,-2.667358       0.004632
19.0390625,4.62,2.667358        0.004632
19.0390625,-0.0,-5.334716       0.004632
19.0390625,0.0,5.334716 0.004632
48.078125,-3.08,3.556477        -2.519484
48.078125,3.08,3.556477 -2.519484
48.078125,-4.62,0.889119        -2.519484
48.078125,4.62,0.889119 -2.519484
48.078125,-1.54,-4.445597       -2.519484
48.078125,1.54,-4.445597        -2.519484
-145.875,-4.62,-2.667358        1.892092
-145.875,-4.62,2.667358 1.892092
-145.875,4.62,-2.667358 1.892092
-145.875,4.62,2.667358  1.892092
-145.875,-0.0,-5.334716 1.892092
-145.875,0.0,5.334716   1.892092
-117.75,-3.08,1.778239  4.409069
-117.75,-0.0,-3.556477  4.409069
-117.75,3.08,1.778239   4.409069
-89.0,-3.08,-0.0        -5.030367
-89.0,-1.54,-2.667358   -5.030367
-89.0,-1.54,2.667358    -5.030367
-89.0,1.54,-2.667358    -5.030367
-89.0,-3.08,0.0 5.039632
-89.0,3.08,-0.0 -5.030367
-89.0,1.54,2.667358     -5.030367
-89.0,-1.54,-2.667358   5.039632
-89.0,-1.54,2.667358    5.039632
-89.0,1.54,-2.667358    5.039632
-89.0,3.08,0.0  5.039632
-89.0,1.54,2.667358     5.039632
-46.625,-1.54,-0.889119 -5.660931
-46.625,0.0,1.778239    -5.660931
-46.625,1.54,-0.889119  -5.660931
0.8828125,-6.159999,0.0 0.004632
0.8828125,-3.08,-5.334716       0.004632
0.8828125,-3.08,5.334716        0.004632
0.8828125,3.08,-5.334716        0.004632
0.8828125,6.159999,0.0  0.004632
0.8828125,3.08,5.334716 0.004632
67.9375,-4.62,2.667358  -3.142907
67.9375,-4.62,-2.667358 -3.142907
67.9375,4.62,-2.667358  -3.142907
67.9375,4.62,2.667358   -3.142907
67.9375,-0.0,-5.334716  -3.142907
67.9375,0.0,5.334716    -3.142907
86.375,-6.159999,-1.778239      -0.625931
86.375,-4.62,-4.445597  -0.625931
86.375,-1.54,6.223835   -0.625931
86.375,4.62,-4.445597   -0.625931
86.375,6.159999,-1.778239       -0.625931
86.375,1.54,6.223835    -0.625931
1.19726562,-6.159999,0.0        1.892092
1.19726562,-3.08,-5.334716      1.892092
1.19726562,-3.08,5.334716       1.892092
1.19726562,3.08,-5.334716       1.892092
1.19726562,6.159999,0.0 1.892092
1.19726562,3.08,5.334716        1.892092
33.84375,-3.08,-3.556477        4.409069
33.84375,3.08,-3.556477 4.409069
33.84375,-4.62,-0.889119        4.409069
33.84375,4.62,-0.889119 4.409069
33.84375,-1.54,4.445597 4.409069
33.84375,1.54,4.445597  4.409069
162.40625,-3.08,1.778239        -5.660931
162.40625,-0.0,-3.556477        -5.660931
162.40625,3.08,1.778239 -5.660931
0.34375,-6.159999,1.778239      2.515516
0.34375,-1.54,-6.223835 2.515516
0.34375,-4.62,4.445597  2.515516
0.34375,1.54,-6.223835  2.515516
0.34375,6.159999,1.778239       2.515516
0.34375,4.62,4.445597   2.515516
-94.1875,-6.159999,-1.778239    -2.519484
-94.1875,-4.62,-4.445597        -2.519484
-94.1875,-1.54,6.223835 -2.519484
-94.1875,4.62,-4.445597 -2.519484
-94.1875,1.54,6.223835  -2.519484
-94.1875,6.159999,-1.778239     -2.519484
-22.0703125,-6.159999,-0.0      -3.142907
-22.0703125,-3.08,-5.334716     -3.142907
-22.0703125,-3.08,5.334716      -3.142907
-22.0703125,3.08,-5.334716      -3.142907
-22.0703125,3.08,5.334716       -3.142907
-22.0703125,6.159999,-0.0       -3.142907
606.5,0.0,0.0   6.927092
323.25,-6.159999,3.556477       -0.625931
323.25,6.159999,3.556477        -0.625931
323.25,-0.0,-7.112955   -0.625931
-5.421875,-4.62,2.667358        -5.030367
-5.421875,-4.62,-2.667358       -5.030367
-5.421875,-4.62,2.667358        5.039632
-5.421875,-4.62,-2.667358       5.039632
-5.421875,4.62,-2.667358        -5.030367
-5.421875,4.62,2.667358 -5.030367
-5.421875,4.62,-2.667358        5.039632
-5.421875,4.62,2.667358 5.039632
-5.421875,-0.0,-5.334716        -5.030367
-5.421875,0.0,5.334716  -5.030367
-5.421875,-0.0,-5.334716        5.039632
-5.421875,0.0,5.334716  5.039632
91.8125,-3.08,-3.556477 -5.660931
91.8125,3.08,-3.556477  -5.660931
91.8125,-4.62,-0.889119 -5.660931
91.8125,4.62,-0.889119  -5.660931
91.8125,-1.54,4.445597  -5.660931
91.8125,1.54,4.445597   -5.660931
300.5,-6.159999,-3.556477       2.515516
300.5,6.159999,-3.556477        2.515516
300.5,0.0,7.112955      2.515516
-517.25,-6.159999,3.556477      -2.519484
-517.25,6.159999,3.556477       -2.519484
-517.25,-0.0,-7.112955  -2.519484
53.5625,-3.08,0.0       6.927092
53.5625,-1.54,-2.667358 6.927092
53.5625,-1.54,2.667358  6.927092
53.5625,1.54,-2.667358  6.927092
53.5625,1.54,2.667358   6.927092
53.5625,3.08,0.0        6.927092
-55.25,-1.54,0.889119   7.550516
-55.25,0.0,-1.778239    7.550516
-55.25,1.54,0.889119    7.550516
15.53125,-1.54,-0.889119        -7.554483
15.53125,1.54,-0.889119 -7.554483
15.53125,-0.0,1.778239  -7.554483
-124.875,-7.699999,0.889119     -0.625931
-124.875,-4.62,6.223835 -0.625931
-124.875,-3.08,-7.112955        -0.625931
-124.875,3.08,-7.112955 -0.625931
-124.875,7.699999,0.889119      -0.625931
-124.875,4.62,6.223835  -0.625931
-67.4375,-6.159999,1.778239     4.409069
-67.4375,-4.62,4.445597 4.409069
-67.4375,-1.54,-6.223835        4.409069
-67.4375,1.54,-6.223835 4.409069
-67.4375,4.62,4.445597  4.409069
-67.4375,6.159999,1.778239      4.409069
49.15625,-6.159999,-0.0 -5.030367
49.15625,-3.08,-5.334716        -5.030367
49.15625,-3.08,5.334716 -5.030367
49.15625,-6.159999,0.0  5.039632
49.15625,-3.08,-5.334716        5.039632
49.15625,3.08,-5.334716 -5.030367
49.15625,3.08,5.334716  -5.030367
49.15625,6.159999,-0.0  -5.030367
49.15625,-3.08,5.334716 5.039632
49.15625,3.08,-5.334716 5.039632
49.15625,6.159999,0.0   5.039632
49.15625,3.08,5.334716  5.039632
180.75,-7.699999,-0.889119      2.515516
180.75,-4.62,-6.223835  2.515516
180.75,-3.08,7.112955   2.515516
180.75,4.62,-6.223835   2.515516
180.75,7.699999,-0.889119       2.515516
180.75,3.08,7.112955    2.515516
-23.34375,-7.699999,-2.667358   0.004632
-23.34375,-7.699999,2.667358    0.004632
-23.34375,-6.159999,-5.334716   0.004632
-23.34375,-6.159999,5.334716    0.004632
-23.34375,-1.54,-8.002074       0.004632
-23.34375,1.54,-8.002074        0.004632
-23.34375,-1.54,8.002074        0.004632
-23.34375,6.159999,-5.334716    0.004632
-23.34375,1.54,8.002074 0.004632
-23.34375,7.699999,-2.667358    0.004632
-23.34375,7.699999,2.667358     0.004632
-23.34375,6.159999,5.334716     0.004632
-143.125,-7.699999,0.889119     -2.519484
-143.125,-4.62,6.223835 -2.519484
-143.125,-3.08,-7.112955        -2.519484
-143.125,3.08,-7.112955 -2.519484
-143.125,7.699999,0.889119      -2.519484
-143.125,4.62,6.223835  -2.519484
3032.0,-0.0,-0.0        -8.177907
-116.0,-3.08,-1.778239  7.550516
-116.0,0.0,3.556477     7.550516
-116.0,3.08,-1.778239   7.550516
-603.5,-3.08,1.778239   -7.554483
-603.5,-0.0,-3.556477   -7.554483
-603.5,3.08,1.778239    -7.554483
48.90625,-7.699999,2.667358     1.892092
48.90625,-7.699999,-2.667358    1.892092
48.90625,-6.159999,-5.334716    1.892092
48.90625,-6.159999,5.334716     1.892092
48.90625,-1.54,-8.002074        1.892092
48.90625,1.54,-8.002074 1.892092
48.90625,-1.54,8.002074 1.892092
48.90625,6.159999,-5.334716     1.892092
48.90625,1.54,8.002074  1.892092
48.90625,7.699999,-2.667358     1.892092
48.90625,7.699999,2.667358      1.892092
48.90625,6.159999,5.334716      1.892092
-505.0,-6.159999,-3.556477      4.409069
-505.0,6.159999,-3.556477       4.409069
-505.0,0.0,7.112955     4.409069
25.8203125,-6.159999,1.778239   -5.660931
25.8203125,-1.54,-6.223835      -5.660931
25.8203125,-4.62,4.445597       -5.660931
25.8203125,1.54,-6.223835       -5.660931
25.8203125,4.62,4.445597        -5.660931
25.8203125,6.159999,1.778239    -5.660931
-58.1875,-6.159999,-5.334716    -3.142907
-58.1875,-7.699999,2.667358     -3.142907
-58.1875,-7.699999,-2.667358    -3.142907
-58.1875,-6.159999,5.334716     -3.142907
-58.1875,-1.54,-8.002074        -3.142907
-58.1875,1.54,-8.002074 -3.142907
-58.1875,-1.54,8.002074 -3.142907
-58.1875,7.699999,-2.667358     -3.142907
-58.1875,6.159999,-5.334716     -3.142907
-58.1875,1.54,8.002074  -3.142907
-58.1875,7.699999,2.667358      -3.142907
-58.1875,6.159999,5.334716      -3.142907
65.40625,-4.62,-2.667358        6.927092
65.40625,-4.62,2.667358 6.927092
65.40625,4.62,-2.667358 6.927092
65.40625,4.62,2.667358  6.927092
65.40625,-0.0,-5.334716 6.927092
65.40625,0.0,5.334716   6.927092
-83.25,-3.08,-0.0       -8.177907
-83.25,-1.54,2.667358   -8.177907
-83.25,-1.54,-2.667358  -8.177907
-83.25,1.54,-2.667358   -8.177907
-83.25,3.08,-0.0        -8.177907
-83.25,1.54,2.667358    -8.177907
-90.90625,-3.08,3.556477        7.550516
-90.90625,3.08,3.556477 7.550516
-90.90625,-4.62,0.889119        7.550516
-90.90625,4.62,0.889119 7.550516
-90.90625,-1.54,-4.445597       7.550516
-90.90625,1.54,-4.445597        7.550516
-45.6875,-3.08,-3.556477        -7.554483
-45.6875,3.08,-3.556477 -7.554483
-45.6875,-4.62,-0.889119        -7.554483
-45.6875,4.62,-0.889119 -7.554483
-45.6875,-1.54,4.445597 -7.554483
-45.6875,1.54,4.445597  -7.554483
-500.25,0.0,8.891193    -0.625931
-500.25,-7.699999,-4.445597     -0.625931
-500.25,7.699999,-4.445597      -0.625931
-269.75,-7.699999,-0.889119     4.409069
-269.75,-4.62,-6.223835 4.409069
-269.75,-3.08,7.112955  4.409069
-269.75,4.62,-6.223835  4.409069
-269.75,7.699999,-0.889119      4.409069
-269.75,3.08,7.112955   4.409069
310.375,-6.159999,-3.556477     -5.660931
310.375,6.159999,-3.556477      -5.660931
310.375,0.0,7.112955    -5.660931
587.0,-0.0,-8.891193    2.515516
587.0,-7.699999,4.445597        2.515516
587.0,7.699999,4.445597 2.515516
-93.875,-9.239999,-0.0  0.004632
-93.875,4.62,-8.002074  0.004632
-93.875,-4.62,8.002074  0.004632
-93.875,9.239999,-0.0   0.004632
-93.875,-4.62,-8.002074 0.004632
-93.875,4.62,8.002074   0.004632
-385.75,0.0,8.891193    -2.519484
-385.75,-7.699999,-4.445597     -2.519484
-385.75,7.699999,-4.445597      -2.519484
228.0,-6.159999,0.0     6.927092
228.0,-3.08,-5.334716   6.927092
228.0,-3.08,5.334716    6.927092
228.0,3.08,-5.334716    6.927092
228.0,6.159999,0.0      6.927092
228.0,3.08,5.334716     6.927092
211.875,-9.239999,-1.778239     -0.625931
211.875,-3.08,8.891193  -0.625931
211.875,-6.159999,-7.112955     -0.625931
211.875,6.159999,-7.112955      -0.625931
211.875,3.08,8.891193   -0.625931
211.875,9.239999,-1.778239      -0.625931
111.9375,-9.239999,0.0  1.892092
111.9375,-4.62,-8.002074        1.892092
111.9375,-4.62,8.002074 1.892092
111.9375,4.62,-8.002074 1.892092
111.9375,9.239999,0.0   1.892092
111.9375,4.62,8.002074  1.892092
-4.3203125,-7.699999,2.667358   -5.030367
-4.3203125,-7.699999,-2.667358  -5.030367
-4.3203125,-6.159999,-5.334716  -5.030367
-4.3203125,-6.159999,5.334716   -5.030367
-4.3203125,-7.699999,2.667358   5.039632
-4.3203125,1.54,-8.002074       -5.030367
-4.3203125,-1.54,-8.002074      -5.030367
-4.3203125,-7.699999,-2.667358  5.039632
-4.3203125,-6.159999,-5.334716  5.039632
-4.3203125,-1.54,8.002074       -5.030367
-4.3203125,1.54,-8.002074       5.039632
-4.3203125,-6.159999,5.334716   5.039632
-4.3203125,-1.54,-8.002074      5.039632
-4.3203125,6.159999,-5.334716   -5.030367
-4.3203125,1.54,8.002074        -5.030367
-4.3203125,7.699999,-2.667358   -5.030367
-4.3203125,7.699999,2.667358    -5.030367
-4.3203125,6.159999,5.334716    -5.030367
-4.3203125,-1.54,8.002074       5.039632
-4.3203125,6.159999,-5.334716   5.039632
-4.3203125,7.699999,-2.667358   5.039632
-4.3203125,1.54,8.002074        5.039632
-4.3203125,7.699999,2.667358    5.039632
-4.3203125,6.159999,5.334716    5.039632
-0.6875,-7.699999,-0.889119     -5.660931
-0.6875,-4.62,-6.223835 -5.660931
-0.6875,-3.08,7.112955  -5.660931
-0.6875,4.62,-6.223835  -5.660931
-0.6875,3.08,7.112955   -5.660931
-0.6875,7.699999,-0.889119      -5.660931
116.0,-1.54,0.889119    9.444068
116.0,0.0,-1.778239     9.444068
116.0,1.54,0.889119     9.444068
51.3125,-9.239999,1.778239      2.515516
51.3125,-3.08,-8.891193 2.515516
51.3125,3.08,-8.891193  2.515516
51.3125,-6.159999,7.112955      2.515516
51.3125,9.239999,1.778239       2.515516
51.3125,6.159999,7.112955       2.515516
156.875,-9.239999,-1.778239     -2.519484
156.875,-3.08,8.891193  -2.519484
156.875,-6.159999,-7.112955     -2.519484
156.875,6.159999,-7.112955      -2.519484
156.875,9.239999,-1.778239      -2.519484
156.875,3.08,8.891193   -2.519484
219.625,-9.239999,-0.0  -3.142907
219.625,-4.62,-8.002074 -3.142907
219.625,-4.62,8.002074  -3.142907
219.625,4.62,-8.002074  -3.142907
219.625,9.239999,-0.0   -3.142907
219.625,4.62,8.002074   -3.142907
8.64550781,-4.62,-2.667358      -8.177907
8.64550781,-4.62,2.667358       -8.177907
8.64550781,4.62,2.667358        -8.177907
8.64550781,4.62,-2.667358       -8.177907
8.64550781,-0.0,-5.334716       -8.177907
8.64550781,0.0,5.334716 -8.177907
251.875,-4.62,-4.445597 7.550516
251.875,-6.159999,-1.778239     7.550516
251.875,-1.54,6.223835  7.550516
251.875,4.62,-4.445597  7.550516
251.875,1.54,6.223835   7.550516
251.875,6.159999,-1.778239      7.550516
-348.0,-4.62,4.445597   -7.554483
-348.0,-6.159999,1.778239       -7.554483
-348.0,-1.54,-6.223835  -7.554483
-348.0,1.54,-6.223835   -7.554483
-348.0,6.159999,1.778239        -7.554483
-348.0,4.62,4.445597    -7.554483
71.265625,-7.699999,6.223835    -0.625931
71.265625,-9.239999,3.556477    -0.625931
71.265625,-1.54,-9.780313       -0.625931
71.265625,1.54,-9.780313        -0.625931
71.265625,9.239999,3.556477     -0.625931
71.265625,7.699999,6.223835     -0.625931
-483.75,-0.0,-8.891193  4.409069
-483.75,-7.699999,4.445597      4.409069
-483.75,7.699999,4.445597       4.409069

End of input

&SCF
Occupied
9
Iterations
   50  100
End of Input

&RASSCF
LumOrb
Symmetry
1
Spin
2
Nactel
1 0 0
CIRoot
9 9 1
inactive
9
ras2
9
End of Input

>>> COPY niobium_so_cf.JobIph $SLURM_SUBMIT_DIR/niobium_so_cf.doublet.JobIph

>>> COPY $SLURM_SUBMIT_DIR/niobium_so_cf.doublet.JobIph ./JOB002

&RASSI
NROFJobIph
1 All
SpinOrbit
End of Input

EOF

-- ----------------------------------

--- Start Module: seward at Tue Mar 25 13:59:31 2025 ---

()()()()()()()()()()()()()()()()()()()()()()()()()()()()()()()()()()()()()()()()()()()()()()()()()()

                                              &SEWARD

                                   only a single process is used
                       available to each process: 4.1 GB of memory, 1 thread?
                                            pid: 2634423
()()()()()()()()()()()()()()()()()()()()()()()()()()()()()()()()()()()()()()()()()()()()()()()()()()

 The speed of LIGHT in this CALCULATION =   137.03599917700001     
               SEWARD will generate:
                  Multipole Moment integrals up to order  2
                  Kinetic Energy integrals
                  Nuclear Attraction integrals (point charge)
                  One-Electron Hamiltonian integrals
                  Velocity integrals
                  Relativistic Douglas-Kroll-Hess integrals:
                    - Parametrization         : EXP
                    - DKH order of Hamiltonian: 2
                    - DKH order of Properties : 0
                         - multipole moment operators
                         - electric potential operators
                         - contact operators
                  External field from   414 point(s) added to the one-electron Hamiltonian
                  Orbital angular momentum around (-0.0000 -0.0000  0.0088 )
                  Velocity quadrupole around (-0.0000 -0.0000  0.0088 )
                  Atomic mean-field integrals
                  Two-Electron Repulsion integrals

                   Integrals are discarded if absolute value <: 0.10E-13
                   Integral cutoff threshold is set to       <: 0.10E-15

++    Symmetry information:
      ---------------------

                    Character Table for C1 

                             E  
                    a        1  x, y, xy, Rz, z, xz, Ry, yz, Rx, I
--


++    Basis set information:
      ----------------------


      Basis set label: NB.ANO-RCC.ROOS.21S18P13D6F4G2H.10S9P8D5F4G2H......

      Electronic valence basis set:
      ------------------
      Associated Effective Charge  41.000000 au
      Associated Actual Charge     41.000000 au
      Nuclear Model: Point charge

      Shell  nPrim  nBasis  Cartesian Spherical Contaminant
         s      21      10        X                  
         p      18       9        X                  
         d      13       8                 X         
         f       6       5                 X         
         g       4       4                 X         
         h       2       2                 X         
--


++    Molecular structure info:
      -------------------------

                    ************************************************ 
                    **** Cartesian Coordinates / Bohr, Angstrom **** 
                    ************************************************ 

     Center  Label                x              y              z                     x              y              z
        1      NB              -0.000000      -0.000000       0.008754             -0.000000      -0.000000       0.004632
--


++    Operator info:
      --------------


  Net charge from external field:   -39.268449999999902     
--


            Nuclear Potential Energy              0.00000000 au

                    Nuclear-External Field Potential Energy    -375.10764418 au
                    External Field Potential Energy            1605.63690139 au 


            Total Nuclear Potential Energy           -375.10764418 au


      Basis set specifications :
      Symmetry species         a  
      Basis functions          170

 Sorry, Molden does not know how to handle
 functions with angular momentum larger than g
Note: The following floating-point exceptions are signalling: IEEE_UNDERFLOW_FLAG IEEE_DENORMAL
--- Stop Module: seward at Tue Mar 25 13:59:40 2025 /rc=_RC_ALL_IS_WELL_ ---
*** files: niobium_so_cf.GssOrb xmldump
    saved to directory /home4/s4752295/Internship/Initial_simulations/Point_charge_model/1_electron/Madelung_charges_9_active_space/Nb
--- Module seward spent 8 seconds ---

*** symbolic link created: INPORB -> niobium_so_cf.GssOrb
--- Start Module: scf at Tue Mar 25 13:59:40 2025 ---

()()()()()()()()()()()()()()()()()()()()()()()()()()()()()()()()()()()()()()()()()()()()()()()()()()

                                                &SCF

                                   only a single process is used
                       available to each process: 4.1 GB of memory, 1 thread?
                                            pid: 2634512
()()()()()()()()()()()()()()()()()()()()()()()()()()()()()()()()()()()()()()()()()()()()()()()()()()

++    Input section:
      --------------

      Header of the integral files:
      
       Integrals generated by seward 4.2.0  , Tue Mar 25 13:59:32 2025


      Cartesian coordinates in Angstrom:
      -----------------------------------------------------
      No.  Label        X            Y            Z        
      -----------------------------------------------------
       1   NB        -0.00000000  -0.00000000   0.00463220
      -----------------------------------------------------
      Nuclear repulsion energy = -375.10764418
--

++    Orbital specifications:
      -----------------------

      Symmetry species               1
                                     a
      Frozen orbitals                0
      Occupied orbitals              9
      Secondary orbitals           161
      Deleted orbitals               0
      Total number of orbitals     170
      Number of basis functions    170
--

      Molecular charge                          23.000

++    Optimization specifications:
      ----------------------------

      SCF Algorithm: Conventional
      Minimized density differences are used
      Number of density matrices in core                5
      Maximum number of NDDO SCF iterations            50
      Maximum number of HF SCF iterations             100
      Threshold for SCF energy change            0.10E-08
      Threshold for density matrix               0.10E-03
      Threshold for Fock matrix                  0.15E-03
      Threshold for linear dependence            0.10E-08
      Threshold at which DIIS is turned on       0.15E+00
      Threshold at which QNR/C2DIIS is turned on 0.75E-01
      Threshold for Norm(delta) (QNR/C2DIIS)     0.20E-04
      DIIS extrapolation of the SCF procedure
      All orbitals punched on: SCFORB
--

      Detected guessorb starting orbitals                                             


++ Convergence information
                                   SCF        iterations: Energy and convergence statistics

Iter     Tot. SCF        One-elec.       Two-elec.     Energy      Max Dij or  Max Fij      DNorm      TNorm      AccCon     Time
         Energy          Energy          Energy        Change      Delta Norm                                                in Sec.

 The total and one-electron energies are shifted by a value of      3000. a.u.

   1  -696.482706004  -923.851318781   602.476256953   0.00E+00    0.33E+00*   0.28E+01*    0.60E+01   0.31E+03   None         1.
   2  -702.301570775  -965.645308844   638.451382245  -0.58E+01*   0.97E-02*   0.26E+00*    0.14E+01   0.32E+03   EDIIS        1.
   3  -702.321068425  -963.774123235   636.560698986  -0.19E-01*   0.11E-02*   0.14E-01*    0.50E-01   0.32E+03   EDIIS        1.
   4  -702.321149936  -963.903487371   636.689981611  -0.82E-04*   0.77E-04    0.84E-03*    0.25E-02   0.32E+03   c2DIIS       1.
   5  -702.321150467  -963.896350721   636.682844430  -0.53E-06*   0.93E-05    0.65E-04     0.13E-03   0.32E+03   QNRc2DIIS    1.
   6  -702.321150469  -963.896343698   636.682837405  -0.16E-08*   0.14E-05    0.87E-05     0.13E-04   0.32E+03   QNRc2DIIS    1.
   7  -702.321150469  -963.896345446   636.682839153  -0.41E-10    0.54E-06    0.16E-05     0.11E-03   0.32E+03   QNRc2DIIS    1.

       Convergence after  7 Macro Iterations
--

 *****************************************************************************************************************************
 *                                                                                                                           *
 *                                             SCF/KS-DFT Program, Final results                                             *
 *                                                                                                                           *
 *                                                                                                                           *
 *                                                                                                                           *
 *                                                       Final Results                                                       *
 *                                                                                                                           *
 *****************************************************************************************************************************

::    Total SCF energy                              -3702.3211504689
      One-electron energy                           -3963.8963454457
      Two-electron energy                             636.6828391528
      Nuclear repulsion energy                       -375.1076441760
      Kinetic energy (interpolated)                  3884.2629560158
      Virial theorem                                    0.9531592460
      Total spin, S(S+1)                                0.0000000000
      Total spin, S                                     0.0000000000
      Max non-diagonal density matrix element           0.0000007350
      Max non-diagonal Fock matrix element              0.0000009467


      All orbitals with orbital energies smaller than  E(LUMO)+0.5 are printed

++    Molecular orbitals:
      -------------------

      Title: SCF orbitals

      Molecular orbitals for symmetry species 1: a  

          Orbital            1         2         3         4         5         6         7         8         9        10    
          Energy         -728.0556 -127.1130 -116.2699 -116.2699 -116.2688  -38.1925  -34.3712  -34.3712  -34.3534  -27.4712
          Occ. No.          2.0000    2.0000    2.0000    2.0000    2.0000    2.0000    2.0000    2.0000    2.0000    0.0000

        1 NB     1s         1.0000   -0.0001    0.0000    0.0000   -0.0000    0.0001   -0.0000   -0.0000    0.0000    0.0000
        2 NB     2s         0.0001    0.9999    0.0000    0.0000   -0.0025    0.0127    0.0000    0.0000   -0.0009   -0.0000
        3 NB     3s        -0.0001   -0.0120   -0.0000   -0.0000    0.0003    0.9877    0.0001    0.0000   -0.0432   -0.0000
        4 NB     4s         0.0000    0.0029    0.0000    0.0000   -0.0001   -0.0994   -0.0000   -0.0000    0.0069   -0.0000
        5 NB     5s        -0.0000   -0.0007   -0.0000   -0.0000    0.0000    0.0222    0.0000    0.0000   -0.0016   -0.0000
        6 NB     6s         0.0000    0.0009    0.0000    0.0000   -0.0000   -0.0272   -0.0000   -0.0000    0.0019    0.0000
        7 NB     7s        -0.0000   -0.0023   -0.0000   -0.0000    0.0001    0.0666    0.0000    0.0000   -0.0048    0.0000
        8 NB     8s         0.0000    0.0022    0.0000    0.0000   -0.0000   -0.0537   -0.0000   -0.0000    0.0039    0.0000
        9 NB     9s        -0.0000   -0.0028   -0.0000   -0.0000    0.0001    0.0550    0.0000    0.0000   -0.0040   -0.0000
       10 NB    10s         0.0001    0.0027    0.0000    0.0000   -0.0000   -0.0285   -0.0000   -0.0000    0.0020    0.0000
       11 NB     2px        0.0000    0.0025   -0.0029   -0.0000    0.9999    0.0003   -0.0000   -0.0000    0.0143    0.0000
       12 NB     3px       -0.0000    0.0002    0.0000    0.0000   -0.0134    0.0442   -0.0021   -0.0000    0.9831    0.0000
       13 NB     4px        0.0000   -0.0001   -0.0000   -0.0000    0.0029   -0.0031    0.0002    0.0000   -0.1074   -0.0000
       14 NB     5px       -0.0000    0.0000    0.0000    0.0000   -0.0010    0.0009   -0.0001   -0.0000    0.0335    0.0000
       15 NB     6px        0.0000   -0.0000   -0.0000   -0.0000    0.0025   -0.0021    0.0002    0.0000   -0.0806   -0.0000
       16 NB     7px       -0.0000    0.0000    0.0000    0.0000   -0.0023    0.0016   -0.0001   -0.0000    0.0648    0.0000
       17 NB     8px        0.0000   -0.0000   -0.0000   -0.0000    0.0028   -0.0014    0.0001    0.0000   -0.0658   -0.0000
       18 NB     9px       -0.0000    0.0000    0.0000    0.0000   -0.0027    0.0009   -0.0001   -0.0000    0.0491    0.0000
       19 NB    10px        0.0000   -0.0000   -0.0000   -0.0000    0.0022   -0.0003    0.0000    0.0000   -0.0228   -0.0000
       20 NB     2py        0.0000    0.0000   -0.0000    0.9999    0.0000    0.0000   -0.0000    0.0143    0.0000    0.0000
       21 NB     3py       -0.0000   -0.0000    0.0000   -0.0134   -0.0000    0.0000   -0.0000    0.9843    0.0000    0.0001
       22 NB     4py        0.0000    0.0000   -0.0000    0.0029    0.0000   -0.0000    0.0000   -0.1073   -0.0000   -0.0000
       23 NB     5py       -0.0000   -0.0000    0.0000   -0.0010   -0.0000    0.0000   -0.0000    0.0334    0.0000    0.0000
       24 NB     6py        0.0000    0.0000   -0.0000    0.0025    0.0000   -0.0000    0.0000   -0.0805   -0.0000   -0.0000
       25 NB     7py       -0.0000   -0.0000    0.0000   -0.0023   -0.0000    0.0000   -0.0000    0.0647    0.0000    0.0000
       26 NB     8py        0.0000    0.0000   -0.0000    0.0028    0.0000   -0.0000    0.0000   -0.0657   -0.0000   -0.0000
       27 NB     9py       -0.0000   -0.0000    0.0000   -0.0027   -0.0000    0.0000   -0.0000    0.0490    0.0000    0.0000
       28 NB    10py        0.0000    0.0000   -0.0000    0.0022    0.0000   -0.0000    0.0000   -0.0228   -0.0000   -0.0000
       29 NB     2pz        0.0000    0.0000    0.9999    0.0000    0.0029    0.0000    0.0143    0.0000    0.0000    0.0000
       30 NB     3pz       -0.0000    0.0000   -0.0134   -0.0000   -0.0000    0.0000    0.9843    0.0000    0.0021    0.0000
       31 NB     4pz        0.0000   -0.0000    0.0029    0.0000    0.0000   -0.0000   -0.1073   -0.0000   -0.0002   -0.0000
       32 NB     5pz       -0.0000    0.0000   -0.0010   -0.0000   -0.0000    0.0000    0.0334    0.0000    0.0001    0.0000
       33 NB     6pz        0.0000   -0.0000    0.0025    0.0000    0.0000   -0.0000   -0.0805   -0.0000   -0.0002   -0.0000
       34 NB     7pz       -0.0000    0.0000   -0.0023   -0.0000   -0.0000    0.0000    0.0647    0.0000    0.0001    0.0000
       35 NB     8pz        0.0000   -0.0000    0.0028    0.0000    0.0000   -0.0000   -0.0657   -0.0000   -0.0001   -0.0000
       36 NB     9pz       -0.0000    0.0000   -0.0027   -0.0000   -0.0000    0.0000    0.0490    0.0000    0.0001    0.0000
       37 NB    10pz        0.0000   -0.0000    0.0022    0.0000    0.0000   -0.0000   -0.0228   -0.0000   -0.0000   -0.0000
       38 NB     3d2-      -0.0000    0.0000   -0.0000    0.0002    0.0000    0.0000   -0.0000    0.0222    0.0000   -0.0075
       39 NB     4d2-       0.0000   -0.0000    0.0000   -0.0000   -0.0000    0.0000    0.0000   -0.0013   -0.0000    0.0007
       40 NB     5d2-      -0.0000    0.0000   -0.0000    0.0000    0.0000   -0.0000   -0.0000    0.0012    0.0000   -0.0007
       41 NB     6d2-       0.0000   -0.0000    0.0000   -0.0000   -0.0000    0.0000    0.0000   -0.0009   -0.0000    0.0007
       42 NB     7d2-      -0.0000    0.0000   -0.0000    0.0000    0.0000   -0.0000   -0.0000    0.0007    0.0000   -0.0006
       43 NB     8d2-       0.0000   -0.0000    0.0000   -0.0000   -0.0000    0.0000    0.0000   -0.0006   -0.0000    0.0007
       44 NB     9d2-      -0.0000    0.0000   -0.0000    0.0000    0.0000   -0.0000   -0.0000    0.0003    0.0000   -0.0006
       45 NB    10d2-      -0.0000    0.0000   -0.0000    0.0001    0.0000   -0.0000    0.0000   -0.0000   -0.0000   -0.0005
       46 NB     3d1-       0.0000   -0.0000   -0.0000    0.0000    0.0000   -0.0000   -0.0000    0.0000   -0.0000    0.9741
       47 NB     4d1-      -0.0000   -0.0000    0.0000   -0.0000   -0.0000    0.0000    0.0000   -0.0000    0.0000   -0.0954
       48 NB     5d1-       0.0000    0.0000   -0.0000    0.0000    0.0000   -0.0000   -0.0000    0.0000   -0.0000    0.0965
       49 NB     6d1-      -0.0000   -0.0000    0.0000   -0.0000   -0.0000    0.0000    0.0000   -0.0000    0.0000   -0.0849
       50 NB     7d1-       0.0000    0.0000   -0.0000    0.0000    0.0000   -0.0000   -0.0000    0.0000   -0.0000    0.0759
       51 NB     8d1-      -0.0000   -0.0000    0.0000   -0.0000    0.0000   -0.0000    0.0000   -0.0000    0.0000   -0.0953
       52 NB     9d1-       0.0000    0.0000   -0.0000    0.0000   -0.0000    0.0000   -0.0000    0.0000   -0.0000    0.0772
       53 NB    10d1-       0.0000    0.0000   -0.0000    0.0000   -0.0000    0.0000    0.0000   -0.0000   -0.0000    0.0676
       54 NB     3d0        0.0000    0.0000    0.0000    0.0000   -0.0001    0.0001    0.0001    0.0000   -0.0131   -0.0000
       55 NB     4d0       -0.0000   -0.0000   -0.0000   -0.0000    0.0000   -0.0000   -0.0000   -0.0000    0.0007    0.0000
       56 NB     5d0        0.0000    0.0000    0.0000    0.0000   -0.0000    0.0000    0.0000    0.0000   -0.0007   -0.0000
       57 NB     6d0       -0.0000   -0.0000   -0.0000   -0.0000    0.0000    0.0000   -0.0000   -0.0000    0.0005    0.0000
       58 NB     7d0        0.0000    0.0000    0.0000    0.0000   -0.0000   -0.0000    0.0000    0.0000   -0.0004   -0.0000
       59 NB     8d0       -0.0000   -0.0000   -0.0000   -0.0000    0.0000    0.0000   -0.0000   -0.0000    0.0004    0.0000
       60 NB     9d0        0.0000    0.0000    0.0000    0.0000   -0.0000   -0.0000    0.0000    0.0000   -0.0002   -0.0000
       61 NB    10d0        0.0000    0.0000    0.0000    0.0000   -0.0000   -0.0000   -0.0000   -0.0000    0.0000   -0.0000
       62 NB     3d1+      -0.0000   -0.0000    0.0002    0.0000    0.0000   -0.0000    0.0222    0.0000    0.0001   -0.0000
       63 NB     4d1+       0.0000    0.0000   -0.0000   -0.0000   -0.0000    0.0000   -0.0013   -0.0000   -0.0000    0.0000
       64 NB     5d1+      -0.0000   -0.0000    0.0000    0.0000    0.0000   -0.0000    0.0012    0.0000    0.0000   -0.0000
       65 NB     6d1+       0.0000    0.0000   -0.0000   -0.0000   -0.0000   -0.0000   -0.0009   -0.0000   -0.0000    0.0000
       66 NB     7d1+      -0.0000   -0.0000    0.0000    0.0000    0.0000    0.0000    0.0007    0.0000    0.0000   -0.0000
       67 NB     8d1+       0.0000    0.0000   -0.0000   -0.0000   -0.0000   -0.0000   -0.0006   -0.0000   -0.0000    0.0000
       68 NB     9d1+      -0.0000   -0.0000    0.0000    0.0000    0.0000    0.0000    0.0003    0.0000    0.0000   -0.0000
       69 NB    10d1+      -0.0000   -0.0000    0.0001    0.0000    0.0000    0.0000   -0.0000   -0.0000   -0.0000   -0.0000
       70 NB     3d2+      -0.0000   -0.0000   -0.0000   -0.0000    0.0002   -0.0002   -0.0000   -0.0000    0.0226   -0.0000
       71 NB     4d2+       0.0000    0.0000    0.0000    0.0000   -0.0000    0.0000    0.0000    0.0000   -0.0013    0.0000
       72 NB     5d2+      -0.0000   -0.0000   -0.0000   -0.0000    0.0000   -0.0000   -0.0000   -0.0000    0.0012   -0.0000
       73 NB     6d2+       0.0000    0.0000    0.0000    0.0000   -0.0000   -0.0000    0.0000    0.0000   -0.0009    0.0000
       74 NB     7d2+      -0.0000   -0.0000   -0.0000   -0.0000    0.0000    0.0000   -0.0000   -0.0000    0.0007   -0.0000
       75 NB     8d2+       0.0000    0.0000    0.0000    0.0000   -0.0000   -0.0000    0.0000    0.0000   -0.0006    0.0000
       76 NB     9d2+      -0.0000   -0.0000   -0.0000   -0.0000    0.0000    0.0000   -0.0000   -0.0000    0.0003   -0.0000
       77 NB    10d2+      -0.0000   -0.0000   -0.0000   -0.0000    0.0001    0.0000    0.0000    0.0000   -0.0000   -0.0000
       78 NB     4f3-      -0.0000    0.0000    0.0000   -0.0000   -0.0000    0.0000    0.0000   -0.0000   -0.0000   -0.0000
       79 NB     5f3-       0.0000    0.0000    0.0000   -0.0000   -0.0000    0.0000    0.0000   -0.0000   -0.0000   -0.0000
       80 NB     6f3-      -0.0000   -0.0000   -0.0000    0.0000    0.0000   -0.0000   -0.0000    0.0000    0.0000    0.0000
       81 NB     7f3-       0.0000    0.0000    0.0000   -0.0000   -0.0000    0.0000    0.0000   -0.0000   -0.0000   -0.0000
       82 NB     8f3-      -0.0000   -0.0000    0.0000   -0.0000   -0.0000   -0.0000    0.0000   -0.0000   -0.0000   -0.0000
       83 NB     4f2-      -0.0000    0.0000    0.0000   -0.0000   -0.0000    0.0000    0.0000   -0.0000   -0.0000    0.0011
       84 NB     5f2-      -0.0000    0.0000    0.0000   -0.0000   -0.0000    0.0000    0.0000   -0.0000   -0.0000    0.0012
       85 NB     6f2-       0.0000   -0.0000   -0.0000    0.0000    0.0000   -0.0000   -0.0000    0.0000    0.0000   -0.0012
       86 NB     7f2-      -0.0000    0.0000    0.0000   -0.0000   -0.0000    0.0000    0.0000   -0.0000   -0.0000    0.0012
       87 NB     8f2-      -0.0000    0.0000    0.0000   -0.0000   -0.0000   -0.0000    0.0000   -0.0000   -0.0000    0.0008
       88 NB     4f1-      -0.0000    0.0000   -0.0000    0.0000    0.0000    0.0000   -0.0000    0.0000    0.0000    0.0000
       89 NB     5f1-      -0.0000    0.0000   -0.0000    0.0000    0.0000    0.0000   -0.0000    0.0000    0.0000    0.0000
       90 NB     6f1-       0.0000    0.0000    0.0000   -0.0000    0.0000   -0.0000    0.0000   -0.0000   -0.0000   -0.0000
       91 NB     7f1-      -0.0000   -0.0000   -0.0000    0.0000    0.0000    0.0000   -0.0000    0.0000    0.0000    0.0000
       92 NB     8f1-       0.0000   -0.0000   -0.0000    0.0000    0.0000    0.0000   -0.0000    0.0000    0.0000    0.0000
       93 NB     4f0        0.0000    0.0000    0.0000    0.0000    0.0000    0.0000    0.0000    0.0000    0.0000    0.0000
       94 NB     5f0       -0.0000   -0.0000    0.0000    0.0000    0.0000   -0.0000    0.0000    0.0000    0.0000    0.0000
       95 NB     6f0       -0.0000   -0.0000   -0.0000   -0.0000   -0.0000   -0.0000   -0.0000   -0.0000   -0.0000   -0.0000
       96 NB     7f0       -0.0000   -0.0000    0.0000    0.0000    0.0000   -0.0000    0.0000    0.0000    0.0000    0.0000
       97 NB     8f0        0.0000    0.0000    0.0000    0.0000    0.0000    0.0000    0.0000    0.0000    0.0000    0.0000
       98 NB     4f1+       0.0000   -0.0000    0.0000    0.0000    0.0000   -0.0000    0.0000    0.0000    0.0000   -0.0000
       99 NB     5f1+       0.0000   -0.0000   -0.0000   -0.0000    0.0000   -0.0000    0.0000    0.0000    0.0000   -0.0000
      100 NB     6f1+       0.0000    0.0000   -0.0000   -0.0000   -0.0000    0.0000   -0.0000   -0.0000   -0.0000    0.0000
      101 NB     7f1+       0.0000   -0.0000    0.0000    0.0000    0.0000   -0.0000    0.0000    0.0000    0.0000   -0.0000
      102 NB     8f1+       0.0000   -0.0000   -0.0000   -0.0000    0.0000   -0.0000    0.0000    0.0000    0.0000   -0.0000
      103 NB     4f2+       0.0000    0.0000   -0.0000   -0.0000    0.0000    0.0000   -0.0000   -0.0000    0.0000   -0.0000
      104 NB     5f2+      -0.0000   -0.0000   -0.0000   -0.0000   -0.0000   -0.0000   -0.0000   -0.0000    0.0000   -0.0000
      105 NB     6f2+      -0.0000   -0.0000    0.0000    0.0000   -0.0000   -0.0000    0.0000    0.0000   -0.0000    0.0000
      106 NB     7f2+      -0.0000   -0.0000   -0.0000   -0.0000   -0.0000   -0.0000   -0.0000   -0.0000    0.0000   -0.0000
      107 NB     8f2+       0.0000    0.0000   -0.0000   -0.0000    0.0000    0.0000   -0.0000   -0.0000    0.0000   -0.0000
      108 NB     4f3+      -0.0000    0.0000    0.0000    0.0000   -0.0000    0.0000    0.0000    0.0000   -0.0000   -0.0000
      109 NB     5f3+      -0.0000    0.0000    0.0000    0.0000   -0.0000    0.0000    0.0000    0.0000   -0.0000   -0.0000
      110 NB     6f3+      -0.0000   -0.0000   -0.0000   -0.0000    0.0000   -0.0000   -0.0000   -0.0000    0.0000    0.0000
      111 NB     7f3+      -0.0000    0.0000    0.0000    0.0000   -0.0000    0.0000    0.0000    0.0000   -0.0000   -0.0000
      112 NB     8f3+      -0.0000    0.0000    0.0000    0.0000   -0.0000    0.0000    0.0000    0.0000   -0.0000   -0.0000
      113 NB     5g4-      -0.0000   -0.0000   -0.0000    0.0000    0.0000   -0.0000   -0.0000    0.0000    0.0000    0.0000
      114 NB     6g4-       0.0000    0.0000    0.0000   -0.0000   -0.0000    0.0000    0.0000   -0.0000   -0.0000   -0.0000
      115 NB     7g4-      -0.0000    0.0000   -0.0000    0.0000    0.0000   -0.0000   -0.0000    0.0000    0.0000    0.0000
      116 NB     8g4-       0.0000   -0.0000    0.0000   -0.0000   -0.0000    0.0000    0.0000   -0.0000   -0.0000   -0.0000
      117 NB     5g3-       0.0000   -0.0000    0.0000   -0.0000   -0.0000    0.0000    0.0000   -0.0000    0.0000   -0.0000
      118 NB     6g3-      -0.0000    0.0000    0.0000   -0.0000   -0.0000   -0.0000   -0.0000    0.0000    0.0000    0.0000
      119 NB     7g3-       0.0000   -0.0000    0.0000   -0.0000    0.0000    0.0000    0.0000   -0.0000   -0.0000   -0.0000
      120 NB     8g3-      -0.0000   -0.0000   -0.0000    0.0000    0.0000   -0.0000   -0.0000    0.0000    0.0000    0.0001
      121 NB     5g2-      -0.0000    0.0000    0.0000   -0.0000    0.0000   -0.0000    0.0000   -0.0000   -0.0000   -0.0000
      122 NB     6g2-       0.0000   -0.0000   -0.0000    0.0000    0.0000    0.0000   -0.0000    0.0000    0.0000    0.0000
      123 NB     7g2-      -0.0000    0.0000    0.0000   -0.0000   -0.0000   -0.0000    0.0000   -0.0000   -0.0000   -0.0000
      124 NB     8g2-       0.0000   -0.0000   -0.0000    0.0000    0.0000    0.0000   -0.0000    0.0000    0.0000    0.0000
      125 NB     5g1-       0.0000    0.0000   -0.0000    0.0000   -0.0000    0.0000   -0.0000    0.0000    0.0000    0.0000
      126 NB     6g1-      -0.0000   -0.0000   -0.0000    0.0000   -0.0000   -0.0000    0.0000   -0.0000    0.0000   -0.0000
      127 NB     7g1-       0.0000   -0.0000   -0.0000    0.0000    0.0000    0.0000   -0.0000    0.0000    0.0000    0.0000
      128 NB     8g1-      -0.0000    0.0000    0.0000   -0.0000    0.0000    0.0000    0.0000   -0.0000    0.0000   -0.0000
      129 NB     5g0        0.0000    0.0000   -0.0000   -0.0000    0.0000   -0.0000   -0.0000   -0.0000    0.0000   -0.0000
      130 NB     6g0        0.0000    0.0000   -0.0000   -0.0000   -0.0000    0.0000    0.0000    0.0000   -0.0000    0.0000
      131 NB     7g0       -0.0000   -0.0000   -0.0000   -0.0000    0.0000   -0.0000   -0.0000   -0.0000    0.0000   -0.0000
      132 NB     8g0       -0.0000   -0.0000    0.0000    0.0000   -0.0000    0.0000    0.0000    0.0000   -0.0000    0.0000
      133 NB     5g1+       0.0000    0.0000   -0.0000   -0.0000    0.0000    0.0000   -0.0000   -0.0000    0.0000   -0.0000
      134 NB     6g1+       0.0000    0.0000    0.0000    0.0000    0.0000   -0.0000    0.0000    0.0000   -0.0000    0.0000
      135 NB     7g1+       0.0000    0.0000   -0.0000   -0.0000    0.0000    0.0000   -0.0000   -0.0000    0.0000   -0.0000
      136 NB     8g1+       0.0000    0.0000    0.0000    0.0000   -0.0000   -0.0000    0.0000    0.0000   -0.0000   -0.0000
      137 NB     5g2+      -0.0000   -0.0000    0.0000    0.0000   -0.0000    0.0000    0.0000    0.0000   -0.0000    0.0000
      138 NB     6g2+      -0.0000   -0.0000    0.0000    0.0000    0.0000   -0.0000   -0.0000   -0.0000    0.0000   -0.0000
      139 NB     7g2+       0.0000    0.0000    0.0000    0.0000   -0.0000    0.0000    0.0000    0.0000   -0.0000    0.0000
      140 NB     8g2+       0.0000    0.0000   -0.0000   -0.0000    0.0000   -0.0000   -0.0000   -0.0000    0.0000   -0.0000
      141 NB     5g3+       0.0000    0.0000    0.0000    0.0000    0.0000    0.0000    0.0000    0.0000    0.0000    0.0000
      142 NB     6g3+       0.0000    0.0000   -0.0000   -0.0000    0.0000   -0.0000   -0.0000   -0.0000   -0.0000   -0.0000
      143 NB     7g3+       0.0000    0.0000    0.0000    0.0000    0.0000    0.0000    0.0000    0.0000    0.0000    0.0000
      144 NB     8g3+       0.0000    0.0000   -0.0000   -0.0000   -0.0000   -0.0000   -0.0000   -0.0000   -0.0000   -0.0000
      145 NB     5g4+       0.0000    0.0000    0.0000    0.0000    0.0000   -0.0000    0.0000    0.0000    0.0000    0.0000
      146 NB     6g4+       0.0000    0.0000    0.0000    0.0000   -0.0000    0.0000   -0.0000   -0.0000   -0.0000   -0.0000
      147 NB     7g4+      -0.0000   -0.0000    0.0000    0.0000    0.0000   -0.0000    0.0000    0.0000    0.0000    0.0000
      148 NB     8g4+      -0.0000   -0.0000   -0.0000   -0.0000   -0.0000    0.0000   -0.0000   -0.0000   -0.0000   -0.0000
      149 NB     6h5-       0.0000   -0.0000    0.0000   -0.0000    0.0000    0.0000    0.0000   -0.0000   -0.0000    0.0000
      150 NB     7h5-      -0.0000    0.0000   -0.0000    0.0000   -0.0000    0.0000   -0.0000    0.0000    0.0000   -0.0000
      151 NB     6h4-       0.0000   -0.0000   -0.0000    0.0000    0.0000    0.0000   -0.0000    0.0000    0.0000    0.0000
      152 NB     7h4-       0.0000   -0.0000    0.0000   -0.0000   -0.0000    0.0000    0.0000   -0.0000   -0.0000   -0.0000
      153 NB     6h3-      -0.0000    0.0000   -0.0000    0.0000    0.0000   -0.0000   -0.0000    0.0000   -0.0000   -0.0000
      154 NB     7h3-       0.0000   -0.0000    0.0000   -0.0000   -0.0000    0.0000    0.0000   -0.0000    0.0000    0.0000
      155 NB     6h2-       0.0000    0.0000   -0.0000    0.0000    0.0000    0.0000   -0.0000    0.0000    0.0000   -0.0000
      156 NB     7h2-      -0.0000    0.0000   -0.0000    0.0000    0.0000   -0.0000    0.0000   -0.0000   -0.0000    0.0000
      157 NB     6h1-       0.0000   -0.0000    0.0000   -0.0000   -0.0000    0.0000    0.0000   -0.0000    0.0000   -0.0000
      158 NB     7h1-      -0.0000    0.0000   -0.0000    0.0000    0.0000    0.0000   -0.0000    0.0000    0.0000    0.0000
      159 NB     6h0        0.0000    0.0000   -0.0000   -0.0000   -0.0000   -0.0000   -0.0000   -0.0000   -0.0000    0.0000
      160 NB     7h0        0.0000    0.0000    0.0000    0.0000   -0.0000    0.0000    0.0000    0.0000    0.0000   -0.0000
      161 NB     6h1+      -0.0000   -0.0000    0.0000    0.0000   -0.0000   -0.0000    0.0000    0.0000   -0.0000    0.0000
      162 NB     7h1+      -0.0000   -0.0000   -0.0000   -0.0000    0.0000   -0.0000   -0.0000   -0.0000    0.0000   -0.0000
      163 NB     6h2+      -0.0000   -0.0000    0.0000    0.0000    0.0000    0.0000    0.0000    0.0000    0.0000   -0.0000
      164 NB     7h2+      -0.0000   -0.0000   -0.0000   -0.0000    0.0000   -0.0000   -0.0000   -0.0000   -0.0000    0.0000
      165 NB     6h3+       0.0000    0.0000    0.0000    0.0000    0.0000    0.0000    0.0000    0.0000    0.0000   -0.0000
      166 NB     7h3+       0.0000    0.0000    0.0000    0.0000   -0.0000    0.0000   -0.0000   -0.0000   -0.0000    0.0000
      167 NB     6h4+      -0.0000   -0.0000   -0.0000   -0.0000    0.0000    0.0000   -0.0000   -0.0000    0.0000    0.0000
      168 NB     7h4+      -0.0000   -0.0000    0.0000    0.0000    0.0000   -0.0000    0.0000    0.0000   -0.0000   -0.0000
      169 NB     6h5+      -0.0000   -0.0000    0.0000    0.0000   -0.0000   -0.0000    0.0000    0.0000   -0.0000   -0.0000
      170 NB     7h5+      -0.0000   -0.0000    0.0000    0.0000    0.0000   -0.0000   -0.0000   -0.0000    0.0000    0.0000

          Orbital           11        12        13        14    
          Energy          -27.4712  -27.4626  -27.4626  -27.4594
          Occ. No.          0.0000    0.0000    0.0000    0.0000

        1 NB     1s        -0.0000    0.0000   -0.0000    0.0000
        2 NB     2s         0.0000   -0.0000   -0.0000    0.0000
        3 NB     3s         0.0000   -0.0000   -0.0000    0.0013
        4 NB     4s         0.0000   -0.0000   -0.0000   -0.0004
        5 NB     5s         0.0000    0.0000    0.0000    0.0001
        6 NB     6s        -0.0000   -0.0000   -0.0000   -0.0001
        7 NB     7s        -0.0000    0.0000    0.0000    0.0003
        8 NB     8s        -0.0000   -0.0000    0.0000   -0.0002
        9 NB     9s         0.0000   -0.0000   -0.0000    0.0002
       10 NB    10s        -0.0000    0.0000    0.0000   -0.0001
       11 NB     2px       -0.0000    0.0000    0.0000   -0.0006
       12 NB     3px       -0.0000    0.0001    0.0000   -0.0249
       13 NB     4px        0.0000   -0.0000   -0.0000    0.0050
       14 NB     5px       -0.0000    0.0000    0.0000   -0.0016
       15 NB     6px        0.0000   -0.0000   -0.0000    0.0038
       16 NB     7px       -0.0000    0.0000    0.0000   -0.0031
       17 NB     8px        0.0000   -0.0000   -0.0000    0.0031
       18 NB     9px       -0.0000    0.0000    0.0000   -0.0022
       19 NB    10px        0.0000   -0.0000   -0.0000    0.0010
       20 NB     2py        0.0000    0.0000   -0.0005   -0.0000
       21 NB     3py        0.0000    0.0000   -0.0212   -0.0000
       22 NB     4py       -0.0000   -0.0000    0.0042    0.0000
       23 NB     5py        0.0000    0.0000   -0.0013   -0.0000
       24 NB     6py       -0.0000   -0.0000    0.0032    0.0000
       25 NB     7py        0.0000    0.0000   -0.0026   -0.0000
       26 NB     8py       -0.0000   -0.0000    0.0026    0.0000
       27 NB     9py        0.0000    0.0000   -0.0019   -0.0000
       28 NB    10py       -0.0000   -0.0000    0.0008    0.0000
       29 NB     2pz       -0.0000   -0.0005   -0.0000   -0.0000
       30 NB     3pz       -0.0001   -0.0212   -0.0000   -0.0001
       31 NB     4pz        0.0000    0.0042    0.0000    0.0000
       32 NB     5pz       -0.0000   -0.0013   -0.0000   -0.0000
       33 NB     6pz        0.0000    0.0032    0.0000    0.0000
       34 NB     7pz       -0.0000   -0.0026   -0.0000   -0.0000
       35 NB     8pz        0.0000    0.0026    0.0000    0.0000
       36 NB     9pz       -0.0000   -0.0019   -0.0000   -0.0000
       37 NB    10pz        0.0000    0.0008    0.0000    0.0000
       38 NB     3d2-      -0.0000   -0.0000    0.9738    0.0000
       39 NB     4d2-       0.0000    0.0000   -0.0955   -0.0000
       40 NB     5d2-      -0.0000   -0.0000    0.0966    0.0000
       41 NB     6d2-       0.0000    0.0000   -0.0849   -0.0000
       42 NB     7d2-      -0.0000   -0.0000    0.0759    0.0000
       43 NB     8d2-       0.0000    0.0000   -0.0954   -0.0000
       44 NB     9d2-      -0.0000   -0.0000    0.0774    0.0000
       45 NB    10d2-      -0.0000   -0.0000    0.0677    0.0000
       46 NB     3d1-       0.0000   -0.0000    0.0075   -0.0000
       47 NB     4d1-      -0.0000    0.0000   -0.0007    0.0000
       48 NB     5d1-       0.0000   -0.0000    0.0007   -0.0000
       49 NB     6d1-      -0.0000    0.0000   -0.0007    0.0000
       50 NB     7d1-       0.0000   -0.0000    0.0006   -0.0000
       51 NB     8d1-      -0.0000    0.0000   -0.0007    0.0000
       52 NB     9d1-       0.0000   -0.0000    0.0006   -0.0000
       53 NB    10d1-       0.0000   -0.0000    0.0005   -0.0000
       54 NB     3d0        0.8436   -0.0005   -0.0000   -0.4869
       55 NB     4d0       -0.0826    0.0001    0.0000    0.0477
       56 NB     5d0        0.0836   -0.0000   -0.0000   -0.0483
       57 NB     6d0       -0.0735    0.0000    0.0000    0.0425
       58 NB     7d0        0.0657   -0.0000   -0.0000   -0.0380
       59 NB     8d0       -0.0825    0.0000    0.0000    0.0477
       60 NB     9d0        0.0669   -0.0000   -0.0000   -0.0387
       61 NB    10d0        0.0585   -0.0000   -0.0000   -0.0339
       62 NB     3d1+       0.0028    0.9738    0.0000    0.0039
       63 NB     4d1+      -0.0003   -0.0955   -0.0000   -0.0004
       64 NB     5d1+       0.0003    0.0966    0.0000    0.0004
       65 NB     6d1+      -0.0002   -0.0849   -0.0000   -0.0003
       66 NB     7d1+       0.0002    0.0760    0.0000    0.0003
       67 NB     8d1+      -0.0003   -0.0954   -0.0000   -0.0004
       68 NB     9d1+       0.0002    0.0774    0.0000    0.0003
       69 NB    10d1+       0.0002    0.0677    0.0000    0.0003
       70 NB     3d2+       0.4871   -0.0048   -0.0000    0.8432
       71 NB     4d2+      -0.0477    0.0005    0.0000   -0.0827
       72 NB     5d2+       0.0483   -0.0005   -0.0000    0.0837
       73 NB     6d2+      -0.0424    0.0004    0.0000   -0.0736
       74 NB     7d2+       0.0379   -0.0004   -0.0000    0.0658
       75 NB     8d2+      -0.0476    0.0005    0.0000   -0.0827
       76 NB     9d2+       0.0386   -0.0004   -0.0000    0.0670
       77 NB    10d2+       0.0338   -0.0003   -0.0000    0.0587
       78 NB     4f3-      -0.0000   -0.0000    0.0013    0.0000
       79 NB     5f3-      -0.0000   -0.0000    0.0015    0.0000
       80 NB     6f3-       0.0000    0.0000   -0.0015   -0.0000
       81 NB     7f3-      -0.0000   -0.0000    0.0015    0.0000
       82 NB     8f3-      -0.0000   -0.0000    0.0009    0.0000
       83 NB     4f2-       0.0000   -0.0000    0.0000   -0.0000
       84 NB     5f2-       0.0000   -0.0000    0.0000   -0.0000
       85 NB     6f2-      -0.0000    0.0000   -0.0000    0.0000
       86 NB     7f2-       0.0000   -0.0000    0.0000   -0.0000
       87 NB     8f2-       0.0000   -0.0000    0.0000   -0.0000
       88 NB     4f1-       0.0000    0.0000   -0.0003   -0.0000
       89 NB     5f1-       0.0000    0.0000   -0.0004   -0.0000
       90 NB     6f1-      -0.0000   -0.0000    0.0004    0.0000
       91 NB     7f1-       0.0000    0.0000   -0.0004   -0.0000
       92 NB     8f1-       0.0000    0.0000   -0.0002   -0.0000
       93 NB     4f0       -0.0000   -0.0008   -0.0000   -0.0000
       94 NB     5f0       -0.0000   -0.0010   -0.0000   -0.0000
       95 NB     6f0        0.0000    0.0009    0.0000    0.0000
       96 NB     7f0       -0.0000   -0.0009   -0.0000   -0.0000
       97 NB     8f0       -0.0000   -0.0006   -0.0000    0.0000
       98 NB     4f1+       0.0008    0.0000    0.0000   -0.0009
       99 NB     5f1+       0.0010    0.0000    0.0000   -0.0010
      100 NB     6f1+      -0.0009   -0.0000   -0.0000    0.0010
      101 NB     7f1+       0.0009    0.0000    0.0000   -0.0010
      102 NB     8f1+       0.0006    0.0000    0.0000   -0.0006
      103 NB     4f2+       0.0000    0.0011    0.0000    0.0000
      104 NB     5f2+       0.0000    0.0012    0.0000    0.0000
      105 NB     6f2+      -0.0000   -0.0012   -0.0000   -0.0000
      106 NB     7f2+       0.0000    0.0012    0.0000    0.0000
      107 NB     8f2+       0.0000    0.0008    0.0000    0.0000
      108 NB     4f3+       0.0007   -0.0000   -0.0000    0.0012
      109 NB     5f3+       0.0007   -0.0000   -0.0000    0.0013
      110 NB     6f3+      -0.0007    0.0000    0.0000   -0.0013
      111 NB     7f3+       0.0007   -0.0000   -0.0000    0.0013
      112 NB     8f3+       0.0005   -0.0000   -0.0000    0.0008
      113 NB     5g4-       0.0000    0.0000   -0.0000   -0.0000
      114 NB     6g4-      -0.0000   -0.0000    0.0001    0.0000
      115 NB     7g4-       0.0000    0.0000   -0.0001   -0.0000
      116 NB     8g4-      -0.0000   -0.0000    0.0001    0.0000
      117 NB     5g3-      -0.0000    0.0000   -0.0000   -0.0000
      118 NB     6g3-       0.0000    0.0000   -0.0000   -0.0000
      119 NB     7g3-      -0.0000    0.0000   -0.0000   -0.0000
      120 NB     8g3-       0.0000   -0.0000    0.0000    0.0000
      121 NB     5g2-      -0.0000   -0.0000    0.0000    0.0000
      122 NB     6g2-       0.0000    0.0000   -0.0000   -0.0000
      123 NB     7g2-      -0.0000   -0.0000    0.0000    0.0000
      124 NB     8g2-       0.0000    0.0000   -0.0000   -0.0000
      125 NB     5g1-       0.0000   -0.0000    0.0000   -0.0000
      126 NB     6g1-      -0.0000    0.0000   -0.0000    0.0000
      127 NB     7g1-       0.0000   -0.0000    0.0000   -0.0000
      128 NB     8g1-      -0.0000    0.0000   -0.0000    0.0000
      129 NB     5g0        0.0000   -0.0000   -0.0000   -0.0000
      130 NB     6g0       -0.0000   -0.0000   -0.0000    0.0000
      131 NB     7g0        0.0000    0.0000    0.0000   -0.0000
      132 NB     8g0       -0.0000   -0.0000   -0.0000    0.0000
      133 NB     5g1+       0.0000    0.0000    0.0000    0.0000
      134 NB     6g1+      -0.0000   -0.0000   -0.0000   -0.0000
      135 NB     7g1+       0.0000    0.0001    0.0000   -0.0000
      136 NB     8g1+       0.0000   -0.0001   -0.0000   -0.0000
      137 NB     5g2+      -0.0000    0.0000    0.0000    0.0000
      138 NB     6g2+       0.0000    0.0000    0.0000   -0.0000
      139 NB     7g2+      -0.0000    0.0000    0.0000    0.0000
      140 NB     8g2+       0.0000   -0.0000   -0.0000   -0.0001
      141 NB     5g3+      -0.0000   -0.0000   -0.0000   -0.0000
      142 NB     6g3+       0.0000    0.0000    0.0000    0.0000
      143 NB     7g3+      -0.0000   -0.0001   -0.0000   -0.0000
      144 NB     8g3+       0.0000    0.0001    0.0000   -0.0000
      145 NB     5g4+      -0.0000    0.0000    0.0000   -0.0000
      146 NB     6g4+       0.0000    0.0000    0.0000    0.0001
      147 NB     7g4+      -0.0000    0.0000    0.0000   -0.0001
      148 NB     8g4+       0.0000   -0.0000   -0.0000    0.0001
      149 NB     6h5-       0.0000   -0.0000    0.0000   -0.0000
      150 NB     7h5-      -0.0000    0.0000   -0.0000    0.0000
      151 NB     6h4-       0.0000    0.0000   -0.0000   -0.0000
      152 NB     7h4-      -0.0000    0.0000   -0.0000    0.0000
      153 NB     6h3-      -0.0000    0.0000   -0.0000    0.0000
      154 NB     7h3-       0.0000   -0.0000    0.0000   -0.0000
      155 NB     6h2-      -0.0000   -0.0000    0.0000   -0.0000
      156 NB     7h2-       0.0000   -0.0000    0.0000    0.0000
      157 NB     6h1-      -0.0000   -0.0000    0.0000   -0.0000
      158 NB     7h1-       0.0000    0.0000   -0.0000    0.0000
      159 NB     6h0       -0.0000    0.0000    0.0000   -0.0000
      160 NB     7h0        0.0000   -0.0000   -0.0000   -0.0000
      161 NB     6h1+      -0.0000   -0.0000   -0.0000    0.0000
      162 NB     7h1+       0.0000   -0.0000   -0.0000   -0.0000
      163 NB     6h2+       0.0000   -0.0000   -0.0000    0.0000
      164 NB     7h2+      -0.0000    0.0000    0.0000    0.0000
      165 NB     6h3+       0.0000    0.0000    0.0000   -0.0000
      166 NB     7h3+      -0.0000    0.0000    0.0000    0.0000
      167 NB     6h4+      -0.0000    0.0000    0.0000    0.0000
      168 NB     7h4+       0.0000   -0.0000   -0.0000    0.0000
      169 NB     6h5+       0.0000    0.0000    0.0000    0.0000
      170 NB     7h5+      -0.0000    0.0000    0.0000   -0.0000
--


++    Molecular charges:
      ------------------

      Mulliken charges per centre and basis function type
      ---------------------------------------------------

                NB    
      1s       2.0000
      2s       2.0000
      2px      2.0000
      2pz      2.0000
      2py      2.0000
      3s       1.9552
      3px      1.9373
      3pz      1.9379
      3py      1.9379
      4s       0.0199
      3d2+     0.0010
      3d1+     0.0010
      3d0      0.0003
      3d1-     0.0000
      3d2-     0.0010
      4px      0.0231
      4pz      0.0231
      4py      0.0231
      5s       0.0010
      4d2+     0.0000
      4d1+     0.0000
      4d0      0.0000
      4d1-     0.0000
      4d2-     0.0000
      5px      0.0022
      5pz      0.0022
      5py      0.0022
      6s       0.0015
      4f3+     0.0000
      4f2+     0.0000
      4f1+     0.0000
      4f0      0.0000
      4f1-     0.0000
      4f2-     0.0000
      4f3-     0.0000
      5d2+     0.0000
      5d1+     0.0000
      5d0      0.0000
      5d1-     0.0000
      5d2-     0.0000
      6px      0.0130
      6pz      0.0130
      6py      0.0130
      7s       0.0089
      5f3+     0.0000
      5f2+     0.0000
      5f1+     0.0000
      5f0      0.0000
      5f1-     0.0000
      5f2-     0.0000
      5f3-     0.0000
      6d2+     0.0000
      6d1+     0.0000
      6d0      0.0000
      6d1-     0.0000
      6d2-     0.0000
      7px      0.0084
      7pz      0.0084
      7py      0.0084
      5g4+     0.0000
      5g3+     0.0000
      5g2+     0.0000
      5g1+     0.0000
      5g0      0.0000
      5g1-     0.0000
      5g2-     0.0000
      5g3-     0.0000
      5g4-     0.0000
      6f3+     0.0000
      6f2+     0.0000
      6f1+     0.0000
      6f0      0.0000
      6f1-     0.0000
      6f2-     0.0000
      6f3-     0.0000
      6g4+     0.0000
      6g3+     0.0000
      6g2+     0.0000
      6g1+     0.0000
      6g0      0.0000
      6g1-     0.0000
      6g2-     0.0000
      6g3-     0.0000
      6g4-     0.0000
      6h5+     0.0000
      6h4+     0.0000
      6h3+     0.0000
      6h2+     0.0000
      6h1+     0.0000
      6h0      0.0000
      6h1-     0.0000
      6h2-     0.0000
      6h3-     0.0000
      6h4-     0.0000
      6h5-     0.0000
      7d2+     0.0000
      7d1+     0.0000
      7d0      0.0000
      7d1-     0.0000
      7d2-     0.0000
      7f3+     0.0000
      7f2+     0.0000
      7f1+     0.0000
      7f0      0.0000
      7f1-     0.0000
      7f2-     0.0000
      7f3-     0.0000
      7g4+     0.0000
      7g3+     0.0000
      7g2+     0.0000
      7g1+     0.0000
      7g0      0.0000
      7g1-     0.0000
      7g2-     0.0000
      7g3-     0.0000
      7g4-     0.0000
      7h5+     0.0000
      7h4+     0.0000
      7h3+     0.0000
      7h2+     0.0000
      7h1+     0.0000
      7h0      0.0000
      7h1-     0.0000
      7h2-     0.0000
      7h3-     0.0000
      7h4-     0.0000
      7h5-     0.0000
      8s       0.0058
      8px      0.0087
      8pz      0.0087
      8py      0.0087
      8d2+     0.0000
      8d1+     0.0000
      8d0      0.0000
      8d1-     0.0000
      8d2-     0.0000
      8f3+     0.0000
      8f2+     0.0000
      8f1+     0.0000
      8f0      0.0000
      8f1-     0.0000
      8f2-     0.0000
      8f3-     0.0000
      8g4+     0.0000
      8g3+     0.0000
      8g2+     0.0000
      8g1+     0.0000
      8g0      0.0000
      8g1-     0.0000
      8g2-     0.0000
      8g3-     0.0000
      8g4-     0.0000
      9s       0.0061
      9px      0.0048
      9pz      0.0048
      9py      0.0048
      9d2+     0.0000
      9d1+     0.0000
      9d0      0.0000
      9d1-     0.0000
      9d2-     0.0000
     10s       0.0016
     10px      0.0011
     10pz      0.0010
     10py      0.0010
     10d2+     0.0000
     10d1+     0.0000
     10d0      0.0000
     10d1-     0.0000
     10d2-     0.0000
      Total   18.0000

      N-E     23.0000

      Total electronic charge=   18.000000

      Total            charge=   23.000000
--

 Sorry, Molden does not know how to handle
 functions with angular momentum larger than g

++    Static properties:
      ------------------


      LoProp Charges per center


                   NB    
      Nuclear     41.0000
      Electronic -18.0000

      Total       23.0000
--


++    Molecular properties:
      ---------------------

      Charge (e):
                      =   23.0000
      Dipole Moment (Debye):
      Origin of the operator (Ang)=    0.0000    0.0000    0.0000
                   X= -1.3524E-01               Y= -1.8975E-13               Z=  5.1161E-01           Total=  5.2919E-01
      Center of Charge (Ang)
                     X=   -0.00122420               Y=   -0.00000000               Z=    0.00463109
      Quadrupole Moment (Debye*Ang):
      Origin of the operator (Ang)=   -0.0000   -0.0000    0.0046
                  XX= -7.2175E-01              XY= -3.4510E-16              XZ=  1.7437E-06              YY= -7.2230E-01
                  YZ= -7.6931E-16              ZZ= -7.2230E-01
      In traceless form (Debye*Ang)
                  XX=  5.4915E-04              XY= -5.1765E-16              XZ=  2.6156E-06              YY= -2.7455E-04
                  YZ= -1.1540E-15              ZZ= -2.7460E-04
--

 Sorry, Molden does not know how to handle
 functions with angular momentum larger than g
 ###############################################################################
 ###############################################################################
 ###                                                                         ###
 ###                                                                         ###
 ###    WARNING: RunFile label nBas                                          ###
 ###    was used       62 times                                              ###
 ###                                                                         ###
 ###                                                                         ###
 ###############################################################################
 ###############################################################################
Note: The following floating-point exceptions are signalling: IEEE_UNDERFLOW_FLAG IEEE_DENORMAL
--- Stop Module: scf at Tue Mar 25 13:59:45 2025 /rc=_RC_ALL_IS_WELL_ ---
*** files: niobium_so_cf.LprOrb niobium_so_cf.ScfOrb xmldump
    saved to directory /home4/s4752295/Internship/Initial_simulations/Point_charge_model/1_electron/Madelung_charges_9_active_space/Nb
--- Module scf spent 5 seconds ---

*** symbolic link created: INPORB -> niobium_so_cf.ScfOrb
--- Start Module: rasscf at Tue Mar 25 13:59:45 2025 ---

()()()()()()()()()()()()()()()()()()()()()()()()()()()()()()()()()()()()()()()()()()()()()()()()()()

                                              &RASSCF

                                   only a single process is used
                       available to each process: 4.1 GB of memory, 1 thread?
                                            pid: 2634518
()()()()()()()()()()()()()()()()()()()()()()()()()()()()()()()()()()()()()()()()()()()()()()()()()()


      Header of the ONEINT file:
      --------------------------
      
      Integrals generated by seward 4.2.0  , Tue Mar 25 13:59:32 2025


      OrdInt status: non-squared


      Cartesian coordinates in Angstrom:
      -----------------------------------------------------
      No.  Label        X            Y            Z        
      -----------------------------------------------------
       1   NB        -0.00000000  -0.00000000   0.00463220
      -----------------------------------------------------
      Nuclear repulsion energy = -375.10764418

++    Wave function specifications:
      -----------------------------

      Number of closed shell electrons          18
      Number of electrons in active shells       1
      Max number of holes in RAS1 space          0
      Max nr of electrons in RAS3 space          0
      Number of inactive orbitals                9
      Number of active orbitals                  9
      Number of secondary orbitals             152
      Spin quantum number                      0.5
      State symmetry                             1
--

++    Orbital specifications:
      -----------------------

      Symmetry species                           1
                                                 a
      Frozen orbitals                            0
      Inactive orbitals                          9
      Active orbitals                            9
      RAS1 orbitals                              0
      RAS2 orbitals                              9
      RAS3 orbitals                              0
      Secondary orbitals                       152
      Deleted orbitals                           0
      Number of basis functions                170
--

++    CI expansion specifications:
      ----------------------------

      Number of CSFs                             9
      Number of determinants                     9
      Number of root(s) required                 9
      Root chosen for geometry opt.              9
      CI roots used                              1     2     3     4     5     6     7     8     9
      weights                                0.111 0.111 0.111 0.111 0.111 0.111 0.111 0.111 0.111
      highest root included in the CI            9
      max. size of the explicit Hamiltonian      9
--

++    Optimization specifications:
      ----------------------------

      RASSCF algorithm: Conventional
      Maximum number of macro iterations       200
      Maximum number of SX iterations          100
      Threshold for RASSCF energy            0.100E-07
      Threshold for max MO rotation          0.100E+00
      Threshold for max BLB element          0.100E-03
      Level shift parameter                  0.500E+00
      Make Quasi-Newton update
--

      The MO-coefficients are taken from the file:
      INPORB                                                                                                                          
      Title: SCF orbitals                                                                  

      Total molecular charge   22.00

      ************************************************************************************************************************
      *                                                                                                                      *
      *                                            Wave function control section                                             *
      *                                                                                                                      *
      ************************************************************************************************************************


                                         RASSCF iterations: Energy and convergence statistics
                                         ----------------------------------------------------

      Iter CI   SX   CI       RASSCF       Energy    max ROT     max BLB   max BLB  Level Ln srch  Step   QN   Walltime
          iter iter root      energy       change     param      element    value   shift minimum  type update hh:mm:ss
 Nr of preliminary CI iterations:   1
      Total energies have been shifted. Add                -3000.00 au
        1   1    5    0  -722.85907634    0.00E+00   0.10E-01    8  17 1 -0.42E+00*  0.00   0.00    SX    NO    0:00:02
        2   1    4    0  -722.88303068   -0.24E-01* -0.23E-02    8 168 1  0.31E-01*  0.00   0.00    SX    NO    0:00:01
        3   1    4    0  -722.88315212   -0.12E-03* -0.16E-02    8 168 1 -0.26E-02*  0.00   0.00    SX    NO    0:00:01
        4   1    4    0  -722.88316146   -0.93E-05*  0.11E-02   10  19 1  0.13E-02*  0.00   0.00    SX    NO    0:00:01
        5   1    4    0  -722.88316441   -0.29E-05* -0.44E-03   10  19 1 -0.90E-03*  0.00   0.62    QN   YES    0:00:01
        6   1    4    0  -722.88316647   -0.21E-05*  0.12E-03   18  23 1 -0.13E-03*  0.00   1.05    QN   YES    0:00:01
        7   1    4    0  -722.88316658   -0.11E-06*  0.14E-03   18  23 1 -0.11E-03*  0.00   2.20    LS   YES    0:00:01
        8   1    4    0  -722.88316663   -0.48E-07*  0.12E-03   18  23 1 -0.76E-04   0.00   1.00    QN   YES    0:00:01
        9   1    3    0  -722.88316667   -0.45E-07* -0.14E-03   18  23 1 -0.52E-04   0.00   1.49    QN   YES    0:00:01
       10   1    3    0  -722.88316670   -0.26E-07* -0.90E-04   17  33 1 -0.30E-04   0.00   1.45    QN   YES    0:00:01
       11   1    3    0  -722.88316671   -0.84E-08   0.18E-04   14  23 1 -0.14E-04   0.00   1.26    QN   YES    0:00:01
      Convergence after 11 iterations
       12   1    3    0  -722.88316671   -0.10E-08   0.18E-04   10  19 1 -0.40E-05   0.00   1.26    QN   YES    0:00:01

      ************************************************************************************************************************
                                                      Wave function printout:
                       occupation of active orbitals, and spin coupling of open shells (u,d: Spin up or down)
      ************************************************************************************************************************

      Note: transformation to natural orbitals
      has been made, which may change the order of the CSFs.

      printout of CI-coefficients larger than  0.05 for root  1
      energy=   -3729.841933
      conf/sym  111111111     Coeff  Weight
             1  u00000000   0.69729 0.48622
             4  000u00000   0.50650 0.25654
             5  0000u0000  -0.50700 0.25705

      printout of CI-coefficients larger than  0.05 for root  2
      energy=   -3729.841933
      conf/sym  111111111     Coeff  Weight
             1  u00000000   0.58468 0.34185
             2  0u0000000   0.57978 0.33615
             3  00u000000  -0.05047 0.00255
             4  000u00000  -0.40920 0.16744
             5  0000u0000   0.38742 0.15009

      printout of CI-coefficients larger than  0.05 for root  3
      energy=   -3729.833174
      conf/sym  111111111     Coeff  Weight
             2  0u0000000  -0.09110 0.00830
             3  00u000000  -0.72008 0.51852
             4  000u00000  -0.05850 0.00342
             5  0000u0000  -0.06704 0.00449
             6  00000u000   0.67292 0.45282
             8  0000000u0   0.10895 0.01187

      printout of CI-coefficients larger than  0.05 for root  4
      energy=   -3729.833172
      conf/sym  111111111     Coeff  Weight
             1  u00000000  -0.41367 0.17112
             2  0u0000000   0.80929 0.65496
             4  000u00000   0.30515 0.09311
             5  0000u0000  -0.27566 0.07599

      printout of CI-coefficients larger than  0.05 for root  5
      energy=   -3729.829943
      conf/sym  111111111     Coeff  Weight
             4  000u00000   0.61672 0.38034
             5  0000u0000   0.63161 0.39893
             6  00000u000   0.17245 0.02974
             7  000000u00   0.05826 0.00339
             8  0000000u0  -0.43275 0.18727

      printout of CI-coefficients larger than  0.05 for root  6
      energy=   -3715.269927
      conf/sym  111111111     Coeff  Weight
             3  00u000000   0.65897 0.43424
             6  00000u000   0.67137 0.45074
             7  000000u00   0.28062 0.07875
             8  0000000u0   0.18358 0.03370

      printout of CI-coefficients larger than  0.05 for root  7
      energy=   -3713.881453
      conf/sym  111111111     Coeff  Weight
             3  00u000000  -0.19824 0.03930
             6  00000u000  -0.20828 0.04338
             7  000000u00   0.95742 0.91666

      printout of CI-coefficients larger than  0.05 for root  8
      energy=   -3713.881427
      conf/sym  111111111     Coeff  Weight
             3  00u000000  -0.05239 0.00275
             4  000u00000   0.31197 0.09733
             5  0000u0000   0.33488 0.11214
             6  00000u000  -0.13991 0.01957
             8  0000000u0   0.87542 0.76635

      printout of CI-coefficients larger than  0.05 for root  9
      energy=   -3713.735538
      conf/sym  111111111     Coeff  Weight
             9  00000000u   0.99990 0.99979

      Natural orbitals and occupation numbers for root  1
      sym 1:   1.000000   0.000000   0.000000   0.000000   0.000000   0.000000   0.000000   0.000000   0.000000

      Natural orbitals and occupation numbers for root  2
      sym 1:   1.000000  -0.000000   0.000000   0.000000   0.000000  -0.000000   0.000000   0.000000   0.000000

      Natural orbitals and occupation numbers for root  3
      sym 1:   0.000000  -0.000000   1.000000  -0.000000   0.000000   0.000000  -0.000000   0.000000   0.000000

      Natural orbitals and occupation numbers for root  4
      sym 1:   0.000000   1.000000  -0.000000  -0.000000   0.000000   0.000000   0.000000  -0.000000   0.000000

      Natural orbitals and occupation numbers for root  5
[...]
    12            14.5720067309      396.5245035346        3198185.8055         0.6
    13            15.9604799577      434.3067848007        3502920.4551         1.2
    14            15.9604799577      434.3067848007        3502920.4551         1.2
    15            15.9605061792      434.3074983233        3502926.2100         1.2
    16            15.9605061792      434.3074983233        3502926.2100         1.2
    17            16.1063958159      438.2773575770        3534945.2843         1.2
    18            16.1063958159      438.2773575770        3534945.2843         1.2


 Weights of the five most important spin-orbit-free states for each spin-orbit state.

 SO State  Total energy (au)           Spin-free states, spin, and weights
 -------------------------------------------------------------------------------------------------------
    1         0.000000       1 0.5  1.0000    9 0.5  0.0000    8 0.5  0.0000    7 0.5  0.0000    6 0.5  0.0000
    2         0.000000       1 0.5  1.0000    9 0.5  0.0000    8 0.5  0.0000    7 0.5  0.0000    6 0.5  0.0000
    3         0.000001       2 0.5  1.0000    9 0.5  0.0000    8 0.5  0.0000    7 0.5  0.0000    6 0.5  0.0000
    4         0.000001       2 0.5  1.0000    9 0.5  0.0000    8 0.5  0.0000    7 0.5  0.0000    6 0.5  0.0000
    5         0.008759       3 0.5  1.0000    9 0.5  0.0000    8 0.5  0.0000    7 0.5  0.0000    6 0.5  0.0000
    6         0.008759       3 0.5  1.0000    9 0.5  0.0000    8 0.5  0.0000    7 0.5  0.0000    6 0.5  0.0000
    7         0.008761       4 0.5  1.0000    9 0.5  0.0000    8 0.5  0.0000    7 0.5  0.0000    6 0.5  0.0000
    8         0.008761       4 0.5  1.0000    9 0.5  0.0000    8 0.5  0.0000    7 0.5  0.0000    6 0.5  0.0000
    9         0.011990       5 0.5  1.0000    9 0.5  0.0000    8 0.5  0.0000    7 0.5  0.0000    6 0.5  0.0000
   10         0.011990       5 0.5  1.0000    9 0.5  0.0000    8 0.5  0.0000    7 0.5  0.0000    6 0.5  0.0000
   11        14.572007       6 0.5  1.0000    9 0.5  0.0000    8 0.5  0.0000    7 0.5  0.0000    5 0.5  0.0000
   12        14.572007       6 0.5  1.0000    9 0.5  0.0000    8 0.5  0.0000    7 0.5  0.0000    5 0.5  0.0000
   13        15.960480       7 0.5  1.0000    9 0.5  0.0000    8 0.5  0.0000    6 0.5  0.0000    5 0.5  0.0000
   14        15.960480       7 0.5  1.0000    9 0.5  0.0000    8 0.5  0.0000    6 0.5  0.0000    5 0.5  0.0000
   15        15.960506       8 0.5  1.0000    9 0.5  0.0000    7 0.5  0.0000    6 0.5  0.0000    5 0.5  0.0000
   16        15.960506       8 0.5  1.0000    9 0.5  0.0000    7 0.5  0.0000    6 0.5  0.0000    5 0.5  0.0000
   17        16.106396       9 0.5  1.0000    8 0.5  0.0000    7 0.5  0.0000    6 0.5  0.0000    5 0.5  0.0000
   18        16.106396       9 0.5  1.0000    8 0.5  0.0000    7 0.5  0.0000    6 0.5  0.0000    5 0.5  0.0000
 -------------------------------------------------------------------------------------------------------


      ****************************************************************************************************
      *                                                                                                  *
      *                                    Special properties section                                    *
      *                                                                                                  *
      ****************************************************************************************************


++ Dipole transition strengths (SO states):
   ----------------------------------------
    for osc. strength at least    1.0000000000000001E-005

      From   To        Osc. strength     Einstein coefficients Ax, Ay, Az (sec-1)    Total A (sec-1)
     -----------------------------------------------------------------------------------------------
         1   13       1.67562265E-02  5.17098046E-07  1.37144214E+11  3.09525359E-02  1.37144214E+11
         1   15       1.67574412E-02  8.84998852E+06  3.09552504E-02  1.37145757E+11  1.37154607E+11
         2   14       1.67562265E-02  5.17098046E-07  1.37144214E+11  3.09525359E-02  1.37144214E+11
         2   16       1.67574412E-02  8.84998852E+06  3.09552504E-02  1.37145757E+11  1.37154607E+11
         3   13       1.67558520E-02  1.39887671E+06  3.09526860E-02  1.37139735E+11  1.37141134E+11
         3   15       1.67577108E-02  2.45598169E-06  1.37156798E+11  3.09533628E-02  1.37156798E+11
         4   14       1.67558520E-02  1.39887671E+06  3.09526860E-02  1.37139735E+11  1.37141134E+11
         4   16       1.67577108E-02  2.45598169E-06  1.37156798E+11  3.09533628E-02  1.37156798E+11
         5   11       1.12730426E-03  1.10536882E+05  2.83111610E-06  7.68176022E+09  7.68187076E+09
         5   13       1.71777338E-02  1.40439510E+11  4.64434076E-10  3.31169361E+05  1.40439841E+11
         5   17       1.52456140E-02  1.33349013E+06  4.67879349E-05  1.26932835E+11  1.26934168E+11
         6   12       1.12730426E-03  1.10536882E+05  2.83111610E-06  7.68176022E+09  7.68187076E+09
         6   14       1.71777338E-02  1.40439510E+11  4.64434076E-10  3.31169361E+05  1.40439841E+11
         6   18       1.52456140E-02  1.33349013E+06  4.67879349E-05  1.26932835E+11  1.26934168E+11
         7   11       1.12705303E-03  3.17167839E-10  7.68015632E+09  2.83146680E-06  7.68015632E+09
         7   15       1.71773245E-02  1.40429851E+11  3.82642574E-10  7.06371843E+06  1.40436915E+11
         7   17       1.52448943E-02  4.75748315E-09  1.26928140E+11  4.67881847E-05  1.26928140E+11
         8   12       1.12705303E-03  3.17167839E-10  7.68015632E+09  2.83146680E-06  7.68015632E+09
         8   16       1.71773245E-02  1.40429851E+11  3.82642574E-10  7.06371843E+06  1.40436915E+11
         8   18       1.52448943E-02  4.75748315E-09  1.26928140E+11  4.67881847E-05  1.26928140E+11
         9   11       1.53596253E-03  1.04618825E+10  9.42538316E-11  9.40014734E+04  1.04619765E+10
         9   13       5.47679599E-03  8.06787303E+05  6.79017061E-05  4.47576466E+10  4.47584534E+10
         9   15       5.47512637E-03  4.83322082E-11  4.47449558E+10  6.78119777E-05  4.47449558E+10
         9   17       2.11169839E-02  1.75747061E+11  1.61128435E-09  1.24783205E+06  1.75748309E+11
        10   12       1.53596253E-03  1.04618825E+10  9.42538316E-11  9.40014734E+04  1.04619765E+10
        10   14       5.47679599E-03  8.06787303E+05  6.79017061E-05  4.47576466E+10  4.47584534E+10
        10   16       5.47512637E-03  4.83322082E-11  4.47449558E+10  6.78119777E-05  4.47449558E+10
        10   18       2.11169839E-02  1.75747061E+11  1.61128435E-09  1.24783205E+06  1.75748309E+11
        11   13       1.85431236E-01  2.12444916E+04  1.74154952E-05  1.14859384E+10  1.14859596E+10
        11   15       1.85430022E-01  3.13383311E-11  1.14863183E+10  1.74168954E-05  1.14863183E+10
        11   17       1.71978803E-01  1.30093149E+10  7.03364418E-15  2.60707300E+04  1.30093410E+10
        12   14       1.85431236E-01  2.12444916E+04  1.74154952E-05  1.14859384E+10  1.14859596E+10
        12   16       1.85430022E-01  3.13383311E-11  1.14863183E+10  1.74168954E-05  1.14863183E+10
        12   18       1.71978803E-01  1.30093149E+10  7.03364418E-15  2.60707300E+04  1.30093410E+10
        13   17       1.25437001E-03  3.53654853E+00  1.30178266E-09  8.58100658E+05  8.58104194E+05
        14   18       1.25437001E-03  3.53654853E+00  1.30178266E-09  8.58100658E+05  8.58104194E+05
        15   17       1.25475835E-03  5.23710386E-15  8.58061380E+05  1.30043400E-09  8.58061380E+05
        16   18       1.25475835E-03  5.23710386E-15  8.58061380E+05  1.30043400E-09  8.58061380E+05
     -----------------------------------------------------------------------------------------------
--

++ Velocity transition strengths (SO states):
   ------------------------------------------
    for osc. strength at least    1.0000000000000001E-005

      From   To        Osc. strength     Einstein coefficients Ax, Ay, Az (sec-1)    Total A (sec-1)
     -----------------------------------------------------------------------------------------------
         1    3       1.84174686E-03  3.10219126E-22  4.55841432E-05  4.60304578E-22  4.55841432E-05
         1    5       2.11438895E-02  1.51053752E-14  5.21204213E+04  1.48162023E-08  5.21204213E+04
         1    7       2.11346633E-02  3.04878165E-02  1.48230110E-08  5.21254125E+04  5.21254430E+04
         1   13       1.70029741E-02  4.80200594E-07  1.39164246E+11  3.14085949E-02  1.39164246E+11
         1   15       1.70040743E-02  8.55513019E+06  3.14112970E-02  1.39165153E+11  1.39173708E+11
         2    4       1.84174686E-03  3.10219126E-22  4.55841432E-05  4.60304578E-22  4.55841432E-05
         2    6       2.11438895E-02  1.51053752E-14  5.21204213E+04  1.48162023E-08  5.21204213E+04
         2    8       2.11346633E-02  3.04878165E-02  1.48230110E-08  5.21254125E+04  5.21254430E+04
         2   14       1.70029741E-02  4.80200594E-07  1.39164246E+11  3.14085949E-02  1.39164246E+11
         2   16       1.70040743E-02  8.55513019E+06  3.14112970E-02  1.39165153E+11  1.39173708E+11
         3    5       2.11397417E-02  5.59527833E-02  1.48179444E-08  5.20996982E+04  5.20997542E+04
         3    7       2.11412159E-02  9.51661288E-15  5.21311578E+04  1.48191867E-08  5.21311578E+04
         3   13       1.70026186E-02  1.28976953E+06  3.14086691E-02  1.39160032E+11  1.39161322E+11
         3   15       1.70044915E-02  2.37044908E-06  1.39177108E+11  3.14092112E-02  1.39177108E+11
         4    6       2.11397417E-02  5.59527833E-02  1.48179444E-08  5.20996982E+04  5.20997542E+04
         4    8       2.11412159E-02  9.51661288E-15  5.21311578E+04  1.48191867E-08  5.21311578E+04
         4   14       1.70026186E-02  1.28976953E+06  3.14086691E-02  1.39160032E+11  1.39161322E+11
         4   16       1.70044915E-02  2.37044908E-06  1.39177108E+11  3.14092112E-02  1.39177108E+11
         5    7       1.11620101E-04  3.43729011E-21  1.95313722E-05  5.34102692E-19  1.95313722E-05
         5    9       1.75696094E-01  5.00697311E-02  2.17160737E-11  5.89333588E+04  5.89334089E+04
         5   11       1.15910642E-03  1.12279108E+05  2.91134595E-06  7.89849763E+09  7.89860991E+09
         5   13       1.71510963E-02  1.40222163E+11  5.22078390E-10  3.85371789E+05  1.40222548E+11
         5   17       1.55708681E-02  1.32414774E+06  4.77914440E-05  1.29641343E+11  1.29642668E+11
         6    8       1.11620101E-04  3.43729011E-21  1.95313722E-05  5.34102692E-19  1.95313722E-05
         6   10       1.75696094E-01  5.00697311E-02  2.17160737E-11  5.89333588E+04  5.89334089E+04
         6   12       1.15910642E-03  1.12279108E+05  2.91134595E-06  7.89849763E+09  7.89860991E+09
         6   14       1.71510963E-02  1.40222163E+11  5.22078390E-10  3.85371789E+05  1.40222548E+11
         6   18       1.55708681E-02  1.32414774E+06  4.77914440E-05  1.29641343E+11  1.29642668E+11
         7    9       1.75792765E-01  2.01099659E-17  5.88806883E+04  2.17289182E-11  5.88806883E+04
         7   11       1.15893542E-03  3.25230692E-10  7.89744214E+09  2.91161109E-06  7.89744214E+09
         7   15       1.71510012E-02  1.40214761E+11  3.94468930E-10  7.43007976E+06  1.40222191E+11
         7   17       1.55702798E-02  4.76815185E-09  1.29637731E+11  4.77909389E-05  1.29637731E+11
         8   10       1.75792765E-01  2.01099659E-17  5.88806883E+04  2.17289182E-11  5.88806883E+04
         8   12       1.15893542E-03  3.25230692E-10  7.89744214E+09  2.91161109E-06  7.89744214E+09
         8   16       1.71510012E-02  1.40214761E+11  3.94468930E-10  7.43007976E+06  1.40222191E+11
         8   18       1.55702798E-02  4.76815185E-09  1.29637731E+11  4.77909389E-05  1.29637731E+11
         9   11       1.55809548E-03  1.06126722E+10  1.00600889E-10  9.63220780E+04  1.06127686E+10
         9   13       5.64261214E-03  8.04334974E+05  6.99535617E-05  4.61129219E+10  4.61137262E+10
         9   15       5.64076502E-03  5.08418053E-11  4.60987823E+10  6.98630570E-05  4.60987823E+10
         9   17       2.10002510E-02  1.74776123E+11  1.64496121E-09  1.27164923E+06  1.74777394E+11
        10   12       1.55809548E-03  1.06126722E+10  1.00600889E-10  9.63220780E+04  1.06127686E+10
        10   14       5.64261214E-03  8.04334974E+05  6.99535617E-05  4.61129219E+10  4.61137262E+10
        10   16       5.64076502E-03  5.08418053E-11  4.60987823E+10  6.98630570E-05  4.60987823E+10
        10   18       2.10002510E-02  1.74776123E+11  1.64496121E-09  1.27164923E+06  1.74777394E+11
        11   13       1.74185457E-01  1.99115993E+04  1.63596160E-05  1.07893926E+10  1.07894125E+10
        11   15       1.74184297E-01  2.93699572E-11  1.07897482E+10  1.63597208E-05  1.07897482E+10
        11   17       1.61203516E-01  1.21942620E+10  9.88531924E-15  2.45012429E+04  1.21942865E+10
        12   14       1.74185457E-01  1.99115993E+04  1.63596160E-05  1.07893926E+10  1.07894125E+10
        12   16       1.74184297E-01  2.93699572E-11  1.07897482E+10  1.63597208E-05  1.07897482E+10
        12   18       1.61203516E-01  1.21942620E+10  9.88531924E-15  2.45012429E+04  1.21942865E+10
        13   17       2.57995123E-03  4.88975590E+00  2.67570016E-09  1.76492463E+06  1.76492952E+06
        14   18       2.57995123E-03  4.88975590E+00  2.67570016E-09  1.76492463E+06  1.76492952E+06
        15   17       2.58066352E-03  9.16292605E-15  1.76478235E+06  2.67507988E-09  1.76478235E+06
        16   18       2.58066352E-03  9.16292605E-15  1.76478235E+06  2.67507988E-09  1.76478235E+06
     -----------------------------------------------------------------------------------------------
--

++ Length and velocity gauge comparison (SO states):

 --------------------------------------------------
 A comparison between the dipole oscillator strengths in 
 length and velocity gauge will be performed

 All dipole oscillator differences above the tolerance of   0.10000000000000001       will be printed 

 Due to basis set deficiency these oscillator may be problematic 

 The tolerance is defined as ABS(1-O_l/O_v) 
 O_l : dipole oscillator strength in length gauge
 O_p : dipole oscillator strength in velocity gauge
 --------------------------------------------------

  Problematic transitions have been found

      From   To       Difference (%) Osc. st. (len.) Osc. st. (vel.)
     ---------------------------------------------------------------
         1    3      --------------- below threshold  1.84174686E-03
         1    5      --------------- below threshold  2.11438895E-02
         1    7      --------------- below threshold  2.11346633E-02
         2    4      --------------- below threshold  1.84174686E-03
         2    6      --------------- below threshold  2.11438895E-02
         2    8      --------------- below threshold  2.11346633E-02
         3    5      --------------- below threshold  2.11397417E-02
         3    7      --------------- below threshold  2.11412159E-02
         4    6      --------------- below threshold  2.11397417E-02
         4    8      --------------- below threshold  2.11412159E-02
         5    7      --------------- below threshold  1.11620101E-04
         5    9      --------------- below threshold  1.75696094E-01
         6    8      --------------- below threshold  1.11620101E-04
         6   10      --------------- below threshold  1.75696094E-01
         7    9      --------------- below threshold  1.75792765E-01
         8   10      --------------- below threshold  1.75792765E-01
        13   17            51.380088  1.25437001E-03  2.57995123E-03
        14   18            51.380088  1.25437001E-03  2.57995123E-03
        15   17            51.378460  1.25475835E-03  2.58066352E-03
        16   18            51.378460  1.25475835E-03  2.58066352E-03
     ---------------------------------------------------------------

 Number of problematic transitions =                    20

--

 Electric-dipole - electric-octupole not included
++ Total transition strengths for the second-order expansion of the wave vector (SO states):
   -----------------------------------------------------------------------------------------
    for osc. strength at least    1.0000000000000001E-005

      From   To        Osc. strength
     -------------------------------
         5   11       1.02562821E-05
         6   12       1.02562821E-05
         7   11       1.02559526E-05
         8   12       1.02559526E-05
         9   11       1.04234596E-05
        10   12       1.04234596E-05
     -------------------------------
--

++ I/O STATISTICS
 
  I. General I/O information
  - - - - - - - - - - - - - - - - - - - - - - - - - - - - - - - - - - - - - - - - - - -
  Unit  Name          Flsize      Write/Read            MBytes           Write/Read
                      (MBytes)       Calls              In/Out           Time, sec.
  - - - - - - - - - - - - - - - - - - - - - - - - - - - - - - - - - - - - - - - - - - -
   1  SCRATCH           0.00 .       9/      45 .      0.0/      0.0 .       0/       0
   2  ANNI              0.00 .       0/       0 .      0.0/      0.0 .       0/       0
   3  RUNFILE          14.69 .     322/   10733 .      2.3/     77.8 .       0/       0
   4  ONEINT            5.14 .       0/   22237 .      0.0/   3722.5 .       0/       0
   5  JOBIPH            5.91 .       0/      92 .      0.0/      0.7 .       0/       0
   6  ORDINT          403.03 .       1/    3225 .      0.0/    806.0 .       0/       0
  - - - - - - - - - - - - - - - - - - - - - - - - - - - - - - - - - - - - - - - - - - -
   *  TOTAL           428.78 .     332/   36332 .      2.3/   4607.0 .       0/       0
  - - - - - - - - - - - - - - - - - - - - - - - - - - - - - - - - - - - - - - - - - - -
 
  II. I/O Access Patterns
  - - - - - - - - - - - - - - - - - - - -
  Unit  Name               % of random
                         Write/Read calls
  - - - - - - - - - - - - - - - - - - - -
   1  SCRATCH             88.9/ 100.0
   2  ANNI                 0.0/   0.0
   3  RUNFILE             28.6/  10.8
   4  ONEINT               0.0/  17.4
   5  JOBIPH               0.0/  76.1
   6  ORDINT             100.0/   0.1
  - - - - - - - - - - - - - - - - - - - -
--
--- Stop Module: rassi at Tue Mar 25 14:00:15 2025 /rc=_RC_ALL_IS_WELL_ ---
*** files: xmldump
    saved to directory /home4/s4752295/Internship/Initial_simulations/Point_charge_model/1_electron/Madelung_charges_9_active_space/Nb
--- Module rassi spent 2 seconds ---

.##################.
.# Happy landing! #.
.##################.

    Timing: Wall=43.20 User=35.38 System=6.79

###############################################################################
Hbrk Cluster
Job 15897021 for user s4752295
Finished at: Tue Mar 25 14:00:19 CET 2025

Job details:
============

Job ID                         : 15897021
Name                           : Nb_no_SO
User                           : s4752295
Partition                      : regularmedium
Nodes                          : node101
Number of Nodes                : 1
Cores                          : 1
Number of Tasks                : 1
State                          : COMPLETED  
Submit                         : 2025-03-25T13:58:17
Start                          : 2025-03-25T13:59:27
End                            : 2025-03-25T14:00:15
Reserved walltime              : 15:00:00
Used walltime                  : 00:00:48
Used CPU time                  : 00:00:43 (Efficiency: 90.02%)
% User (Computation)           : 83.79%
% System (I/O)                 : 16.21%
Total memory reserved          : 25000M
Maximum memory used            : 1.62G

Acknowledgements:
=================

Please see this page for information about acknowledging Hbrk in your publications:

https://wiki.hpc.rug.nl/habrok/introduction/scientific_output

################################################################################
