   This run of MOLCAS is using the pymolcas driver

                             OPE
                             OPE          NMOL  CASOP  ENMOLC A   SO
                 OPE        NMOLC        AS  OP EN  MO LC     AS  OP
                OPENM       OL CA        SO  PE NM  OL CA     SOP EN
                OP EN      MO   LC       AS  OP ENMOL  CASO   PENMOL
                OP  EN     MO   LC       AS  OP EN     MO     LC ASO
               OP   E  NMOL  C  AS       OP  EN MO     LC     AS  OP
               OP  E   NMO   LC AS        OPEN  MO     LCASOP EN   M
               O  PEN   MO  LCA  SO
            OPE   NMO   L   CAS    OP
        OPENMOL  CASOP     ENMOL   CASOPE
     OPENMOLCA   SOPENMOLCASOPEN   MOLCASOPE
    OPENMOLCAS   OP           EN   MOL    CAS
    OPENMOLCAS       OP  ENM        O     LCA
    OPENMOLCAS    OPEN  MOLCASO     P  E  NMO
    OPENMOLCAS     OP               E  N  MOL
    OPENMOLCA   SO           PENM   O  L  CAS    OPEN    MO    LCAS
    OPENMOLCA   SOP           ENM   O  L  CAS   OP  EN  MOLC  AS   O
    OPENMOLCA   SOPE           NM      O  LCA   S      OP  EN MO
    OPENMOLC                AS         O  PEN   M      OL  CA  SOPE
    OPENMO        LCASOPE  NMOL        C  ASO   P      ENMOLC     AS
    OPE     NMO      LCA  SO     P     E   NM   OL  CA SO  PE N   MO
          OPENMOLCA            SOPE   NMO        LCAS  O    P  ENMO
     OPENMOLCASOPENMOLCASOPENMOLCASOPENMOLCA
        OPENMOLCASOPENMOLCASOPENMOLCASOPE
            OPENMOLCASOPENMOLCASOPENM
               OPENMOLCASOPENMOLCA        version: o91e1abe7de707b ?
                   OPENMOLCASO
                       OPE                tag:

 OpenMolcas is free software; you can redistribute it and/or modify it
 under the terms of the GNU Lesser General Public License version 2.1.
 OpenMolcas is distributed in the hope that it will be useful, but it
 is provided "as is" and without any express or implied warranties.
 For more details see the full text of the license in the file
 LICENSE or in <http://www.gnu.org/licenses/>.

                 Copyright (C) The OpenMolcas Authors
           For the author list and the recommended citation,
                   consult the file CONTRIBUTORS.md

           *************************************************
           * pymolcas version py2.10                       *
           *   build 3068ae8b88c9345ec6cfef6fef7f1169      *
           *   (after the EMIL interpreter by V. Veryazov) *
           *************************************************

configuration info
------------------
Host name: login1 (Linux)
C Compiler ID: GNU
C flags: -std=gnu99
Fortran Compiler ID: GNU
Fortran flags: -fno-aggressive-loop-optimizations -cpp -fdefault-integer-8 -fmax-stack-var-size=1048576
Definitions: _MOLCAS_;_I8_;_LINUX_;_MKL_
Parallel: OFF (GA=OFF)


   -----------------------------------------------------------------------------------------------------------------------------------
  |
  |           Project: niobium_so_cf
  |    Submitted from: /home4/s4752295/Internship/Initial_simulations/Point_charge_model/1_electron/Madelung_charges_9_active_space/Nb
  |      Scratch area: /tmp/niobium_so_cf
  |   Save outputs to: /home4/s4752295/Internship/Initial_simulations/Point_charge_model/1_electron/Madelung_charges_9_active_space/Nb
  |            Molcas: /home4/s4752295/Internship/Molcas/recomp_try/OpenMolcas-master/build
  |
  | Scratch area is empty
  |
  |    MOLCAS_DRIVER = /home4/s4752295/Internship/Molcas/bin/pymolcas
  |    MOLCAS_NPROCS = 1
  |    MOLCAS_SOURCE = /home4/s4752295/Internship/Molcas/recomp_try/OpenMolcas-master
  | MOLCAS_STRUCTURE = 0
  |
   -----------------------------------------------------------------------------------------------------------------------------------

++ ---------   Input file   ---------

&SEWARD
AMFi

CLIG
$R

Basis Set
Nb.ANO-rcc.Roos.21s18p13d6f4g2h.10s9p8d5f4g2h.
Spherical d
Nb            -1.0658140267135469e-14   -3.5527134223784897e-15 0.008753588724385739
End of Basis

Xfield

414
-2.8015407559999996,-1.0779999999999998,0.6223833       -0.625931
-2.8015407559999996,-0.0,-1.2447673     -0.625931
-2.8015407559999996,1.0779999999999998,0.6223833        -0.625931
-2.796742249,0.0,0.0    1.892092
1.861425783,-1.0779999999999998,-0.6223833      2.515516
1.861425783,0.0,1.2447673       2.515516
1.861425783,1.0779999999999998,-0.6223833       2.515516
2.4940917959999997,-2.1559999999999997,0.0      0.004632
2.4940917959999997,-1.0779999999999998,-1.8671506       0.004632
2.4940917959999997,-1.0779999999999998,1.8671506        0.004632
2.4940917959999997,1.0779999999999998,-1.8671506        0.004632
2.4940917959999997,1.0779999999999998,1.8671506 0.004632
2.4940917959999997,2.1559999999999997,0.0       0.004632
2.8904052730000003,-1.0779999999999998,0.6223833        -2.519484
2.8904052730000003,-0.0,-1.2447673      -2.519484
2.8904052730000003,1.0779999999999998,0.6223833 -2.519484
-2.053173829,-0.0,-0.0  -3.142907
-3.482568362,-2.1559999999999997,-1.2447673     -0.625931
-3.482568362,0.0,2.4895339      -0.625931
-3.482568362,2.1559999999999997,-1.2447673      -0.625931
-4.6265624999999995,-2.1559999999999997,0.0     1.892092
-4.6265624999999995,-1.0779999999999998,-1.8671506      1.892092
-4.6265624999999995,-1.0779999999999998,1.8671506       1.892092
-4.6265624999999995,1.0779999999999998,-1.8671506       1.892092
-4.6265624999999995,1.0779999999999998,1.8671506        1.892092
-4.6265624999999995,2.1559999999999997,0.0      1.892092
17.620312499999997,-2.1559999999999997,1.2447673        2.515516
17.620312499999997,-0.0,-2.4895339      2.515516
17.620312499999997,2.1559999999999997,1.2447673 2.515516
2.5470703159999997,-2.1559999999999997,-1.2447673       -2.519484
2.5470703159999997,0.0,2.4895339        -2.519484
2.5470703159999997,2.1559999999999997,-1.2447673        -2.519484
-2.262695316,-2.1559999999999997,-0.0   -3.142907
-2.262695316,-1.0779999999999998,-1.8671506     -3.142907
-2.262695316,-1.0779999999999998,1.8671506      -3.142907
-2.262695316,1.0779999999999998,-1.8671506      -3.142907
-2.262695316,1.0779999999999998,1.8671506       -3.142907
-2.262695316,2.1559999999999997,-0.0    -3.142907
-6.66640625,-2.1559999999999997,2.4895339       -0.625931
-6.66640625,2.1559999999999997,2.4895339        -0.625931
-6.66640625,-3.234,0.6223833    -0.625931
-6.66640625,3.234,0.6223833     -0.625931
-6.66640625,-1.0779999999999998,-3.1119179      -0.625931
-6.66640625,1.0779999999999998,-3.1119179       -0.625931
4.20546875,-1.0779999999999998,-0.6223833       4.409069
4.20546875,1.0779999999999998,-0.6223833        4.409069
4.20546875,0.0,1.2447673        4.409069
-122.675,-0.0,-0.0      -5.030367
-122.675,0.0,0.0        5.039632
9.462304684,-2.1559999999999997,-2.4895339      2.515516
9.462304684,2.1559999999999997,-2.4895339       2.515516
9.462304684,-3.234,-0.6223833   2.515516
9.462304684,3.234,-0.6223833    2.515516
9.462304684,-1.0779999999999998,3.1119179       2.515516
9.462304684,1.0779999999999998,3.1119179        2.515516
13.327343749999999,-3.234,-1.8671506    0.004632
13.327343749999999,-3.234,1.8671506     0.004632
13.327343749999999,3.234,-1.8671506     0.004632
13.327343749999999,3.234,1.8671506      0.004632
13.327343749999999,-0.0,-3.7343012      0.004632
13.327343749999999,0.0,3.7343012        0.004632
33.654687499999994,-2.1559999999999997,2.4895339        -2.519484
33.654687499999994,2.1559999999999997,2.4895339 -2.519484
33.654687499999994,-3.234,0.6223833     -2.519484
33.654687499999994,3.234,0.6223833      -2.519484
33.654687499999994,-1.0779999999999998,-3.1119179       -2.519484
33.654687499999994,1.0779999999999998,-3.1119179        -2.519484
-102.1125,-3.234,-1.8671506     1.892092
-102.1125,-3.234,1.8671506      1.892092
-102.1125,3.234,-1.8671506      1.892092
-102.1125,3.234,1.8671506       1.892092
-102.1125,-0.0,-3.7343012       1.892092
-102.1125,0.0,3.7343012 1.892092
-82.425,-2.1559999999999997,1.2447673   4.409069
-82.425,-0.0,-2.4895339 4.409069
-82.425,2.1559999999999997,1.2447673    4.409069
-62.3,-2.1559999999999997,-0.0  -5.030367
-62.3,-1.0779999999999998,-1.8671506    -5.030367
-62.3,-1.0779999999999998,1.8671506     -5.030367
-62.3,1.0779999999999998,-1.8671506     -5.030367
-62.3,-2.1559999999999997,0.0   5.039632
-62.3,2.1559999999999997,-0.0   -5.030367
-62.3,1.0779999999999998,1.8671506      -5.030367
-62.3,-1.0779999999999998,-1.8671506    5.039632
-62.3,-1.0779999999999998,1.8671506     5.039632
-62.3,1.0779999999999998,-1.8671506     5.039632
-62.3,2.1559999999999997,0.0    5.039632
-62.3,1.0779999999999998,1.8671506      5.039632
-32.637499999999996,-1.0779999999999998,-0.6223833      -5.660931
-32.637499999999996,0.0,1.2447673       -5.660931
-32.637499999999996,1.0779999999999998,-0.6223833       -5.660931
0.61796875,-4.3119993,0.0       0.004632
0.61796875,-2.1559999999999997,-3.7343012       0.004632
0.61796875,-2.1559999999999997,3.7343012        0.004632
0.61796875,2.1559999999999997,-3.7343012        0.004632
0.61796875,4.3119993,0.0        0.004632
0.61796875,2.1559999999999997,3.7343012 0.004632
47.55625,-3.234,1.8671506       -3.142907
47.55625,-3.234,-1.8671506      -3.142907
47.55625,3.234,-1.8671506       -3.142907
47.55625,3.234,1.8671506        -3.142907
47.55625,-0.0,-3.7343012        -3.142907
47.55625,0.0,3.7343012  -3.142907
60.4625,-4.3119993,-1.2447673   -0.625931
60.4625,-3.234,-3.1119179       -0.625931
60.4625,-1.0779999999999998,4.3566845   -0.625931
60.4625,3.234,-3.1119179        -0.625931
60.4625,4.3119993,-1.2447673    -0.625931
60.4625,1.0779999999999998,4.3566845    -0.625931
0.838085934,-4.3119993,0.0      1.892092
0.838085934,-2.1559999999999997,-3.7343012      1.892092
0.838085934,-2.1559999999999997,3.7343012       1.892092
0.838085934,2.1559999999999997,-3.7343012       1.892092
0.838085934,4.3119993,0.0       1.892092
0.838085934,2.1559999999999997,3.7343012        1.892092
23.690624999999997,-2.1559999999999997,-2.4895339       4.409069
23.690624999999997,2.1559999999999997,-2.4895339        4.409069
23.690624999999997,-3.234,-0.6223833    4.409069
23.690624999999997,3.234,-0.6223833     4.409069
23.690624999999997,-1.0779999999999998,3.1119179        4.409069
23.690624999999997,1.0779999999999998,3.1119179 4.409069
113.68437499999999,-2.1559999999999997,1.2447673        -5.660931
113.68437499999999,-0.0,-2.4895339      -5.660931
113.68437499999999,2.1559999999999997,1.2447673 -5.660931
0.24062499999999998,-4.3119993,1.2447673        2.515516
0.24062499999999998,-1.0779999999999998,-4.3566845      2.515516
0.24062499999999998,-3.234,3.1119179    2.515516
0.24062499999999998,1.0779999999999998,-4.3566845       2.515516
0.24062499999999998,4.3119993,1.2447673 2.515516
0.24062499999999998,3.234,3.1119179     2.515516
-65.93124999999999,-4.3119993,-1.2447673        -2.519484
-65.93124999999999,-3.234,-3.1119179    -2.519484
-65.93124999999999,-1.0779999999999998,4.3566845        -2.519484
-65.93124999999999,3.234,-3.1119179     -2.519484
-65.93124999999999,1.0779999999999998,4.3566845 -2.519484
-65.93124999999999,4.3119993,-1.2447673 -2.519484
-15.449218749999998,-4.3119993,-0.0     -3.142907
-15.449218749999998,-2.1559999999999997,-3.7343012      -3.142907
-15.449218749999998,-2.1559999999999997,3.7343012       -3.142907
-15.449218749999998,2.1559999999999997,-3.7343012       -3.142907
-15.449218749999998,2.1559999999999997,3.7343012        -3.142907
-15.449218749999998,4.3119993,-0.0      -3.142907
424.54999999999995,0.0,0.0      6.927092
226.27499999999998,-4.3119993,2.4895339 -0.625931
226.27499999999998,4.3119993,2.4895339  -0.625931
226.27499999999998,-0.0,-4.9790685      -0.625931
-3.7953124999999996,-3.234,1.8671506    -5.030367
-3.7953124999999996,-3.234,-1.8671506   -5.030367
-3.7953124999999996,-3.234,1.8671506    5.039632
-3.7953124999999996,-3.234,-1.8671506   5.039632
-3.7953124999999996,3.234,-1.8671506    -5.030367
-3.7953124999999996,3.234,1.8671506     -5.030367
-3.7953124999999996,3.234,-1.8671506    5.039632
-3.7953124999999996,3.234,1.8671506     5.039632
-3.7953124999999996,-0.0,-3.7343012     -5.030367
-3.7953124999999996,0.0,3.7343012       -5.030367
-3.7953124999999996,-0.0,-3.7343012     5.039632
-3.7953124999999996,0.0,3.7343012       5.039632
64.26875,-2.1559999999999997,-2.4895339 -5.660931
64.26875,2.1559999999999997,-2.4895339  -5.660931
64.26875,-3.234,-0.6223833      -5.660931
64.26875,3.234,-0.6223833       -5.660931
64.26875,-1.0779999999999998,3.1119179  -5.660931
64.26875,1.0779999999999998,3.1119179   -5.660931
210.35,-4.3119993,-2.4895339    2.515516
210.35,4.3119993,-2.4895339     2.515516
210.35,0.0,4.9790685    2.515516
-362.075,-4.3119993,2.4895339   -2.519484
-362.075,4.3119993,2.4895339    -2.519484
-362.075,-0.0,-4.9790685        -2.519484
37.49375,-2.1559999999999997,0.0        6.927092
37.49375,-1.0779999999999998,-1.8671506 6.927092
37.49375,-1.0779999999999998,1.8671506  6.927092
37.49375,1.0779999999999998,-1.8671506  6.927092
37.49375,1.0779999999999998,1.8671506   6.927092
37.49375,2.1559999999999997,0.0 6.927092
-38.675,-1.0779999999999998,0.6223833   7.550516
-38.675,0.0,-1.2447673  7.550516
-38.675,1.0779999999999998,0.6223833    7.550516
10.871875,-1.0779999999999998,-0.6223833        -7.554483
10.871875,1.0779999999999998,-0.6223833 -7.554483
10.871875,-0.0,1.2447673        -7.554483
-87.4125,-5.3899992999999995,0.6223833  -0.625931
-87.4125,-3.234,4.3566845       -0.625931
-87.4125,-2.1559999999999997,-4.9790685 -0.625931
-87.4125,2.1559999999999997,-4.9790685  -0.625931
-87.4125,5.3899992999999995,0.6223833   -0.625931
-87.4125,3.234,4.3566845        -0.625931
-47.20625,-4.3119993,1.2447673  4.409069
-47.20625,-3.234,3.1119179      4.409069
-47.20625,-1.0779999999999998,-4.3566845        4.409069
-47.20625,1.0779999999999998,-4.3566845 4.409069
-47.20625,3.234,3.1119179       4.409069
-47.20625,4.3119993,1.2447673   4.409069
34.409375,-4.3119993,-0.0       -5.030367
34.409375,-2.1559999999999997,-3.7343012        -5.030367
34.409375,-2.1559999999999997,3.7343012 -5.030367
34.409375,-4.3119993,0.0        5.039632
34.409375,-2.1559999999999997,-3.7343012        5.039632
34.409375,2.1559999999999997,-3.7343012 -5.030367
34.409375,2.1559999999999997,3.7343012  -5.030367
34.409375,4.3119993,-0.0        -5.030367
34.409375,-2.1559999999999997,3.7343012 5.039632
34.409375,2.1559999999999997,-3.7343012 5.039632
34.409375,4.3119993,0.0 5.039632
34.409375,2.1559999999999997,3.7343012  5.039632
126.52499999999999,-5.3899992999999995,-0.6223833       2.515516
126.52499999999999,-3.234,-4.3566845    2.515516
126.52499999999999,-2.1559999999999997,4.9790685        2.515516
126.52499999999999,3.234,-4.3566845     2.515516
126.52499999999999,5.3899992999999995,-0.6223833        2.515516
126.52499999999999,2.1559999999999997,4.9790685 2.515516
-16.340625,-5.3899992999999995,-1.8671506       0.004632
-16.340625,-5.3899992999999995,1.8671506        0.004632
-16.340625,-4.3119993,-3.7343012        0.004632
-16.340625,-4.3119993,3.7343012 0.004632
-16.340625,-1.0779999999999998,-5.6014517999999995      0.004632
-16.340625,1.0779999999999998,-5.6014517999999995       0.004632
-16.340625,-1.0779999999999998,5.6014517999999995       0.004632
-16.340625,4.3119993,-3.7343012 0.004632
-16.340625,1.0779999999999998,5.6014517999999995        0.004632
-16.340625,5.3899992999999995,-1.8671506        0.004632
-16.340625,5.3899992999999995,1.8671506 0.004632
-16.340625,4.3119993,3.7343012  0.004632
-100.1875,-5.3899992999999995,0.6223833 -2.519484
-100.1875,-3.234,4.3566845      -2.519484
-100.1875,-2.1559999999999997,-4.9790685        -2.519484
-100.1875,2.1559999999999997,-4.9790685 -2.519484
-100.1875,5.3899992999999995,0.6223833  -2.519484
-100.1875,3.234,4.3566845       -2.519484
2122.4,-0.0,-0.0        -8.177907
-81.19999999999999,-2.1559999999999997,-1.2447673       7.550516
-81.19999999999999,0.0,2.4895339        7.550516
-81.19999999999999,2.1559999999999997,-1.2447673        7.550516
-422.45,-2.1559999999999997,1.2447673   -7.554483
-422.45,-0.0,-2.4895339 -7.554483
-422.45,2.1559999999999997,1.2447673    -7.554483
34.234375,-5.3899992999999995,1.8671506 1.892092
34.234375,-5.3899992999999995,-1.8671506        1.892092
34.234375,-4.3119993,-3.7343012 1.892092
34.234375,-4.3119993,3.7343012  1.892092
34.234375,-1.0779999999999998,-5.6014517999999995       1.892092
34.234375,1.0779999999999998,-5.6014517999999995        1.892092
34.234375,-1.0779999999999998,5.6014517999999995        1.892092
34.234375,4.3119993,-3.7343012  1.892092
34.234375,1.0779999999999998,5.6014517999999995 1.892092
34.234375,5.3899992999999995,-1.8671506 1.892092
34.234375,5.3899992999999995,1.8671506  1.892092
34.234375,4.3119993,3.7343012   1.892092
-353.5,-4.3119993,-2.4895339    4.409069
-353.5,4.3119993,-2.4895339     4.409069
-353.5,0.0,4.9790685    4.409069
18.07421875,-4.3119993,1.2447673        -5.660931
18.07421875,-1.0779999999999998,-4.3566845      -5.660931
18.07421875,-3.234,3.1119179    -5.660931
18.07421875,1.0779999999999998,-4.3566845       -5.660931
18.07421875,3.234,3.1119179     -5.660931
18.07421875,4.3119993,1.2447673 -5.660931
-40.731249999999996,-4.3119993,-3.7343012       -3.142907
-40.731249999999996,-5.3899992999999995,1.8671506       -3.142907
-40.731249999999996,-5.3899992999999995,-1.8671506      -3.142907
-40.731249999999996,-4.3119993,3.7343012        -3.142907
-40.731249999999996,-1.0779999999999998,-5.6014517999999995     -3.142907
-40.731249999999996,1.0779999999999998,-5.6014517999999995      -3.142907
-40.731249999999996,-1.0779999999999998,5.6014517999999995      -3.142907
-40.731249999999996,5.3899992999999995,-1.8671506       -3.142907
-40.731249999999996,4.3119993,-3.7343012        -3.142907
-40.731249999999996,1.0779999999999998,5.6014517999999995       -3.142907
-40.731249999999996,5.3899992999999995,1.8671506        -3.142907
-40.731249999999996,4.3119993,3.7343012 -3.142907
45.784375,-3.234,-1.8671506     6.927092
45.784375,-3.234,1.8671506      6.927092
45.784375,3.234,-1.8671506      6.927092
45.784375,3.234,1.8671506       6.927092
45.784375,-0.0,-3.7343012       6.927092
45.784375,0.0,3.7343012 6.927092
-58.275,-2.1559999999999997,-0.0        -8.177907
-58.275,-1.0779999999999998,1.8671506   -8.177907
-58.275,-1.0779999999999998,-1.8671506  -8.177907
-58.275,1.0779999999999998,-1.8671506   -8.177907
-58.275,2.1559999999999997,-0.0 -8.177907
-58.275,1.0779999999999998,1.8671506    -8.177907
-63.634375,-2.1559999999999997,2.4895339        7.550516
-63.634375,2.1559999999999997,2.4895339 7.550516
-63.634375,-3.234,0.6223833     7.550516
-63.634375,3.234,0.6223833      7.550516
-63.634375,-1.0779999999999998,-3.1119179       7.550516
-63.634375,1.0779999999999998,-3.1119179        7.550516
-31.98125,-2.1559999999999997,-2.4895339        -7.554483
-31.98125,2.1559999999999997,-2.4895339 -7.554483
-31.98125,-3.234,-0.6223833     -7.554483
-31.98125,3.234,-0.6223833      -7.554483
-31.98125,-1.0779999999999998,3.1119179 -7.554483
-31.98125,1.0779999999999998,3.1119179  -7.554483
-350.17499999999995,0.0,6.2238351       -0.625931
-350.17499999999995,-5.3899992999999995,-3.1119179      -0.625931
-350.17499999999995,5.3899992999999995,-3.1119179       -0.625931
-188.825,-5.3899992999999995,-0.6223833 4.409069
-188.825,-3.234,-4.3566845      4.409069
-188.825,-2.1559999999999997,4.9790685  4.409069
-188.825,3.234,-4.3566845       4.409069
-188.825,5.3899992999999995,-0.6223833  4.409069
-188.825,2.1559999999999997,4.9790685   4.409069
217.2625,-4.3119993,-2.4895339  -5.660931
217.2625,4.3119993,-2.4895339   -5.660931
217.2625,0.0,4.9790685  -5.660931
410.9,-0.0,-6.2238351   2.515516
410.9,-5.3899992999999995,3.1119179     2.515516
410.9,5.3899992999999995,3.1119179      2.515516
-65.71249999999999,-6.467999299999999,-0.0      0.004632
-65.71249999999999,3.234,-5.6014517999999995    0.004632
-65.71249999999999,-3.234,5.6014517999999995    0.004632
-65.71249999999999,6.467999299999999,-0.0       0.004632
-65.71249999999999,-3.234,-5.6014517999999995   0.004632
-65.71249999999999,3.234,5.6014517999999995     0.004632
-270.025,0.0,6.2238351  -2.519484
-270.025,-5.3899992999999995,-3.1119179 -2.519484
-270.025,5.3899992999999995,-3.1119179  -2.519484
159.6,-4.3119993,0.0    6.927092
159.6,-2.1559999999999997,-3.7343012    6.927092
159.6,-2.1559999999999997,3.7343012     6.927092
159.6,2.1559999999999997,-3.7343012     6.927092
159.6,4.3119993,0.0     6.927092
159.6,2.1559999999999997,3.7343012      6.927092
148.3125,-6.467999299999999,-1.2447673  -0.625931
148.3125,-2.1559999999999997,6.2238351  -0.625931
148.3125,-4.3119993,-4.9790685  -0.625931
148.3125,4.3119993,-4.9790685   -0.625931
148.3125,2.1559999999999997,6.2238351   -0.625931
148.3125,6.467999299999999,-1.2447673   -0.625931
78.35624999999999,-6.467999299999999,0.0        1.892092
78.35624999999999,-3.234,-5.6014517999999995    1.892092
78.35624999999999,-3.234,5.6014517999999995     1.892092
78.35624999999999,3.234,-5.6014517999999995     1.892092
78.35624999999999,6.467999299999999,0.0 1.892092
78.35624999999999,3.234,5.6014517999999995      1.892092
-3.0242187499999997,-5.3899992999999995,1.8671506       -5.030367
-3.0242187499999997,-5.3899992999999995,-1.8671506      -5.030367
-3.0242187499999997,-4.3119993,-3.7343012       -5.030367
-3.0242187499999997,-4.3119993,3.7343012        -5.030367
-3.0242187499999997,-5.3899992999999995,1.8671506       5.039632
-3.0242187499999997,1.0779999999999998,-5.6014517999999995      -5.030367
-3.0242187499999997,-1.0779999999999998,-5.6014517999999995     -5.030367
-3.0242187499999997,-5.3899992999999995,-1.8671506      5.039632
-3.0242187499999997,-4.3119993,-3.7343012       5.039632
-3.0242187499999997,-1.0779999999999998,5.6014517999999995      -5.030367
-3.0242187499999997,1.0779999999999998,-5.6014517999999995      5.039632
-3.0242187499999997,-4.3119993,3.7343012        5.039632
-3.0242187499999997,-1.0779999999999998,-5.6014517999999995     5.039632
-3.0242187499999997,4.3119993,-3.7343012        -5.030367
-3.0242187499999997,1.0779999999999998,5.6014517999999995       -5.030367
-3.0242187499999997,5.3899992999999995,-1.8671506       -5.030367
-3.0242187499999997,5.3899992999999995,1.8671506        -5.030367
-3.0242187499999997,4.3119993,3.7343012 -5.030367
-3.0242187499999997,-1.0779999999999998,5.6014517999999995      5.039632
-3.0242187499999997,4.3119993,-3.7343012        5.039632
-3.0242187499999997,5.3899992999999995,-1.8671506       5.039632
-3.0242187499999997,1.0779999999999998,5.6014517999999995       5.039632
-3.0242187499999997,5.3899992999999995,1.8671506        5.039632
-3.0242187499999997,4.3119993,3.7343012 5.039632
-0.48124999999999996,-5.3899992999999995,-0.6223833     -5.660931
-0.48124999999999996,-3.234,-4.3566845  -5.660931
-0.48124999999999996,-2.1559999999999997,4.9790685      -5.660931
-0.48124999999999996,3.234,-4.3566845   -5.660931
-0.48124999999999996,2.1559999999999997,4.9790685       -5.660931
-0.48124999999999996,5.3899992999999995,-0.6223833      -5.660931
81.19999999999999,-1.0779999999999998,0.6223833 9.444068
81.19999999999999,0.0,-1.2447673        9.444068
81.19999999999999,1.0779999999999998,0.6223833  9.444068
35.918749999999996,-6.467999299999999,1.2447673 2.515516
35.918749999999996,-2.1559999999999997,-6.2238351       2.515516
35.918749999999996,2.1559999999999997,-6.2238351        2.515516
35.918749999999996,-4.3119993,4.9790685 2.515516
35.918749999999996,6.467999299999999,1.2447673  2.515516
35.918749999999996,4.3119993,4.9790685  2.515516
109.8125,-6.467999299999999,-1.2447673  -2.519484
109.8125,-2.1559999999999997,6.2238351  -2.519484
109.8125,-4.3119993,-4.9790685  -2.519484
109.8125,4.3119993,-4.9790685   -2.519484
109.8125,6.467999299999999,-1.2447673   -2.519484
109.8125,2.1559999999999997,6.2238351   -2.519484
153.73749999999998,-6.467999299999999,-0.0      -3.142907
153.73749999999998,-3.234,-5.6014517999999995   -3.142907
153.73749999999998,-3.234,5.6014517999999995    -3.142907
153.73749999999998,3.234,-5.6014517999999995    -3.142907
153.73749999999998,6.467999299999999,-0.0       -3.142907
153.73749999999998,3.234,5.6014517999999995     -3.142907
6.051855466999999,-3.234,-1.8671506     -8.177907
6.051855466999999,-3.234,1.8671506      -8.177907
6.051855466999999,3.234,1.8671506       -8.177907
6.051855466999999,3.234,-1.8671506      -8.177907
6.051855466999999,-0.0,-3.7343012       -8.177907
6.051855466999999,0.0,3.7343012 -8.177907
176.3125,-3.234,-3.1119179      7.550516
176.3125,-4.3119993,-1.2447673  7.550516
176.3125,-1.0779999999999998,4.3566845  7.550516
176.3125,3.234,-3.1119179       7.550516
176.3125,1.0779999999999998,4.3566845   7.550516
176.3125,4.3119993,-1.2447673   7.550516
-243.6,-3.234,3.1119179 -7.554483
-243.6,-4.3119993,1.2447673     -7.554483
-243.6,-1.0779999999999998,-4.3566845   -7.554483
-243.6,1.0779999999999998,-4.3566845    -7.554483
-243.6,4.3119993,1.2447673      -7.554483
-243.6,3.234,3.1119179  -7.554483
49.8859375,-5.3899992999999995,4.3566845        -0.625931
49.8859375,-6.467999299999999,2.4895339 -0.625931
49.8859375,-1.0779999999999998,-6.846219099999999       -0.625931
49.8859375,1.0779999999999998,-6.846219099999999        -0.625931
49.8859375,6.467999299999999,2.4895339  -0.625931
49.8859375,5.3899992999999995,4.3566845 -0.625931
-338.625,-0.0,-6.2238351        4.409069
-338.625,-5.3899992999999995,3.1119179  4.409069
-338.625,5.3899992999999995,3.1119179   4.409069

End of input

&SCF
Occupied
9
Iterations
   50  100
End of Input

&RASSCF
LumOrb
Symmetry
1
Spin
2
Nactel
1 0 0
CIRoot
9 9 1
inactive
9
ras2
9
End of Input

>>> COPY niobium_so_cf.JobIph $SLURM_SUBMIT_DIR/niobium_so_cf.doublet.JobIph

>>> COPY $SLURM_SUBMIT_DIR/niobium_so_cf.doublet.JobIph ./JOB002

&RASSI
NROFJobIph
1 All
SpinOrbit
End of Input

EOF

-- ----------------------------------

--- Start Module: seward at Wed Mar 26 12:01:07 2025 ---

()()()()()()()()()()()()()()()()()()()()()()()()()()()()()()()()()()()()()()()()()()()()()()()()()()

                                              &SEWARD

                                   only a single process is used
                       available to each process: 4.1 GB of memory, 1 thread?
                                            pid: 3924162
()()()()()()()()()()()()()()()()()()()()()()()()()()()()()()()()()()()()()()()()()()()()()()()()()()

 The speed of LIGHT in this CALCULATION =   137.03599917700001     
               SEWARD will generate:
                  Multipole Moment integrals up to order  2
                  Kinetic Energy integrals
                  Nuclear Attraction integrals (point charge)
                  One-Electron Hamiltonian integrals
                  Velocity integrals
                  Relativistic Douglas-Kroll-Hess integrals:
                    - Parametrization         : EXP
                    - DKH order of Hamiltonian: 2
                    - DKH order of Properties : 0
                         - multipole moment operators
                         - electric potential operators
                         - contact operators
                  External field from   414 point(s) added to the one-electron Hamiltonian
                  Orbital angular momentum around (-0.0000 -0.0000  0.0088 )
                  Velocity quadrupole around (-0.0000 -0.0000  0.0088 )
                  Atomic mean-field integrals
                  Two-Electron Repulsion integrals

                   Integrals are discarded if absolute value <: 0.10E-13
                   Integral cutoff threshold is set to       <: 0.10E-15

++    Symmetry information:
      ---------------------

                    Character Table for C1 

                             E  
                    a        1  x, y, xy, Rz, z, xz, Ry, yz, Rx, I
--


++    Basis set information:
      ----------------------


      Basis set label: NB.ANO-RCC.ROOS.21S18P13D6F4G2H.10S9P8D5F4G2H......

      Electronic valence basis set:
      ------------------
      Associated Effective Charge  41.000000 au
      Associated Actual Charge     41.000000 au
      Nuclear Model: Point charge

      Shell  nPrim  nBasis  Cartesian Spherical Contaminant
         s      21      10        X                  
         p      18       9        X                  
         d      13       8                 X         
         f       6       5                 X         
         g       4       4                 X         
         h       2       2                 X         
--


++    Molecular structure info:
      -------------------------

                    ************************************************ 
                    **** Cartesian Coordinates / Bohr, Angstrom **** 
                    ************************************************ 

     Center  Label                x              y              z                     x              y              z
        1      NB              -0.000000      -0.000000       0.008754             -0.000000      -0.000000       0.004632
--


++    Operator info:
      --------------


  Net charge from external field:   -39.268449999999902     
--


            Nuclear Potential Energy              0.00000000 au

                    Nuclear-External Field Potential Energy    -535.86780685 au
                    External Field Potential Energy            2293.76700198 au 


            Total Nuclear Potential Energy           -535.86780685 au


      Basis set specifications :
      Symmetry species         a  
      Basis functions          170

 Sorry, Molden does not know how to handle
 functions with angular momentum larger than g
Note: The following floating-point exceptions are signalling: IEEE_UNDERFLOW_FLAG IEEE_DENORMAL
--- Stop Module: seward at Wed Mar 26 12:01:15 2025 /rc=_RC_ALL_IS_WELL_ ---
*** files: niobium_so_cf.GssOrb xmldump
    saved to directory /home4/s4752295/Internship/Initial_simulations/Point_charge_model/1_electron/Madelung_charges_9_active_space/Nb
--- Module seward spent 8 seconds ---

*** symbolic link created: INPORB -> niobium_so_cf.GssOrb
--- Start Module: scf at Wed Mar 26 12:01:15 2025 ---

()()()()()()()()()()()()()()()()()()()()()()()()()()()()()()()()()()()()()()()()()()()()()()()()()()

                                                &SCF

                                   only a single process is used
                       available to each process: 4.1 GB of memory, 1 thread?
                                            pid: 3924165
()()()()()()()()()()()()()()()()()()()()()()()()()()()()()()()()()()()()()()()()()()()()()()()()()()

++    Input section:
      --------------

      Header of the integral files:
      
       Integrals generated by seward 4.2.0  , Wed Mar 26 12:01:07 2025


      Cartesian coordinates in Angstrom:
      -----------------------------------------------------
      No.  Label        X            Y            Z        
      -----------------------------------------------------
       1   NB        -0.00000000  -0.00000000   0.00463220
      -----------------------------------------------------
      Nuclear repulsion energy = -535.86780685
--

++    Orbital specifications:
      -----------------------

      Symmetry species               1
                                     a
      Frozen orbitals                0
      Occupied orbitals              9
      Secondary orbitals           161
      Deleted orbitals               0
      Total number of orbitals     170
      Number of basis functions    170
--

      Molecular charge                          23.000

++    Optimization specifications:
      ----------------------------

      SCF Algorithm: Conventional
      Minimized density differences are used
      Number of density matrices in core                5
      Maximum number of NDDO SCF iterations            50
      Maximum number of HF SCF iterations             100
      Threshold for SCF energy change            0.10E-08
      Threshold for density matrix               0.10E-03
      Threshold for Fock matrix                  0.15E-03
      Threshold for linear dependence            0.10E-08
      Threshold at which DIIS is turned on       0.15E+00
      Threshold at which QNR/C2DIIS is turned on 0.75E-01
      Threshold for Norm(delta) (QNR/C2DIIS)     0.20E-04
      DIIS extrapolation of the SCF procedure
      All orbitals punched on: SCFORB
--

      Detected guessorb starting orbitals                                             


++ Convergence information
                                   SCF        iterations: Energy and convergence statistics

Iter     Tot. SCF        One-elec.       Two-elec.     Energy      Max Dij or  Max Fij      DNorm      TNorm      AccCon     Time
         Energy          Energy          Energy        Change      Delta Norm                                                in Sec.

 The total and one-electron energies are shifted by a value of      3000. a.u.

   1  -786.665236592  -853.273686697   602.476256953   0.00E+00    0.31E+00*   0.28E+01*    0.60E+01   0.31E+03   None         1.
   2  -792.571011728  -895.135877719   638.432672838  -0.59E+01*   0.14E-01*   0.26E+00*    0.14E+01   0.32E+03   EDIIS        1.
   3  -792.592501428  -893.249282629   636.524588049  -0.21E-01*   0.23E-02*   0.14E-01*    0.61E-01   0.32E+03   EDIIS        1.
   4  -792.592623816  -893.381811122   636.656994153  -0.12E-03*   0.15E-03*   0.17E-02*    0.39E-02   0.32E+03   c2DIIS       1.
   5  -792.592625184  -893.374325586   636.649507250  -0.14E-05*   0.19E-04    0.12E-03     0.21E-03   0.32E+03   QNRc2DIIS    1.
   6  -792.592625190  -893.374267331   636.649448989  -0.65E-08*   0.50E-05    0.21E-04     0.33E-04   0.32E+03   QNRc2DIIS    1.
   7  -792.592625191  -893.374267958   636.649449615  -0.41E-09    0.15E-05    0.49E-05     0.59E-05   0.32E+03   QNRc2DIIS    1.

       Convergence after  7 Macro Iterations
--

 *****************************************************************************************************************************
 *                                                                                                                           *
 *                                             SCF/KS-DFT Program, Final results                                             *
 *                                                                                                                           *
 *                                                                                                                           *
 *                                                                                                                           *
 *                                                       Final Results                                                       *
 *                                                                                                                           *
 *****************************************************************************************************************************

::    Total SCF energy                              -3792.5926251907
      One-electron energy                           -3893.3742679579
      Two-electron energy                             636.6494496148
      Nuclear repulsion energy                       -535.8678068475
      Kinetic energy (interpolated)                  3883.9595428082
      Virial theorem                                    0.9764758318
      Total spin, S(S+1)                                0.0000000000
      Total spin, S                                     0.0000000000
      Max non-diagonal density matrix element           0.0000017830
      Max non-diagonal Fock matrix element              0.0000028889


      All orbitals with orbital energies smaller than  E(LUMO)+0.5 are printed

++    Molecular orbitals:
      -------------------

      Title: SCF orbitals

      Molecular orbitals for symmetry species 1: a  

          Orbital            1         2         3         4         5         6         7         8         9        10    
          Energy         -724.1434 -123.1962 -112.3539 -112.3539 -112.3506  -34.2962  -30.4675  -30.4675  -30.4084  -23.5603
          Occ. No.          2.0000    2.0000    2.0000    2.0000    2.0000    2.0000    2.0000    2.0000    2.0000    0.0000

        1 NB     1s         1.0000   -0.0001    0.0000    0.0000   -0.0000    0.0001   -0.0000    0.0000    0.0000    0.0000
        2 NB     2s         0.0001    0.9999    0.0000    0.0000   -0.0051    0.0126    0.0000    0.0000   -0.0017   -0.0000
        3 NB     3s        -0.0001   -0.0120   -0.0000   -0.0000    0.0007    0.9848    0.0001    0.0000   -0.0871   -0.0000
        4 NB     4s         0.0000    0.0029    0.0000    0.0000   -0.0001   -0.0987   -0.0000   -0.0000    0.0140    0.0000
        5 NB     5s        -0.0000   -0.0007   -0.0000   -0.0000    0.0000    0.0221    0.0000    0.0000   -0.0032   -0.0000
        6 NB     6s         0.0000    0.0009    0.0000    0.0000   -0.0000   -0.0270   -0.0000   -0.0000    0.0039   -0.0000
        7 NB     7s        -0.0000   -0.0023   -0.0000   -0.0000    0.0001    0.0661    0.0000    0.0000   -0.0097   -0.0000
        8 NB     8s         0.0000    0.0022    0.0000    0.0000   -0.0001   -0.0533   -0.0000   -0.0000    0.0079    0.0000
        9 NB     9s        -0.0000   -0.0028   -0.0000   -0.0000    0.0001    0.0546    0.0000    0.0000   -0.0081   -0.0000
       10 NB    10s         0.0001    0.0027    0.0000    0.0000   -0.0001   -0.0283   -0.0000   -0.0000    0.0041    0.0000
       11 NB     2px        0.0000    0.0052   -0.0041   -0.0000    0.9999    0.0006   -0.0000   -0.0000    0.0143    0.0000
       12 NB     3px       -0.0000    0.0005    0.0001    0.0000   -0.0135    0.0892   -0.0028   -0.0000    0.9789    0.0000
       13 NB     4px        0.0000   -0.0001   -0.0000   -0.0000    0.0029   -0.0063    0.0003    0.0000   -0.1071   -0.0000
       14 NB     5px       -0.0000    0.0000    0.0000    0.0000   -0.0010    0.0019   -0.0001   -0.0000    0.0334    0.0000
       15 NB     6px        0.0000   -0.0001   -0.0000   -0.0000    0.0025   -0.0043    0.0002    0.0000   -0.0804   -0.0000
       16 NB     7px       -0.0000    0.0001    0.0000    0.0000   -0.0023    0.0032   -0.0002   -0.0000    0.0646    0.0000
       17 NB     8px        0.0000   -0.0001   -0.0000   -0.0000    0.0028   -0.0029    0.0002    0.0000   -0.0658   -0.0000
       18 NB     9px       -0.0000    0.0001    0.0000    0.0000   -0.0027    0.0018   -0.0001   -0.0000    0.0491    0.0000
       19 NB    10px        0.0000   -0.0001   -0.0000   -0.0000    0.0022   -0.0006    0.0001    0.0000   -0.0229   -0.0000
       20 NB     2py        0.0000    0.0000   -0.0000    0.9999    0.0000    0.0000   -0.0000    0.0142    0.0000    0.0000
       21 NB     3py       -0.0000   -0.0000    0.0000   -0.0134   -0.0000    0.0000   -0.0000    0.9836    0.0000    0.0005
       22 NB     4py        0.0000    0.0000   -0.0000    0.0029    0.0000   -0.0000    0.0000   -0.1070   -0.0000   -0.0001
       23 NB     5py       -0.0000   -0.0000    0.0000   -0.0010   -0.0000    0.0000   -0.0000    0.0333    0.0000    0.0000
       24 NB     6py        0.0000    0.0000   -0.0000    0.0025    0.0000   -0.0000    0.0000   -0.0802   -0.0000   -0.0001
       25 NB     7py       -0.0000   -0.0000    0.0000   -0.0023   -0.0000    0.0000   -0.0000    0.0644    0.0000    0.0001
       26 NB     8py        0.0000    0.0000   -0.0000    0.0028    0.0000   -0.0000    0.0000   -0.0655   -0.0000   -0.0001
       27 NB     9py       -0.0000   -0.0000    0.0000   -0.0027   -0.0000    0.0000   -0.0000    0.0488    0.0000    0.0000
       28 NB    10py        0.0000    0.0000   -0.0000    0.0022    0.0000   -0.0000    0.0000   -0.0227   -0.0000   -0.0000
       29 NB     2pz        0.0000    0.0000    0.9999    0.0000    0.0041    0.0000    0.0142    0.0000    0.0000    0.0000
       30 NB     3pz       -0.0000    0.0000   -0.0134   -0.0000   -0.0001    0.0001    0.9836    0.0000    0.0028    0.0000
       31 NB     4pz        0.0000   -0.0000    0.0029    0.0000    0.0000   -0.0000   -0.1070   -0.0000   -0.0003   -0.0000
       32 NB     5pz       -0.0000    0.0000   -0.0010   -0.0000   -0.0000    0.0000    0.0333    0.0000    0.0001    0.0000
       33 NB     6pz        0.0000   -0.0000    0.0025    0.0000    0.0000   -0.0000   -0.0802   -0.0000   -0.0002   -0.0000
       34 NB     7pz       -0.0000    0.0000   -0.0023   -0.0000   -0.0000    0.0000    0.0644    0.0000    0.0002    0.0000
       35 NB     8pz        0.0000   -0.0000    0.0028    0.0000    0.0000   -0.0000   -0.0655   -0.0000   -0.0002   -0.0000
       36 NB     9pz       -0.0000    0.0000   -0.0027   -0.0000   -0.0000    0.0000    0.0488    0.0000    0.0001    0.0000
       37 NB    10pz        0.0000   -0.0000    0.0022    0.0000    0.0000   -0.0000   -0.0227   -0.0000   -0.0001   -0.0000
       38 NB     3d2-      -0.0000    0.0000   -0.0000    0.0004    0.0000    0.0000   -0.0000    0.0449    0.0000   -0.0129
       39 NB     4d2-       0.0000   -0.0000    0.0000   -0.0001   -0.0000   -0.0000    0.0000   -0.0026   -0.0000    0.0012
       40 NB     5d2-      -0.0000    0.0000   -0.0000    0.0001    0.0000    0.0000   -0.0000    0.0024    0.0000   -0.0013
       41 NB     6d2-       0.0000   -0.0000    0.0000   -0.0001   -0.0000    0.0000    0.0000   -0.0019   -0.0000    0.0011
       42 NB     7d2-      -0.0000    0.0000   -0.0000    0.0001    0.0000   -0.0000   -0.0000    0.0015    0.0000   -0.0010
       43 NB     8d2-       0.0000   -0.0000    0.0000   -0.0001   -0.0000    0.0000    0.0000   -0.0013   -0.0000    0.0012
       44 NB     9d2-      -0.0000    0.0000   -0.0000    0.0001    0.0000   -0.0000   -0.0000    0.0006    0.0000   -0.0010
       45 NB    10d2-      -0.0000    0.0000   -0.0000    0.0001    0.0000   -0.0000    0.0000   -0.0001   -0.0000   -0.0009
       46 NB     3d1-       0.0000   -0.0000   -0.0000    0.0000    0.0000   -0.0000   -0.0000    0.0000   -0.0000    0.9742
       47 NB     4d1-      -0.0000   -0.0000    0.0000   -0.0000   -0.0000    0.0000    0.0000   -0.0000    0.0000   -0.0952
       48 NB     5d1-       0.0000    0.0000   -0.0000    0.0000    0.0000   -0.0000   -0.0000    0.0000   -0.0000    0.0963
       49 NB     6d1-      -0.0000   -0.0000    0.0000   -0.0000   -0.0000    0.0000    0.0000   -0.0000    0.0000   -0.0847
       50 NB     7d1-       0.0000    0.0000   -0.0000    0.0000    0.0000   -0.0000   -0.0000    0.0000   -0.0000    0.0757
       51 NB     8d1-      -0.0000   -0.0000    0.0000   -0.0000    0.0000    0.0000    0.0000   -0.0000    0.0000   -0.0950
       52 NB     9d1-       0.0000    0.0000   -0.0000    0.0000   -0.0000   -0.0000   -0.0000    0.0000   -0.0000    0.0771
       53 NB    10d1-       0.0000    0.0000   -0.0000    0.0000   -0.0000    0.0000    0.0000   -0.0000   -0.0000    0.0675
       54 NB     3d0        0.0000    0.0000    0.0000    0.0000   -0.0002   -0.0001    0.0001    0.0000   -0.0270   -0.0000
       55 NB     4d0       -0.0000   -0.0000   -0.0000   -0.0000    0.0000    0.0000   -0.0000   -0.0000    0.0015    0.0000
       56 NB     5d0        0.0000    0.0000    0.0000    0.0000   -0.0000    0.0000    0.0000    0.0000   -0.0014   -0.0000
       57 NB     6d0       -0.0000   -0.0000   -0.0000   -0.0000    0.0000   -0.0000   -0.0000   -0.0000    0.0011    0.0000
       58 NB     7d0        0.0000    0.0000    0.0000    0.0000   -0.0000    0.0000    0.0000    0.0000   -0.0009   -0.0000
       59 NB     8d0       -0.0000   -0.0000   -0.0000   -0.0000    0.0001   -0.0000   -0.0000   -0.0000    0.0008    0.0000
       60 NB     9d0        0.0000    0.0000    0.0000    0.0000   -0.0001    0.0000    0.0000    0.0000   -0.0004   -0.0000
       61 NB    10d0        0.0000    0.0000    0.0000    0.0000   -0.0001   -0.0000   -0.0000    0.0000    0.0000   -0.0000
       62 NB     3d1+      -0.0000   -0.0000    0.0004    0.0000    0.0000   -0.0000    0.0449    0.0000    0.0002   -0.0000
       63 NB     4d1+       0.0000    0.0000   -0.0001   -0.0000   -0.0000    0.0000   -0.0026   -0.0000   -0.0000    0.0000
       64 NB     5d1+      -0.0000   -0.0000    0.0001    0.0000    0.0000   -0.0000    0.0024    0.0000    0.0000   -0.0000
       65 NB     6d1+       0.0000    0.0000   -0.0001   -0.0000   -0.0000   -0.0000   -0.0019   -0.0000   -0.0000    0.0000
       66 NB     7d1+      -0.0000   -0.0000    0.0001    0.0000    0.0000    0.0000    0.0015    0.0000    0.0000   -0.0000
       67 NB     8d1+       0.0000    0.0000   -0.0001   -0.0000   -0.0000   -0.0000   -0.0013   -0.0000   -0.0000    0.0000
       68 NB     9d1+      -0.0000   -0.0000    0.0001    0.0000    0.0000    0.0000    0.0006    0.0000    0.0000   -0.0000
       69 NB    10d1+      -0.0000   -0.0000    0.0001    0.0000    0.0000    0.0000   -0.0001   -0.0000   -0.0000   -0.0000
       70 NB     3d2+      -0.0000   -0.0000   -0.0000   -0.0000    0.0004    0.0002   -0.0001   -0.0000    0.0467   -0.0000
       71 NB     4d2+       0.0000    0.0000    0.0000    0.0000   -0.0001   -0.0000    0.0000    0.0000   -0.0026    0.0000
       72 NB     5d2+      -0.0000   -0.0000   -0.0000   -0.0000    0.0001   -0.0000   -0.0000   -0.0000    0.0025   -0.0000
       73 NB     6d2+       0.0000    0.0000    0.0000    0.0000   -0.0001    0.0000    0.0000    0.0000   -0.0020    0.0000
       74 NB     7d2+      -0.0000   -0.0000   -0.0000   -0.0000    0.0001   -0.0000   -0.0000   -0.0000    0.0015   -0.0000
       75 NB     8d2+       0.0000    0.0000    0.0000    0.0000   -0.0001    0.0000    0.0000    0.0000   -0.0013    0.0000
       76 NB     9d2+      -0.0000   -0.0000   -0.0000   -0.0000    0.0001   -0.0000   -0.0000   -0.0000    0.0007   -0.0000
       77 NB    10d2+      -0.0000   -0.0000   -0.0000   -0.0000    0.0001    0.0000    0.0000    0.0000   -0.0000   -0.0000
       78 NB     4f3-       0.0000    0.0000    0.0000   -0.0000   -0.0000    0.0000    0.0000   -0.0000   -0.0000   -0.0000
       79 NB     5f3-       0.0000    0.0000    0.0000   -0.0000   -0.0000    0.0000    0.0000   -0.0000   -0.0000   -0.0000
       80 NB     6f3-      -0.0000   -0.0000   -0.0000    0.0000    0.0000   -0.0000   -0.0000    0.0000    0.0000    0.0000
       81 NB     7f3-       0.0000    0.0000    0.0000   -0.0000   -0.0000    0.0000    0.0000   -0.0000   -0.0000   -0.0000
       82 NB     8f3-      -0.0000   -0.0000    0.0000   -0.0000   -0.0000   -0.0000    0.0000   -0.0000   -0.0000   -0.0000
       83 NB     4f2-      -0.0000    0.0000    0.0000   -0.0000   -0.0000    0.0000    0.0000   -0.0000   -0.0000    0.0021
       84 NB     5f2-      -0.0000    0.0000    0.0000   -0.0000   -0.0000    0.0000    0.0000   -0.0000   -0.0000    0.0024
       85 NB     6f2-       0.0000   -0.0000   -0.0000    0.0000    0.0000   -0.0000   -0.0000    0.0000    0.0000   -0.0024
       86 NB     7f2-      -0.0000    0.0000    0.0000   -0.0000   -0.0000    0.0000    0.0000   -0.0000   -0.0000    0.0023
       87 NB     8f2-      -0.0000    0.0000    0.0000   -0.0000   -0.0000   -0.0000    0.0000   -0.0000   -0.0000    0.0015
       88 NB     4f1-      -0.0000    0.0000   -0.0000    0.0000    0.0000    0.0000   -0.0000    0.0000    0.0000    0.0000
       89 NB     5f1-      -0.0000   -0.0000   -0.0000    0.0000   -0.0000    0.0000   -0.0000    0.0000    0.0000    0.0000
       90 NB     6f1-       0.0000    0.0000    0.0000   -0.0000    0.0000   -0.0000    0.0000   -0.0000   -0.0000   -0.0000
       91 NB     7f1-      -0.0000   -0.0000   -0.0000    0.0000    0.0000    0.0000   -0.0000    0.0000    0.0000    0.0000
       92 NB     8f1-       0.0000   -0.0000   -0.0000    0.0000    0.0000    0.0000   -0.0000    0.0000    0.0000    0.0000
       93 NB     4f0       -0.0000   -0.0000    0.0000    0.0000    0.0000    0.0000    0.0000    0.0000    0.0000    0.0000
       94 NB     5f0        0.0000    0.0000    0.0000    0.0000    0.0000    0.0000    0.0000    0.0000    0.0000    0.0000
       95 NB     6f0       -0.0000   -0.0000   -0.0000   -0.0000   -0.0000   -0.0000   -0.0000   -0.0000   -0.0000   -0.0000
       96 NB     7f0       -0.0000   -0.0000    0.0000    0.0000    0.0000   -0.0000    0.0000    0.0000    0.0000    0.0000
       97 NB     8f0        0.0000    0.0000    0.0000    0.0000    0.0000    0.0000    0.0000    0.0000    0.0000    0.0000
       98 NB     4f1+       0.0000   -0.0000    0.0000    0.0000    0.0000   -0.0000    0.0000    0.0000    0.0000   -0.0000
       99 NB     5f1+       0.0000   -0.0000    0.0000    0.0000    0.0000   -0.0000    0.0000    0.0000    0.0001   -0.0000
      100 NB     6f1+      -0.0000    0.0000   -0.0000   -0.0000   -0.0000    0.0000   -0.0000   -0.0000   -0.0001    0.0000
      101 NB     7f1+       0.0000   -0.0000    0.0000    0.0000    0.0000   -0.0000    0.0000    0.0000    0.0001   -0.0000
      102 NB     8f1+       0.0000   -0.0000    0.0000    0.0000    0.0000   -0.0000    0.0000    0.0000    0.0000   -0.0000
      103 NB     4f2+      -0.0000   -0.0000   -0.0000   -0.0000   -0.0000    0.0000   -0.0000   -0.0000    0.0000   -0.0000
      104 NB     5f2+       0.0000    0.0000   -0.0000   -0.0000    0.0000    0.0000   -0.0000   -0.0000    0.0000   -0.0000
      105 NB     6f2+      -0.0000   -0.0000    0.0000    0.0000   -0.0000   -0.0000    0.0000    0.0000   -0.0000    0.0000
      106 NB     7f2+      -0.0000   -0.0000   -0.0000   -0.0000    0.0000   -0.0000   -0.0000   -0.0000    0.0000   -0.0000
      107 NB     8f2+       0.0000    0.0000   -0.0000   -0.0000    0.0000    0.0000   -0.0000   -0.0000    0.0000   -0.0000
      108 NB     4f3+      -0.0000    0.0000    0.0000    0.0000   -0.0000    0.0000    0.0000    0.0000   -0.0001   -0.0000
      109 NB     5f3+      -0.0000    0.0000    0.0000    0.0000   -0.0000    0.0000    0.0000    0.0000   -0.0001   -0.0000
      110 NB     6f3+       0.0000   -0.0000   -0.0000   -0.0000    0.0000   -0.0000   -0.0000   -0.0000    0.0001    0.0000
      111 NB     7f3+      -0.0000    0.0000    0.0000    0.0000   -0.0000    0.0000    0.0000    0.0000   -0.0001   -0.0000
      112 NB     8f3+      -0.0000    0.0000    0.0000    0.0000   -0.0000    0.0000    0.0000    0.0000   -0.0000   -0.0000
      113 NB     5g4-      -0.0000   -0.0000   -0.0000    0.0000    0.0000   -0.0000   -0.0000    0.0000    0.0000    0.0000
      114 NB     6g4-       0.0000    0.0000    0.0000   -0.0000   -0.0000    0.0000    0.0000   -0.0000   -0.0000   -0.0000
      115 NB     7g4-      -0.0000    0.0000   -0.0000    0.0000    0.0000   -0.0000   -0.0000    0.0000    0.0000    0.0000
      116 NB     8g4-       0.0000   -0.0000    0.0000   -0.0000   -0.0000   -0.0000    0.0000   -0.0001   -0.0000   -0.0000
      117 NB     5g3-      -0.0000   -0.0000    0.0000   -0.0000   -0.0000    0.0000    0.0000   -0.0000   -0.0000   -0.0000
      118 NB     6g3-      -0.0000    0.0000   -0.0000    0.0000   -0.0000   -0.0000   -0.0000    0.0000    0.0000    0.0001
      119 NB     7g3-       0.0000   -0.0000    0.0000   -0.0000   -0.0000    0.0000    0.0000   -0.0000   -0.0000   -0.0001
      120 NB     8g3-      -0.0000   -0.0000   -0.0000    0.0000    0.0000   -0.0000   -0.0000    0.0000    0.0000    0.0002
      121 NB     5g2-      -0.0000    0.0000    0.0000   -0.0000    0.0000   -0.0000    0.0000   -0.0000   -0.0000   -0.0000
      122 NB     6g2-       0.0000   -0.0000   -0.0000    0.0000    0.0000    0.0000   -0.0000    0.0000    0.0000    0.0000
      123 NB     7g2-      -0.0000    0.0000    0.0000   -0.0000   -0.0000   -0.0000    0.0000   -0.0000   -0.0000   -0.0000
      124 NB     8g2-       0.0000   -0.0000   -0.0000    0.0000    0.0000    0.0000   -0.0000    0.0000    0.0000    0.0000
      125 NB     5g1-       0.0000    0.0000    0.0000   -0.0000   -0.0000    0.0000   -0.0000    0.0000    0.0000    0.0000
      126 NB     6g1-      -0.0000   -0.0000    0.0000   -0.0000   -0.0000   -0.0000    0.0000   -0.0000    0.0000   -0.0000
      127 NB     7g1-       0.0000   -0.0000   -0.0000    0.0000    0.0000    0.0000   -0.0000    0.0000    0.0000    0.0000
      128 NB     8g1-      -0.0000    0.0000    0.0000   -0.0000    0.0000    0.0000    0.0000   -0.0000    0.0000   -0.0001
      129 NB     5g0        0.0000    0.0000   -0.0000   -0.0000    0.0000   -0.0000   -0.0000   -0.0000    0.0000   -0.0000
      130 NB     6g0        0.0000    0.0000    0.0000    0.0000   -0.0000    0.0000    0.0000    0.0000   -0.0000    0.0000
      131 NB     7g0        0.0000    0.0000   -0.0000   -0.0000    0.0000   -0.0000   -0.0000   -0.0000    0.0000   -0.0000
      132 NB     8g0        0.0000    0.0000    0.0000    0.0000   -0.0000    0.0000    0.0000    0.0000   -0.0000    0.0000
      133 NB     5g1+      -0.0000   -0.0000   -0.0000   -0.0000    0.0000    0.0000   -0.0000   -0.0000    0.0000   -0.0000
      134 NB     6g1+      -0.0000   -0.0000    0.0000    0.0000   -0.0000   -0.0000    0.0000    0.0000   -0.0000    0.0000
      135 NB     7g1+       0.0000    0.0000   -0.0000   -0.0000    0.0000    0.0000   -0.0000   -0.0000    0.0000   -0.0000
      136 NB     8g1+       0.0000   -0.0000    0.0000    0.0000   -0.0000   -0.0000    0.0000    0.0000   -0.0000    0.0000
      137 NB     5g2+      -0.0000   -0.0000    0.0000    0.0000   -0.0000    0.0000    0.0000    0.0000   -0.0000    0.0000
      138 NB     6g2+      -0.0000   -0.0000   -0.0000   -0.0000    0.0000   -0.0000   -0.0000   -0.0000    0.0000   -0.0000
      139 NB     7g2+      -0.0000   -0.0000    0.0000    0.0000   -0.0000    0.0000    0.0000    0.0000   -0.0000    0.0000
      140 NB     8g2+      -0.0000   -0.0000   -0.0000   -0.0000    0.0000   -0.0000   -0.0000   -0.0000    0.0000   -0.0000
      141 NB     5g3+      -0.0000   -0.0000    0.0000    0.0000    0.0000    0.0000    0.0000    0.0000    0.0000    0.0000
      142 NB     6g3+      -0.0000   -0.0000   -0.0000   -0.0000   -0.0000   -0.0000   -0.0000   -0.0000   -0.0000   -0.0000
      143 NB     7g3+       0.0000    0.0000    0.0000    0.0000    0.0000    0.0000    0.0000    0.0000    0.0000    0.0000
      144 NB     8g3+       0.0000   -0.0000   -0.0000   -0.0000   -0.0000   -0.0000   -0.0000   -0.0000   -0.0000   -0.0000
      145 NB     5g4+       0.0000    0.0000    0.0000    0.0000    0.0000   -0.0000    0.0000    0.0000    0.0000    0.0000
      146 NB     6g4+       0.0000    0.0000   -0.0000   -0.0000   -0.0000    0.0000   -0.0000   -0.0000   -0.0000   -0.0000
      147 NB     7g4+       0.0000    0.0000    0.0000    0.0000    0.0000   -0.0000    0.0000    0.0000    0.0000    0.0000
      148 NB     8g4+       0.0000    0.0000   -0.0000   -0.0000   -0.0000    0.0000   -0.0000   -0.0000   -0.0001   -0.0000
      149 NB     6h5-       0.0000   -0.0000    0.0000   -0.0000    0.0000   -0.0000    0.0000   -0.0000   -0.0000    0.0000
      150 NB     7h5-      -0.0000    0.0000   -0.0000    0.0000   -0.0000    0.0000   -0.0000    0.0000    0.0000   -0.0000
      151 NB     6h4-       0.0000    0.0000   -0.0000    0.0000    0.0000   -0.0000   -0.0000    0.0000    0.0000    0.0000
      152 NB     7h4-       0.0000    0.0000    0.0000   -0.0000   -0.0000   -0.0000    0.0000   -0.0000   -0.0000   -0.0000
      153 NB     6h3-      -0.0000    0.0000   -0.0000    0.0000    0.0000   -0.0000   -0.0000    0.0000   -0.0000   -0.0000
      154 NB     7h3-       0.0000   -0.0000    0.0000   -0.0000   -0.0000    0.0000    0.0000   -0.0000    0.0000    0.0000
      155 NB     6h2-      -0.0000   -0.0000   -0.0000    0.0000    0.0000    0.0000   -0.0000    0.0000    0.0000   -0.0000
      156 NB     7h2-       0.0000   -0.0000    0.0000   -0.0000   -0.0000    0.0000    0.0000   -0.0000   -0.0000    0.0000
      157 NB     6h1-       0.0000   -0.0000    0.0000   -0.0000   -0.0000    0.0000    0.0000   -0.0000    0.0000   -0.0000
      158 NB     7h1-      -0.0000    0.0000   -0.0000    0.0000    0.0000    0.0000   -0.0000    0.0000    0.0000   -0.0000
      159 NB     6h0        0.0000    0.0000   -0.0000   -0.0000   -0.0000   -0.0000   -0.0000   -0.0000   -0.0000    0.0000
      160 NB     7h0        0.0000    0.0000    0.0000    0.0000    0.0000    0.0000    0.0000    0.0000    0.0000   -0.0000
      161 NB     6h1+       0.0000    0.0000    0.0000    0.0000   -0.0000   -0.0000    0.0000    0.0000   -0.0000    0.0000
      162 NB     7h1+       0.0000    0.0000   -0.0000   -0.0000    0.0000    0.0000   -0.0000   -0.0000    0.0000   -0.0000
      163 NB     6h2+      -0.0000   -0.0000    0.0000    0.0000    0.0000    0.0000    0.0000    0.0000    0.0000   -0.0000
      164 NB     7h2+      -0.0000   -0.0000   -0.0000   -0.0000   -0.0000   -0.0000   -0.0000   -0.0000   -0.0000    0.0000
      165 NB     6h3+      -0.0000   -0.0000    0.0000    0.0000    0.0000    0.0000    0.0000    0.0000    0.0000   -0.0000
      166 NB     7h3+      -0.0000   -0.0000   -0.0000   -0.0000   -0.0000   -0.0000   -0.0000   -0.0000   -0.0000    0.0000
      167 NB     6h4+      -0.0000   -0.0000   -0.0000   -0.0000    0.0000    0.0000   -0.0000   -0.0000    0.0000    0.0000
      168 NB     7h4+      -0.0000   -0.0000    0.0000    0.0000   -0.0000   -0.0000    0.0000    0.0000   -0.0000   -0.0000
      169 NB     6h5+       0.0000    0.0000   -0.0000   -0.0000   -0.0000   -0.0000    0.0000    0.0000   -0.0000   -0.0000
      170 NB     7h5+       0.0000    0.0000    0.0000    0.0000    0.0000    0.0000   -0.0000   -0.0000    0.0000    0.0000

          Orbital           11        12        13        14    
          Energy          -23.5603  -23.5330  -23.5330  -23.5218
          Occ. No.          0.0000    0.0000    0.0000    0.0000

        1 NB     1s        -0.0000    0.0000   -0.0000   -0.0000
        2 NB     2s         0.0000   -0.0000   -0.0000    0.0001
        3 NB     3s         0.0000   -0.0000   -0.0000    0.0043
        4 NB     4s        -0.0000   -0.0000   -0.0000   -0.0012
        5 NB     5s         0.0000    0.0000    0.0000    0.0003
        6 NB     6s         0.0000   -0.0000   -0.0000   -0.0003
        7 NB     7s        -0.0000    0.0000    0.0000    0.0008
        8 NB     8s        -0.0000   -0.0000    0.0000   -0.0007
        9 NB     9s         0.0000    0.0000   -0.0000    0.0007
       10 NB    10s        -0.0000    0.0000   -0.0000   -0.0003
       11 NB     2px       -0.0000    0.0000    0.0000   -0.0013
       12 NB     3px       -0.0000    0.0002    0.0000   -0.0513
       13 NB     4px        0.0000   -0.0000   -0.0000    0.0102
       14 NB     5px       -0.0000    0.0000    0.0000   -0.0033
       15 NB     6px        0.0000   -0.0000   -0.0000    0.0078
       16 NB     7px       -0.0000    0.0000    0.0000   -0.0063
       17 NB     8px        0.0000   -0.0000   -0.0000    0.0064
       18 NB     9px       -0.0000    0.0000    0.0000   -0.0046
       19 NB    10px        0.0000   -0.0000   -0.0000    0.0020
       20 NB     2py        0.0000    0.0000   -0.0011   -0.0000
       21 NB     3py        0.0000    0.0000   -0.0429    0.0000
       22 NB     4py       -0.0000   -0.0000    0.0084   -0.0000
       23 NB     5py        0.0000    0.0000   -0.0027    0.0000
       24 NB     6py       -0.0000   -0.0000    0.0065   -0.0000
       25 NB     7py        0.0000    0.0000   -0.0053    0.0000
       26 NB     8py       -0.0000   -0.0000    0.0053    0.0000
       27 NB     9py        0.0000    0.0000   -0.0039    0.0000
       28 NB    10py       -0.0000   -0.0000    0.0016   -0.0000
       29 NB     2pz       -0.0000   -0.0011   -0.0000   -0.0000
       30 NB     3pz       -0.0004   -0.0429   -0.0000   -0.0002
       31 NB     4pz        0.0001    0.0084    0.0000    0.0000
       32 NB     5pz       -0.0000   -0.0027   -0.0000   -0.0000
       33 NB     6pz        0.0001    0.0065    0.0000    0.0000
       34 NB     7pz       -0.0000   -0.0053   -0.0000   -0.0000
       35 NB     8pz        0.0000    0.0053    0.0000    0.0000
       36 NB     9pz       -0.0000   -0.0039   -0.0000   -0.0000
       37 NB    10pz        0.0000    0.0016    0.0000    0.0000
       38 NB     3d2-      -0.0000   -0.0000    0.9730   -0.0000
       39 NB     4d2-       0.0000    0.0000   -0.0953    0.0000
       40 NB     5d2-      -0.0000   -0.0000    0.0965   -0.0000
       41 NB     6d2-       0.0000    0.0000   -0.0849    0.0000
       42 NB     7d2-      -0.0000   -0.0000    0.0759   -0.0000
       43 NB     8d2-       0.0000    0.0000   -0.0954    0.0000
       44 NB     9d2-      -0.0000   -0.0000    0.0774   -0.0000
       45 NB    10d2-      -0.0000   -0.0000    0.0679   -0.0000
       46 NB     3d1-       0.0000   -0.0000    0.0129    0.0000
       47 NB     4d1-      -0.0000    0.0000   -0.0013   -0.0000
       48 NB     5d1-       0.0000   -0.0000    0.0013    0.0000
       49 NB     6d1-      -0.0000    0.0000   -0.0011   -0.0000
       50 NB     7d1-       0.0000   -0.0000    0.0010    0.0000
       51 NB     8d1-      -0.0000    0.0000   -0.0013   -0.0000
       52 NB     9d1-       0.0000   -0.0000    0.0010    0.0000
       53 NB    10d1-       0.0000   -0.0000    0.0009    0.0000
       54 NB     3d0        0.8437   -0.0032   -0.0000   -0.4864
       55 NB     4d0       -0.0824    0.0003    0.0000    0.0477
       56 NB     5d0        0.0834   -0.0003   -0.0000   -0.0483
       57 NB     6d0       -0.0733    0.0003    0.0000    0.0425
       58 NB     7d0        0.0656   -0.0002   -0.0000   -0.0380
       59 NB     8d0       -0.0823    0.0003    0.0000    0.0478
       60 NB     9d0        0.0667   -0.0003   -0.0000   -0.0388
       61 NB    10d0        0.0585   -0.0002   -0.0000   -0.0340
       62 NB     3d1+       0.0066    0.9730    0.0000    0.0051
       63 NB     4d1+      -0.0006   -0.0953   -0.0000   -0.0005
       64 NB     5d1+       0.0006    0.0965    0.0000    0.0005
       65 NB     6d1+      -0.0006   -0.0849   -0.0000   -0.0004
       66 NB     7d1+       0.0005    0.0759    0.0000    0.0004
       67 NB     8d1+      -0.0006   -0.0954   -0.0000   -0.0005
       68 NB     9d1+       0.0005    0.0774    0.0000    0.0004
       69 NB    10d1+       0.0005    0.0679    0.0000    0.0004
       70 NB     3d2+       0.4872   -0.0077   -0.0000    0.8421
       71 NB     4d2+      -0.0476    0.0008    0.0000   -0.0827
       72 NB     5d2+       0.0482   -0.0008   -0.0000    0.0836
       73 NB     6d2+      -0.0424    0.0007    0.0000   -0.0736
       74 NB     7d2+       0.0379   -0.0006   -0.0000    0.0658
       75 NB     8d2+      -0.0475    0.0008    0.0000   -0.0828
       76 NB     9d2+       0.0385   -0.0006   -0.0000    0.0672
       77 NB    10d2+       0.0338   -0.0005   -0.0000    0.0589
       78 NB     4f3-      -0.0000   -0.0000    0.0027   -0.0000
       79 NB     5f3-      -0.0000   -0.0000    0.0031   -0.0000
       80 NB     6f3-       0.0000    0.0000   -0.0030    0.0000
       81 NB     7f3-      -0.0000   -0.0000    0.0030   -0.0000
       82 NB     8f3-      -0.0000   -0.0000    0.0019   -0.0000
       83 NB     4f2-       0.0000   -0.0000    0.0000    0.0000
       84 NB     5f2-       0.0000   -0.0000    0.0000    0.0000
       85 NB     6f2-      -0.0000    0.0000   -0.0000   -0.0000
       86 NB     7f2-       0.0000   -0.0000    0.0000    0.0000
       87 NB     8f2-       0.0000   -0.0000    0.0000    0.0000
       88 NB     4f1-       0.0000    0.0000   -0.0007    0.0000
       89 NB     5f1-       0.0000    0.0000   -0.0008    0.0000
       90 NB     6f1-      -0.0000   -0.0000    0.0008   -0.0000
       91 NB     7f1-       0.0000    0.0000   -0.0008    0.0000
       92 NB     8f1-       0.0000    0.0000   -0.0005    0.0000
       93 NB     4f0       -0.0000   -0.0017   -0.0000   -0.0000
       94 NB     5f0       -0.0000   -0.0020   -0.0000   -0.0000
       95 NB     6f0        0.0000    0.0019    0.0000    0.0000
       96 NB     7f0       -0.0000   -0.0019   -0.0000   -0.0000
       97 NB     8f0       -0.0000   -0.0012   -0.0000    0.0000
       98 NB     4f1+       0.0017    0.0000    0.0000   -0.0018
       99 NB     5f1+       0.0019    0.0000    0.0000   -0.0021
      100 NB     6f1+      -0.0019   -0.0000   -0.0000    0.0021
      101 NB     7f1+       0.0019    0.0000    0.0000   -0.0020
      102 NB     8f1+       0.0012    0.0000    0.0000   -0.0013
      103 NB     4f2+       0.0000    0.0022    0.0000    0.0000
      104 NB     5f2+       0.0000    0.0025    0.0000    0.0000
      105 NB     6f2+      -0.0000   -0.0025   -0.0000   -0.0000
      106 NB     7f2+       0.0000    0.0024    0.0000    0.0000
      107 NB     8f2+       0.0000    0.0016    0.0000    0.0000
      108 NB     4f3+       0.0013   -0.0000   -0.0000    0.0024
      109 NB     5f3+       0.0015   -0.0000   -0.0000    0.0027
      110 NB     6f3+      -0.0015    0.0000    0.0000   -0.0027
      111 NB     7f3+       0.0014   -0.0000   -0.0000    0.0026
      112 NB     8f3+       0.0009   -0.0000   -0.0000    0.0017
      113 NB     5g4-       0.0000    0.0000   -0.0001    0.0000
      114 NB     6g4-      -0.0000   -0.0000    0.0001   -0.0000
      115 NB     7g4-       0.0000    0.0000   -0.0002    0.0000
      116 NB     8g4-      -0.0000   -0.0000    0.0002   -0.0000
      117 NB     5g3-      -0.0000    0.0000   -0.0000   -0.0000
      118 NB     6g3-       0.0000   -0.0000    0.0000   -0.0000
      119 NB     7g3-      -0.0000    0.0000   -0.0000   -0.0000
      120 NB     8g3-       0.0000   -0.0000    0.0000    0.0000
      121 NB     5g2-      -0.0000   -0.0000    0.0000   -0.0000
      122 NB     6g2-       0.0000    0.0000   -0.0000   -0.0000
      123 NB     7g2-      -0.0000   -0.0000    0.0001    0.0000
      124 NB     8g2-       0.0000    0.0000   -0.0001    0.0000
      125 NB     5g1-       0.0000   -0.0000    0.0000   -0.0000
      126 NB     6g1-      -0.0000    0.0000   -0.0000    0.0000
      127 NB     7g1-       0.0000   -0.0000    0.0000    0.0000
      128 NB     8g1-      -0.0000    0.0000   -0.0000   -0.0000
      129 NB     5g0        0.0000   -0.0000   -0.0000   -0.0000
      130 NB     6g0       -0.0000   -0.0000   -0.0000    0.0001
      131 NB     7g0        0.0001   -0.0000   -0.0000   -0.0001
      132 NB     8g0       -0.0001   -0.0000   -0.0000    0.0001
      133 NB     5g1+       0.0000    0.0001    0.0000    0.0000
      134 NB     6g1+      -0.0000   -0.0001   -0.0000   -0.0000
      135 NB     7g1+       0.0000    0.0001    0.0000   -0.0000
      136 NB     8g1+      -0.0000   -0.0002   -0.0000   -0.0000
      137 NB     5g2+      -0.0000    0.0000    0.0000    0.0001
      138 NB     6g2+       0.0000   -0.0000   -0.0000   -0.0001
      139 NB     7g2+      -0.0001    0.0000    0.0000    0.0001
      140 NB     8g2+       0.0001   -0.0000   -0.0000   -0.0002
      141 NB     5g3+      -0.0000   -0.0001   -0.0000    0.0000
      142 NB     6g3+       0.0000    0.0001    0.0000    0.0000
      143 NB     7g3+      -0.0000   -0.0001   -0.0000   -0.0000
      144 NB     8g3+       0.0000    0.0002    0.0000   -0.0000
      145 NB     5g4+      -0.0000    0.0000    0.0000   -0.0001
      146 NB     6g4+       0.0001   -0.0000   -0.0000    0.0001
      147 NB     7g4+      -0.0001    0.0000    0.0000   -0.0002
      148 NB     8g4+       0.0001   -0.0000   -0.0000    0.0002
      149 NB     6h5-       0.0000   -0.0000    0.0000    0.0000
      150 NB     7h5-      -0.0000    0.0000   -0.0000    0.0000
      151 NB     6h4-       0.0000    0.0000   -0.0000    0.0000
      152 NB     7h4-      -0.0000    0.0000   -0.0000   -0.0000
      153 NB     6h3-      -0.0000    0.0000   -0.0000    0.0000
      154 NB     7h3-       0.0000   -0.0000    0.0000   -0.0000
      155 NB     6h2-      -0.0000   -0.0000    0.0000   -0.0000
      156 NB     7h2-       0.0000    0.0000   -0.0000    0.0000
      157 NB     6h1-      -0.0000   -0.0000    0.0000    0.0000
      158 NB     7h1-      -0.0000    0.0000   -0.0000    0.0000
      159 NB     6h0       -0.0000    0.0000    0.0000   -0.0000
      160 NB     7h0        0.0000   -0.0000   -0.0000   -0.0000
      161 NB     6h1+      -0.0000   -0.0000   -0.0000    0.0000
      162 NB     7h1+       0.0000   -0.0000   -0.0000   -0.0000
      163 NB     6h2+       0.0000   -0.0000   -0.0000    0.0000
      164 NB     7h2+      -0.0000    0.0000    0.0000    0.0000
      165 NB     6h3+       0.0000    0.0000    0.0000   -0.0000
      166 NB     7h3+      -0.0000   -0.0000   -0.0000    0.0000
      167 NB     6h4+      -0.0000    0.0000    0.0000    0.0000
      168 NB     7h4+       0.0000   -0.0000   -0.0000    0.0000
      169 NB     6h5+       0.0000    0.0000    0.0000    0.0000
      170 NB     7h5+      -0.0000    0.0000    0.0000   -0.0000
--


++    Molecular charges:
      ------------------

      Mulliken charges per centre and basis function type
      ---------------------------------------------------

                NB    
      1s       2.0000
      2s       2.0000
      2px      2.0000
      2pz      2.0000
      2py      2.0000
      3s       1.9551
      3px      1.9329
      3pz      1.9353
      3py      1.9353
      4s       0.0199
      3d2+     0.0044
      3d1+     0.0040
      3d0      0.0015
      3d1-     0.0000
      3d2-     0.0040
      4px      0.0230
      4pz      0.0229
      4py      0.0229
      5s       0.0010
      4d2+     0.0000
      4d1+     0.0000
      4d0      0.0000
      4d1-     0.0000
      4d2-     0.0000
      5px      0.0022
      5pz      0.0022
      5py      0.0022
      6s       0.0015
      4f3+     0.0000
      4f2+     0.0000
      4f1+     0.0000
      4f0      0.0000
      4f1-     0.0000
      4f2-     0.0000
      4f3-     0.0000
      5d2+     0.0000
      5d1+     0.0000
      5d0      0.0000
      5d1-     0.0000
      5d2-     0.0000
      6px      0.0130
      6pz      0.0129
      6py      0.0129
      7s       0.0089
      5f3+     0.0000
      5f2+     0.0000
      5f1+     0.0000
      5f0      0.0000
      5f1-     0.0000
      5f2-     0.0000
      5f3-     0.0000
      6d2+     0.0000
      6d1+     0.0000
      6d0      0.0000
      6d1-     0.0000
      6d2-     0.0000
      7px      0.0084
      7pz      0.0083
      7py      0.0083
      5g4+     0.0000
      5g3+     0.0000
      5g2+     0.0000
      5g1+     0.0000
      5g0      0.0000
      5g1-     0.0000
      5g2-     0.0000
      5g3-     0.0000
      5g4-     0.0000
      6f3+     0.0000
      6f2+     0.0000
      6f1+     0.0000
      6f0      0.0000
      6f1-     0.0000
      6f2-     0.0000
      6f3-     0.0000
      6g4+     0.0000
      6g3+     0.0000
      6g2+     0.0000
      6g1+     0.0000
      6g0      0.0000
      6g1-     0.0000
      6g2-     0.0000
      6g3-     0.0000
      6g4-     0.0000
      6h5+     0.0000
      6h4+     0.0000
      6h3+     0.0000
      6h2+     0.0000
      6h1+     0.0000
      6h0      0.0000
      6h1-     0.0000
      6h2-     0.0000
      6h3-     0.0000
      6h4-     0.0000
      6h5-     0.0000
      7d2+     0.0000
      7d1+     0.0000
      7d0      0.0000
      7d1-     0.0000
      7d2-     0.0000
      7f3+     0.0000
      7f2+     0.0000
      7f1+     0.0000
      7f0      0.0000
      7f1-     0.0000
      7f2-     0.0000
      7f3-     0.0000
      7g4+     0.0000
      7g3+     0.0000
      7g2+     0.0000
      7g1+     0.0000
      7g0      0.0000
      7g1-     0.0000
      7g2-     0.0000
      7g3-     0.0000
      7g4-     0.0000
      7h5+     0.0000
      7h4+     0.0000
      7h3+     0.0000
      7h2+     0.0000
      7h1+     0.0000
      7h0      0.0000
      7h1-     0.0000
      7h2-     0.0000
      7h3-     0.0000
      7h4-     0.0000
      7h5-     0.0000
      8s       0.0058
      8px      0.0087
      8pz      0.0086
      8py      0.0086
      8d2+     0.0000
      8d1+     0.0000
      8d0      0.0000
      8d1-     0.0000
      8d2-     0.0000
      8f3+     0.0000
      8f2+     0.0000
      8f1+     0.0000
      8f0      0.0000
      8f1-     0.0000
      8f2-     0.0000
      8f3-     0.0000
      8g4+     0.0000
      8g3+     0.0000
      8g2+     0.0000
      8g1+     0.0000
      8g0      0.0000
      8g1-     0.0000
      8g2-     0.0000
      8g3-     0.0000
      8g4-     0.0000
      9s       0.0061
      9px      0.0048
      9pz      0.0048
      9py      0.0048
      9d2+     0.0000
      9d1+     0.0000
      9d0      0.0000
      9d1-     0.0000
      9d2-     0.0000
     10s       0.0017
     10px      0.0011
     10pz      0.0010
     10py      0.0010
     10d2+     0.0000
     10d1+     0.0000
     10d0      0.0000
     10d1-     0.0000
     10d2-     0.0000
      Total   18.0000

      N-E     23.0000

      Total electronic charge=   18.000000

      Total            charge=   23.000000
--

 Sorry, Molden does not know how to handle
 functions with angular momentum larger than g

++    Static properties:
      ------------------


      LoProp Charges per center


                   NB    
      Nuclear     41.0000
      Electronic -18.0000

      Total       23.0000
--


++    Molecular properties:
      ---------------------

      Charge (e):
                      =   23.0000
      Dipole Moment (Debye):
      Origin of the operator (Ang)=    0.0000    0.0000    0.0000
                   X= -2.7564E-01               Y= -1.9006E-13               Z=  5.1138E-01           Total=  5.8093E-01
      Center of Charge (Ang)
                     X=   -0.00249507               Y=   -0.00000000               Z=    0.00462896
      Quadrupole Moment (Debye*Ang):
      Origin of the operator (Ang)=   -0.0000   -0.0000    0.0046
                  XX= -7.2144E-01              XY= -2.5501E-16              XZ=  7.1123E-06              YY= -7.2293E-01
                  YZ= -7.1338E-16              ZZ= -7.2293E-01
      In traceless form (Debye*Ang)
                  XX=  1.4918E-03              XY= -3.8252E-16              XZ=  1.0668E-05              YY= -7.4579E-04
                  YZ= -1.0701E-15              ZZ= -7.4599E-04
--

 Sorry, Molden does not know how to handle
 functions with angular momentum larger than g
 ###############################################################################
 ###############################################################################
 ###                                                                         ###
 ###                                                                         ###
 ###    WARNING: RunFile label nBas                                          ###
 ###    was used       62 times                                              ###
 ###                                                                         ###
 ###                                                                         ###
 ###############################################################################
 ###############################################################################
Note: The following floating-point exceptions are signalling: IEEE_UNDERFLOW_FLAG IEEE_DENORMAL
--- Stop Module: scf at Wed Mar 26 12:01:21 2025 /rc=_RC_ALL_IS_WELL_ ---
*** files: niobium_so_cf.LprOrb niobium_so_cf.ScfOrb xmldump
    saved to directory /home4/s4752295/Internship/Initial_simulations/Point_charge_model/1_electron/Madelung_charges_9_active_space/Nb
--- Module scf spent 5 seconds ---

*** symbolic link created: INPORB -> niobium_so_cf.ScfOrb
--- Start Module: rasscf at Wed Mar 26 12:01:21 2025 ---

()()()()()()()()()()()()()()()()()()()()()()()()()()()()()()()()()()()()()()()()()()()()()()()()()()

                                              &RASSCF

                                   only a single process is used
                       available to each process: 4.1 GB of memory, 1 thread?
                                            pid: 3924176
()()()()()()()()()()()()()()()()()()()()()()()()()()()()()()()()()()()()()()()()()()()()()()()()()()


      Header of the ONEINT file:
      --------------------------
      
      Integrals generated by seward 4.2.0  , Wed Mar 26 12:01:07 2025


      OrdInt status: non-squared


      Cartesian coordinates in Angstrom:
      -----------------------------------------------------
      No.  Label        X            Y            Z        
      -----------------------------------------------------
       1   NB        -0.00000000  -0.00000000   0.00463220
      -----------------------------------------------------
      Nuclear repulsion energy = -535.86780685

++    Wave function specifications:
      -----------------------------

      Number of closed shell electrons          18
      Number of electrons in active shells       1
      Max number of holes in RAS1 space          0
      Max nr of electrons in RAS3 space          0
      Number of inactive orbitals                9
      Number of active orbitals                  9
      Number of secondary orbitals             152
      Spin quantum number                      0.5
      State symmetry                             1
--

++    Orbital specifications:
      -----------------------

      Symmetry species                           1
                                                 a
      Frozen orbitals                            0
      Inactive orbitals                          9
      Active orbitals                            9
      RAS1 orbitals                              0
      RAS2 orbitals                              9
      RAS3 orbitals                              0
      Secondary orbitals                       152
      Deleted orbitals                           0
      Number of basis functions                170
--

++    CI expansion specifications:
      ----------------------------

      Number of CSFs                             9
      Number of determinants                     9
      Number of root(s) required                 9
      Root chosen for geometry opt.              9
      CI roots used                              1     2     3     4     5     6     7     8     9
      weights                                0.111 0.111 0.111 0.111 0.111 0.111 0.111 0.111 0.111
      highest root included in the CI            9
      max. size of the explicit Hamiltonian      9
--

++    Optimization specifications:
      ----------------------------

      RASSCF algorithm: Conventional
      Maximum number of macro iterations       200
      Maximum number of SX iterations          100
      Threshold for RASSCF energy            0.100E-07
      Threshold for max MO rotation          0.100E+00
      Threshold for max BLB element          0.100E-03
      Level shift parameter                  0.500E+00
      Make Quasi-Newton update
--

      The MO-coefficients are taken from the file:
      INPORB                                                                                                                          
      Title: SCF orbitals                                                                  

      Total molecular charge   22.00

      ************************************************************************************************************************
      *                                                                                                                      *
      *                                            Wave function control section                                             *
      *                                                                                                                      *
      ************************************************************************************************************************


                                         RASSCF iterations: Energy and convergence statistics
                                         ----------------------------------------------------

[...]
     5             0.0278577577        0.7580482040           6114.0711         2.1
     6             0.0278577577        0.7580482040           6114.0711         2.1
     7             0.0278751528        0.7585215499           6117.8889         2.1
     8             0.0278751528        0.7585215499           6117.8889         2.1
     9             0.0392652049        1.0684606578           8617.7164         2.1
    10             0.0392652049        1.0684606578           8617.7164         2.1
    11            14.2473745292      387.6908113067        3126937.2727         0.7
    12            14.2473745292      387.6908113067        3126937.2727         0.7
    13            15.7747345928      429.2523959326        3462154.0596         1.3
    14            15.7747345928      429.2523959326        3462154.0596         1.3
    15            15.7750523178      429.2610416697        3462223.7922         1.3
    16            15.7750523178      429.2610416697        3462223.7922         1.3
    17            16.1944095767      440.6723340160        3554262.0720         1.2
    18            16.1944095767      440.6723340160        3554262.0720         1.2


 Weights of the five most important spin-orbit-free states for each spin-orbit state.

 SO State  Total energy (au)           Spin-free states, spin, and weights
 -------------------------------------------------------------------------------------------------------
    1         0.000000       1 0.5  1.0000    9 0.5  0.0000    8 0.5  0.0000    7 0.5  0.0000    6 0.5  0.0000
    2         0.000000       1 0.5  1.0000    9 0.5  0.0000    8 0.5  0.0000    7 0.5  0.0000    6 0.5  0.0000
    3         0.000007       2 0.5  1.0000    9 0.5  0.0000    8 0.5  0.0000    7 0.5  0.0000    6 0.5  0.0000
    4         0.000007       2 0.5  1.0000    9 0.5  0.0000    8 0.5  0.0000    7 0.5  0.0000    6 0.5  0.0000
    5         0.027858       3 0.5  1.0000    9 0.5  0.0000    8 0.5  0.0000    7 0.5  0.0000    6 0.5  0.0000
    6         0.027858       3 0.5  1.0000    9 0.5  0.0000    8 0.5  0.0000    7 0.5  0.0000    6 0.5  0.0000
    7         0.027875       4 0.5  1.0000    9 0.5  0.0000    8 0.5  0.0000    7 0.5  0.0000    6 0.5  0.0000
    8         0.027875       4 0.5  1.0000    9 0.5  0.0000    8 0.5  0.0000    7 0.5  0.0000    6 0.5  0.0000
    9         0.039265       5 0.5  1.0000    9 0.5  0.0000    8 0.5  0.0000    7 0.5  0.0000    6 0.5  0.0000
   10         0.039265       5 0.5  1.0000    9 0.5  0.0000    8 0.5  0.0000    7 0.5  0.0000    6 0.5  0.0000
   11        14.247375       6 0.5  1.0000    9 0.5  0.0000    8 0.5  0.0000    7 0.5  0.0000    5 0.5  0.0000
   12        14.247375       6 0.5  1.0000    9 0.5  0.0000    8 0.5  0.0000    7 0.5  0.0000    5 0.5  0.0000
   13        15.774735       7 0.5  1.0000    9 0.5  0.0000    8 0.5  0.0000    6 0.5  0.0000    5 0.5  0.0000
   14        15.774735       7 0.5  1.0000    9 0.5  0.0000    8 0.5  0.0000    6 0.5  0.0000    5 0.5  0.0000
   15        15.775052       8 0.5  1.0000    9 0.5  0.0000    7 0.5  0.0000    6 0.5  0.0000    5 0.5  0.0000
   16        15.775052       8 0.5  1.0000    9 0.5  0.0000    7 0.5  0.0000    6 0.5  0.0000    5 0.5  0.0000
   17        16.194410       9 0.5  1.0000    8 0.5  0.0000    7 0.5  0.0000    6 0.5  0.0000    5 0.5  0.0000
   18        16.194410       9 0.5  1.0000    8 0.5  0.0000    7 0.5  0.0000    6 0.5  0.0000    5 0.5  0.0000
 -------------------------------------------------------------------------------------------------------


      ****************************************************************************************************
      *                                                                                                  *
      *                                    Special properties section                                    *
      *                                                                                                  *
      ****************************************************************************************************


++ Dipole transition strengths (SO states):
   ----------------------------------------
    for osc. strength at least    1.0000000000000001E-005

      From   To        Osc. strength     Einstein coefficients Ax, Ay, Az (sec-1)    Total A (sec-1)
     -----------------------------------------------------------------------------------------------
         1   13       1.51396020E-02  9.25361629E-08  1.21045307E+11  8.46821687E-04  1.21045307E+11
         1   15       1.51482293E-02  3.39533436E+07  8.47715442E-04  1.21085209E+11  1.21119163E+11
         2   14       1.51396020E-02  9.25361629E-08  1.21045307E+11  8.46821687E-04  1.21045307E+11
         2   16       1.51482293E-02  3.39533436E+07  8.47715442E-04  1.21085209E+11  1.21119163E+11
         3   13       1.51390023E-02  1.18400629E+07  8.47141748E-04  1.21028559E+11  1.21040399E+11
         3   15       1.51455553E-02  2.48061799E-07  1.21097670E+11  8.47426917E-04  1.21097670E+11
         4   14       1.51390023E-02  1.18400629E+07  8.47141748E-04  1.21028559E+11  1.21040399E+11
         4   16       1.51455553E-02  2.48061799E-07  1.21097670E+11  8.47426917E-04  1.21097670E+11
         5   11       2.65906581E-03  4.68237458E+05  8.34631522E-08  1.72741372E+10  1.72746054E+10
         5   13       1.70261106E-02  1.35647373E+11  2.95432827E-10  7.18290561E+05  1.35648091E+11
         5   17       1.05583684E-02  2.15061896E+06  4.28700320E-07  8.86605556E+10  8.86627062E+10
         6   12       2.65906581E-03  4.68237458E+05  8.34631522E-08  1.72741372E+10  1.72746054E+10
         6   14       1.70261106E-02  1.35647373E+11  2.95432827E-10  7.18290561E+05  1.35648091E+11
         6   18       1.05583684E-02  2.15061896E+06  4.28700320E-07  8.86605556E+10  8.86627062E+10
         7   11       2.65642761E-03  9.13155167E-13  1.72574241E+10  8.35989354E-08  1.72574241E+10
         7   15       1.70210663E-02  1.35600712E+11  6.09134118E-11  1.23637481E+07  1.35613075E+11
         7   17       1.05544078E-02  8.99641607E-12  8.86292569E+10  4.28953017E-07  8.86292569E+10
         8   12       2.65642761E-03  9.13155167E-13  1.72574241E+10  8.35989354E-08  1.72574241E+10
         8   16       1.70210663E-02  1.35600712E+11  6.09134118E-11  1.23637481E+07  1.35613075E+11
         8   18       1.05544078E-02  8.99641607E-12  8.86292569E+10  4.28953017E-07  8.86292569E+10
         9   11       3.82508363E-03  2.48093995E+10  3.91689284E-12  3.79136802E+05  2.48097786E+10
         9   13       4.57203865E-03  1.67390958E+06  1.59079604E-08  3.63712883E+10  3.63729622E+10
         9   15       4.57115598E-03  2.22389203E-11  3.63674087E+10  1.92605225E-08  3.63674087E+10
         9   17       1.77225592E-02  1.48611523E+11  2.29424662E-11  1.71499354E+06  1.48613238E+11
        10   12       3.82508363E-03  2.48093995E+10  3.91689284E-12  3.79136802E+05  2.48097786E+10
        10   14       4.57203865E-03  1.67390958E+06  1.59079604E-08  3.63712883E+10  3.63729622E+10
        10   16       4.57115598E-03  2.22389203E-11  3.63674087E+10  1.92605225E-08  3.63674087E+10
        10   18       1.77225592E-02  1.48611523E+11  2.29424662E-11  1.71499354E+06  1.48613238E+11
        11   13       1.85174765E-01  3.03573602E+04  6.69507024E-09  1.38794765E+10  1.38795069E+10
        11   15       1.85159050E-01  5.79295584E-15  1.38841036E+10  6.70142874E-09  1.38841036E+10
        11   17       1.51070197E-01  1.84007059E+10  8.15452579E-17  5.18950599E+04  1.84007578E+10
        12   14       1.85174765E-01  3.03573602E+04  6.69507024E-09  1.38794765E+10  1.38795069E+10
        12   16       1.85159050E-01  5.79295584E-15  1.38841036E+10  6.70142874E-09  1.38841036E+10
        12   18       1.51070197E-01  1.84007059E+10  8.15452579E-17  5.18950599E+04  1.84007578E+10
        13   17       9.61735686E-03  3.60248704E+02  2.63339071E-11  5.44237415E+07  5.44241017E+07
        14   18       9.61735686E-03  3.60248704E+02  2.63339071E-11  5.44237415E+07  5.44241017E+07
        15   17       9.63224669E-03  2.19438196E-16  5.44258600E+07  2.62071368E-11  5.44258600E+07
        16   18       9.63224669E-03  2.19438196E-16  5.44258600E+07  2.62071368E-11  5.44258600E+07
     -----------------------------------------------------------------------------------------------
--

++ Velocity transition strengths (SO states):
   ------------------------------------------
    for osc. strength at least    1.0000000000000001E-005

      From   To        Osc. strength     Einstein coefficients Ax, Ay, Az (sec-1)    Total A (sec-1)
     -----------------------------------------------------------------------------------------------
         1    3       1.57873289E-03  5.48753534E-23  2.72169815E-03  8.85699236E-20  2.72169815E-03
         1    5       2.76543089E-02  1.02667338E-14  6.89550387E+05  4.64667718E-09  6.89550387E+05
         1    7       2.76238551E-02  7.29650221E-01  4.66115991E-09  6.89650770E+05  6.89651499E+05
         1   13       1.54944742E-02  7.23311851E-08  1.23883039E+11  8.66694212E-04  1.23883039E+11
         1   15       1.55017286E-02  2.88124519E+07  8.67605763E-04  1.23917220E+11  1.23946033E+11
         2    4       1.57873289E-03  5.48753534E-23  2.72169815E-03  8.85699236E-20  2.72169815E-03
         2    6       2.76543089E-02  1.02667338E-14  6.89550387E+05  4.64667718E-09  6.89550387E+05
         2    8       2.76238551E-02  7.29650221E-01  4.66115991E-09  6.89650770E+05  6.89651499E+05
         2   14       1.54944742E-02  7.23311851E-08  1.23883039E+11  8.66694212E-04  1.23883039E+11
         2   16       1.55017286E-02  2.88124519E+07  8.67605763E-04  1.23917220E+11  1.23946033E+11
         3    5       2.76385004E-02  1.56687145E+00  4.65267066E-09  6.88792269E+05  6.88793836E+05
         3    7       2.76485542E-02  5.70121426E-15  6.89905402E+05  4.65332210E-09  6.89905402E+05
         3   13       1.54937974E-02  9.20055943E+06  8.67006718E-04  1.23868312E+11  1.23877512E+11
         3   15       1.55006330E-02  2.10259736E-07  1.23937157E+11  8.67253013E-04  1.23937157E+11
         4    6       2.76385004E-02  1.56687145E+00  4.65267066E-09  6.88792269E+05  6.88793836E+05
         4    8       2.76485542E-02  5.70121426E-15  6.89905402E+05  4.65332210E-09  6.89905402E+05
         4   14       1.54937974E-02  9.20055943E+06  8.67006718E-04  1.23868312E+11  1.23877512E+11
         4   16       1.55006330E-02  2.10259736E-07  1.23937157E+11  8.67253013E-04  1.23937157E+11
         5    7       7.07759372E-05  1.97928852E-21  6.88101380E-04  1.06010713E-19  6.88101380E-04
         5    9       2.12343123E-01  1.58900828E+00  4.24925743E-12  8.87820660E+05  8.87822249E+05
         5   11       2.77092047E-03  4.66884842E+05  8.70625869E-08  1.80008643E+10  1.80013311E+10
         5   13       1.62597424E-02  1.29541440E+11  3.43343212E-10  1.39740191E+06  1.29542837E+11
         5   17       1.12719152E-02  2.03835109E+06  4.57963308E-07  9.46529252E+10  9.46549636E+10
         6    8       7.07759372E-05  1.97928852E-21  6.88101380E-04  1.06010713E-19  6.88101380E-04
         6   10       2.12343123E-01  1.58900828E+00  4.24925743E-12  8.87820660E+05  8.87822249E+05
         6   12       2.77092047E-03  4.66884842E+05  8.70625869E-08  1.80008643E+10  1.80013311E+10
         6   14       1.62597424E-02  1.29541440E+11  3.43343212E-10  1.39740191E+06  1.29542837E+11
         6   18       1.12719152E-02  2.03835109E+06  4.57963308E-07  9.46529252E+10  9.46549636E+10
         7    9       2.12564019E-01  5.80447633E-17  8.86037415E+05  4.32540744E-12  8.86037415E+05
         7   11       2.76914237E-03  6.79622418E-13  1.79897356E+10  8.71174531E-08  1.79897356E+10
         7   15       1.62579638E-02  1.29518307E+11  7.63181744E-11  1.53016119E+07  1.29533608E+11
         7   17       1.12690448E-02  7.76387981E-12  9.46306565E+10  4.58227976E-07  9.46306565E+10
         8   10       2.12564019E-01  5.80447633E-17  8.86037415E+05  4.32540744E-12  8.86037415E+05
         8   12       2.76914237E-03  6.79622418E-13  1.79897356E+10  8.71174531E-08  1.79897356E+10
         8   16       1.62579638E-02  1.29518307E+11  7.63181744E-11  1.53016119E+07  1.29533608E+11
         8   18       1.12690448E-02  7.76387981E-12  9.46306565E+10  4.58227976E-07  9.46306565E+10
         9   11       3.79289437E-03  2.46006921E+10  4.23747182E-12  3.90080643E+05  2.46010822E+10
         9   13       5.01580479E-03  1.59438797E+06  1.74881277E-08  3.99018987E+10  3.99034931E+10
         9   15       5.01349314E-03  2.47008398E-11  3.98867133E+10  2.10543817E-08  3.98867133E+10
         9   17       1.63771823E-02  1.37330245E+11  2.33190465E-11  1.75853750E+06  1.37332003E+11
        10   12       3.79289437E-03  2.46006921E+10  4.23747182E-12  3.90080643E+05  2.46010822E+10
        10   14       5.01580479E-03  1.59438797E+06  1.74881277E-08  3.99018987E+10  3.99034931E+10
        10   16       5.01349314E-03  2.47008398E-11  3.98867133E+10  2.10543817E-08  3.98867133E+10
        10   18       1.63771823E-02  1.37330245E+11  2.33190465E-11  1.75853750E+06  1.37332003E+11
        11   13       1.76005750E-01  2.86907551E+04  6.36899121E-09  1.31922738E+10  1.31923025E+10
        11   15       1.75990210E-01  1.10081373E-14  1.31966264E+10  6.37089800E-09  1.31966264E+10
        11   17       1.43064303E-01  1.74256293E+10  3.07332151E-16  4.95575299E+04  1.74256788E+10
        12   14       1.76005750E-01  2.86907551E+04  6.36899121E-09  1.31922738E+10  1.31923025E+10
        12   16       1.75990210E-01  1.10081373E-14  1.31966264E+10  6.37089800E-09  1.31966264E+10
        12   18       1.43064303E-01  1.74256293E+10  3.07332151E-16  4.95575299E+04  1.74256788E+10
        13   17       1.23370134E-02  3.98291699E+02  3.36926928E-11  6.98143355E+07  6.98147338E+07
        14   18       1.23370134E-02  3.98291699E+02  3.36926928E-11  6.98143355E+07  6.98147338E+07
        15   17       1.23552726E-02  1.95680938E-15  6.98122355E+07  3.36407670E-11  6.98122355E+07
        16   18       1.23552726E-02  1.95680938E-15  6.98122355E+07  3.36407670E-11  6.98122355E+07
     -----------------------------------------------------------------------------------------------
--

++ Length and velocity gauge comparison (SO states):

 --------------------------------------------------
 A comparison between the dipole oscillator strengths in 
 length and velocity gauge will be performed

 All dipole oscillator differences above the tolerance of   0.10000000000000001       will be printed 

 Due to basis set deficiency these oscillator may be problematic 

 The tolerance is defined as ABS(1-O_l/O_v) 
 O_l : dipole oscillator strength in length gauge
 O_p : dipole oscillator strength in velocity gauge
 --------------------------------------------------

  Problematic transitions have been found

      From   To       Difference (%) Osc. st. (len.) Osc. st. (vel.)
     ---------------------------------------------------------------
         1    3      --------------- below threshold  1.57873289E-03
         1    5      --------------- below threshold  2.76543089E-02
         1    7      --------------- below threshold  2.76238551E-02
         2    4      --------------- below threshold  1.57873289E-03
         2    6      --------------- below threshold  2.76543089E-02
         2    8      --------------- below threshold  2.76238551E-02
         3    5      --------------- below threshold  2.76385004E-02
         3    7      --------------- below threshold  2.76485542E-02
         4    6      --------------- below threshold  2.76385004E-02
         4    8      --------------- below threshold  2.76485542E-02
         5    7      --------------- below threshold  7.07759372E-05
         5    9      --------------- below threshold  2.12343123E-01
         6    8      --------------- below threshold  7.07759372E-05
         6   10      --------------- below threshold  2.12343123E-01
         7    9      --------------- below threshold  2.12564019E-01
         8   10      --------------- below threshold  2.12564019E-01
        13   17            22.044692  9.61735686E-03  1.23370134E-02
        14   18            22.044692  9.61735686E-03  1.23370134E-02
        15   17            22.039383  9.63224669E-03  1.23552726E-02
        16   18            22.039383  9.63224669E-03  1.23552726E-02
     ---------------------------------------------------------------

 Number of problematic transitions =                    20

--

 Electric-dipole - electric-octupole not included
++ I/O STATISTICS
 
  I. General I/O information
  - - - - - - - - - - - - - - - - - - - - - - - - - - - - - - - - - - - - - - - - - - -
  Unit  Name          Flsize      Write/Read            MBytes           Write/Read
                      (MBytes)       Calls              In/Out           Time, sec.
  - - - - - - - - - - - - - - - - - - - - - - - - - - - - - - - - - - - - - - - - - - -
   1  SCRATCH           0.00 .       9/      45 .      0.0/      0.0 .       0/       0
   2  ANNI              0.00 .       0/       0 .      0.0/      0.0 .       0/       0
   3  RUNFILE          14.69 .     322/   10733 .      2.3/     77.8 .       0/       0
   4  ONEINT            5.14 .       0/   22237 .      0.0/   3722.5 .       0/       0
   5  JOBIPH            5.91 .       0/      92 .      0.0/      0.7 .       0/       0
   6  ORDINT          403.03 .       1/    3225 .      0.0/    806.0 .       0/       0
  - - - - - - - - - - - - - - - - - - - - - - - - - - - - - - - - - - - - - - - - - - -
   *  TOTAL           428.78 .     332/   36332 .      2.3/   4607.0 .       0/       0
  - - - - - - - - - - - - - - - - - - - - - - - - - - - - - - - - - - - - - - - - - - -
 
  II. I/O Access Patterns
  - - - - - - - - - - - - - - - - - - - -
  Unit  Name               % of random
                         Write/Read calls
  - - - - - - - - - - - - - - - - - - - -
   1  SCRATCH             88.9/ 100.0
   2  ANNI                 0.0/   0.0
   3  RUNFILE             28.6/  10.8
   4  ONEINT               0.0/  17.4
   5  JOBIPH               0.0/  76.1
   6  ORDINT             100.0/   0.1
  - - - - - - - - - - - - - - - - - - - -
--
--- Stop Module: rassi at Wed Mar 26 12:01:50 2025 /rc=_RC_ALL_IS_WELL_ ---
*** files: xmldump
    saved to directory /home4/s4752295/Internship/Initial_simulations/Point_charge_model/1_electron/Madelung_charges_9_active_space/Nb
--- Module rassi spent 2 seconds ---

.##################.
.# Happy landing! #.
.##################.

    Timing: Wall=43.23 User=35.20 System=6.96

###############################################################################
Hbrk Cluster
Job 15905641 for user s4752295
Finished at: Wed Mar 26 12:01:54 CET 2025

Job details:
============

Job ID                         : 15905641
Name                           : Nb_no_SO
User                           : s4752295
Partition                      : regularmedium
Nodes                          : node100
Number of Nodes                : 1
Cores                          : 1
Number of Tasks                : 1
State                          : COMPLETED  
Submit                         : 2025-03-26T12:00:04
Start                          : 2025-03-26T12:01:03
End                            : 2025-03-26T12:01:50
Reserved walltime              : 15:00:00
Used walltime                  : 00:00:47
Used CPU time                  : 00:00:43 (Efficiency: 92.09%)
% User (Computation)           : 83.46%
% System (I/O)                 : 16.53%
Total memory reserved          : 25000M
Maximum memory used            : 1.62G

Acknowledgements:
=================

Please see this page for information about acknowledging Hbrk in your publications:

https://wiki.hpc.rug.nl/habrok/introduction/scientific_output

################################################################################
