   This run of MOLCAS is using the pymolcas driver

                             OPE
                             OPE          NMOL  CASOP  ENMOLC A   SO
                 OPE        NMOLC        AS  OP EN  MO LC     AS  OP
                OPENM       OL CA        SO  PE NM  OL CA     SOP EN
                OP EN      MO   LC       AS  OP ENMOL  CASO   PENMOL
                OP  EN     MO   LC       AS  OP EN     MO     LC ASO
               OP   E  NMOL  C  AS       OP  EN MO     LC     AS  OP
               OP  E   NMO   LC AS        OPEN  MO     LCASOP EN   M
               O  PEN   MO  LCA  SO
            OPE   NMO   L   CAS    OP
        OPENMOL  CASOP     ENMOL   CASOPE
     OPENMOLCA   SOPENMOLCASOPEN   MOLCASOPE
    OPENMOLCAS   OP           EN   MOL    CAS
    OPENMOLCAS       OP  ENM        O     LCA
    OPENMOLCAS    OPEN  MOLCASO     P  E  NMO
    OPENMOLCAS     OP               E  N  MOL
    OPENMOLCA   SO           PENM   O  L  CAS    OPEN    MO    LCAS
    OPENMOLCA   SOP           ENM   O  L  CAS   OP  EN  MOLC  AS   O
    OPENMOLCA   SOPE           NM      O  LCA   S      OP  EN MO
    OPENMOLC                AS         O  PEN   M      OL  CA  SOPE
    OPENMO        LCASOPE  NMOL        C  ASO   P      ENMOLC     AS
    OPE     NMO      LCA  SO     P     E   NM   OL  CA SO  PE N   MO
          OPENMOLCA            SOPE   NMO        LCAS  O    P  ENMO
     OPENMOLCASOPENMOLCASOPENMOLCASOPENMOLCA
        OPENMOLCASOPENMOLCASOPENMOLCASOPE
            OPENMOLCASOPENMOLCASOPENM
               OPENMOLCASOPENMOLCA        version: o91e1abe7de707b ?
                   OPENMOLCASO
                       OPE                tag:

 OpenMolcas is free software; you can redistribute it and/or modify it
 under the terms of the GNU Lesser General Public License version 2.1.
 OpenMolcas is distributed in the hope that it will be useful, but it
 is provided "as is" and without any express or implied warranties.
 For more details see the full text of the license in the file
 LICENSE or in <http://www.gnu.org/licenses/>.

                 Copyright (C) The OpenMolcas Authors
           For the author list and the recommended citation,
                   consult the file CONTRIBUTORS.md

           *************************************************
           * pymolcas version py2.10                       *
           *   build 3068ae8b88c9345ec6cfef6fef7f1169      *
           *   (after the EMIL interpreter by V. Veryazov) *
           *************************************************

configuration info
------------------
Host name: login1 (Linux)
C Compiler ID: GNU
C flags: -std=gnu99
Fortran Compiler ID: GNU
Fortran flags: -fno-aggressive-loop-optimizations -cpp -fdefault-integer-8 -fmax-stack-var-size=1048576
Definitions: _MOLCAS_;_I8_;_LINUX_;_MKL_
Parallel: OFF (GA=OFF)


   -----------------------------------------------------------------------------------------------------------------------------------
  |
  |           Project: niobium_so_cf
  |    Submitted from: /home4/s4752295/Internship/Initial_simulations/Point_charge_model/1_electron/Madelung_charges_9_active_space/Nb
  |      Scratch area: /tmp/niobium_so_cf
  |   Save outputs to: /home4/s4752295/Internship/Initial_simulations/Point_charge_model/1_electron/Madelung_charges_9_active_space/Nb
  |            Molcas: /home4/s4752295/Internship/Molcas/recomp_try/OpenMolcas-master/build
  |
  | Scratch area is empty
  |
  |    MOLCAS_DRIVER = /home4/s4752295/Internship/Molcas/bin/pymolcas
  |    MOLCAS_NPROCS = 1
  |    MOLCAS_SOURCE = /home4/s4752295/Internship/Molcas/recomp_try/OpenMolcas-master
  | MOLCAS_STRUCTURE = 0
  |
   -----------------------------------------------------------------------------------------------------------------------------------

++ ---------   Input file   ---------

&SEWARD
AMFi

CLIG
$R

Basis Set
Nb.ANO-rcc.Roos.21s18p13d6f4g2h.10s9p8d5f4g2h.
Spherical d
Nb            -1.0658140267135469e-14   -3.5527134223784897e-15 0.008753588724385739
End of Basis

Xfield

414
-7.604182052,-2.9259999999999997,1.6893261      -0.625931
-7.604182052,-0.0,-3.3786540999999994   -0.625931
-7.604182052,2.9259999999999997,1.6893261       -0.625931
-7.591157533,0.0,0.0    1.892092
5.052441411,-2.9259999999999997,-1.6893261      2.515516
5.052441411,0.0,3.3786540999999994      2.515516
5.052441411,2.9259999999999997,-1.6893261       2.515516
6.769677732,-5.851999999999999,0.0      0.004632
6.769677732,-2.9259999999999997,-5.0679802      0.004632
6.769677732,-2.9259999999999997,5.0679802       0.004632
6.769677732,2.9259999999999997,-5.0679802       0.004632
6.769677732,2.9259999999999997,5.0679802        0.004632
6.769677732,5.851999999999999,0.0       0.004632
7.845385741,-2.9259999999999997,1.6893261       -2.519484
7.845385741,-0.0,-3.3786540999999994    -2.519484
7.845385741,2.9259999999999997,1.6893261        -2.519484
-5.572900393,-0.0,-0.0  -3.142907
-9.452685554,-5.851999999999999,-3.3786540999999994     -0.625931
-9.452685554,0.0,6.7573063      -0.625931
-9.452685554,5.851999999999999,-3.3786540999999994      -0.625931
-12.557812499999999,-5.851999999999999,0.0      1.892092
-12.557812499999999,-2.9259999999999997,-5.0679802      1.892092
-12.557812499999999,-2.9259999999999997,5.0679802       1.892092
-12.557812499999999,2.9259999999999997,-5.0679802       1.892092
-12.557812499999999,2.9259999999999997,5.0679802        1.892092
-12.557812499999999,5.851999999999999,0.0       1.892092
47.826562499999994,-5.851999999999999,3.3786540999999994        2.515516
47.826562499999994,-0.0,-6.7573063      2.515516
47.826562499999994,5.851999999999999,3.3786540999999994 2.515516
6.9134765719999995,-5.851999999999999,-3.3786540999999994       -2.519484
6.9134765719999995,0.0,6.7573063        -2.519484
6.9134765719999995,5.851999999999999,-3.3786540999999994        -2.519484
-6.141601572,-5.851999999999999,-0.0    -3.142907
-6.141601572,-2.9259999999999997,-5.0679802     -3.142907
-6.141601572,-2.9259999999999997,5.0679802      -3.142907
-6.141601572,2.9259999999999997,-5.0679802      -3.142907
-6.141601572,2.9259999999999997,5.0679802       -3.142907
-6.141601572,5.851999999999999,-0.0     -3.142907
-18.09453125,-5.851999999999999,6.7573063       -0.625931
-18.09453125,5.851999999999999,6.7573063        -0.625931
-18.09453125,-8.778,1.6893261   -0.625931
-18.09453125,8.778,1.6893261    -0.625931
-18.09453125,-2.9259999999999997,-8.4466343     -0.625931
-18.09453125,2.9259999999999997,-8.4466343      -0.625931
11.41484375,-2.9259999999999997,-1.6893261      4.409069
11.41484375,2.9259999999999997,-1.6893261       4.409069
11.41484375,0.0,3.3786540999999994      4.409069
-332.97499999999997,-0.0,-0.0   -5.030367
-332.97499999999997,0.0,0.0     5.039632
25.683398427999997,-5.851999999999999,-6.7573063        2.515516
25.683398427999997,5.851999999999999,-6.7573063 2.515516
25.683398427999997,-8.778,-1.6893261    2.515516
25.683398427999997,8.778,-1.6893261     2.515516
25.683398427999997,-2.9259999999999997,8.4466343        2.515516
25.683398427999997,2.9259999999999997,8.4466343 2.515516
36.17421875,-8.778,-5.0679802   0.004632
36.17421875,-8.778,5.0679802    0.004632
36.17421875,8.778,-5.0679802    0.004632
36.17421875,8.778,5.0679802     0.004632
36.17421875,-0.0,-10.1359604    0.004632
36.17421875,0.0,10.1359604      0.004632
91.34843749999999,-5.851999999999999,6.7573063  -2.519484
91.34843749999999,5.851999999999999,6.7573063   -2.519484
91.34843749999999,-8.778,1.6893261      -2.519484
91.34843749999999,8.778,1.6893261       -2.519484
91.34843749999999,-2.9259999999999997,-8.4466343        -2.519484
91.34843749999999,2.9259999999999997,-8.4466343 -2.519484
-277.16249999999997,-8.778,-5.0679802   1.892092
-277.16249999999997,-8.778,5.0679802    1.892092
-277.16249999999997,8.778,-5.0679802    1.892092
-277.16249999999997,8.778,5.0679802     1.892092
-277.16249999999997,-0.0,-10.1359604    1.892092
-277.16249999999997,0.0,10.1359604      1.892092
-223.725,-5.851999999999999,3.3786540999999994  4.409069
-223.725,-0.0,-6.7573063        4.409069
-223.725,5.851999999999999,3.3786540999999994   4.409069
-169.1,-5.851999999999999,-0.0  -5.030367
-169.1,-2.9259999999999997,-5.0679802   -5.030367
-169.1,-2.9259999999999997,5.0679802    -5.030367
-169.1,2.9259999999999997,-5.0679802    -5.030367
-169.1,-5.851999999999999,0.0   5.039632
-169.1,5.851999999999999,-0.0   -5.030367
-169.1,2.9259999999999997,5.0679802     -5.030367
-169.1,-2.9259999999999997,-5.0679802   5.039632
-169.1,-2.9259999999999997,5.0679802    5.039632
-169.1,2.9259999999999997,-5.0679802    5.039632
-169.1,5.851999999999999,0.0    5.039632
-169.1,2.9259999999999997,5.0679802     5.039632
-88.58749999999999,-2.9259999999999997,-1.6893261       -5.660931
-88.58749999999999,0.0,3.3786540999999994       -5.660931
-88.58749999999999,2.9259999999999997,-1.6893261        -5.660931
1.67734375,-11.7039981,0.0      0.004632
1.67734375,-5.851999999999999,-10.1359604       0.004632
1.67734375,-5.851999999999999,10.1359604        0.004632
1.67734375,5.851999999999999,-10.1359604        0.004632
1.67734375,11.7039981,0.0       0.004632
1.67734375,5.851999999999999,10.1359604 0.004632
129.08124999999998,-8.778,5.0679802     -3.142907
129.08124999999998,-8.778,-5.0679802    -3.142907
129.08124999999998,8.778,-5.0679802     -3.142907
129.08124999999998,8.778,5.0679802      -3.142907
129.08124999999998,-0.0,-10.1359604     -3.142907
129.08124999999998,0.0,10.1359604       -3.142907
164.11249999999998,-11.7039981,-3.3786540999999994      -0.625931
164.11249999999998,-8.778,-8.4466343    -0.625931
164.11249999999998,-2.9259999999999997,11.8252865       -0.625931
164.11249999999998,8.778,-8.4466343     -0.625931
164.11249999999998,11.7039981,-3.3786540999999994       -0.625931
164.11249999999998,2.9259999999999997,11.8252865        -0.625931
2.2748046779999997,-11.7039981,0.0      1.892092
2.2748046779999997,-5.851999999999999,-10.1359604       1.892092
2.2748046779999997,-5.851999999999999,10.1359604        1.892092
2.2748046779999997,5.851999999999999,-10.1359604        1.892092
2.2748046779999997,11.7039981,0.0       1.892092
2.2748046779999997,5.851999999999999,10.1359604 1.892092
64.303125,-5.851999999999999,-6.7573063 4.409069
64.303125,5.851999999999999,-6.7573063  4.409069
64.303125,-8.778,-1.6893261     4.409069
64.303125,8.778,-1.6893261      4.409069
64.303125,-2.9259999999999997,8.4466343 4.409069
64.303125,2.9259999999999997,8.4466343  4.409069
308.571875,-5.851999999999999,3.3786540999999994        -5.660931
308.571875,-0.0,-6.7573063      -5.660931
308.571875,5.851999999999999,3.3786540999999994 -5.660931
0.653125,-11.7039981,3.3786540999999994 2.515516
0.653125,-2.9259999999999997,-11.8252865        2.515516
0.653125,-8.778,8.4466343       2.515516
0.653125,2.9259999999999997,-11.8252865 2.515516
0.653125,11.7039981,3.3786540999999994  2.515516
0.653125,8.778,8.4466343        2.515516
-178.95624999999998,-11.7039981,-3.3786540999999994     -2.519484
-178.95624999999998,-8.778,-8.4466343   -2.519484
-178.95624999999998,-2.9259999999999997,11.8252865      -2.519484
-178.95624999999998,8.778,-8.4466343    -2.519484
-178.95624999999998,2.9259999999999997,11.8252865       -2.519484
-178.95624999999998,11.7039981,-3.3786540999999994      -2.519484
-41.93359375,-11.7039981,-0.0   -3.142907
-41.93359375,-5.851999999999999,-10.1359604     -3.142907
-41.93359375,-5.851999999999999,10.1359604      -3.142907
-41.93359375,5.851999999999999,-10.1359604      -3.142907
-41.93359375,5.851999999999999,10.1359604       -3.142907
-41.93359375,11.7039981,-0.0    -3.142907
1152.35,0.0,0.0 6.927092
614.175,-11.7039981,6.7573063   -0.625931
614.175,11.7039981,6.7573063    -0.625931
614.175,-0.0,-13.5146145        -0.625931
-10.3015625,-8.778,5.0679802    -5.030367
-10.3015625,-8.778,-5.0679802   -5.030367
-10.3015625,-8.778,5.0679802    5.039632
-10.3015625,-8.778,-5.0679802   5.039632
-10.3015625,8.778,-5.0679802    -5.030367
-10.3015625,8.778,5.0679802     -5.030367
-10.3015625,8.778,-5.0679802    5.039632
-10.3015625,8.778,5.0679802     5.039632
-10.3015625,-0.0,-10.1359604    -5.030367
-10.3015625,0.0,10.1359604      -5.030367
-10.3015625,-0.0,-10.1359604    5.039632
-10.3015625,0.0,10.1359604      5.039632
174.44375,-5.851999999999999,-6.7573063 -5.660931
174.44375,5.851999999999999,-6.7573063  -5.660931
174.44375,-8.778,-1.6893261     -5.660931
174.44375,8.778,-1.6893261      -5.660931
174.44375,-2.9259999999999997,8.4466343 -5.660931
174.44375,2.9259999999999997,8.4466343  -5.660931
570.9499999999999,-11.7039981,-6.7573063        2.515516
570.9499999999999,11.7039981,-6.7573063 2.515516
570.9499999999999,0.0,13.5146145        2.515516
-982.775,-11.7039981,6.7573063  -2.519484
-982.775,11.7039981,6.7573063   -2.519484
-982.775,-0.0,-13.5146145       -2.519484
101.76875,-5.851999999999999,0.0        6.927092
101.76875,-2.9259999999999997,-5.0679802        6.927092
101.76875,-2.9259999999999997,5.0679802 6.927092
101.76875,2.9259999999999997,-5.0679802 6.927092
101.76875,2.9259999999999997,5.0679802  6.927092
101.76875,5.851999999999999,0.0 6.927092
-104.975,-2.9259999999999997,1.6893261  7.550516
-104.975,0.0,-3.3786540999999994        7.550516
-104.975,2.9259999999999997,1.6893261   7.550516
29.509375,-2.9259999999999997,-1.6893261        -7.554483
29.509375,2.9259999999999997,-1.6893261 -7.554483
29.509375,-0.0,3.3786540999999994       -7.554483
-237.2625,-14.6299981,1.6893261 -0.625931
-237.2625,-8.778,11.8252865     -0.625931
-237.2625,-5.851999999999999,-13.5146145        -0.625931
-237.2625,5.851999999999999,-13.5146145 -0.625931
-237.2625,14.6299981,1.6893261  -0.625931
-237.2625,8.778,11.8252865      -0.625931
-128.13125,-11.7039981,3.3786540999999994       4.409069
-128.13125,-8.778,8.4466343     4.409069
-128.13125,-2.9259999999999997,-11.8252865      4.409069
-128.13125,2.9259999999999997,-11.8252865       4.409069
-128.13125,8.778,8.4466343      4.409069
-128.13125,11.7039981,3.3786540999999994        4.409069
93.396875,-11.7039981,-0.0      -5.030367
93.396875,-5.851999999999999,-10.1359604        -5.030367
93.396875,-5.851999999999999,10.1359604 -5.030367
93.396875,-11.7039981,0.0       5.039632
93.396875,-5.851999999999999,-10.1359604        5.039632
93.396875,5.851999999999999,-10.1359604 -5.030367
93.396875,5.851999999999999,10.1359604  -5.030367
93.396875,11.7039981,-0.0       -5.030367
93.396875,-5.851999999999999,10.1359604 5.039632
93.396875,5.851999999999999,-10.1359604 5.039632
93.396875,11.7039981,0.0        5.039632
93.396875,5.851999999999999,10.1359604  5.039632
343.425,-14.6299981,-1.6893261  2.515516
343.425,-8.778,-11.8252865      2.515516
343.425,-5.851999999999999,13.5146145   2.515516
343.425,8.778,-11.8252865       2.515516
343.425,14.6299981,-1.6893261   2.515516
343.425,5.851999999999999,13.5146145    2.515516
-44.353125,-14.6299981,-5.0679802       0.004632
-44.353125,-14.6299981,5.0679802        0.004632
-44.353125,-11.7039981,-10.1359604      0.004632
-44.353125,-11.7039981,10.1359604       0.004632
-44.353125,-2.9259999999999997,-15.2039406      0.004632
-44.353125,2.9259999999999997,-15.2039406       0.004632
-44.353125,-2.9259999999999997,15.2039406       0.004632
-44.353125,11.7039981,-10.1359604       0.004632
-44.353125,2.9259999999999997,15.2039406        0.004632
-44.353125,14.6299981,-5.0679802        0.004632
-44.353125,14.6299981,5.0679802 0.004632
-44.353125,11.7039981,10.1359604        0.004632
-271.9375,-14.6299981,1.6893261 -2.519484
-271.9375,-8.778,11.8252865     -2.519484
-271.9375,-5.851999999999999,-13.5146145        -2.519484
-271.9375,5.851999999999999,-13.5146145 -2.519484
-271.9375,14.6299981,1.6893261  -2.519484
-271.9375,8.778,11.8252865      -2.519484
5760.8,-0.0,-0.0        -8.177907
-220.39999999999998,-5.851999999999999,-3.3786540999999994      7.550516
-220.39999999999998,0.0,6.7573063       7.550516
-220.39999999999998,5.851999999999999,-3.3786540999999994       7.550516
-1146.6499999999999,-5.851999999999999,3.3786540999999994       -7.554483
-1146.6499999999999,-0.0,-6.7573063     -7.554483
-1146.6499999999999,5.851999999999999,3.3786540999999994        -7.554483
92.921875,-14.6299981,5.0679802 1.892092
92.921875,-14.6299981,-5.0679802        1.892092
92.921875,-11.7039981,-10.1359604       1.892092
92.921875,-11.7039981,10.1359604        1.892092
92.921875,-2.9259999999999997,-15.2039406       1.892092
92.921875,2.9259999999999997,-15.2039406        1.892092
92.921875,-2.9259999999999997,15.2039406        1.892092
92.921875,11.7039981,-10.1359604        1.892092
92.921875,2.9259999999999997,15.2039406 1.892092
92.921875,14.6299981,-5.0679802 1.892092
92.921875,14.6299981,5.0679802  1.892092
92.921875,11.7039981,10.1359604 1.892092
-959.5,-11.7039981,-6.7573063   4.409069
-959.5,11.7039981,-6.7573063    4.409069
-959.5,0.0,13.5146145   4.409069
49.05859375,-11.7039981,3.3786540999999994      -5.660931
49.05859375,-2.9259999999999997,-11.8252865     -5.660931
49.05859375,-8.778,8.4466343    -5.660931
49.05859375,2.9259999999999997,-11.8252865      -5.660931
49.05859375,8.778,8.4466343     -5.660931
49.05859375,11.7039981,3.3786540999999994       -5.660931
-110.55624999999999,-11.7039981,-10.1359604     -3.142907
-110.55624999999999,-14.6299981,5.0679802       -3.142907
-110.55624999999999,-14.6299981,-5.0679802      -3.142907
-110.55624999999999,-11.7039981,10.1359604      -3.142907
-110.55624999999999,-2.9259999999999997,-15.2039406     -3.142907
-110.55624999999999,2.9259999999999997,-15.2039406      -3.142907
-110.55624999999999,-2.9259999999999997,15.2039406      -3.142907
-110.55624999999999,14.6299981,-5.0679802       -3.142907
-110.55624999999999,11.7039981,-10.1359604      -3.142907
-110.55624999999999,2.9259999999999997,15.2039406       -3.142907
-110.55624999999999,14.6299981,5.0679802        -3.142907
-110.55624999999999,11.7039981,10.1359604       -3.142907
124.271875,-8.778,-5.0679802    6.927092
124.271875,-8.778,5.0679802     6.927092
124.271875,8.778,-5.0679802     6.927092
124.271875,8.778,5.0679802      6.927092
124.271875,-0.0,-10.1359604     6.927092
124.271875,0.0,10.1359604       6.927092
-158.17499999999998,-5.851999999999999,-0.0     -8.177907
-158.17499999999998,-2.9259999999999997,5.0679802       -8.177907
-158.17499999999998,-2.9259999999999997,-5.0679802      -8.177907
-158.17499999999998,2.9259999999999997,-5.0679802       -8.177907
-158.17499999999998,5.851999999999999,-0.0      -8.177907
-158.17499999999998,2.9259999999999997,5.0679802        -8.177907
-172.72187499999998,-5.851999999999999,6.7573063        7.550516
-172.72187499999998,5.851999999999999,6.7573063 7.550516
-172.72187499999998,-8.778,1.6893261    7.550516
-172.72187499999998,8.778,1.6893261     7.550516
-172.72187499999998,-2.9259999999999997,-8.4466343      7.550516
-172.72187499999998,2.9259999999999997,-8.4466343       7.550516
-86.80624999999999,-5.851999999999999,-6.7573063        -7.554483
-86.80624999999999,5.851999999999999,-6.7573063 -7.554483
-86.80624999999999,-8.778,-1.6893261    -7.554483
-86.80624999999999,8.778,-1.6893261     -7.554483
-86.80624999999999,-2.9259999999999997,8.4466343        -7.554483
-86.80624999999999,2.9259999999999997,8.4466343 -7.554483
-950.4749999999999,0.0,16.893266699999998       -0.625931
-950.4749999999999,-14.6299981,-8.4466343       -0.625931
-950.4749999999999,14.6299981,-8.4466343        -0.625931
-512.525,-14.6299981,-1.6893261 4.409069
-512.525,-8.778,-11.8252865     4.409069
-512.525,-5.851999999999999,13.5146145  4.409069
-512.525,8.778,-11.8252865      4.409069
-512.525,14.6299981,-1.6893261  4.409069
-512.525,5.851999999999999,13.5146145   4.409069
589.7125,-11.7039981,-6.7573063 -5.660931
589.7125,11.7039981,-6.7573063  -5.660931
589.7125,0.0,13.5146145 -5.660931
1115.3,-0.0,-16.893266699999998 2.515516
1115.3,-14.6299981,8.4466343    2.515516
1115.3,14.6299981,8.4466343     2.515516
-178.36249999999998,-17.555998099999996,-0.0    0.004632
-178.36249999999998,8.778,-15.2039406   0.004632
-178.36249999999998,-8.778,15.2039406   0.004632
-178.36249999999998,17.555998099999996,-0.0     0.004632
-178.36249999999998,-8.778,-15.2039406  0.004632
-178.36249999999998,8.778,15.2039406    0.004632
-732.925,0.0,16.893266699999998 -2.519484
-732.925,-14.6299981,-8.4466343 -2.519484
-732.925,14.6299981,-8.4466343  -2.519484
433.2,-11.7039981,0.0   6.927092
433.2,-5.851999999999999,-10.1359604    6.927092
433.2,-5.851999999999999,10.1359604     6.927092
433.2,5.851999999999999,-10.1359604     6.927092
433.2,11.7039981,0.0    6.927092
433.2,5.851999999999999,10.1359604      6.927092
402.5625,-17.555998099999996,-3.3786540999999994        -0.625931
402.5625,-5.851999999999999,16.893266699999998  -0.625931
402.5625,-11.7039981,-13.5146145        -0.625931
402.5625,11.7039981,-13.5146145 -0.625931
402.5625,5.851999999999999,16.893266699999998   -0.625931
402.5625,17.555998099999996,-3.3786540999999994 -0.625931
212.68124999999998,-17.555998099999996,0.0      1.892092
212.68124999999998,-8.778,-15.2039406   1.892092
212.68124999999998,-8.778,15.2039406    1.892092
212.68124999999998,8.778,-15.2039406    1.892092
212.68124999999998,17.555998099999996,0.0       1.892092
212.68124999999998,8.778,15.2039406     1.892092
-8.20859375,-14.6299981,5.0679802       -5.030367
-8.20859375,-14.6299981,-5.0679802      -5.030367
-8.20859375,-11.7039981,-10.1359604     -5.030367
-8.20859375,-11.7039981,10.1359604      -5.030367
-8.20859375,-14.6299981,5.0679802       5.039632
-8.20859375,2.9259999999999997,-15.2039406      -5.030367
-8.20859375,-2.9259999999999997,-15.2039406     -5.030367
-8.20859375,-14.6299981,-5.0679802      5.039632
-8.20859375,-11.7039981,-10.1359604     5.039632
-8.20859375,-2.9259999999999997,15.2039406      -5.030367
-8.20859375,2.9259999999999997,-15.2039406      5.039632
-8.20859375,-11.7039981,10.1359604      5.039632
-8.20859375,-2.9259999999999997,-15.2039406     5.039632
-8.20859375,11.7039981,-10.1359604      -5.030367
-8.20859375,2.9259999999999997,15.2039406       -5.030367
-8.20859375,14.6299981,-5.0679802       -5.030367
-8.20859375,14.6299981,5.0679802        -5.030367
-8.20859375,11.7039981,10.1359604       -5.030367
-8.20859375,-2.9259999999999997,15.2039406      5.039632
-8.20859375,11.7039981,-10.1359604      5.039632
-8.20859375,14.6299981,-5.0679802       5.039632
-8.20859375,2.9259999999999997,15.2039406       5.039632
-8.20859375,14.6299981,5.0679802        5.039632
-8.20859375,11.7039981,10.1359604       5.039632
-1.30625,-14.6299981,-1.6893261 -5.660931
-1.30625,-8.778,-11.8252865     -5.660931
-1.30625,-5.851999999999999,13.5146145  -5.660931
-1.30625,8.778,-11.8252865      -5.660931
-1.30625,5.851999999999999,13.5146145   -5.660931
-1.30625,14.6299981,-1.6893261  -5.660931
220.39999999999998,-2.9259999999999997,1.6893261        9.444068
220.39999999999998,0.0,-3.3786540999999994      9.444068
220.39999999999998,2.9259999999999997,1.6893261 9.444068
97.49374999999999,-17.555998099999996,3.3786540999999994        2.515516
97.49374999999999,-5.851999999999999,-16.893266699999998        2.515516
97.49374999999999,5.851999999999999,-16.893266699999998 2.515516
97.49374999999999,-11.7039981,13.5146145        2.515516
97.49374999999999,17.555998099999996,3.3786540999999994 2.515516
97.49374999999999,11.7039981,13.5146145 2.515516
298.0625,-17.555998099999996,-3.3786540999999994        -2.519484
298.0625,-5.851999999999999,16.893266699999998  -2.519484
298.0625,-11.7039981,-13.5146145        -2.519484
298.0625,11.7039981,-13.5146145 -2.519484
298.0625,17.555998099999996,-3.3786540999999994 -2.519484
298.0625,5.851999999999999,16.893266699999998   -2.519484
417.28749999999997,-17.555998099999996,-0.0     -3.142907
417.28749999999997,-8.778,-15.2039406   -3.142907
417.28749999999997,-8.778,15.2039406    -3.142907
417.28749999999997,8.778,-15.2039406    -3.142907
417.28749999999997,17.555998099999996,-0.0      -3.142907
417.28749999999997,8.778,15.2039406     -3.142907
16.426464838999998,-8.778,-5.0679802    -8.177907
16.426464838999998,-8.778,5.0679802     -8.177907
16.426464838999998,8.778,5.0679802      -8.177907
16.426464838999998,8.778,-5.0679802     -8.177907
16.426464838999998,-0.0,-10.1359604     -8.177907
16.426464838999998,0.0,10.1359604       -8.177907
478.5625,-8.778,-8.4466343      7.550516
478.5625,-11.7039981,-3.3786540999999994        7.550516
478.5625,-2.9259999999999997,11.8252865 7.550516
478.5625,8.778,-8.4466343       7.550516
478.5625,2.9259999999999997,11.8252865  7.550516
478.5625,11.7039981,-3.3786540999999994 7.550516
-661.1999999999999,-8.778,8.4466343     -7.554483
-661.1999999999999,-11.7039981,3.3786540999999994       -7.554483
-661.1999999999999,-2.9259999999999997,-11.8252865      -7.554483
-661.1999999999999,2.9259999999999997,-11.8252865       -7.554483
-661.1999999999999,11.7039981,3.3786540999999994        -7.554483
-661.1999999999999,8.778,8.4466343      -7.554483
135.4046875,-14.6299981,11.8252865      -0.625931
135.4046875,-17.555998099999996,6.7573063       -0.625931
135.4046875,-2.9259999999999997,-18.582594699999998     -0.625931
135.4046875,2.9259999999999997,-18.582594699999998      -0.625931
135.4046875,17.555998099999996,6.7573063        -0.625931
135.4046875,14.6299981,11.8252865       -0.625931
-919.125,-0.0,-16.893266699999998       4.409069
-919.125,-14.6299981,8.4466343  4.409069
-919.125,14.6299981,8.4466343   4.409069

End of input

&SCF
Occupied
9
Iterations
   50  100
End of Input

&RASSCF
LumOrb
Symmetry
1
Spin
2
Nactel
1 0 0
CIRoot
9 9 1
inactive
9
ras2
9
End of Input

>>> COPY niobium_so_cf.JobIph $SLURM_SUBMIT_DIR/niobium_so_cf.doublet.JobIph

>>> COPY $SLURM_SUBMIT_DIR/niobium_so_cf.doublet.JobIph ./JOB002

&RASSI
NROFJobIph
1 All
SpinOrbit
End of Input

EOF

-- ----------------------------------

--- Start Module: seward at Wed Mar 26 23:44:17 2025 ---

()()()()()()()()()()()()()()()()()()()()()()()()()()()()()()()()()()()()()()()()()()()()()()()()()()

                                              &SEWARD

                                   only a single process is used
                       available to each process: 4.1 GB of memory, 1 thread?
                                            pid: 3975034
()()()()()()()()()()()()()()()()()()()()()()()()()()()()()()()()()()()()()()()()()()()()()()()()()()

 The speed of LIGHT in this CALCULATION =   137.03599917700001     
               SEWARD will generate:
                  Multipole Moment integrals up to order  2
                  Kinetic Energy integrals
                  Nuclear Attraction integrals (point charge)
                  One-Electron Hamiltonian integrals
                  Velocity integrals
                  Relativistic Douglas-Kroll-Hess integrals:
                    - Parametrization         : EXP
                    - DKH order of Hamiltonian: 2
                    - DKH order of Properties : 0
                         - multipole moment operators
                         - electric potential operators
                         - contact operators
                  External field from   414 point(s) added to the one-electron Hamiltonian
                  Orbital angular momentum around (-0.0000 -0.0000  0.0088 )
                  Velocity quadrupole around (-0.0000 -0.0000  0.0088 )
                  Atomic mean-field integrals
                  Two-Electron Repulsion integrals

                   Integrals are discarded if absolute value <: 0.10E-13
                   Integral cutoff threshold is set to       <: 0.10E-15

++    Symmetry information:
      ---------------------

                    Character Table for C1 

                             E  
                    a        1  x, y, xy, Rz, z, xz, Ry, yz, Rx, I
--


++    Basis set information:
      ----------------------


      Basis set label: NB.ANO-RCC.ROOS.21S18P13D6F4G2H.10S9P8D5F4G2H......

      Electronic valence basis set:
      ------------------
      Associated Effective Charge  41.000000 au
      Associated Actual Charge     41.000000 au
      Nuclear Model: Point charge

      Shell  nPrim  nBasis  Cartesian Spherical Contaminant
         s      21      10        X                  
         p      18       9        X                  
         d      13       8                 X         
         f       6       5                 X         
         g       4       4                 X         
         h       2       2                 X         
--


++    Molecular structure info:
      -------------------------

                    ************************************************ 
                    **** Cartesian Coordinates / Bohr, Angstrom **** 
                    ************************************************ 

     Center  Label                x              y              z                     x              y              z
        1      NB              -0.000000      -0.000000       0.008754             -0.000000      -0.000000       0.004632
--


++    Operator info:
      --------------


  Net charge from external field:   -39.268449999999902     
--


            Nuclear Potential Energy              0.00000000 au

                    Nuclear-External Field Potential Energy    -197.42514147 au
                    External Field Potential Energy             845.07205336 au 


            Total Nuclear Potential Energy           -197.42514147 au


      Basis set specifications :
      Symmetry species         a  
      Basis functions          170

 Sorry, Molden does not know how to handle
 functions with angular momentum larger than g
Note: The following floating-point exceptions are signalling: IEEE_UNDERFLOW_FLAG IEEE_DENORMAL
--- Stop Module: seward at Wed Mar 26 23:44:26 2025 /rc=_RC_ALL_IS_WELL_ ---
*** files: niobium_so_cf.GssOrb xmldump
    saved to directory /home4/s4752295/Internship/Initial_simulations/Point_charge_model/1_electron/Madelung_charges_9_active_space/Nb
--- Module seward spent 8 seconds ---

*** symbolic link created: INPORB -> niobium_so_cf.GssOrb
--- Start Module: scf at Wed Mar 26 23:44:26 2025 ---

()()()()()()()()()()()()()()()()()()()()()()()()()()()()()()()()()()()()()()()()()()()()()()()()()()

                                                &SCF

                                   only a single process is used
                       available to each process: 4.1 GB of memory, 1 thread?
                                            pid: 3975042
()()()()()()()()()()()()()()()()()()()()()()()()()()()()()()()()()()()()()()()()()()()()()()()()()()

++    Input section:
      --------------

      Header of the integral files:
      
       Integrals generated by seward 4.2.0  , Wed Mar 26 23:44:18 2025


      Cartesian coordinates in Angstrom:
      -----------------------------------------------------
      No.  Label        X            Y            Z        
      -----------------------------------------------------
       1   NB        -0.00000000  -0.00000000   0.00463220
      -----------------------------------------------------
      Nuclear repulsion energy = -197.42514147
--

++    Orbital specifications:
      -----------------------

      Symmetry species               1
                                     a
      Frozen orbitals                0
      Occupied orbitals              9
      Secondary orbitals           161
      Deleted orbitals               0
      Total number of orbitals     170
      Number of basis functions    170
--

      Molecular charge                          23.000

++    Optimization specifications:
      ----------------------------

      SCF Algorithm: Conventional
      Minimized density differences are used
      Number of density matrices in core                5
      Maximum number of NDDO SCF iterations            50
      Maximum number of HF SCF iterations             100
      Threshold for SCF energy change            0.10E-08
      Threshold for density matrix               0.10E-03
      Threshold for Fock matrix                  0.15E-03
      Threshold for linear dependence            0.10E-08
      Threshold at which DIIS is turned on       0.15E+00
      Threshold at which QNR/C2DIIS is turned on 0.75E-01
      Threshold for Norm(delta) (QNR/C2DIIS)     0.20E-04
      DIIS extrapolation of the SCF procedure
      All orbitals punched on: SCFORB
--

      Detected guessorb starting orbitals                                             


++ Convergence information
                                   SCF        iterations: Energy and convergence statistics

Iter     Tot. SCF        One-elec.       Two-elec.     Energy      Max Dij or  Max Fij      DNorm      TNorm      AccCon     Time
         Energy          Energy          Energy        Change      Delta Norm                                                in Sec.

 The total and one-electron energies are shifted by a value of      3000. a.u.

   1  -596.807155630 -1001.858271116   602.476256953   0.00E+00    0.34E+00*   0.28E+01*    0.60E+01   0.31E+03   None         1.
   2  -602.600682068 -1043.632352133   638.456811532  -0.58E+01*   0.97E-02*   0.26E+00*    0.14E+01   0.32E+03   EDIIS        1.
   3  -602.619589678 -1041.765697868   636.571249658  -0.19E-01*   0.84E-03*   0.14E-01*    0.47E-01   0.32E+03   EDIIS        1.
   4  -602.619658853 -1041.894127697   636.699610310  -0.69E-04*   0.36E-04    0.84E-03*    0.11E-02   0.32E+03   c2DIIS       1.
   5  -602.619659130 -1041.887090887   636.692573223  -0.28E-06*   0.29E-05    0.22E-04     0.81E-04   0.32E+03   QNRc2DIIS    1.
   6  -602.619659131 -1041.887102749   636.692585085  -0.22E-09    0.36E-06    0.25E-05     0.67E-05   0.32E+03   QNRc2DIIS    1.

       Convergence after  6 Macro Iterations
--

 *****************************************************************************************************************************
 *                                                                                                                           *
 *                                             SCF/KS-DFT Program, Final results                                             *
 *                                                                                                                           *
 *                                                                                                                           *
 *                                                                                                                           *
 *                                                       Final Results                                                       *
 *                                                                                                                           *
 *****************************************************************************************************************************

::    Total SCF energy                              -3602.6196591306
      One-electron energy                           -4041.8871027487
      Two-electron energy                             636.6925850848
      Nuclear repulsion energy                       -197.4251414667
      Kinetic energy (interpolated)                  3884.3514348811
      Virial theorem                                    0.9274700602
      Total spin, S(S+1)                                0.0000000000
      Total spin, S                                     0.0000000000
      Max non-diagonal density matrix element           0.0000004289
      Max non-diagonal Fock matrix element              0.0000002504


      All orbitals with orbital energies smaller than  E(LUMO)+0.5 are printed

++    Molecular orbitals:
      -------------------

      Title: SCF orbitals

      Molecular orbitals for symmetry species 1: a  

          Orbital            1         2         3         4         5         6         7         8         9        10    
          Energy         -732.3867 -131.4455 -120.6020 -120.6020 -120.6019  -42.5189  -38.6987  -38.6987  -38.6965  -31.8007
          Occ. No.          2.0000    2.0000    2.0000    2.0000    2.0000    2.0000    2.0000    2.0000    2.0000    0.0000

        1 NB     1s         1.0000   -0.0001    0.0000    0.0000   -0.0000    0.0001   -0.0000   -0.0000    0.0000    0.0000
        2 NB     2s         0.0001    0.9999    0.0000    0.0000   -0.0007    0.0127    0.0000    0.0000   -0.0002   -0.0000
        3 NB     3s        -0.0001   -0.0120   -0.0000   -0.0000    0.0001    0.9886    0.0000    0.0000   -0.0120   -0.0000
        4 NB     4s         0.0000    0.0029    0.0000    0.0000   -0.0000   -0.0996   -0.0000   -0.0000    0.0019    0.0000
        5 NB     5s        -0.0000   -0.0007   -0.0000   -0.0000    0.0000    0.0223    0.0000    0.0000   -0.0004    0.0000
        6 NB     6s         0.0000    0.0009    0.0000    0.0000   -0.0000   -0.0273   -0.0000   -0.0000    0.0005    0.0000
        7 NB     7s        -0.0000   -0.0023   -0.0000   -0.0000    0.0000    0.0667    0.0000    0.0000   -0.0013   -0.0000
        8 NB     8s         0.0000    0.0022    0.0000    0.0000   -0.0000   -0.0538   -0.0000   -0.0000    0.0011   -0.0000
        9 NB     9s        -0.0000   -0.0028   -0.0000   -0.0000    0.0000    0.0551    0.0000    0.0000   -0.0011   -0.0000
       10 NB    10s         0.0001    0.0027    0.0000    0.0000   -0.0000   -0.0286   -0.0000   -0.0000    0.0006   -0.0000
       11 NB     2px        0.0000    0.0007   -0.0015   -0.0000    0.9999    0.0001   -0.0000   -0.0000    0.0143    0.0000
       12 NB     3px       -0.0000    0.0001    0.0000    0.0000   -0.0134    0.0123   -0.0013   -0.0000    0.9844    0.0000
       13 NB     4px        0.0000   -0.0000   -0.0000   -0.0000    0.0029   -0.0009    0.0001    0.0000   -0.1075   -0.0000
       14 NB     5px       -0.0000    0.0000    0.0000    0.0000   -0.0010    0.0003   -0.0000   -0.0000    0.0335    0.0000
       15 NB     6px        0.0000   -0.0000   -0.0000   -0.0000    0.0025   -0.0006    0.0001    0.0000   -0.0806   -0.0000
       16 NB     7px       -0.0000    0.0000    0.0000    0.0000   -0.0023    0.0004   -0.0001   -0.0000    0.0648    0.0000
       17 NB     8px        0.0000   -0.0000   -0.0000   -0.0000    0.0028   -0.0004    0.0001    0.0000   -0.0658   -0.0000
       18 NB     9px       -0.0000    0.0000    0.0000    0.0000   -0.0027    0.0003   -0.0001   -0.0000    0.0491    0.0000
       19 NB    10px        0.0000   -0.0000   -0.0000   -0.0000    0.0022   -0.0001    0.0000    0.0000   -0.0228   -0.0000
       20 NB     2py        0.0000    0.0000   -0.0002    0.9999    0.0000    0.0000   -0.0000    0.0143    0.0000    0.0000
       21 NB     3py       -0.0000   -0.0000    0.0000   -0.0134   -0.0000    0.0000   -0.0000    0.9845    0.0000    0.0000
       22 NB     4py        0.0000    0.0000   -0.0000    0.0029    0.0000   -0.0000    0.0000   -0.1075   -0.0000   -0.0000
       23 NB     5py       -0.0000   -0.0000    0.0000   -0.0010   -0.0000    0.0000   -0.0000    0.0335    0.0000    0.0000
       24 NB     6py        0.0000    0.0000   -0.0000    0.0025    0.0000   -0.0000    0.0000   -0.0806   -0.0000   -0.0000
       25 NB     7py       -0.0000   -0.0000    0.0000   -0.0023   -0.0000    0.0000   -0.0000    0.0647    0.0000    0.0000
       26 NB     8py        0.0000    0.0000   -0.0000    0.0028    0.0000   -0.0000    0.0000   -0.0658   -0.0000   -0.0000
       27 NB     9py       -0.0000   -0.0000    0.0000   -0.0027   -0.0000    0.0000   -0.0000    0.0491    0.0000    0.0000
       28 NB    10py        0.0000    0.0000   -0.0000    0.0022    0.0000   -0.0000    0.0000   -0.0228   -0.0000   -0.0000
       29 NB     2pz        0.0000    0.0000    0.9999    0.0002    0.0015    0.0000    0.0143    0.0000    0.0000    0.0000
       30 NB     3pz       -0.0000    0.0000   -0.0134   -0.0000   -0.0000    0.0000    0.9845    0.0000    0.0013    0.0000
       31 NB     4pz        0.0000   -0.0000    0.0029    0.0000    0.0000   -0.0000   -0.1075   -0.0000   -0.0001   -0.0000
       32 NB     5pz       -0.0000    0.0000   -0.0010   -0.0000   -0.0000    0.0000    0.0335    0.0000    0.0000    0.0000
       33 NB     6pz        0.0000   -0.0000    0.0025    0.0000    0.0000   -0.0000   -0.0806   -0.0000   -0.0001   -0.0000
       34 NB     7pz       -0.0000    0.0000   -0.0023   -0.0000   -0.0000    0.0000    0.0647    0.0000    0.0001    0.0000
       35 NB     8pz        0.0000   -0.0000    0.0028    0.0000    0.0000   -0.0000   -0.0658   -0.0000   -0.0001   -0.0000
       36 NB     9pz       -0.0000    0.0000   -0.0027   -0.0000   -0.0000    0.0000    0.0491    0.0000    0.0001    0.0000
       37 NB    10pz        0.0000   -0.0000    0.0022    0.0000    0.0000   -0.0000   -0.0228   -0.0000   -0.0000   -0.0000
       38 NB     3d2-      -0.0000    0.0000   -0.0000    0.0001    0.0000   -0.0000   -0.0000    0.0062    0.0000   -0.0029
       39 NB     4d2-       0.0000   -0.0000    0.0000   -0.0000   -0.0000    0.0000    0.0000   -0.0004   -0.0000    0.0003
       40 NB     5d2-      -0.0000    0.0000   -0.0000    0.0000    0.0000   -0.0000   -0.0000    0.0003    0.0000   -0.0003
       41 NB     6d2-       0.0000   -0.0000    0.0000   -0.0000   -0.0000    0.0000    0.0000   -0.0003   -0.0000    0.0003
       42 NB     7d2-      -0.0000    0.0000   -0.0000    0.0000    0.0000   -0.0000   -0.0000    0.0002    0.0000   -0.0002
       43 NB     8d2-       0.0000   -0.0000    0.0000   -0.0000   -0.0000    0.0000    0.0000   -0.0002   -0.0000    0.0003
       44 NB     9d2-      -0.0000    0.0000   -0.0000    0.0000    0.0000   -0.0000   -0.0000    0.0001    0.0000   -0.0002
       45 NB    10d2-      -0.0000    0.0000   -0.0000    0.0000    0.0000   -0.0000    0.0000   -0.0000   -0.0000   -0.0002
       46 NB     3d1-       0.0000   -0.0000   -0.0000    0.0000    0.0000    0.0000   -0.0000    0.0000   -0.0000    0.9741
       47 NB     4d1-      -0.0000   -0.0000    0.0000   -0.0000   -0.0000   -0.0000    0.0000   -0.0000    0.0000   -0.0955
       48 NB     5d1-       0.0000    0.0000   -0.0000    0.0000    0.0000    0.0000   -0.0000    0.0000   -0.0000    0.0966
       49 NB     6d1-      -0.0000   -0.0000    0.0000   -0.0000   -0.0000   -0.0000   -0.0000    0.0000    0.0000   -0.0849
       50 NB     7d1-       0.0000    0.0000   -0.0000    0.0000    0.0000    0.0000   -0.0000    0.0000   -0.0000    0.0759
       51 NB     8d1-      -0.0000   -0.0000    0.0000   -0.0000    0.0000   -0.0000   -0.0000    0.0000    0.0000   -0.0953
       52 NB     9d1-       0.0000    0.0000   -0.0000    0.0000   -0.0000    0.0000   -0.0000    0.0000   -0.0000    0.0773
       53 NB    10d1-       0.0000    0.0000   -0.0000    0.0000   -0.0000    0.0000    0.0000   -0.0000   -0.0000    0.0676
       54 NB     3d0        0.0000    0.0000    0.0000    0.0000   -0.0000    0.0000    0.0000    0.0000   -0.0036   -0.0000
       55 NB     4d0       -0.0000   -0.0000   -0.0000   -0.0000    0.0000   -0.0000   -0.0000   -0.0000    0.0002    0.0000
       56 NB     5d0        0.0000    0.0000    0.0000    0.0000   -0.0000    0.0000    0.0000    0.0000   -0.0002   -0.0000
       57 NB     6d0       -0.0000   -0.0000   -0.0000   -0.0000    0.0000    0.0000   -0.0000   -0.0000    0.0002    0.0000
       58 NB     7d0        0.0000    0.0000    0.0000    0.0000   -0.0000   -0.0000    0.0000    0.0000   -0.0001   -0.0000
       59 NB     8d0       -0.0000   -0.0000   -0.0000   -0.0000    0.0000    0.0000   -0.0000   -0.0000    0.0001    0.0000
       60 NB     9d0        0.0000    0.0000    0.0000    0.0000   -0.0000   -0.0000    0.0000    0.0000   -0.0000   -0.0000
       61 NB    10d0        0.0000    0.0000    0.0000    0.0000   -0.0000   -0.0000    0.0000    0.0000    0.0000   -0.0000
       62 NB     3d1+      -0.0000   -0.0000    0.0001    0.0000    0.0000   -0.0000    0.0062    0.0000    0.0000   -0.0000
       63 NB     4d1+       0.0000    0.0000   -0.0000   -0.0000   -0.0000    0.0000   -0.0004   -0.0000   -0.0000    0.0000
       64 NB     5d1+      -0.0000   -0.0000    0.0000    0.0000    0.0000   -0.0000    0.0003    0.0000    0.0000   -0.0000
       65 NB     6d1+       0.0000    0.0000   -0.0000   -0.0000   -0.0000   -0.0000   -0.0003   -0.0000   -0.0000    0.0000
       66 NB     7d1+      -0.0000   -0.0000    0.0000    0.0000    0.0000    0.0000    0.0002    0.0000    0.0000   -0.0000
       67 NB     8d1+       0.0000    0.0000   -0.0000   -0.0000   -0.0000   -0.0000   -0.0002   -0.0000   -0.0000    0.0000
       68 NB     9d1+      -0.0000   -0.0000    0.0000    0.0000    0.0000    0.0000    0.0001    0.0000    0.0000   -0.0000
       69 NB    10d1+      -0.0000   -0.0000    0.0000    0.0000    0.0000    0.0000   -0.0000   -0.0000   -0.0000   -0.0000
       70 NB     3d2+      -0.0000   -0.0000   -0.0000   -0.0000    0.0001   -0.0001   -0.0000   -0.0000    0.0062   -0.0000
       71 NB     4d2+       0.0000    0.0000    0.0000    0.0000   -0.0000    0.0000    0.0000    0.0000   -0.0004    0.0000
       72 NB     5d2+      -0.0000   -0.0000   -0.0000   -0.0000    0.0000   -0.0000   -0.0000   -0.0000    0.0003   -0.0000
       73 NB     6d2+       0.0000    0.0000    0.0000    0.0000   -0.0000   -0.0000    0.0000    0.0000   -0.0003    0.0000
       74 NB     7d2+      -0.0000   -0.0000   -0.0000   -0.0000    0.0000    0.0000   -0.0000   -0.0000    0.0002   -0.0000
       75 NB     8d2+       0.0000    0.0000    0.0000    0.0000   -0.0000   -0.0000    0.0000    0.0000   -0.0002    0.0000
       76 NB     9d2+      -0.0000   -0.0000   -0.0000   -0.0000    0.0000    0.0000   -0.0000   -0.0000    0.0001   -0.0000
       77 NB    10d2+      -0.0000   -0.0000   -0.0000   -0.0000    0.0000    0.0000    0.0000    0.0000   -0.0000   -0.0000
       78 NB     4f3-       0.0000    0.0000    0.0000   -0.0000   -0.0000    0.0000    0.0000   -0.0000   -0.0000   -0.0000
       79 NB     5f3-       0.0000    0.0000    0.0000   -0.0000   -0.0000    0.0000    0.0000   -0.0000   -0.0000   -0.0000
       80 NB     6f3-      -0.0000   -0.0000   -0.0000    0.0000    0.0000   -0.0000   -0.0000    0.0000    0.0000    0.0000
       81 NB     7f3-       0.0000    0.0000    0.0000   -0.0000   -0.0000    0.0000    0.0000   -0.0000   -0.0000   -0.0000
       82 NB     8f3-      -0.0000   -0.0000    0.0000   -0.0000   -0.0000   -0.0000    0.0000   -0.0000   -0.0000   -0.0000
       83 NB     4f2-      -0.0000    0.0000    0.0000   -0.0000   -0.0000    0.0000    0.0000   -0.0000   -0.0000    0.0003
       84 NB     5f2-      -0.0000    0.0000    0.0000   -0.0000   -0.0000    0.0000    0.0000   -0.0000   -0.0000    0.0003
       85 NB     6f2-       0.0000   -0.0000    0.0000   -0.0000   -0.0000   -0.0000   -0.0000    0.0000    0.0000   -0.0003
       86 NB     7f2-      -0.0000    0.0000    0.0000   -0.0000   -0.0000    0.0000    0.0000   -0.0000   -0.0000    0.0003
       87 NB     8f2-      -0.0000    0.0000    0.0000   -0.0000   -0.0000   -0.0000    0.0000   -0.0000   -0.0000    0.0002
       88 NB     4f1-      -0.0000    0.0000   -0.0000    0.0000    0.0000    0.0000   -0.0000    0.0000    0.0000    0.0000
       89 NB     5f1-      -0.0000    0.0000   -0.0000    0.0000    0.0000    0.0000   -0.0000    0.0000    0.0000    0.0000
       90 NB     6f1-       0.0000    0.0000    0.0000   -0.0000    0.0000   -0.0000    0.0000   -0.0000   -0.0000   -0.0000
       91 NB     7f1-      -0.0000   -0.0000   -0.0000    0.0000    0.0000    0.0000   -0.0000    0.0000    0.0000    0.0000
       92 NB     8f1-      -0.0000   -0.0000   -0.0000    0.0000    0.0000    0.0000   -0.0000    0.0000    0.0000    0.0000
       93 NB     4f0       -0.0000   -0.0000    0.0000    0.0000    0.0000    0.0000    0.0000    0.0000    0.0000   -0.0000
       94 NB     5f0        0.0000    0.0000    0.0000    0.0000    0.0000    0.0000    0.0000    0.0000    0.0000   -0.0000
       95 NB     6f0        0.0000    0.0000   -0.0000   -0.0000    0.0000    0.0000   -0.0000   -0.0000   -0.0000    0.0000
       96 NB     7f0        0.0000    0.0000    0.0000    0.0000    0.0000    0.0000    0.0000    0.0000    0.0000   -0.0000
       97 NB     8f0       -0.0000   -0.0000    0.0000    0.0000    0.0000   -0.0000    0.0000    0.0000    0.0000    0.0000
       98 NB     4f1+       0.0000   -0.0000   -0.0000   -0.0000    0.0000   -0.0000    0.0000    0.0000    0.0000   -0.0000
       99 NB     5f1+      -0.0000   -0.0000    0.0000    0.0000    0.0000   -0.0000    0.0000    0.0000    0.0000   -0.0000
      100 NB     6f1+      -0.0000   -0.0000    0.0000    0.0000   -0.0000    0.0000    0.0000    0.0000   -0.0000    0.0000
      101 NB     7f1+      -0.0000   -0.0000    0.0000    0.0000    0.0000   -0.0000    0.0000    0.0000    0.0000   -0.0000
      102 NB     8f1+       0.0000    0.0000   -0.0000   -0.0000    0.0000   -0.0000   -0.0000   -0.0000    0.0000   -0.0000
      103 NB     4f2+      -0.0000   -0.0000   -0.0000   -0.0000   -0.0000    0.0000   -0.0000   -0.0000    0.0000   -0.0000
      104 NB     5f2+       0.0000    0.0000   -0.0000   -0.0000    0.0000    0.0000   -0.0000   -0.0000    0.0000   -0.0000
      105 NB     6f2+       0.0000    0.0000    0.0000    0.0000    0.0000    0.0000    0.0000    0.0000    0.0000    0.0000
      106 NB     7f2+       0.0000    0.0000   -0.0000   -0.0000    0.0000    0.0000   -0.0000   -0.0000    0.0000    0.0000
      107 NB     8f2+      -0.0000   -0.0000   -0.0000   -0.0000   -0.0000   -0.0000   -0.0000   -0.0000   -0.0000   -0.0000
      108 NB     4f3+      -0.0000    0.0000    0.0000    0.0000   -0.0000    0.0000    0.0000    0.0000   -0.0000   -0.0000
      109 NB     5f3+       0.0000    0.0000    0.0000    0.0000   -0.0000    0.0000    0.0000    0.0000   -0.0000   -0.0000
      110 NB     6f3+       0.0000    0.0000    0.0000    0.0000    0.0000   -0.0000   -0.0000   -0.0000    0.0000    0.0000
      111 NB     7f3+       0.0000    0.0000    0.0000    0.0000   -0.0000    0.0000    0.0000    0.0000   -0.0000   -0.0000
      112 NB     8f3+      -0.0000   -0.0000    0.0000    0.0000   -0.0000    0.0000    0.0000    0.0000   -0.0000   -0.0000
      113 NB     5g4-      -0.0000   -0.0000   -0.0000    0.0000    0.0000   -0.0000   -0.0000    0.0000    0.0000    0.0000
      114 NB     6g4-       0.0000    0.0000    0.0000   -0.0000   -0.0000    0.0000    0.0000   -0.0000   -0.0000   -0.0000
      115 NB     7g4-      -0.0000    0.0000   -0.0000    0.0000    0.0000   -0.0000   -0.0000    0.0000    0.0000    0.0000
      116 NB     8g4-       0.0000   -0.0000    0.0000   -0.0000   -0.0000    0.0000    0.0000   -0.0000   -0.0000   -0.0000
      117 NB     5g3-      -0.0000   -0.0000   -0.0000    0.0000   -0.0000    0.0000    0.0000   -0.0000    0.0000   -0.0000
      118 NB     6g3-      -0.0000    0.0000   -0.0000    0.0000   -0.0000   -0.0000   -0.0000    0.0000    0.0000    0.0000
      119 NB     7g3-       0.0000   -0.0000   -0.0000    0.0000    0.0000    0.0000   -0.0000    0.0000   -0.0000   -0.0000
      120 NB     8g3-      -0.0000   -0.0000   -0.0000    0.0000    0.0000   -0.0000   -0.0000    0.0000    0.0000    0.0000
      121 NB     5g2-      -0.0000    0.0000    0.0000   -0.0000    0.0000   -0.0000    0.0000   -0.0000   -0.0000   -0.0000
      122 NB     6g2-       0.0000   -0.0000   -0.0000    0.0000    0.0000    0.0000   -0.0000    0.0000    0.0000    0.0000
      123 NB     7g2-      -0.0000    0.0000    0.0000   -0.0000   -0.0000   -0.0000    0.0000   -0.0000   -0.0000   -0.0000
      124 NB     8g2-       0.0000   -0.0000   -0.0000    0.0000   -0.0000    0.0000   -0.0000    0.0000    0.0000    0.0000
      125 NB     5g1-       0.0000    0.0000   -0.0000    0.0000   -0.0000    0.0000   -0.0000    0.0000    0.0000    0.0000
      126 NB     6g1-      -0.0000   -0.0000    0.0000   -0.0000   -0.0000   -0.0000    0.0000   -0.0000    0.0000   -0.0000
      127 NB     7g1-       0.0000   -0.0000    0.0000   -0.0000    0.0000    0.0000   -0.0000    0.0000   -0.0000    0.0000
      128 NB     8g1-      -0.0000    0.0000    0.0000   -0.0000    0.0000    0.0000    0.0000   -0.0000    0.0000   -0.0000
      129 NB     5g0       -0.0000   -0.0000    0.0000    0.0000    0.0000   -0.0000   -0.0000   -0.0000    0.0000   -0.0000
      130 NB     6g0       -0.0000   -0.0000    0.0000    0.0000   -0.0000    0.0000    0.0000    0.0000   -0.0000    0.0000
      131 NB     7g0       -0.0000   -0.0000    0.0000    0.0000    0.0000   -0.0000    0.0000    0.0000    0.0000   -0.0000
      132 NB     8g0       -0.0000    0.0000    0.0000    0.0000   -0.0000    0.0000    0.0000    0.0000   -0.0000    0.0000
      133 NB     5g1+      -0.0000    0.0000   -0.0000   -0.0000   -0.0000    0.0000   -0.0000   -0.0000    0.0000   -0.0000
      134 NB     6g1+       0.0000   -0.0000    0.0000    0.0000   -0.0000   -0.0000    0.0000    0.0000   -0.0000    0.0000
      135 NB     7g1+      -0.0000    0.0000   -0.0000   -0.0000   -0.0000    0.0000   -0.0000   -0.0000   -0.0000   -0.0000
      136 NB     8g1+      -0.0000   -0.0000    0.0000    0.0000   -0.0000   -0.0000    0.0000    0.0000   -0.0000    0.0000
      137 NB     5g2+       0.0000    0.0000    0.0000    0.0000   -0.0000    0.0000    0.0000    0.0000   -0.0000    0.0000
      138 NB     6g2+       0.0000    0.0000   -0.0000   -0.0000    0.0000   -0.0000   -0.0000   -0.0000    0.0000   -0.0000
      139 NB     7g2+       0.0000    0.0000   -0.0000   -0.0000   -0.0000    0.0000   -0.0000    0.0000   -0.0000    0.0000
      140 NB     8g2+       0.0000   -0.0000   -0.0000   -0.0000    0.0000   -0.0000   -0.0000   -0.0000    0.0000   -0.0000
      141 NB     5g3+      -0.0000    0.0000    0.0000    0.0000    0.0000    0.0000    0.0000    0.0000    0.0000    0.0000
      142 NB     6g3+       0.0000   -0.0000   -0.0000   -0.0000   -0.0000   -0.0000   -0.0000   -0.0000   -0.0000   -0.0000
      143 NB     7g3+      -0.0000    0.0000    0.0000    0.0000   -0.0000    0.0000    0.0000    0.0000   -0.0000    0.0000
      144 NB     8g3+      -0.0000   -0.0000   -0.0000   -0.0000   -0.0000   -0.0000   -0.0000   -0.0000   -0.0000   -0.0000
      145 NB     5g4+      -0.0000   -0.0000   -0.0000   -0.0000    0.0000   -0.0000    0.0000    0.0000    0.0000    0.0000
      146 NB     6g4+      -0.0000   -0.0000   -0.0000   -0.0000   -0.0000    0.0000   -0.0000   -0.0000   -0.0000   -0.0000
      147 NB     7g4+      -0.0000   -0.0000   -0.0000   -0.0000    0.0000   -0.0000   -0.0000   -0.0000    0.0000    0.0000
      148 NB     8g4+      -0.0000    0.0000   -0.0000   -0.0000   -0.0000    0.0000   -0.0000   -0.0000   -0.0000   -0.0000
      149 NB     6h5-       0.0000   -0.0000    0.0000   -0.0000    0.0000    0.0000    0.0000   -0.0000   -0.0000    0.0000
      150 NB     7h5-      -0.0000    0.0000   -0.0000    0.0000   -0.0000    0.0000   -0.0000    0.0000    0.0000    0.0000
      151 NB     6h4-      -0.0000   -0.0000   -0.0000    0.0000    0.0000   -0.0000   -0.0000    0.0000    0.0000    0.0000
      152 NB     7h4-      -0.0000    0.0000    0.0000   -0.0000   -0.0000    0.0000    0.0000   -0.0000   -0.0000   -0.0000
      153 NB     6h3-      -0.0000    0.0000   -0.0000    0.0000    0.0000   -0.0000   -0.0000    0.0000   -0.0000   -0.0000
      154 NB     7h3-       0.0000   -0.0000    0.0000   -0.0000   -0.0000    0.0000    0.0000   -0.0000    0.0000   -0.0000
      155 NB     6h2-       0.0000    0.0000   -0.0000    0.0000   -0.0000    0.0000   -0.0000    0.0000    0.0000   -0.0000
      156 NB     7h2-       0.0000   -0.0000    0.0000   -0.0000   -0.0000   -0.0000    0.0000   -0.0000   -0.0000    0.0000
      157 NB     6h1-       0.0000   -0.0000    0.0000   -0.0000   -0.0000    0.0000    0.0000   -0.0000    0.0000    0.0000
      158 NB     7h1-      -0.0000    0.0000   -0.0000    0.0000    0.0000    0.0000   -0.0000    0.0000    0.0000   -0.0000
      159 NB     6h0       -0.0000   -0.0000   -0.0000   -0.0000   -0.0000   -0.0000   -0.0000   -0.0000   -0.0000    0.0000
      160 NB     7h0       -0.0000   -0.0000    0.0000    0.0000    0.0000    0.0000    0.0000    0.0000    0.0000    0.0000
      161 NB     6h1+       0.0000    0.0000    0.0000    0.0000   -0.0000    0.0000    0.0000    0.0000   -0.0000    0.0000
      162 NB     7h1+       0.0000    0.0000   -0.0000   -0.0000    0.0000   -0.0000   -0.0000   -0.0000    0.0000   -0.0000
      163 NB     6h2+       0.0000    0.0000    0.0000    0.0000    0.0000    0.0000    0.0000    0.0000    0.0000   -0.0000
      164 NB     7h2+       0.0000    0.0000   -0.0000   -0.0000   -0.0000   -0.0000   -0.0000   -0.0000   -0.0000    0.0000
      165 NB     6h3+      -0.0000   -0.0000    0.0000    0.0000    0.0000   -0.0000    0.0000    0.0000    0.0000   -0.0000
      166 NB     7h3+      -0.0000   -0.0000   -0.0000   -0.0000   -0.0000    0.0000   -0.0000   -0.0000   -0.0000    0.0000
      167 NB     6h4+       0.0000    0.0000   -0.0000   -0.0000    0.0000    0.0000   -0.0000   -0.0000    0.0000    0.0000
      168 NB     7h4+       0.0000    0.0000    0.0000    0.0000   -0.0000   -0.0000    0.0000    0.0000   -0.0000    0.0000
      169 NB     6h5+       0.0000    0.0000    0.0000    0.0000   -0.0000    0.0000    0.0000    0.0000   -0.0000   -0.0000
      170 NB     7h5+       0.0000    0.0000    0.0000    0.0000    0.0000   -0.0000    0.0000    0.0000    0.0000    0.0000

          Orbital           11        12        13        14    
          Energy          -31.8007  -31.7995  -31.7995  -31.7992
          Occ. No.          0.0000    0.0000    0.0000    0.0000

        1 NB     1s        -0.0000    0.0000   -0.0000    0.0000
        2 NB     2s        -0.0000   -0.0000   -0.0000    0.0000
        3 NB     3s        -0.0000   -0.0000   -0.0000    0.0002
        4 NB     4s         0.0000   -0.0000   -0.0000   -0.0001
        5 NB     5s        -0.0000    0.0000   -0.0000    0.0000
        6 NB     6s        -0.0000   -0.0000   -0.0000   -0.0000
        7 NB     7s        -0.0000    0.0000    0.0000    0.0000
        8 NB     8s         0.0000    0.0000    0.0000   -0.0000
        9 NB     9s         0.0000   -0.0000   -0.0000    0.0000
       10 NB    10s         0.0000    0.0000    0.0000   -0.0000
       11 NB     2px       -0.0000    0.0000    0.0000   -0.0002
       12 NB     3px       -0.0000    0.0000    0.0000   -0.0068
       13 NB     4px        0.0000   -0.0000   -0.0000    0.0014
       14 NB     5px       -0.0000    0.0000    0.0000   -0.0004
       15 NB     6px        0.0000   -0.0000   -0.0000    0.0010
       16 NB     7px       -0.0000    0.0000    0.0000   -0.0008
       17 NB     8px        0.0000   -0.0000   -0.0000    0.0009
       18 NB     9px       -0.0000    0.0000    0.0000   -0.0006
       19 NB    10px        0.0000   -0.0000   -0.0000    0.0003
       20 NB     2py        0.0000    0.0000   -0.0001   -0.0000
       21 NB     3py        0.0000    0.0000   -0.0059   -0.0000
       22 NB     4py       -0.0000   -0.0000    0.0012    0.0000
       23 NB     5py        0.0000    0.0000   -0.0004   -0.0000
       24 NB     6py       -0.0000   -0.0000    0.0009    0.0000
       25 NB     7py        0.0000    0.0000   -0.0007   -0.0000
       26 NB     8py       -0.0000   -0.0000    0.0007    0.0000
       27 NB     9py        0.0000    0.0000   -0.0005   -0.0000
       28 NB    10py       -0.0000   -0.0000    0.0002    0.0000
       29 NB     2pz       -0.0000   -0.0001   -0.0000   -0.0000
       30 NB     3pz       -0.0000   -0.0059   -0.0000   -0.0000
       31 NB     4pz        0.0000    0.0012    0.0000    0.0000
       32 NB     5pz       -0.0000   -0.0004   -0.0000   -0.0000
       33 NB     6pz        0.0000    0.0009    0.0000    0.0000
       34 NB     7pz       -0.0000   -0.0007   -0.0000   -0.0000
       35 NB     8pz        0.0000    0.0007    0.0000    0.0000
       36 NB     9pz       -0.0000   -0.0005   -0.0000   -0.0000
       37 NB    10pz        0.0000    0.0002    0.0000    0.0000
       38 NB     3d2-      -0.0000   -0.0000    0.9741    0.0000
       39 NB     4d2-       0.0000    0.0000   -0.0955   -0.0000
       40 NB     5d2-      -0.0000   -0.0000    0.0966    0.0000
       41 NB     6d2-       0.0000    0.0000   -0.0849   -0.0000
       42 NB     7d2-      -0.0000   -0.0000    0.0760    0.0000
       43 NB     8d2-       0.0000    0.0000   -0.0954   -0.0000
       44 NB     9d2-      -0.0000   -0.0000    0.0773    0.0000
       45 NB    10d2-      -0.0000   -0.0000    0.0676    0.0000
       46 NB     3d1-       0.0000   -0.0000    0.0029    0.0000
       47 NB     4d1-      -0.0000    0.0000   -0.0003   -0.0000
       48 NB     5d1-       0.0000   -0.0000    0.0003    0.0000
       49 NB     6d1-      -0.0000    0.0000   -0.0003   -0.0000
       50 NB     7d1-       0.0000   -0.0000    0.0002    0.0000
       51 NB     8d1-      -0.0000    0.0000   -0.0003   -0.0000
       52 NB     9d1-       0.0000   -0.0000    0.0002    0.0000
       53 NB    10d1-       0.0000   -0.0000    0.0002    0.0000
       54 NB     3d0        0.8436    0.0009    0.0000   -0.4870
       55 NB     4d0       -0.0827   -0.0001   -0.0000    0.0477
       56 NB     5d0        0.0837    0.0001    0.0000   -0.0483
       57 NB     6d0       -0.0736   -0.0001   -0.0000    0.0425
       58 NB     7d0        0.0658    0.0001    0.0000   -0.0380
       59 NB     8d0       -0.0826   -0.0001   -0.0000    0.0477
       60 NB     9d0        0.0670    0.0001    0.0000   -0.0387
       61 NB    10d0        0.0586    0.0001    0.0000   -0.0338
       62 NB     3d1+       0.0003    0.9741    0.0000    0.0023
       63 NB     4d1+      -0.0000   -0.0955   -0.0000   -0.0002
       64 NB     5d1+       0.0000    0.0966    0.0000    0.0002
       65 NB     6d1+      -0.0000   -0.0849   -0.0000   -0.0002
       66 NB     7d1+       0.0000    0.0760    0.0000    0.0002
       67 NB     8d1+      -0.0000   -0.0954   -0.0000   -0.0002
       68 NB     9d1+       0.0000    0.0773    0.0000    0.0002
       69 NB    10d1+       0.0000    0.0676    0.0000    0.0002
       70 NB     3d2+       0.4871   -0.0021   -0.0000    0.8436
       71 NB     4d2+      -0.0477    0.0002    0.0000   -0.0827
       72 NB     5d2+       0.0483   -0.0002   -0.0000    0.0837
       73 NB     6d2+      -0.0425    0.0002    0.0000   -0.0736
       74 NB     7d2+       0.0380   -0.0002   -0.0000    0.0658
       75 NB     8d2+      -0.0477    0.0002    0.0000   -0.0826
       76 NB     9d2+       0.0387   -0.0002   -0.0000    0.0670
       77 NB    10d2+       0.0338   -0.0001   -0.0000    0.0586
       78 NB     4f3-      -0.0000   -0.0000    0.0004    0.0000
       79 NB     5f3-      -0.0000   -0.0000    0.0004    0.0000
       80 NB     6f3-       0.0000    0.0000   -0.0004   -0.0000
       81 NB     7f3-      -0.0000   -0.0000    0.0004    0.0000
       82 NB     8f3-      -0.0000   -0.0000    0.0003    0.0000
       83 NB     4f2-       0.0000   -0.0000    0.0000    0.0000
       84 NB     5f2-       0.0000   -0.0000    0.0000    0.0000
       85 NB     6f2-      -0.0000    0.0000   -0.0000   -0.0000
       86 NB     7f2-       0.0000   -0.0000    0.0000    0.0000
       87 NB     8f2-       0.0000   -0.0000    0.0000    0.0000
       88 NB     4f1-       0.0000    0.0000   -0.0001   -0.0000
       89 NB     5f1-       0.0000    0.0000   -0.0001   -0.0000
       90 NB     6f1-      -0.0000   -0.0000    0.0001    0.0000
       91 NB     7f1-       0.0000    0.0000   -0.0001   -0.0000
       92 NB     8f1-       0.0000    0.0000   -0.0001   -0.0000
       93 NB     4f0        0.0000   -0.0002   -0.0000   -0.0000
       94 NB     5f0        0.0000   -0.0003   -0.0000   -0.0000
       95 NB     6f0       -0.0000    0.0003    0.0000    0.0000
       96 NB     7f0        0.0000   -0.0003   -0.0000   -0.0000
       97 NB     8f0       -0.0000   -0.0002   -0.0000   -0.0000
       98 NB     4f1+       0.0002    0.0000    0.0000   -0.0002
       99 NB     5f1+       0.0003    0.0000    0.0000   -0.0003
      100 NB     6f1+      -0.0003   -0.0000   -0.0000    0.0003
      101 NB     7f1+       0.0003    0.0000    0.0000   -0.0003
      102 NB     8f1+       0.0002    0.0000    0.0000   -0.0002
      103 NB     4f2+       0.0000    0.0003    0.0000    0.0000
      104 NB     5f2+       0.0000    0.0003    0.0000    0.0000
      105 NB     6f2+      -0.0000   -0.0003   -0.0000   -0.0000
      106 NB     7f2+      -0.0000    0.0003    0.0000    0.0000
      107 NB     8f2+       0.0000    0.0002    0.0000    0.0000
      108 NB     4f3+       0.0002   -0.0000   -0.0000    0.0003
      109 NB     5f3+       0.0002   -0.0000   -0.0000    0.0004
      110 NB     6f3+      -0.0002    0.0000    0.0000   -0.0004
      111 NB     7f3+       0.0002   -0.0000   -0.0000    0.0003
      112 NB     8f3+       0.0001   -0.0000   -0.0000    0.0002
      113 NB     5g4-       0.0000    0.0000   -0.0000   -0.0000
      114 NB     6g4-      -0.0000   -0.0000    0.0000    0.0000
      115 NB     7g4-       0.0000    0.0000   -0.0000   -0.0000
      116 NB     8g4-      -0.0000   -0.0000    0.0000    0.0000
      117 NB     5g3-      -0.0000    0.0000   -0.0000   -0.0000
      118 NB     6g3-       0.0000   -0.0000    0.0000    0.0000
      119 NB     7g3-      -0.0000   -0.0000    0.0000   -0.0000
      120 NB     8g3-       0.0000   -0.0000    0.0000    0.0000
      121 NB     5g2-      -0.0000   -0.0000    0.0000    0.0000
      122 NB     6g2-       0.0000    0.0000   -0.0000   -0.0000
      123 NB     7g2-      -0.0000   -0.0000    0.0000    0.0000
      124 NB     8g2-       0.0000    0.0000   -0.0000   -0.0000
      125 NB     5g1-       0.0000   -0.0000    0.0000    0.0000
      126 NB     6g1-      -0.0000    0.0000   -0.0000    0.0000
      127 NB     7g1-       0.0000    0.0000   -0.0000    0.0000
      128 NB     8g1-      -0.0000    0.0000   -0.0000   -0.0000
      129 NB     5g0        0.0000    0.0000    0.0000   -0.0000
      130 NB     6g0       -0.0000   -0.0000   -0.0000    0.0000
      131 NB     7g0        0.0000    0.0000    0.0000   -0.0000
      132 NB     8g0       -0.0000   -0.0000   -0.0000    0.0000
      133 NB     5g1+       0.0000    0.0000    0.0000    0.0000
      134 NB     6g1+      -0.0000   -0.0000   -0.0000   -0.0000
      135 NB     7g1+       0.0000    0.0000    0.0000    0.0000
      136 NB     8g1+      -0.0000   -0.0000   -0.0000   -0.0000
      137 NB     5g2+      -0.0000    0.0000    0.0000    0.0000
      138 NB     6g2+       0.0000   -0.0000   -0.0000   -0.0000
      139 NB     7g2+      -0.0000   -0.0000   -0.0000    0.0000
      140 NB     8g2+       0.0000   -0.0000   -0.0000   -0.0000
      141 NB     5g3+      -0.0000   -0.0000   -0.0000   -0.0000
      142 NB     6g3+       0.0000    0.0000    0.0000    0.0000
      143 NB     7g3+      -0.0000   -0.0000   -0.0000   -0.0000
      144 NB     8g3+       0.0000    0.0000    0.0000    0.0000
      145 NB     5g4+      -0.0000    0.0000    0.0000   -0.0000
      146 NB     6g4+       0.0000   -0.0000   -0.0000    0.0000
      147 NB     7g4+      -0.0000   -0.0000   -0.0000   -0.0000
      148 NB     8g4+       0.0000   -0.0000   -0.0000    0.0000
      149 NB     6h5-       0.0000   -0.0000    0.0000   -0.0000
      150 NB     7h5-       0.0000    0.0000   -0.0000    0.0000
      151 NB     6h4-       0.0000    0.0000   -0.0000    0.0000
      152 NB     7h4-      -0.0000    0.0000   -0.0000    0.0000
      153 NB     6h3-      -0.0000    0.0000   -0.0000    0.0000
      154 NB     7h3-      -0.0000   -0.0000    0.0000   -0.0000
      155 NB     6h2-      -0.0000   -0.0000    0.0000    0.0000
      156 NB     7h2-       0.0000   -0.0000    0.0000   -0.0000
      157 NB     6h1-       0.0000   -0.0000    0.0000    0.0000
      158 NB     7h1-      -0.0000    0.0000   -0.0000   -0.0000
      159 NB     6h0       -0.0000    0.0000    0.0000   -0.0000
      160 NB     7h0       -0.0000   -0.0000   -0.0000    0.0000
      161 NB     6h1+      -0.0000   -0.0000   -0.0000    0.0000
      162 NB     7h1+       0.0000   -0.0000   -0.0000   -0.0000
      163 NB     6h2+       0.0000   -0.0000   -0.0000   -0.0000
      164 NB     7h2+      -0.0000    0.0000    0.0000    0.0000
      165 NB     6h3+       0.0000    0.0000    0.0000   -0.0000
      166 NB     7h3+      -0.0000    0.0000   -0.0000    0.0000
      167 NB     6h4+      -0.0000    0.0000    0.0000    0.0000
      168 NB     7h4+      -0.0000   -0.0000   -0.0000   -0.0000
      169 NB     6h5+       0.0000    0.0000    0.0000    0.0000
      170 NB     7h5+      -0.0000    0.0000    0.0000   -0.0000
--


++    Molecular charges:
      ------------------

      Mulliken charges per centre and basis function type
      ---------------------------------------------------

                NB    
      1s       2.0000
      2s       2.0000
      2px      2.0000
      2pz      2.0000
      2py      2.0000
      3s       1.9552
      3px      1.9386
      3pz      1.9387
      3py      1.9387
      4s       0.0199
      3d2+     0.0001
      3d1+     0.0001
      3d0      0.0000
      3d1-     0.0000
      3d2-     0.0001
      4px      0.0231
      4pz      0.0231
      4py      0.0231
      5s       0.0010
      4d2+     0.0000
      4d1+     0.0000
      4d0      0.0000
      4d1-     0.0000
      4d2-     0.0000
      5px      0.0022
      5pz      0.0022
      5py      0.0022
      6s       0.0015
      4f3+     0.0000
      4f2+     0.0000
      4f1+     0.0000
      4f0      0.0000
      4f1-     0.0000
      4f2-     0.0000
      4f3-     0.0000
      5d2+     0.0000
      5d1+     0.0000
      5d0      0.0000
      5d1-     0.0000
      5d2-     0.0000
      6px      0.0130
      6pz      0.0130
      6py      0.0130
      7s       0.0089
      5f3+     0.0000
      5f2+     0.0000
      5f1+     0.0000
      5f0      0.0000
      5f1-     0.0000
      5f2-     0.0000
      5f3-     0.0000
      6d2+     0.0000
      6d1+     0.0000
      6d0      0.0000
      6d1-     0.0000
      6d2-     0.0000
      7px      0.0084
      7pz      0.0084
      7py      0.0084
      5g4+     0.0000
      5g3+     0.0000
      5g2+     0.0000
      5g1+     0.0000
      5g0      0.0000
      5g1-     0.0000
      5g2-     0.0000
      5g3-     0.0000
      5g4-     0.0000
      6f3+     0.0000
      6f2+     0.0000
      6f1+     0.0000
      6f0      0.0000
      6f1-     0.0000
      6f2-     0.0000
      6f3-     0.0000
      6g4+     0.0000
      6g3+     0.0000
      6g2+     0.0000
      6g1+     0.0000
      6g0      0.0000
      6g1-     0.0000
      6g2-     0.0000
      6g3-     0.0000
      6g4-     0.0000
      6h5+     0.0000
      6h4+     0.0000
      6h3+     0.0000
      6h2+     0.0000
      6h1+     0.0000
      6h0      0.0000
      6h1-     0.0000
      6h2-     0.0000
      6h3-     0.0000
      6h4-     0.0000
      6h5-     0.0000
      7d2+     0.0000
      7d1+     0.0000
      7d0      0.0000
      7d1-     0.0000
      7d2-     0.0000
      7f3+     0.0000
      7f2+     0.0000
      7f1+     0.0000
      7f0      0.0000
      7f1-     0.0000
      7f2-     0.0000
      7f3-     0.0000
      7g4+     0.0000
      7g3+     0.0000
      7g2+     0.0000
      7g1+     0.0000
      7g0      0.0000
      7g1-     0.0000
      7g2-     0.0000
      7g3-     0.0000
      7g4-     0.0000
      7h5+     0.0000
      7h4+     0.0000
      7h3+     0.0000
      7h2+     0.0000
      7h1+     0.0000
      7h0      0.0000
      7h1-     0.0000
      7h2-     0.0000
      7h3-     0.0000
      7h4-     0.0000
      7h5-     0.0000
      8s       0.0058
      8px      0.0087
      8pz      0.0087
      8py      0.0087
      8d2+     0.0000
      8d1+     0.0000
      8d0      0.0000
      8d1-     0.0000
      8d2-     0.0000
      8f3+     0.0000
      8f2+     0.0000
      8f1+     0.0000
      8f0      0.0000
      8f1-     0.0000
      8f2-     0.0000
      8f3-     0.0000
      8g4+     0.0000
      8g3+     0.0000
      8g2+     0.0000
      8g1+     0.0000
      8g0      0.0000
      8g1-     0.0000
      8g2-     0.0000
      8g3-     0.0000
      8g4-     0.0000
      9s       0.0061
      9px      0.0048
      9pz      0.0048
      9py      0.0048
      9d2+     0.0000
      9d1+     0.0000
      9d0      0.0000
      9d1-     0.0000
      9d2-     0.0000
     10s       0.0016
     10px      0.0010
     10pz      0.0010
     10py      0.0010
     10d2+     0.0000
     10d1+     0.0000
     10d0      0.0000
     10d1-     0.0000
     10d2-     0.0000
      Total   18.0000

      N-E     23.0000

      Total electronic charge=   18.000000

      Total            charge=   23.000000
--

 Sorry, Molden does not know how to handle
 functions with angular momentum larger than g

++    Static properties:
      ------------------


      LoProp Charges per center


                   NB    
      Nuclear     41.0000
      Electronic -18.0000

      Total       23.0000
--


++    Molecular properties:
      ---------------------

      Charge (e):
                      =   23.0000
      Dipole Moment (Debye):
      Origin of the operator (Ang)=    0.0000    0.0000    0.0000
                   X= -3.7481E-02               Y= -1.8950E-13               Z=  5.1172E-01           Total=  5.1309E-01
      Center of Charge (Ang)
                     X=   -0.00033927               Y=   -0.00000000               Z=    0.00463204
      Quadrupole Moment (Debye*Ang):
      Origin of the operator (Ang)=   -0.0000   -0.0000    0.0046
                  XX= -7.2197E-01              XY= -2.5110E-16              XZ=  1.3707E-07              YY= -7.2205E-01
                  YZ= -5.2450E-16              ZZ= -7.2205E-01
      In traceless form (Debye*Ang)
                  XX=  8.6221E-05              XY= -3.7665E-16              XZ=  2.0560E-07              YY= -4.3109E-05
                  YZ= -7.8674E-16              ZZ= -4.3112E-05
--

 Sorry, Molden does not know how to handle
 functions with angular momentum larger than g
 ###############################################################################
 ###############################################################################
 ###                                                                         ###
 ###                                                                         ###
 ###    WARNING: RunFile label nBas                                          ###
 ###    was used       62 times                                              ###
 ###                                                                         ###
 ###                                                                         ###
 ###############################################################################
 ###############################################################################
Note: The following floating-point exceptions are signalling: IEEE_UNDERFLOW_FLAG IEEE_DENORMAL
--- Stop Module: scf at Wed Mar 26 23:44:31 2025 /rc=_RC_ALL_IS_WELL_ ---
*** files: niobium_so_cf.LprOrb niobium_so_cf.ScfOrb xmldump
    saved to directory /home4/s4752295/Internship/Initial_simulations/Point_charge_model/1_electron/Madelung_charges_9_active_space/Nb
--- Module scf spent 4 seconds ---

*** symbolic link created: INPORB -> niobium_so_cf.ScfOrb
--- Start Module: rasscf at Wed Mar 26 23:44:31 2025 ---

()()()()()()()()()()()()()()()()()()()()()()()()()()()()()()()()()()()()()()()()()()()()()()()()()()

                                              &RASSCF

                                   only a single process is used
                       available to each process: 4.1 GB of memory, 1 thread?
                                            pid: 3975045
()()()()()()()()()()()()()()()()()()()()()()()()()()()()()()()()()()()()()()()()()()()()()()()()()()


      Header of the ONEINT file:
      --------------------------
      
      Integrals generated by seward 4.2.0  , Wed Mar 26 23:44:18 2025


      OrdInt status: non-squared


      Cartesian coordinates in Angstrom:
      -----------------------------------------------------
      No.  Label        X            Y            Z        
      -----------------------------------------------------
       1   NB        -0.00000000  -0.00000000   0.00463220
      -----------------------------------------------------
      Nuclear repulsion energy = -197.42514147

++    Wave function specifications:
      -----------------------------

      Number of closed shell electrons          18
      Number of electrons in active shells       1
      Max number of holes in RAS1 space          0
      Max nr of electrons in RAS3 space          0
      Number of inactive orbitals                9
      Number of active orbitals                  9
      Number of secondary orbitals             152
      Spin quantum number                      0.5
      State symmetry                             1
--

++    Orbital specifications:
      -----------------------

      Symmetry species                           1
                                                 a
      Frozen orbitals                            0
      Inactive orbitals                          9
      Active orbitals                            9
      RAS1 orbitals                              0
      RAS2 orbitals                              9
      RAS3 orbitals                              0
      Secondary orbitals                       152
      Deleted orbitals                           0
      Number of basis functions                170
--

++    CI expansion specifications:
      ----------------------------

      Number of CSFs                             9
      Number of determinants                     9
      Number of root(s) required                 9
      Root chosen for geometry opt.              9
      CI roots used                              1     2     3     4     5     6     7     8     9
      weights                                0.111 0.111 0.111 0.111 0.111 0.111 0.111 0.111 0.111
      highest root included in the CI            9
      max. size of the explicit Hamiltonian      9
--

++    Optimization specifications:
      ----------------------------

      RASSCF algorithm: Conventional
      Maximum number of macro iterations       200
      Maximum number of SX iterations          100
      Threshold for RASSCF energy            0.100E-07
      Threshold for max MO rotation          0.100E+00
      Threshold for max BLB element          0.100E-03
      Level shift parameter                  0.500E+00
      Make Quasi-Newton update
--

      The MO-coefficients are taken from the file:
      INPORB                                                                                                                          
      Title: SCF orbitals                                                                  

      Total molecular charge   22.00

      ************************************************************************************************************************
      *                                                                                                                      *
      *                                            Wave function control section                                             *
      *                                                                                                                      *
      ************************************************************************************************************************


                                         RASSCF iterations: Energy and convergence statistics
                                         ----------------------------------------------------

      Iter CI   SX   CI       RASSCF       Energy    max ROT     max BLB   max BLB  Level Ln srch  Step   QN   Walltime
          iter iter root      energy       change     param      element    value   shift minimum  type update hh:mm:ss
[...]
    13            16.0248349357      436.0579729640        3517044.7402         1.2
    14            16.0248349357      436.0579729640        3517044.7402         1.2
    15            16.0248353878      436.0579852647        3517044.8394         1.2
    16            16.0248353878      436.0579852647        3517044.8394         1.2
    17            16.0407762575      436.4917584274        3520543.4559         1.2
    18            16.0407762575      436.4917584274        3520543.4559         1.2


 Weights of the five most important spin-orbit-free states for each spin-orbit state.

 SO State  Total energy (au)           Spin-free states, spin, and weights
 -------------------------------------------------------------------------------------------------------
    1         0.000000       1 0.5  1.0000    9 0.5  0.0000    8 0.5  0.0000    7 0.5  0.0000    6 0.5  0.0000
    2         0.000000       1 0.5  1.0000    9 0.5  0.0000    8 0.5  0.0000    7 0.5  0.0000    6 0.5  0.0000
    3         0.000000       2 0.5  1.0000    9 0.5  0.0000    8 0.5  0.0000    7 0.5  0.0000    6 0.5  0.0000
    4         0.000000       2 0.5  1.0000    9 0.5  0.0000    8 0.5  0.0000    7 0.5  0.0000    6 0.5  0.0000
    5         0.001134       3 0.5  1.0000    9 0.5  0.0000    8 0.5  0.0000    7 0.5  0.0000    6 0.5  0.0000
    6         0.001134       3 0.5  1.0000    9 0.5  0.0000    8 0.5  0.0000    7 0.5  0.0000    6 0.5  0.0000
    7         0.001134       4 0.5  1.0000    9 0.5  0.0000    8 0.5  0.0000    7 0.5  0.0000    6 0.5  0.0000
    8         0.001134       4 0.5  1.0000    9 0.5  0.0000    8 0.5  0.0000    7 0.5  0.0000    6 0.5  0.0000
    9         0.001522       5 0.5  1.0000    9 0.5  0.0000    8 0.5  0.0000    7 0.5  0.0000    6 0.5  0.0000
   10         0.001522       5 0.5  1.0000    9 0.5  0.0000    8 0.5  0.0000    7 0.5  0.0000    6 0.5  0.0000
   11        14.691057       6 0.5  1.0000    9 0.5  0.0000    8 0.5  0.0000    7 0.5  0.0000    5 0.5  0.0000
   12        14.691057       6 0.5  1.0000    9 0.5  0.0000    8 0.5  0.0000    7 0.5  0.0000    5 0.5  0.0000
   13        16.024835       7 0.5  1.0000    9 0.5  0.0000    8 0.5  0.0000    6 0.5  0.0000    5 0.5  0.0000
   14        16.024835       7 0.5  1.0000    9 0.5  0.0000    8 0.5  0.0000    6 0.5  0.0000    5 0.5  0.0000
   15        16.024835       8 0.5  1.0000    9 0.5  0.0000    7 0.5  0.0000    6 0.5  0.0000    5 0.5  0.0000
   16        16.024835       8 0.5  1.0000    9 0.5  0.0000    7 0.5  0.0000    6 0.5  0.0000    5 0.5  0.0000
   17        16.040776       9 0.5  1.0000    8 0.5  0.0000    7 0.5  0.0000    6 0.5  0.0000    5 0.5  0.0000
   18        16.040776       9 0.5  1.0000    8 0.5  0.0000    7 0.5  0.0000    6 0.5  0.0000    5 0.5  0.0000
 -------------------------------------------------------------------------------------------------------


      ****************************************************************************************************
      *                                                                                                  *
      *                                    Special properties section                                    *
      *                                                                                                  *
      ****************************************************************************************************


++ Dipole transition strengths (SO states):
   ----------------------------------------
    for osc. strength at least    1.0000000000000001E-005

      From   To        Osc. strength     Einstein coefficients Ax, Ay, Az (sec-1)    Total A (sec-1)
     -----------------------------------------------------------------------------------------------
         1   13       1.73652380E-02  6.31614096E-06  1.43277252E+11  1.77065296E-01  1.43277252E+11
         1   15       1.73653198E-02  1.27743275E+06  1.77078937E-01  1.43276658E+11  1.43277935E+11
         2   14       1.73652380E-02  6.31614096E-06  1.43277252E+11  1.77065296E-01  1.43277252E+11
         2   16       1.73653198E-02  1.27743275E+06  1.77078937E-01  1.43276658E+11  1.43277935E+11
         3   13       1.73652769E-02  1.07465243E+04  1.77076068E-01  1.43277561E+11  1.43277572E+11
         3   15       1.73653211E-02  3.99191133E-06  1.43277945E+11  1.77076342E-01  1.43277945E+11
         4   14       1.73652769E-02  1.07465243E+04  1.77076068E-01  1.43277561E+11  1.43277572E+11
         4   16       1.73653211E-02  3.99191133E-06  1.43277945E+11  1.77076342E-01  1.43277945E+11
         5   11       1.13205284E-04  3.80595393E+03  1.21941024E+00  7.84897593E+08  7.84901400E+08
         5   13       1.73704363E-02  1.43299860E+11  8.55288754E-04  4.13706466E+03  1.43299864E+11
         5   17       1.72419881E-02  4.40461506E+05  2.21427115E+02  1.42522930E+11  1.42523371E+11
         6   12       1.13205284E-04  3.80595393E+03  1.21941024E+00  7.84897593E+08  7.84901400E+08
         6   14       1.73704363E-02  1.43299860E+11  8.55288754E-04  4.13706466E+03  1.43299864E+11
         6   18       1.72419881E-02  4.40461506E+05  2.21427115E+02  1.42522930E+11  1.42523371E+11
         7   11       1.13202242E-04  5.98774864E-06  7.84880300E+08  1.21943708E+00  7.84880301E+08
         7   15       1.73704487E-02  1.43298721E+11  4.60713459E-04  1.25217681E+06  1.43299973E+11
         7   17       1.72419251E-02  6.95240081E-04  1.42522849E+11  2.21427248E+02  1.42522849E+11
         8   12       1.13202242E-04  5.98774864E-06  7.84880300E+08  1.21943708E+00  7.84880301E+08
         8   16       1.73704487E-02  1.43298721E+11  4.60713459E-04  1.25217681E+06  1.43299973E+11
         8   18       1.72419251E-02  6.95240081E-04  1.42522849E+11  2.21427248E+02  1.42522849E+11
         9   11       1.51549695E-04  1.05070097E+09  1.67134259E-10  3.28136068E+03  1.05070425E+09
         9   13       5.78751766E-03  2.27898198E+05  2.16597843E-01  4.77423990E+10  4.77426269E+10
         9   15       5.78741795E-03  6.97242470E-07  4.77418071E+10  2.16578080E-01  4.77418071E+10
         9   17       2.29957760E-02  1.90074883E+11  3.23434642E-08  4.52584847E+05  1.90075336E+11
        10   12       1.51549695E-04  1.05070097E+09  1.67134259E-10  3.28136068E+03  1.05070425E+09
        10   14       5.78751766E-03  2.27898198E+05  2.16597843E-01  4.77423990E+10  4.77426269E+10
        10   16       5.78741795E-03  6.97242470E-07  4.77418071E+10  2.16578080E-01  4.77418071E+10
        10   18       2.29957760E-02  1.90074883E+11  3.23434642E-08  4.52584847E+05  1.90075336E+11
        11   13       1.87071621E-01  8.90930634E+03  4.85084133E-02  1.06926233E+10  1.06926322E+10
        11   15       1.87071611E-01  4.06805716E-08  1.06926389E+10  4.85084408E-02  1.06926389E+10
        11   17       1.85771410E-01  1.08736427E+10  4.36121046E-13  9.13440049E+03  1.08736519E+10
        12   14       1.87071621E-01  8.90930634E+03  4.85084133E-02  1.06926233E+10  1.06926322E+10
        12   16       1.87071611E-01  4.06805716E-08  1.06926389E+10  4.85084408E-02  1.06926389E+10
        12   18       1.85771410E-01  1.08736427E+10  4.36121046E-13  9.13440049E+03  1.08736519E+10
        13   17       1.29209786E-05  1.95986837E-04  4.78641791E-10  1.05500041E+02  1.05500237E+02
        14   18       1.29209786E-05  1.95986837E-04  4.78641791E-10  1.05500041E+02  1.05500237E+02
        15   17       1.29213423E-05  8.95684143E-16  1.05497223E+02  4.78573103E-10  1.05497223E+02
        16   18       1.29213423E-05  8.95684143E-16  1.05497223E+02  4.78573103E-10  1.05497223E+02
     -----------------------------------------------------------------------------------------------
--

++ Velocity transition strengths (SO states):
   ------------------------------------------
    for osc. strength at least    1.0000000000000001E-005

      From   To        Osc. strength     Einstein coefficients Ax, Ay, Az (sec-1)    Total A (sec-1)
     -----------------------------------------------------------------------------------------------
         1    3       2.25402259E-03  5.23737664E-26  2.73614750E-08  2.95667980E-20  2.73614750E-08
         1    5       1.25862623E-02  1.84169711E-13  5.19769127E+02  8.49768367E-07  5.19769128E+02
         1    7       1.25851320E-02  1.12348936E-04  8.49839766E-07  5.19788671E+02  5.19788784E+02
         1   13       1.75799065E-02  6.36287877E-06  1.45048945E+11  1.79254840E-01  1.45048945E+11
         1   15       1.75799870E-02  1.28800203E+06  1.79268377E-01  1.45048329E+11  1.45049617E+11
         2    4       2.25402259E-03  5.23737664E-26  2.73614750E-08  2.95667980E-20  2.73614750E-08
         2    6       1.25862623E-02  1.84169711E-13  5.19769127E+02  8.49768367E-07  5.19769128E+02
         2    8       1.25851320E-02  1.12348936E-04  8.49839766E-07  5.19788671E+02  5.19788784E+02
         2   14       1.75799065E-02  6.36287877E-06  1.45048945E+11  1.79254840E-01  1.45048945E+11
         2   16       1.75799870E-02  1.28800203E+06  1.79268377E-01  1.45048329E+11  1.45049617E+11
         3    5       1.25861565E-02  1.25287842E-04  8.49759317E-07  5.19746810E+02  5.19746936E+02
         3    7       1.25854622E-02  2.01140350E-13  5.19784599E+02  8.49803809E-07  5.19784600E+02
         3   13       1.75799465E-02  1.05617172E+04  1.79265669E-01  1.45049264E+11  1.45049275E+11
         3   15       1.75799910E-02  4.02147952E-06  1.45049650E+11  1.79265960E-01  1.45049650E+11
         4    6       1.25861565E-02  1.25287842E-04  8.49759317E-07  5.19746810E+02  5.19746936E+02
         4    8       1.25854622E-02  2.01140350E-13  5.19784599E+02  8.49803809E-07  5.19784600E+02
         4   14       1.75799465E-02  1.05617172E+04  1.79265669E-01  1.45049264E+11  1.45049275E+11
         4   16       1.75799910E-02  4.02147952E-06  1.45049650E+11  1.79265960E-01  1.45049650E+11
         5    7       1.32744010E-04  9.00926883E-26  2.23235292E-08  2.01893976E-19  2.23235292E-08
         5    9       1.10732944E-01  1.24176830E-04  8.35018705E-07  5.37471760E+02  5.37471885E+02
         5   11       1.15857639E-04  3.89121137E+03  1.24799535E+00  8.03290225E+08  8.03294118E+08
         5   13       1.75738214E-02  1.44978218E+11  8.69362373E-04  4.02534195E+03  1.44978223E+11
         5   17       1.74581950E-02  4.45092291E+05  2.24204545E+02  1.44310607E+11  1.44311053E+11
         6    8       1.32744010E-04  9.00926883E-26  2.23235292E-08  2.01893976E-19  2.23235292E-08
         6   10       1.10732944E-01  1.24176830E-04  8.35018705E-07  5.37471760E+02  5.37471885E+02
         6   12       1.15857639E-04  3.89121137E+03  1.24799535E+00  8.03290225E+08  8.03294118E+08
         6   14       1.75738214E-02  1.44978218E+11  8.69362373E-04  4.02534195E+03  1.44978223E+11
         6   18       1.74581950E-02  4.45092291E+05  2.24204545E+02  1.44310607E+11  1.44311053E+11
         7    9       1.10752111E-01  1.93489979E-13  5.37364812E+02  8.34875610E-07  5.37364813E+02
         7   11       1.15855522E-04  6.12215097E-06  8.03279432E+08  1.24801213E+00  8.03279434E+08
         7   15       1.75738392E-02  1.44977103E+11  4.69831738E-04  1.27206597E+06  1.44978376E+11
         7   17       1.74581353E-02  7.02571644E-04  1.44310558E+11  2.24204632E+02  1.44310558E+11
         8   10       1.10752111E-01  1.93489979E-13  5.37364812E+02  8.34875610E-07  5.37364813E+02
         8   12       1.15855522E-04  6.12215097E-06  8.03279432E+08  1.24801213E+00  8.03279434E+08
         8   16       1.75738392E-02  1.44977103E+11  4.69831738E-04  1.27206597E+06  1.44978376E+11
         8   18       1.74581353E-02  7.02571644E-04  1.44310558E+11  2.24204632E+02  1.44310558E+11
         9   11       1.54784215E-04  1.07312977E+09  1.83241240E-10  3.35406225E+03  1.07313312E+09
         9   13       5.86240104E-03  2.30366002E+05  2.19401148E-01  4.83602958E+10  4.83605261E+10
         9   15       5.86229771E-03  7.05454325E-07  4.83596765E+10  2.19380925E-01  4.83596765E+10
         9   17       2.32630214E-02  1.92284507E+11  3.26506058E-08  4.58616388E+05  1.92284965E+11
        10   12       1.54784215E-04  1.07312977E+09  1.83241240E-10  3.35406225E+03  1.07313312E+09
        10   14       5.86240104E-03  2.30366002E+05  2.19401148E-01  4.83602958E+10  4.83605261E+10
        10   16       5.86229771E-03  7.05454325E-07  4.83596765E+10  2.19380925E-01  4.83596765E+10
        10   18       2.32630214E-02  1.92284507E+11  3.26506058E-08  4.58616388E+05  1.92284965E+11
        11   13       1.74714099E-01  8.31861295E+03  4.53042467E-02  9.98632785E+09  9.98633617E+09
        11   15       1.74714090E-01  3.79862564E-08  9.98634242E+09  4.53042093E-02  9.98634242E+09
        11   17       1.73470159E-01  1.01536565E+10  4.26709878E-13  8.53186044E+03  1.01536651E+10
        12   14       1.74714099E-01  8.31861295E+03  4.53042467E-02  9.98632785E+09  9.98633617E+09
        12   16       1.74714090E-01  3.79862564E-08  9.98634242E+09  4.53042093E-02  9.98634242E+09
        12   18       1.73470159E-01  1.01536565E+10  4.26709878E-13  8.53186044E+03  1.01536651E+10
        13   17       3.35282940E-04  1.14346971E-03  1.24197183E-08  2.73760518E+03  2.73760632E+03
        14   18       3.35282940E-04  1.14346971E-03  1.24197183E-08  2.73760518E+03  2.73760632E+03
        15   17       3.35292445E-04  4.24029752E-15  2.73752867E+03  1.24194016E-08  2.73752867E+03
        16   18       3.35292445E-04  4.24029752E-15  2.73752867E+03  1.24194016E-08  2.73752867E+03
     -----------------------------------------------------------------------------------------------
--

++ Length and velocity gauge comparison (SO states):

 --------------------------------------------------
 A comparison between the dipole oscillator strengths in 
 length and velocity gauge will be performed

 All dipole oscillator differences above the tolerance of   0.10000000000000001       will be printed 

 Due to basis set deficiency these oscillator may be problematic 

 The tolerance is defined as ABS(1-O_l/O_v) 
 O_l : dipole oscillator strength in length gauge
 O_p : dipole oscillator strength in velocity gauge
 --------------------------------------------------

  Problematic transitions have been found

      From   To       Difference (%) Osc. st. (len.) Osc. st. (vel.)
     ---------------------------------------------------------------
         1    3      --------------- below threshold  2.25402259E-03
         1    5      --------------- below threshold  1.25862623E-02
         1    7      --------------- below threshold  1.25851320E-02
         2    4      --------------- below threshold  2.25402259E-03
         2    6      --------------- below threshold  1.25862623E-02
         2    8      --------------- below threshold  1.25851320E-02
         3    5      --------------- below threshold  1.25861565E-02
         3    7      --------------- below threshold  1.25854622E-02
         4    6      --------------- below threshold  1.25861565E-02
         4    8      --------------- below threshold  1.25854622E-02
         5    7      --------------- below threshold  1.32744010E-04
         5    9      --------------- below threshold  1.10732944E-01
         6    8      --------------- below threshold  1.32744010E-04
         6   10      --------------- below threshold  1.10732944E-01
         7    9      --------------- below threshold  1.10752111E-01
         8   10      --------------- below threshold  1.10752111E-01
        13   17            96.146246  1.29209786E-05  3.35282940E-04
        14   18            96.146246  1.29209786E-05  3.35282940E-04
        15   17            96.146247  1.29213423E-05  3.35292445E-04
        16   18            96.146247  1.29213423E-05  3.35292445E-04
     ---------------------------------------------------------------

 Number of problematic transitions =                    20

--

 Electric-dipole - electric-octupole not included
++ Total transition strengths for the second-order expansion of the wave vector (SO states):
   -----------------------------------------------------------------------------------------
    for osc. strength at least    1.0000000000000001E-005

      From   To        Osc. strength
     -------------------------------
         1   11       1.11583773E-05
         2   12       1.11583773E-05
         3   11       1.11583757E-05
         4   12       1.11583757E-05
         5   11       1.11881222E-05
         6   12       1.11881222E-05
         7   11       1.11881154E-05
         8   12       1.11881154E-05
         9   11       1.11976608E-05
        10   12       1.11976608E-05
     -------------------------------
--

++ I/O STATISTICS
 
  I. General I/O information
  - - - - - - - - - - - - - - - - - - - - - - - - - - - - - - - - - - - - - - - - - - -
  Unit  Name          Flsize      Write/Read            MBytes           Write/Read
                      (MBytes)       Calls              In/Out           Time, sec.
  - - - - - - - - - - - - - - - - - - - - - - - - - - - - - - - - - - - - - - - - - - -
   1  SCRATCH           0.00 .       9/      45 .      0.0/      0.0 .       0/       0
   2  ANNI              0.00 .       0/       0 .      0.0/      0.0 .       0/       0
   3  RUNFILE          14.69 .     322/   10733 .      2.3/     77.8 .       0/       0
   4  ONEINT            5.14 .       0/   22237 .      0.0/   3722.5 .       0/       0
   5  JOBIPH            5.91 .       0/      92 .      0.0/      0.7 .       0/       0
   6  ORDINT          403.03 .       1/    3225 .      0.0/    806.0 .       0/       0
  - - - - - - - - - - - - - - - - - - - - - - - - - - - - - - - - - - - - - - - - - - -
   *  TOTAL           428.78 .     332/   36332 .      2.3/   4607.0 .       0/       0
  - - - - - - - - - - - - - - - - - - - - - - - - - - - - - - - - - - - - - - - - - - -
 
  II. I/O Access Patterns
  - - - - - - - - - - - - - - - - - - - -
  Unit  Name               % of random
                         Write/Read calls
  - - - - - - - - - - - - - - - - - - - -
   1  SCRATCH             88.9/ 100.0
   2  ANNI                 0.0/   0.0
   3  RUNFILE             28.6/  10.8
   4  ONEINT               0.0/  17.4
   5  JOBIPH               0.0/  76.1
   6  ORDINT             100.0/   0.1
  - - - - - - - - - - - - - - - - - - - -
--
--- Stop Module: rassi at Wed Mar 26 23:44:57 2025 /rc=_RC_ALL_IS_WELL_ ---
*** files: xmldump
    saved to directory /home4/s4752295/Internship/Initial_simulations/Point_charge_model/1_electron/Madelung_charges_9_active_space/Nb
--- Module rassi spent 2 seconds ---

.##################.
.# Happy landing! #.
.##################.

    Timing: Wall=38.99 User=32.23 System=5.98

###############################################################################
Hbrk Cluster
Job 15913389 for user s4752295
Finished at: Wed Mar 26 23:45:01 CET 2025

Job details:
============

Job ID                         : 15913389
Name                           : Nb_no_SO
User                           : s4752295
Partition                      : regularmedium
Nodes                          : node99
Number of Nodes                : 1
Cores                          : 1
Number of Tasks                : 1
State                          : COMPLETED  
Submit                         : 2025-03-26T23:42:17
Start                          : 2025-03-26T23:44:14
End                            : 2025-03-26T23:44:57
Reserved walltime              : 15:00:00
Used walltime                  : 00:00:43
Used CPU time                  : 00:00:39 (Efficiency: 91.47%)
% User (Computation)           : 84.33%
% System (I/O)                 : 15.67%
Total memory reserved          : 25000M
Maximum memory used            : 1.62G

Acknowledgements:
=================

Please see this page for information about acknowledging Hbrk in your publications:

https://wiki.hpc.rug.nl/habrok/introduction/scientific_output

################################################################################
