   This run of MOLCAS is using the pymolcas driver

                             OPE
                             OPE          NMOL  CASOP  ENMOLC A   SO
                 OPE        NMOLC        AS  OP EN  MO LC     AS  OP
                OPENM       OL CA        SO  PE NM  OL CA     SOP EN
                OP EN      MO   LC       AS  OP ENMOL  CASO   PENMOL
                OP  EN     MO   LC       AS  OP EN     MO     LC ASO
               OP   E  NMOL  C  AS       OP  EN MO     LC     AS  OP
               OP  E   NMO   LC AS        OPEN  MO     LCASOP EN   M
               O  PEN   MO  LCA  SO
            OPE   NMO   L   CAS    OP
        OPENMOL  CASOP     ENMOL   CASOPE
     OPENMOLCA   SOPENMOLCASOPEN   MOLCASOPE
    OPENMOLCAS   OP           EN   MOL    CAS
    OPENMOLCAS       OP  ENM        O     LCA
    OPENMOLCAS    OPEN  MOLCASO     P  E  NMO
    OPENMOLCAS     OP               E  N  MOL
    OPENMOLCA   SO           PENM   O  L  CAS    OPEN    MO    LCAS
    OPENMOLCA   SOP           ENM   O  L  CAS   OP  EN  MOLC  AS   O
    OPENMOLCA   SOPE           NM      O  LCA   S      OP  EN MO
    OPENMOLC                AS         O  PEN   M      OL  CA  SOPE
    OPENMO        LCASOPE  NMOL        C  ASO   P      ENMOLC     AS
    OPE     NMO      LCA  SO     P     E   NM   OL  CA SO  PE N   MO
          OPENMOLCA            SOPE   NMO        LCAS  O    P  ENMO
     OPENMOLCASOPENMOLCASOPENMOLCASOPENMOLCA
        OPENMOLCASOPENMOLCASOPENMOLCASOPE
            OPENMOLCASOPENMOLCASOPENM
               OPENMOLCASOPENMOLCA        version: o91e1abe7de707b ?
                   OPENMOLCASO
                       OPE                tag:

 OpenMolcas is free software; you can redistribute it and/or modify it
 under the terms of the GNU Lesser General Public License version 2.1.
 OpenMolcas is distributed in the hope that it will be useful, but it
 is provided "as is" and without any express or implied warranties.
 For more details see the full text of the license in the file
 LICENSE or in <http://www.gnu.org/licenses/>.

                 Copyright (C) The OpenMolcas Authors
           For the author list and the recommended citation,
                   consult the file CONTRIBUTORS.md

           *************************************************
           * pymolcas version py2.10                       *
           *   build 3068ae8b88c9345ec6cfef6fef7f1169      *
           *   (after the EMIL interpreter by V. Veryazov) *
           *************************************************

configuration info
------------------
Host name: login1 (Linux)
C Compiler ID: GNU
C flags: -std=gnu99
Fortran Compiler ID: GNU
Fortran flags: -fno-aggressive-loop-optimizations -cpp -fdefault-integer-8 -fmax-stack-var-size=1048576
Definitions: _MOLCAS_;_I8_;_LINUX_;_MKL_
Parallel: OFF (GA=OFF)


   -----------------------------------------------------------------------------------------------------------------------------------
  |
  |           Project: niobium_so_cf
  |    Submitted from: /home4/s4752295/Internship/Initial_simulations/Point_charge_model/1_electron/Madelung_charges_9_active_space/Nb
  |      Scratch area: /tmp/niobium_so_cf
  |   Save outputs to: /home4/s4752295/Internship/Initial_simulations/Point_charge_model/1_electron/Madelung_charges_9_active_space/Nb
  |            Molcas: /home4/s4752295/Internship/Molcas/recomp_try/OpenMolcas-master/build
  |
  | Scratch area is empty
  |
  |    MOLCAS_DRIVER = /home4/s4752295/Internship/Molcas/bin/pymolcas
  |    MOLCAS_NPROCS = 1
  |    MOLCAS_SOURCE = /home4/s4752295/Internship/Molcas/recomp_try/OpenMolcas-master
  | MOLCAS_STRUCTURE = 0
  |
   -----------------------------------------------------------------------------------------------------------------------------------

++ ---------   Input file   ---------

&SEWARD
AMFi

CLIG
$R

Basis Set
Nb.ANO-rcc.Roos.21s18p13d6f4g2h.10s9p8d5f4g2h.
Spherical d
Nb            -1.0658140267135469e-14   -3.5527134223784897e-15 0.008753588724385739
End of Basis

Xfield

414
-2.401320648,-0.9239999999999999,0.5334713999999999     -0.625931
-2.401320648,-0.0,-1.0669434    -0.625931
-2.401320648,0.9239999999999999,0.5334713999999999      -0.625931
-2.397207642,0.0,0.0    1.892092
1.595507814,-0.9239999999999999,-0.5334713999999999     2.515516
1.595507814,0.0,1.0669434       2.515516
1.595507814,0.9239999999999999,-0.5334713999999999      2.515516
2.137792968,-1.8479999999999999,0.0     0.004632
2.137792968,-0.9239999999999999,-1.6004148      0.004632
2.137792968,-0.9239999999999999,1.6004148       0.004632
2.137792968,0.9239999999999999,-1.6004148       0.004632
2.137792968,0.9239999999999999,1.6004148        0.004632
2.137792968,1.8479999999999999,0.0      0.004632
2.4774902340000002,-0.9239999999999999,0.5334713999999999       -2.519484
2.4774902340000002,-0.0,-1.0669434      -2.519484
2.4774902340000002,0.9239999999999999,0.5334713999999999        -2.519484
-1.759863282,-0.0,-0.0  -3.142907
-2.985058596,-1.8479999999999999,-1.0669434     -0.625931
-2.985058596,0.0,2.1338862      -0.625931
-2.985058596,1.8479999999999999,-1.0669434      -0.625931
-3.9656249999999997,-1.8479999999999999,0.0     1.892092
-3.9656249999999997,-0.9239999999999999,-1.6004148      1.892092
-3.9656249999999997,-0.9239999999999999,1.6004148       1.892092
-3.9656249999999997,0.9239999999999999,-1.6004148       1.892092
-3.9656249999999997,0.9239999999999999,1.6004148        1.892092
-3.9656249999999997,1.8479999999999999,0.0      1.892092
15.103124999999999,-1.8479999999999999,1.0669434        2.515516
15.103124999999999,-0.0,-2.1338862      2.515516
15.103124999999999,1.8479999999999999,1.0669434 2.515516
2.1832031279999997,-1.8479999999999999,-1.0669434       -2.519484
2.1832031279999997,0.0,2.1338862        -2.519484
2.1832031279999997,1.8479999999999999,-1.0669434        -2.519484
-1.9394531279999998,-1.8479999999999999,-0.0    -3.142907
-1.9394531279999998,-0.9239999999999999,-1.6004148      -3.142907
-1.9394531279999998,-0.9239999999999999,1.6004148       -3.142907
-1.9394531279999998,0.9239999999999999,-1.6004148       -3.142907
-1.9394531279999998,0.9239999999999999,1.6004148        -3.142907
-1.9394531279999998,1.8479999999999999,-0.0     -3.142907
-5.7140625,-1.8479999999999999,2.1338862        -0.625931
-5.7140625,1.8479999999999999,2.1338862 -0.625931
-5.7140625,-2.772,0.5334713999999999    -0.625931
-5.7140625,2.772,0.5334713999999999     -0.625931
-5.7140625,-0.9239999999999999,-2.6673582000000002      -0.625931
-5.7140625,0.9239999999999999,-2.6673582000000002       -0.625931
3.6046875,-0.9239999999999999,-0.5334713999999999       4.409069
3.6046875,0.9239999999999999,-0.5334713999999999        4.409069
3.6046875,0.0,1.0669434 4.409069
-105.14999999999999,-0.0,-0.0   -5.030367
-105.14999999999999,0.0,0.0     5.039632
8.110546871999999,-1.8479999999999999,-2.1338862        2.515516
8.110546871999999,1.8479999999999999,-2.1338862 2.515516
8.110546871999999,-2.772,-0.5334713999999999    2.515516
8.110546871999999,2.772,-0.5334713999999999     2.515516
8.110546871999999,-0.9239999999999999,2.6673582000000002        2.515516
8.110546871999999,0.9239999999999999,2.6673582000000002 2.515516
11.4234375,-2.772,-1.6004148    0.004632
11.4234375,-2.772,1.6004148     0.004632
11.4234375,2.772,-1.6004148     0.004632
11.4234375,2.772,1.6004148      0.004632
11.4234375,-0.0,-3.2008296      0.004632
11.4234375,0.0,3.2008296        0.004632
28.846874999999997,-1.8479999999999999,2.1338862        -2.519484
28.846874999999997,1.8479999999999999,2.1338862 -2.519484
28.846874999999997,-2.772,0.5334713999999999    -2.519484
28.846874999999997,2.772,0.5334713999999999     -2.519484
28.846874999999997,-0.9239999999999999,-2.6673582000000002      -2.519484
28.846874999999997,0.9239999999999999,-2.6673582000000002       -2.519484
-87.52499999999999,-2.772,-1.6004148    1.892092
-87.52499999999999,-2.772,1.6004148     1.892092
-87.52499999999999,2.772,-1.6004148     1.892092
-87.52499999999999,2.772,1.6004148      1.892092
-87.52499999999999,-0.0,-3.2008296      1.892092
-87.52499999999999,0.0,3.2008296        1.892092
-70.64999999999999,-1.8479999999999999,1.0669434        4.409069
-70.64999999999999,-0.0,-2.1338862      4.409069
-70.64999999999999,1.8479999999999999,1.0669434 4.409069
-53.4,-1.8479999999999999,-0.0  -5.030367
-53.4,-0.9239999999999999,-1.6004148    -5.030367
-53.4,-0.9239999999999999,1.6004148     -5.030367
-53.4,0.9239999999999999,-1.6004148     -5.030367
-53.4,-1.8479999999999999,0.0   5.039632
-53.4,1.8479999999999999,-0.0   -5.030367
-53.4,0.9239999999999999,1.6004148      -5.030367
-53.4,-0.9239999999999999,-1.6004148    5.039632
-53.4,-0.9239999999999999,1.6004148     5.039632
-53.4,0.9239999999999999,-1.6004148     5.039632
-53.4,1.8479999999999999,0.0    5.039632
-53.4,0.9239999999999999,1.6004148      5.039632
-27.974999999999998,-0.9239999999999999,-0.5334713999999999     -5.660931
-27.974999999999998,0.0,1.0669434       -5.660931
-27.974999999999998,0.9239999999999999,-0.5334713999999999      -5.660931
0.5296875,-3.6959994,0.0        0.004632
0.5296875,-1.8479999999999999,-3.2008296        0.004632
0.5296875,-1.8479999999999999,3.2008296 0.004632
0.5296875,1.8479999999999999,-3.2008296 0.004632
0.5296875,3.6959994,0.0 0.004632
0.5296875,1.8479999999999999,3.2008296  0.004632
40.762499999999996,-2.772,1.6004148     -3.142907
40.762499999999996,-2.772,-1.6004148    -3.142907
40.762499999999996,2.772,-1.6004148     -3.142907
40.762499999999996,2.772,1.6004148      -3.142907
40.762499999999996,-0.0,-3.2008296      -3.142907
40.762499999999996,0.0,3.2008296        -3.142907
51.824999999999996,-3.6959994,-1.0669434        -0.625931
51.824999999999996,-2.772,-2.6673582000000002   -0.625931
51.824999999999996,-0.9239999999999999,3.734301 -0.625931
51.824999999999996,2.772,-2.6673582000000002    -0.625931
51.824999999999996,3.6959994,-1.0669434 -0.625931
51.824999999999996,0.9239999999999999,3.734301  -0.625931
0.718359372,-3.6959994,0.0      1.892092
0.718359372,-1.8479999999999999,-3.2008296      1.892092
0.718359372,-1.8479999999999999,3.2008296       1.892092
0.718359372,1.8479999999999999,-3.2008296       1.892092
0.718359372,3.6959994,0.0       1.892092
0.718359372,1.8479999999999999,3.2008296        1.892092
20.30625,-1.8479999999999999,-2.1338862 4.409069
20.30625,1.8479999999999999,-2.1338862  4.409069
20.30625,-2.772,-0.5334713999999999     4.409069
20.30625,2.772,-0.5334713999999999      4.409069
20.30625,-0.9239999999999999,2.6673582000000002 4.409069
20.30625,0.9239999999999999,2.6673582000000002  4.409069
97.44375,-1.8479999999999999,1.0669434  -5.660931
97.44375,-0.0,-2.1338862        -5.660931
97.44375,1.8479999999999999,1.0669434   -5.660931
0.20625,-3.6959994,1.0669434    2.515516
0.20625,-0.9239999999999999,-3.734301   2.515516
0.20625,-2.772,2.6673582000000002       2.515516
0.20625,0.9239999999999999,-3.734301    2.515516
0.20625,3.6959994,1.0669434     2.515516
0.20625,2.772,2.6673582000000002        2.515516
-56.512499999999996,-3.6959994,-1.0669434       -2.519484
-56.512499999999996,-2.772,-2.6673582000000002  -2.519484
-56.512499999999996,-0.9239999999999999,3.734301        -2.519484
-56.512499999999996,2.772,-2.6673582000000002   -2.519484
-56.512499999999996,0.9239999999999999,3.734301 -2.519484
-56.512499999999996,3.6959994,-1.0669434        -2.519484
-13.2421875,-3.6959994,-0.0     -3.142907
-13.2421875,-1.8479999999999999,-3.2008296      -3.142907
-13.2421875,-1.8479999999999999,3.2008296       -3.142907
-13.2421875,1.8479999999999999,-3.2008296       -3.142907
-13.2421875,1.8479999999999999,3.2008296        -3.142907
-13.2421875,3.6959994,-0.0      -3.142907
363.9,0.0,0.0   6.927092
193.95,-3.6959994,2.1338862     -0.625931
193.95,3.6959994,2.1338862      -0.625931
193.95,-0.0,-4.267773   -0.625931
-3.253125,-2.772,1.6004148      -5.030367
-3.253125,-2.772,-1.6004148     -5.030367
-3.253125,-2.772,1.6004148      5.039632
-3.253125,-2.772,-1.6004148     5.039632
-3.253125,2.772,-1.6004148      -5.030367
-3.253125,2.772,1.6004148       -5.030367
-3.253125,2.772,-1.6004148      5.039632
-3.253125,2.772,1.6004148       5.039632
-3.253125,-0.0,-3.2008296       -5.030367
-3.253125,0.0,3.2008296 -5.030367
-3.253125,-0.0,-3.2008296       5.039632
-3.253125,0.0,3.2008296 5.039632
55.0875,-1.8479999999999999,-2.1338862  -5.660931
55.0875,1.8479999999999999,-2.1338862   -5.660931
55.0875,-2.772,-0.5334713999999999      -5.660931
55.0875,2.772,-0.5334713999999999       -5.660931
55.0875,-0.9239999999999999,2.6673582000000002  -5.660931
55.0875,0.9239999999999999,2.6673582000000002   -5.660931
180.29999999999998,-3.6959994,-2.1338862        2.515516
180.29999999999998,3.6959994,-2.1338862 2.515516
180.29999999999998,0.0,4.267773 2.515516
-310.34999999999997,-3.6959994,2.1338862        -2.519484
-310.34999999999997,3.6959994,2.1338862 -2.519484
-310.34999999999997,-0.0,-4.267773      -2.519484
32.137499999999996,-1.8479999999999999,0.0      6.927092
32.137499999999996,-0.9239999999999999,-1.6004148       6.927092
32.137499999999996,-0.9239999999999999,1.6004148        6.927092
32.137499999999996,0.9239999999999999,-1.6004148        6.927092
32.137499999999996,0.9239999999999999,1.6004148 6.927092
32.137499999999996,1.8479999999999999,0.0       6.927092
-33.15,-0.9239999999999999,0.5334713999999999   7.550516
-33.15,0.0,-1.0669434   7.550516
-33.15,0.9239999999999999,0.5334713999999999    7.550516
9.31875,-0.9239999999999999,-0.5334713999999999 -7.554483
9.31875,0.9239999999999999,-0.5334713999999999  -7.554483
9.31875,-0.0,1.0669434  -7.554483
-74.925,-4.6199994,0.5334713999999999   -0.625931
-74.925,-2.772,3.734301 -0.625931
-74.925,-1.8479999999999999,-4.267773   -0.625931
-74.925,1.8479999999999999,-4.267773    -0.625931
-74.925,4.6199994,0.5334713999999999    -0.625931
-74.925,2.772,3.734301  -0.625931
-40.4625,-3.6959994,1.0669434   4.409069
-40.4625,-2.772,2.6673582000000002      4.409069
-40.4625,-0.9239999999999999,-3.734301  4.409069
-40.4625,0.9239999999999999,-3.734301   4.409069
-40.4625,2.772,2.6673582000000002       4.409069
-40.4625,3.6959994,1.0669434    4.409069
29.49375,-3.6959994,-0.0        -5.030367
29.49375,-1.8479999999999999,-3.2008296 -5.030367
29.49375,-1.8479999999999999,3.2008296  -5.030367
29.49375,-3.6959994,0.0 5.039632
29.49375,-1.8479999999999999,-3.2008296 5.039632
29.49375,1.8479999999999999,-3.2008296  -5.030367
29.49375,1.8479999999999999,3.2008296   -5.030367
29.49375,3.6959994,-0.0 -5.030367
29.49375,-1.8479999999999999,3.2008296  5.039632
29.49375,1.8479999999999999,-3.2008296  5.039632
29.49375,3.6959994,0.0  5.039632
29.49375,1.8479999999999999,3.2008296   5.039632
108.45,-4.6199994,-0.5334713999999999   2.515516
108.45,-2.772,-3.734301 2.515516
108.45,-1.8479999999999999,4.267773     2.515516
108.45,2.772,-3.734301  2.515516
108.45,4.6199994,-0.5334713999999999    2.515516
108.45,1.8479999999999999,4.267773      2.515516
-14.00625,-4.6199994,-1.6004148 0.004632
-14.00625,-4.6199994,1.6004148  0.004632
-14.00625,-3.6959994,-3.2008296 0.004632
-14.00625,-3.6959994,3.2008296  0.004632
-14.00625,-0.9239999999999999,-4.8012444        0.004632
-14.00625,0.9239999999999999,-4.8012444 0.004632
-14.00625,-0.9239999999999999,4.8012444 0.004632
-14.00625,3.6959994,-3.2008296  0.004632
-14.00625,0.9239999999999999,4.8012444  0.004632
-14.00625,4.6199994,-1.6004148  0.004632
-14.00625,4.6199994,1.6004148   0.004632
-14.00625,3.6959994,3.2008296   0.004632
-85.875,-4.6199994,0.5334713999999999   -2.519484
-85.875,-2.772,3.734301 -2.519484
-85.875,-1.8479999999999999,-4.267773   -2.519484
-85.875,1.8479999999999999,-4.267773    -2.519484
-85.875,4.6199994,0.5334713999999999    -2.519484
-85.875,2.772,3.734301  -2.519484
1819.2,-0.0,-0.0        -8.177907
-69.6,-1.8479999999999999,-1.0669434    7.550516
-69.6,0.0,2.1338862     7.550516
-69.6,1.8479999999999999,-1.0669434     7.550516
-362.09999999999997,-1.8479999999999999,1.0669434       -7.554483
-362.09999999999997,-0.0,-2.1338862     -7.554483
-362.09999999999997,1.8479999999999999,1.0669434        -7.554483
29.34375,-4.6199994,1.6004148   1.892092
29.34375,-4.6199994,-1.6004148  1.892092
29.34375,-3.6959994,-3.2008296  1.892092
29.34375,-3.6959994,3.2008296   1.892092
29.34375,-0.9239999999999999,-4.8012444 1.892092
29.34375,0.9239999999999999,-4.8012444  1.892092
29.34375,-0.9239999999999999,4.8012444  1.892092
29.34375,3.6959994,-3.2008296   1.892092
29.34375,0.9239999999999999,4.8012444   1.892092
29.34375,4.6199994,-1.6004148   1.892092
29.34375,4.6199994,1.6004148    1.892092
29.34375,3.6959994,3.2008296    1.892092
-303.0,-3.6959994,-2.1338862    4.409069
-303.0,3.6959994,-2.1338862     4.409069
-303.0,0.0,4.267773     4.409069
15.4921875,-3.6959994,1.0669434 -5.660931
15.4921875,-0.9239999999999999,-3.734301        -5.660931
15.4921875,-2.772,2.6673582000000002    -5.660931
15.4921875,0.9239999999999999,-3.734301 -5.660931
15.4921875,2.772,2.6673582000000002     -5.660931
15.4921875,3.6959994,1.0669434  -5.660931
-34.9125,-3.6959994,-3.2008296  -3.142907
-34.9125,-4.6199994,1.6004148   -3.142907
-34.9125,-4.6199994,-1.6004148  -3.142907
-34.9125,-3.6959994,3.2008296   -3.142907
-34.9125,-0.9239999999999999,-4.8012444 -3.142907
-34.9125,0.9239999999999999,-4.8012444  -3.142907
-34.9125,-0.9239999999999999,4.8012444  -3.142907
-34.9125,4.6199994,-1.6004148   -3.142907
-34.9125,3.6959994,-3.2008296   -3.142907
-34.9125,0.9239999999999999,4.8012444   -3.142907
-34.9125,4.6199994,1.6004148    -3.142907
-34.9125,3.6959994,3.2008296    -3.142907
39.24375,-2.772,-1.6004148      6.927092
39.24375,-2.772,1.6004148       6.927092
39.24375,2.772,-1.6004148       6.927092
39.24375,2.772,1.6004148        6.927092
39.24375,-0.0,-3.2008296        6.927092
39.24375,0.0,3.2008296  6.927092
-49.949999999999996,-1.8479999999999999,-0.0    -8.177907
-49.949999999999996,-0.9239999999999999,1.6004148       -8.177907
-49.949999999999996,-0.9239999999999999,-1.6004148      -8.177907
-49.949999999999996,0.9239999999999999,-1.6004148       -8.177907
-49.949999999999996,1.8479999999999999,-0.0     -8.177907
-49.949999999999996,0.9239999999999999,1.6004148        -8.177907
-54.543749999999996,-1.8479999999999999,2.1338862       7.550516
-54.543749999999996,1.8479999999999999,2.1338862        7.550516
-54.543749999999996,-2.772,0.5334713999999999   7.550516
-54.543749999999996,2.772,0.5334713999999999    7.550516
-54.543749999999996,-0.9239999999999999,-2.6673582000000002     7.550516
-54.543749999999996,0.9239999999999999,-2.6673582000000002      7.550516
-27.412499999999998,-1.8479999999999999,-2.1338862      -7.554483
-27.412499999999998,1.8479999999999999,-2.1338862       -7.554483
-27.412499999999998,-2.772,-0.5334713999999999  -7.554483
-27.412499999999998,2.772,-0.5334713999999999   -7.554483
-27.412499999999998,-0.9239999999999999,2.6673582000000002      -7.554483
-27.412499999999998,0.9239999999999999,2.6673582000000002       -7.554483
-300.15,0.0,5.3347158   -0.625931
-300.15,-4.6199994,-2.6673582000000002  -0.625931
-300.15,4.6199994,-2.6673582000000002   -0.625931
-161.85,-4.6199994,-0.5334713999999999  4.409069
-161.85,-2.772,-3.734301        4.409069
-161.85,-1.8479999999999999,4.267773    4.409069
-161.85,2.772,-3.734301 4.409069
-161.85,4.6199994,-0.5334713999999999   4.409069
-161.85,1.8479999999999999,4.267773     4.409069
186.225,-3.6959994,-2.1338862   -5.660931
186.225,3.6959994,-2.1338862    -5.660931
186.225,0.0,4.267773    -5.660931
352.2,-0.0,-5.3347158   2.515516
352.2,-4.6199994,2.6673582000000002     2.515516
352.2,4.6199994,2.6673582000000002      2.515516
-56.324999999999996,-5.5439994,-0.0     0.004632
-56.324999999999996,2.772,-4.8012444    0.004632
-56.324999999999996,-2.772,4.8012444    0.004632
-56.324999999999996,5.5439994,-0.0      0.004632
-56.324999999999996,-2.772,-4.8012444   0.004632
-56.324999999999996,2.772,4.8012444     0.004632
-231.45,0.0,5.3347158   -2.519484
-231.45,-4.6199994,-2.6673582000000002  -2.519484
-231.45,4.6199994,-2.6673582000000002   -2.519484
136.79999999999998,-3.6959994,0.0       6.927092
136.79999999999998,-1.8479999999999999,-3.2008296       6.927092
136.79999999999998,-1.8479999999999999,3.2008296        6.927092
136.79999999999998,1.8479999999999999,-3.2008296        6.927092
136.79999999999998,3.6959994,0.0        6.927092
136.79999999999998,1.8479999999999999,3.2008296 6.927092
127.125,-5.5439994,-1.0669434   -0.625931
127.125,-1.8479999999999999,5.3347158   -0.625931
127.125,-3.6959994,-4.267773    -0.625931
127.125,3.6959994,-4.267773     -0.625931
127.125,1.8479999999999999,5.3347158    -0.625931
127.125,5.5439994,-1.0669434    -0.625931
67.1625,-5.5439994,0.0  1.892092
67.1625,-2.772,-4.8012444       1.892092
67.1625,-2.772,4.8012444        1.892092
67.1625,2.772,-4.8012444        1.892092
67.1625,5.5439994,0.0   1.892092
67.1625,2.772,4.8012444 1.892092
-2.5921875,-4.6199994,1.6004148 -5.030367
-2.5921875,-4.6199994,-1.6004148        -5.030367
-2.5921875,-3.6959994,-3.2008296        -5.030367
-2.5921875,-3.6959994,3.2008296 -5.030367
-2.5921875,-4.6199994,1.6004148 5.039632
-2.5921875,0.9239999999999999,-4.8012444        -5.030367
-2.5921875,-0.9239999999999999,-4.8012444       -5.030367
-2.5921875,-4.6199994,-1.6004148        5.039632
-2.5921875,-3.6959994,-3.2008296        5.039632
-2.5921875,-0.9239999999999999,4.8012444        -5.030367
-2.5921875,0.9239999999999999,-4.8012444        5.039632
-2.5921875,-3.6959994,3.2008296 5.039632
-2.5921875,-0.9239999999999999,-4.8012444       5.039632
-2.5921875,3.6959994,-3.2008296 -5.030367
-2.5921875,0.9239999999999999,4.8012444 -5.030367
-2.5921875,4.6199994,-1.6004148 -5.030367
-2.5921875,4.6199994,1.6004148  -5.030367
-2.5921875,3.6959994,3.2008296  -5.030367
-2.5921875,-0.9239999999999999,4.8012444        5.039632
-2.5921875,3.6959994,-3.2008296 5.039632
-2.5921875,4.6199994,-1.6004148 5.039632
-2.5921875,0.9239999999999999,4.8012444 5.039632
-2.5921875,4.6199994,1.6004148  5.039632
-2.5921875,3.6959994,3.2008296  5.039632
-0.4125,-4.6199994,-0.5334713999999999  -5.660931
-0.4125,-2.772,-3.734301        -5.660931
-0.4125,-1.8479999999999999,4.267773    -5.660931
-0.4125,2.772,-3.734301 -5.660931
-0.4125,1.8479999999999999,4.267773     -5.660931
-0.4125,4.6199994,-0.5334713999999999   -5.660931
69.6,-0.9239999999999999,0.5334713999999999     9.444068
69.6,0.0,-1.0669434     9.444068
69.6,0.9239999999999999,0.5334713999999999      9.444068
30.787499999999998,-5.5439994,1.0669434 2.515516
30.787499999999998,-1.8479999999999999,-5.3347158       2.515516
30.787499999999998,1.8479999999999999,-5.3347158        2.515516
30.787499999999998,-3.6959994,4.267773  2.515516
30.787499999999998,5.5439994,1.0669434  2.515516
30.787499999999998,3.6959994,4.267773   2.515516
94.125,-5.5439994,-1.0669434    -2.519484
94.125,-1.8479999999999999,5.3347158    -2.519484
94.125,-3.6959994,-4.267773     -2.519484
94.125,3.6959994,-4.267773      -2.519484
94.125,5.5439994,-1.0669434     -2.519484
94.125,1.8479999999999999,5.3347158     -2.519484
131.775,-5.5439994,-0.0 -3.142907
131.775,-2.772,-4.8012444       -3.142907
131.775,-2.772,4.8012444        -3.142907
131.775,2.772,-4.8012444        -3.142907
131.775,5.5439994,-0.0  -3.142907
131.775,2.772,4.8012444 -3.142907
5.187304686,-2.772,-1.6004148   -8.177907
5.187304686,-2.772,1.6004148    -8.177907
5.187304686,2.772,1.6004148     -8.177907
5.187304686,2.772,-1.6004148    -8.177907
5.187304686,-0.0,-3.2008296     -8.177907
5.187304686,0.0,3.2008296       -8.177907
151.125,-2.772,-2.6673582000000002      7.550516
151.125,-3.6959994,-1.0669434   7.550516
151.125,-0.9239999999999999,3.734301    7.550516
151.125,2.772,-2.6673582000000002       7.550516
151.125,0.9239999999999999,3.734301     7.550516
151.125,3.6959994,-1.0669434    7.550516
-208.79999999999998,-2.772,2.6673582000000002   -7.554483
-208.79999999999998,-3.6959994,1.0669434        -7.554483
-208.79999999999998,-0.9239999999999999,-3.734301       -7.554483
-208.79999999999998,0.9239999999999999,-3.734301        -7.554483
-208.79999999999998,3.6959994,1.0669434 -7.554483
-208.79999999999998,2.772,2.6673582000000002    -7.554483
42.759375,-4.6199994,3.734301   -0.625931
42.759375,-5.5439994,2.1338862  -0.625931
42.759375,-0.9239999999999999,-5.868187799999999        -0.625931
42.759375,0.9239999999999999,-5.868187799999999 -0.625931
42.759375,5.5439994,2.1338862   -0.625931
42.759375,4.6199994,3.734301    -0.625931
-290.25,-0.0,-5.3347158 4.409069
-290.25,-4.6199994,2.6673582000000002   4.409069
-290.25,4.6199994,2.6673582000000002    4.409069

End of input

&SCF
Occupied
9
Iterations
   50  100
End of Input

&RASSCF
LumOrb
Symmetry
1
Spin
2
Nactel
1 0 0
CIRoot
9 9 1
inactive
9
ras2
9
End of Input

>>> COPY niobium_so_cf.JobIph $SLURM_SUBMIT_DIR/niobium_so_cf.doublet.JobIph

>>> COPY $SLURM_SUBMIT_DIR/niobium_so_cf.doublet.JobIph ./JOB002

&RASSI
NROFJobIph
1 All
SpinOrbit
End of Input

EOF

-- ----------------------------------

--- Start Module: seward at Wed Mar 26 11:51:03 2025 ---

()()()()()()()()()()()()()()()()()()()()()()()()()()()()()()()()()()()()()()()()()()()()()()()()()()

                                              &SEWARD

                                   only a single process is used
                       available to each process: 4.1 GB of memory, 1 thread?
                                            pid: 3921886
()()()()()()()()()()()()()()()()()()()()()()()()()()()()()()()()()()()()()()()()()()()()()()()()()()

 The speed of LIGHT in this CALCULATION =   137.03599917700001     
               SEWARD will generate:
                  Multipole Moment integrals up to order  2
                  Kinetic Energy integrals
                  Nuclear Attraction integrals (point charge)
                  One-Electron Hamiltonian integrals
                  Velocity integrals
                  Relativistic Douglas-Kroll-Hess integrals:
                    - Parametrization         : EXP
                    - DKH order of Hamiltonian: 2
                    - DKH order of Properties : 0
                         - multipole moment operators
                         - electric potential operators
                         - contact operators
                  External field from   414 point(s) added to the one-electron Hamiltonian
                  Orbital angular momentum around (-0.0000 -0.0000  0.0088 )
                  Velocity quadrupole around (-0.0000 -0.0000  0.0088 )
                  Atomic mean-field integrals
                  Two-Electron Repulsion integrals

                   Integrals are discarded if absolute value <: 0.10E-13
                   Integral cutoff threshold is set to       <: 0.10E-15

++    Symmetry information:
      ---------------------

                    Character Table for C1 

                             E  
                    a        1  x, y, xy, Rz, z, xz, Ry, yz, Rx, I
--


++    Basis set information:
      ----------------------


      Basis set label: NB.ANO-RCC.ROOS.21S18P13D6F4G2H.10S9P8D5F4G2H......

      Electronic valence basis set:
      ------------------
      Associated Effective Charge  41.000000 au
      Associated Actual Charge     41.000000 au
      Nuclear Model: Point charge

      Shell  nPrim  nBasis  Cartesian Spherical Contaminant
         s      21      10        X                  
         p      18       9        X                  
         d      13       8                 X         
         f       6       5                 X         
         g       4       4                 X         
         h       2       2                 X         
--


++    Molecular structure info:
      -------------------------

                    ************************************************ 
                    **** Cartesian Coordinates / Bohr, Angstrom **** 
                    ************************************************ 

     Center  Label                x              y              z                     x              y              z
        1      NB              -0.000000      -0.000000       0.008754             -0.000000      -0.000000       0.004632
--


++    Operator info:
      --------------


  Net charge from external field:   -39.268449999999902     
--


            Nuclear Potential Energy              0.00000000 au

                    Nuclear-External Field Potential Energy    -625.17889630 au
                    External Field Potential Energy            2676.06150231 au 


            Total Nuclear Potential Energy           -625.17889630 au


      Basis set specifications :
      Symmetry species         a  
      Basis functions          170

 Sorry, Molden does not know how to handle
 functions with angular momentum larger than g
Note: The following floating-point exceptions are signalling: IEEE_UNDERFLOW_FLAG IEEE_DENORMAL
--- Stop Module: seward at Wed Mar 26 11:51:12 2025 /rc=_RC_ALL_IS_WELL_ ---
*** files: niobium_so_cf.GssOrb xmldump
    saved to directory /home4/s4752295/Internship/Initial_simulations/Point_charge_model/1_electron/Madelung_charges_9_active_space/Nb
--- Module seward spent 8 seconds ---

*** symbolic link created: INPORB -> niobium_so_cf.GssOrb
--- Start Module: scf at Wed Mar 26 11:51:12 2025 ---

()()()()()()()()()()()()()()()()()()()()()()()()()()()()()()()()()()()()()()()()()()()()()()()()()()

                                                &SCF

                                   only a single process is used
                       available to each process: 4.1 GB of memory, 1 thread?
                                            pid: 3921915
()()()()()()()()()()()()()()()()()()()()()()()()()()()()()()()()()()()()()()()()()()()()()()()()()()

++    Input section:
      --------------

      Header of the integral files:
      
       Integrals generated by seward 4.2.0  , Wed Mar 26 11:51:04 2025


      Cartesian coordinates in Angstrom:
      -----------------------------------------------------
      No.  Label        X            Y            Z        
      -----------------------------------------------------
       1   NB        -0.00000000  -0.00000000   0.00463220
      -----------------------------------------------------
      Nuclear repulsion energy = -625.17889630
--

++    Orbital specifications:
      -----------------------

      Symmetry species               1
                                     a
      Frozen orbitals                0
      Occupied orbitals              9
      Secondary orbitals           161
      Deleted orbitals               0
      Total number of orbitals     170
      Number of basis functions    170
--

      Molecular charge                          23.000

++    Optimization specifications:
      ----------------------------

      SCF Algorithm: Conventional
      Minimized density differences are used
      Number of density matrices in core                5
      Maximum number of NDDO SCF iterations            50
      Maximum number of HF SCF iterations             100
      Threshold for SCF energy change            0.10E-08
      Threshold for density matrix               0.10E-03
      Threshold for Fock matrix                  0.15E-03
      Threshold for linear dependence            0.10E-08
      Threshold at which DIIS is turned on       0.15E+00
      Threshold at which QNR/C2DIIS is turned on 0.75E-01
      Threshold for Norm(delta) (QNR/C2DIIS)     0.20E-04
      DIIS extrapolation of the SCF procedure
      All orbitals punched on: SCFORB
--

      Detected guessorb starting orbitals                                             


++ Convergence information
                                   SCF        iterations: Energy and convergence statistics

Iter     Tot. SCF        One-elec.       Two-elec.     Energy      Max Dij or  Max Fij      DNorm      TNorm      AccCon     Time
         Energy          Energy          Energy        Change      Delta Norm                                                in Sec.

 The total and one-electron energies are shifted by a value of      3000. a.u.

   1  -836.766581436  -814.063942087   602.476256953   0.00E+00    0.30E+00*   0.28E+01*    0.60E+01   0.31E+03   None         1.
   2  -842.769909875  -856.002508205   638.411494632  -0.60E+01*   0.19E-01*   0.26E+00*    0.15E+01   0.32E+03   EDIIS        1.
   3  -842.793577743  -854.098859610   636.484178169  -0.24E-01*   0.31E-02*   0.18E-01*    0.69E-01   0.32E+03   EDIIS        1.
   4  -842.793743392  -854.234865164   636.620018073  -0.17E-03*   0.19E-03*   0.22E-02*    0.45E-02   0.32E+03   c2DIIS       1.
   5  -842.793745632  -854.226984088   636.612134758  -0.22E-05*   0.28E-04*   0.19E-03*    0.33E-03   0.32E+03   QNRc2DIIS    1.
   6  -842.793745646  -854.226885403   636.612036059  -0.14E-07*   0.11E-04    0.33E-04     0.39E-04   0.32E+03   QNRc2DIIS    1.
   7  -842.793745647  -854.226883608   636.612034263  -0.13E-08*   0.13E-05    0.56E-05     0.23E-05   0.32E+03   QNRc2DIIS    1.
   8  -842.793745647  -854.226890886   636.612041541  -0.23E-10    0.12E-07    0.15E-06     0.18E-04   0.32E+03   QNRc2DIIS    1.

       Convergence after  8 Macro Iterations
--

 *****************************************************************************************************************************
 *                                                                                                                           *
 *                                             SCF/KS-DFT Program, Final results                                             *
 *                                                                                                                           *
 *                                                                                                                           *
 *                                                                                                                           *
 *                                                       Final Results                                                       *
 *                                                                                                                           *
 *****************************************************************************************************************************

::    Total SCF energy                              -3842.7937456472
      One-electron energy                           -3854.2268908859
      Two-electron energy                             636.6120415405
      Nuclear repulsion energy                       -625.1788963018
      Kinetic energy (interpolated)                  3883.6192992267
      Virial theorem                                    0.9894877560
      Total spin, S(S+1)                                0.0000000000
      Total spin, S                                     0.0000000000
      Max non-diagonal density matrix element           0.0000000086
      Max non-diagonal Fock matrix element              0.0000000061


      All orbitals with orbital energies smaller than  E(LUMO)+0.5 are printed

++    Molecular orbitals:
      -------------------

      Title: SCF orbitals

      Molecular orbitals for symmetry species 1: a  

          Orbital            1         2         3         4         5         6         7         8         9        10    
          Energy         -721.9750 -121.0225 -110.1810 -110.1810 -110.1758  -32.1453  -28.3068  -28.3068  -28.2073  -21.3913
          Occ. No.          2.0000    2.0000    2.0000    2.0000    2.0000    2.0000    2.0000    2.0000    2.0000    0.0000

        1 NB     1s         1.0000   -0.0001    0.0000    0.0000   -0.0000    0.0001   -0.0000    0.0000    0.0000    0.0000
        2 NB     2s         0.0001    0.9999    0.0000    0.0000   -0.0070    0.0125    0.0000    0.0000   -0.0023   -0.0000
        3 NB     3s        -0.0001   -0.0120   -0.0000   -0.0000    0.0009    0.9817    0.0002    0.0000   -0.1170   -0.0000
        4 NB     4s         0.0000    0.0029    0.0000    0.0000   -0.0002   -0.0980   -0.0000   -0.0000    0.0188    0.0000
        5 NB     5s        -0.0000   -0.0007   -0.0000   -0.0000    0.0000    0.0219    0.0000    0.0000   -0.0043   -0.0000
        6 NB     6s         0.0000    0.0009    0.0000    0.0000   -0.0001   -0.0268   -0.0000   -0.0000    0.0053    0.0000
        7 NB     7s        -0.0000   -0.0023   -0.0000   -0.0000    0.0002    0.0656    0.0000    0.0000   -0.0130   -0.0000
        8 NB     8s         0.0000    0.0022    0.0000    0.0000   -0.0001   -0.0529   -0.0000   -0.0000    0.0106    0.0000
        9 NB     9s        -0.0000   -0.0028   -0.0000   -0.0000    0.0002    0.0542    0.0000    0.0000   -0.0110   -0.0000
       10 NB    10s         0.0001    0.0027    0.0000    0.0000   -0.0001   -0.0281   -0.0000   -0.0000    0.0056    0.0000
       11 NB     2px        0.0000    0.0070   -0.0048   -0.0000    0.9999    0.0009   -0.0000   -0.0000    0.0142    0.0000
       12 NB     3px       -0.0000    0.0006    0.0001    0.0000   -0.0135    0.1200   -0.0031   -0.0000    0.9744    0.0000
       13 NB     4px        0.0000   -0.0001   -0.0000   -0.0000    0.0029   -0.0085    0.0003    0.0000   -0.1067   -0.0000
       14 NB     5px       -0.0000    0.0000    0.0000    0.0000   -0.0010    0.0025   -0.0001   -0.0000    0.0333    0.0000
       15 NB     6px        0.0000   -0.0001   -0.0000   -0.0000    0.0025   -0.0057    0.0002    0.0000   -0.0801   -0.0000
       16 NB     7px       -0.0000    0.0001    0.0000    0.0000   -0.0023    0.0043   -0.0002   -0.0000    0.0645    0.0000
       17 NB     8px        0.0000   -0.0001   -0.0000   -0.0000    0.0028   -0.0038    0.0002    0.0000   -0.0657   -0.0000
       18 NB     9px       -0.0000    0.0001    0.0000    0.0000   -0.0027    0.0025   -0.0002   -0.0000    0.0491    0.0000
       19 NB    10px        0.0000   -0.0001   -0.0000   -0.0000    0.0022   -0.0008    0.0001    0.0000   -0.0229   -0.0000
       20 NB     2py        0.0000    0.0000   -0.0000    0.9999    0.0000    0.0000   -0.0000    0.0142    0.0000    0.0000
       21 NB     3py       -0.0000   -0.0000    0.0000   -0.0134   -0.0000    0.0000   -0.0000    0.9828    0.0000    0.0009
       22 NB     4py        0.0000    0.0000   -0.0000    0.0029    0.0000   -0.0000    0.0000   -0.1066   -0.0000   -0.0002
       23 NB     5py       -0.0000   -0.0000    0.0000   -0.0010   -0.0000    0.0000   -0.0000    0.0332    0.0000    0.0001
       24 NB     6py        0.0000    0.0000   -0.0000    0.0025    0.0000   -0.0000    0.0000   -0.0799   -0.0000   -0.0002
       25 NB     7py       -0.0000   -0.0000    0.0000   -0.0023   -0.0000    0.0000   -0.0000    0.0642    0.0000    0.0001
       26 NB     8py        0.0000    0.0000   -0.0000    0.0028    0.0000   -0.0000    0.0000   -0.0652   -0.0000   -0.0001
       27 NB     9py       -0.0000   -0.0000    0.0000   -0.0027   -0.0000    0.0000   -0.0000    0.0487    0.0000    0.0001
       28 NB    10py        0.0000    0.0000   -0.0000    0.0022    0.0000   -0.0000    0.0000   -0.0227   -0.0000   -0.0000
       29 NB     2pz        0.0000    0.0000    0.9999    0.0000    0.0048    0.0000    0.0142    0.0000    0.0000   -0.0000
       30 NB     3pz       -0.0000    0.0000   -0.0134   -0.0000   -0.0001    0.0002    0.9828    0.0000    0.0031   -0.0000
       31 NB     4pz        0.0000   -0.0000    0.0029    0.0000    0.0000   -0.0000   -0.1066   -0.0000   -0.0003    0.0000
       32 NB     5pz       -0.0000    0.0000   -0.0010   -0.0000   -0.0000    0.0000    0.0332    0.0000    0.0001   -0.0000
       33 NB     6pz        0.0000   -0.0000    0.0025    0.0000    0.0000   -0.0000   -0.0799   -0.0000   -0.0003    0.0000
       34 NB     7pz       -0.0000    0.0000   -0.0023   -0.0000   -0.0000    0.0000    0.0642    0.0000    0.0002   -0.0000
       35 NB     8pz        0.0000   -0.0000    0.0028    0.0000    0.0000   -0.0000   -0.0652   -0.0000   -0.0002    0.0000
       36 NB     9pz       -0.0000    0.0000   -0.0027   -0.0000   -0.0000    0.0000    0.0487    0.0000    0.0002   -0.0000
       37 NB    10pz        0.0000   -0.0000    0.0022    0.0000    0.0000   -0.0000   -0.0227   -0.0000   -0.0001    0.0000
       38 NB     3d2-      -0.0000    0.0000   -0.0000    0.0005    0.0000    0.0000   -0.0000    0.0606    0.0000   -0.0164
       39 NB     4d2-       0.0000   -0.0000    0.0000   -0.0001   -0.0000   -0.0000    0.0000   -0.0035   -0.0000    0.0016
       40 NB     5d2-      -0.0000    0.0000   -0.0000    0.0001    0.0000    0.0000   -0.0000    0.0032    0.0000   -0.0016
       41 NB     6d2-       0.0000   -0.0000    0.0000   -0.0001   -0.0000   -0.0000    0.0000   -0.0026   -0.0000    0.0014
       42 NB     7d2-      -0.0000    0.0000   -0.0000    0.0001    0.0000   -0.0000   -0.0000    0.0020    0.0000   -0.0012
       43 NB     8d2-       0.0000   -0.0000    0.0000   -0.0001   -0.0000    0.0000    0.0000   -0.0017   -0.0000    0.0016
       44 NB     9d2-      -0.0000    0.0000   -0.0000    0.0001    0.0000   -0.0000   -0.0000    0.0008    0.0000   -0.0013
       45 NB    10d2-      -0.0000    0.0000   -0.0000    0.0002    0.0000   -0.0000    0.0000   -0.0001   -0.0000   -0.0011
       46 NB     3d1-       0.0000   -0.0000   -0.0000    0.0000    0.0000   -0.0000   -0.0000    0.0001   -0.0000    0.9742
       47 NB     4d1-      -0.0000   -0.0000    0.0000   -0.0000   -0.0000    0.0000    0.0000   -0.0000    0.0000   -0.0950
       48 NB     5d1-       0.0000    0.0000   -0.0000    0.0000    0.0000   -0.0000   -0.0000    0.0000   -0.0000    0.0961
       49 NB     6d1-      -0.0000   -0.0000    0.0000   -0.0000   -0.0000    0.0000    0.0000   -0.0000    0.0000   -0.0845
       50 NB     7d1-       0.0000    0.0000   -0.0000    0.0000    0.0000   -0.0000   -0.0000    0.0000   -0.0000    0.0755
       51 NB     8d1-      -0.0000   -0.0000    0.0000   -0.0000    0.0000    0.0000    0.0000   -0.0000    0.0000   -0.0949
       52 NB     9d1-       0.0000    0.0000   -0.0000    0.0000   -0.0000   -0.0000   -0.0000    0.0000   -0.0000    0.0769
       53 NB    10d1-       0.0000    0.0000   -0.0000    0.0000   -0.0000   -0.0000    0.0000   -0.0000   -0.0000    0.0674
       54 NB     3d0        0.0000    0.0000    0.0000    0.0000   -0.0003   -0.0006    0.0002    0.0000   -0.0370    0.0000
       55 NB     4d0       -0.0000   -0.0000   -0.0000   -0.0000    0.0001    0.0000   -0.0000   -0.0000    0.0021   -0.0000
       56 NB     5d0        0.0000    0.0000    0.0000    0.0000   -0.0001    0.0000    0.0000    0.0000   -0.0020    0.0000
       57 NB     6d0       -0.0000   -0.0000   -0.0000   -0.0000    0.0001   -0.0000   -0.0000   -0.0000    0.0016   -0.0000
       58 NB     7d0        0.0000    0.0000    0.0000    0.0000   -0.0000    0.0000    0.0000    0.0000   -0.0012    0.0000
       59 NB     8d0       -0.0000   -0.0000   -0.0000   -0.0000    0.0001   -0.0000   -0.0000   -0.0000    0.0011   -0.0000
       60 NB     9d0        0.0000    0.0000    0.0000    0.0000   -0.0001    0.0000    0.0000    0.0000   -0.0005    0.0000
       61 NB    10d0        0.0000    0.0000    0.0000    0.0000   -0.0001    0.0000    0.0000    0.0000    0.0000    0.0000
       62 NB     3d1+      -0.0000   -0.0000    0.0005    0.0000    0.0000   -0.0000    0.0606    0.0000    0.0003    0.0000
       63 NB     4d1+       0.0000    0.0000   -0.0001   -0.0000   -0.0000    0.0000   -0.0035   -0.0000   -0.0000   -0.0000
       64 NB     5d1+      -0.0000   -0.0000    0.0001    0.0000    0.0000   -0.0000    0.0032    0.0000    0.0000    0.0000
       65 NB     6d1+       0.0000    0.0000   -0.0001   -0.0000   -0.0000   -0.0000   -0.0026   -0.0000   -0.0000   -0.0000
       66 NB     7d1+      -0.0000   -0.0000    0.0001    0.0000    0.0000    0.0000    0.0020    0.0000    0.0000    0.0000
       67 NB     8d1+       0.0000    0.0000   -0.0001   -0.0000   -0.0000   -0.0000   -0.0017   -0.0000   -0.0000   -0.0000
       68 NB     9d1+      -0.0000   -0.0000    0.0001    0.0000    0.0000    0.0000    0.0008    0.0000    0.0000    0.0000
       69 NB    10d1+      -0.0000   -0.0000    0.0002    0.0000    0.0000    0.0000   -0.0001   -0.0000   -0.0000    0.0000
       70 NB     3d2+      -0.0000   -0.0000   -0.0000   -0.0000    0.0005    0.0010   -0.0002   -0.0000    0.0641    0.0000
       71 NB     4d2+       0.0000    0.0000    0.0000    0.0000   -0.0001   -0.0000    0.0000    0.0000   -0.0036   -0.0000
       72 NB     5d2+      -0.0000   -0.0000   -0.0000   -0.0000    0.0001   -0.0000   -0.0000   -0.0000    0.0034    0.0000
       73 NB     6d2+       0.0000    0.0000    0.0000    0.0000   -0.0001    0.0000    0.0000    0.0000   -0.0027   -0.0000
       74 NB     7d2+      -0.0000   -0.0000   -0.0000   -0.0000    0.0001   -0.0000   -0.0000   -0.0000    0.0021    0.0000
       75 NB     8d2+       0.0000    0.0000    0.0000    0.0000   -0.0001    0.0000    0.0000    0.0000   -0.0019   -0.0000
       76 NB     9d2+      -0.0000   -0.0000   -0.0000   -0.0000    0.0001   -0.0000   -0.0000   -0.0000    0.0009    0.0000
       77 NB    10d2+      -0.0000   -0.0000   -0.0000   -0.0000    0.0001   -0.0000    0.0000    0.0000   -0.0000    0.0000
       78 NB     4f3-      -0.0000    0.0000    0.0000   -0.0000   -0.0000    0.0000    0.0000   -0.0000    0.0000   -0.0001
       79 NB     5f3-       0.0000    0.0000    0.0000   -0.0000   -0.0000    0.0000    0.0000   -0.0000   -0.0000   -0.0001
       80 NB     6f3-      -0.0000   -0.0000   -0.0000    0.0000    0.0000   -0.0000   -0.0000    0.0000    0.0000    0.0001
       81 NB     7f3-       0.0000    0.0000    0.0000   -0.0000   -0.0000    0.0000    0.0000   -0.0000   -0.0000   -0.0001
       82 NB     8f3-      -0.0000   -0.0000    0.0000   -0.0000   -0.0000   -0.0000    0.0000   -0.0000   -0.0000   -0.0001
       83 NB     4f2-      -0.0000    0.0000    0.0000   -0.0000   -0.0000   -0.0000    0.0000   -0.0000   -0.0000    0.0029
       84 NB     5f2-      -0.0000    0.0000    0.0000   -0.0000   -0.0000    0.0000    0.0000   -0.0000   -0.0000    0.0033
       85 NB     6f2-       0.0000   -0.0000   -0.0000    0.0000    0.0000   -0.0000   -0.0000    0.0000    0.0000   -0.0033
       86 NB     7f2-      -0.0000    0.0000    0.0000   -0.0000   -0.0000    0.0000    0.0000   -0.0000   -0.0000    0.0031
       87 NB     8f2-      -0.0000    0.0000    0.0000   -0.0000   -0.0000   -0.0000    0.0000   -0.0000   -0.0000    0.0021
       88 NB     4f1-      -0.0000    0.0000   -0.0000    0.0000    0.0000    0.0000   -0.0000    0.0000   -0.0000    0.0000
       89 NB     5f1-      -0.0000   -0.0000   -0.0000    0.0000   -0.0000    0.0000   -0.0000    0.0000    0.0000    0.0000
       90 NB     6f1-       0.0000    0.0000    0.0000   -0.0000    0.0000   -0.0000    0.0000   -0.0000   -0.0000   -0.0000
       91 NB     7f1-      -0.0000   -0.0000   -0.0000    0.0000    0.0000   -0.0000   -0.0000    0.0000    0.0000    0.0000
       92 NB     8f1-      -0.0000   -0.0000   -0.0000    0.0000    0.0000    0.0000   -0.0000    0.0000    0.0000    0.0000
       93 NB     4f0       -0.0000   -0.0000    0.0000    0.0000    0.0000    0.0000   -0.0000   -0.0000    0.0000   -0.0000
       94 NB     5f0        0.0000    0.0000    0.0000    0.0000    0.0000    0.0000   -0.0000   -0.0000    0.0000   -0.0000
       95 NB     6f0        0.0000    0.0000   -0.0000   -0.0000   -0.0000   -0.0000   -0.0000   -0.0000   -0.0000    0.0000
       96 NB     7f0       -0.0000   -0.0000    0.0000    0.0000    0.0000    0.0000    0.0000    0.0000    0.0000   -0.0000
       97 NB     8f0        0.0000    0.0000    0.0000    0.0000    0.0000    0.0000    0.0000    0.0000    0.0000   -0.0000
       98 NB     4f1+       0.0000   -0.0000    0.0000    0.0000    0.0000   -0.0001    0.0000    0.0000    0.0000    0.0000
       99 NB     5f1+       0.0000   -0.0000    0.0000    0.0000    0.0000   -0.0001    0.0000    0.0000    0.0001    0.0000
      100 NB     6f1+      -0.0000    0.0000   -0.0000   -0.0000   -0.0000    0.0001   -0.0000   -0.0000   -0.0001   -0.0000
      101 NB     7f1+       0.0000   -0.0000    0.0000    0.0000    0.0000   -0.0001    0.0000    0.0000    0.0001    0.0000
      102 NB     8f1+       0.0000   -0.0000    0.0000    0.0000    0.0000   -0.0000    0.0000    0.0000    0.0000    0.0000
      103 NB     4f2+      -0.0000   -0.0000   -0.0000   -0.0000    0.0000    0.0000   -0.0000   -0.0000    0.0000    0.0000
      104 NB     5f2+       0.0000    0.0000   -0.0000   -0.0000    0.0000    0.0000    0.0000    0.0000    0.0000    0.0000
      105 NB     6f2+       0.0000    0.0000    0.0000    0.0000   -0.0000   -0.0000    0.0000    0.0000   -0.0000   -0.0000
      106 NB     7f2+      -0.0000   -0.0000   -0.0000   -0.0000    0.0000    0.0000   -0.0000   -0.0000    0.0000    0.0000
      107 NB     8f2+       0.0000    0.0000   -0.0000   -0.0000    0.0000    0.0000   -0.0000   -0.0000    0.0000    0.0000
      108 NB     4f3+      -0.0000    0.0000    0.0000    0.0000   -0.0000    0.0001    0.0000    0.0000   -0.0001    0.0000
      109 NB     5f3+      -0.0000    0.0000    0.0000    0.0000   -0.0000    0.0001    0.0000    0.0000   -0.0001    0.0000
      110 NB     6f3+       0.0000   -0.0000   -0.0000   -0.0000    0.0000   -0.0001   -0.0000   -0.0000    0.0001   -0.0000
      111 NB     7f3+      -0.0000    0.0000    0.0000    0.0000   -0.0000    0.0001    0.0000    0.0000   -0.0001    0.0000
      112 NB     8f3+      -0.0000    0.0000    0.0000    0.0000   -0.0000    0.0000    0.0000    0.0000   -0.0001    0.0000
      113 NB     5g4-      -0.0000   -0.0000   -0.0000    0.0000    0.0000   -0.0000   -0.0000    0.0001    0.0000    0.0000
      114 NB     6g4-       0.0000    0.0000    0.0000   -0.0000   -0.0000    0.0000    0.0000   -0.0001   -0.0000   -0.0000
      115 NB     7g4-      -0.0000    0.0000   -0.0000    0.0000    0.0000   -0.0000   -0.0000    0.0001    0.0000    0.0000
      116 NB     8g4-       0.0000   -0.0000    0.0000   -0.0000   -0.0000   -0.0000    0.0000   -0.0001   -0.0000   -0.0000
      117 NB     5g3-       0.0000   -0.0000   -0.0000    0.0000   -0.0000    0.0000    0.0000   -0.0000   -0.0000   -0.0001
      118 NB     6g3-      -0.0000    0.0000   -0.0000    0.0000   -0.0000   -0.0000   -0.0000    0.0000    0.0000    0.0001
      119 NB     7g3-       0.0000   -0.0000    0.0000   -0.0000   -0.0000    0.0000    0.0000   -0.0000   -0.0000   -0.0001
      120 NB     8g3-      -0.0000   -0.0000   -0.0000    0.0000    0.0000   -0.0000   -0.0000    0.0000    0.0000    0.0002
      121 NB     5g2-      -0.0000    0.0000    0.0000   -0.0000    0.0000   -0.0000    0.0000   -0.0000   -0.0000   -0.0000
      122 NB     6g2-       0.0000   -0.0000   -0.0000    0.0000    0.0000    0.0000   -0.0000    0.0000    0.0000    0.0000
      123 NB     7g2-      -0.0000    0.0000    0.0000   -0.0000   -0.0000   -0.0000    0.0000   -0.0000   -0.0000   -0.0000
      124 NB     8g2-       0.0000   -0.0000   -0.0000    0.0000    0.0000    0.0000   -0.0000    0.0000    0.0000    0.0000
      125 NB     5g1-       0.0000    0.0000    0.0000   -0.0000   -0.0000    0.0000   -0.0000    0.0000    0.0000    0.0000
      126 NB     6g1-      -0.0000   -0.0000    0.0000   -0.0000   -0.0000   -0.0000    0.0000   -0.0000    0.0000   -0.0000
      127 NB     7g1-       0.0000   -0.0000   -0.0000    0.0000    0.0000    0.0000   -0.0000    0.0000    0.0000    0.0000
      128 NB     8g1-      -0.0000    0.0000    0.0000   -0.0000   -0.0000    0.0000    0.0000   -0.0000    0.0000   -0.0001
      129 NB     5g0       -0.0000   -0.0000   -0.0000   -0.0000    0.0000   -0.0000   -0.0000   -0.0000    0.0000    0.0000
      130 NB     6g0        0.0000    0.0000    0.0000    0.0000   -0.0000    0.0000    0.0000    0.0000   -0.0000   -0.0000
      131 NB     7g0        0.0000    0.0000   -0.0000   -0.0000    0.0000   -0.0000   -0.0000   -0.0000    0.0000    0.0000
      132 NB     8g0        0.0000    0.0000    0.0000    0.0000   -0.0000    0.0000    0.0000    0.0000   -0.0000   -0.0000
      133 NB     5g1+      -0.0000    0.0000   -0.0000   -0.0000    0.0000    0.0000   -0.0000   -0.0000    0.0000    0.0000
      134 NB     6g1+      -0.0000   -0.0000    0.0000    0.0000   -0.0000   -0.0000    0.0001    0.0000   -0.0000   -0.0000
      135 NB     7g1+      -0.0000    0.0000   -0.0000   -0.0000    0.0000    0.0000   -0.0001   -0.0000    0.0000    0.0000
      136 NB     8g1+       0.0000   -0.0000    0.0000    0.0000   -0.0000   -0.0000    0.0001    0.0000   -0.0000   -0.0000
      137 NB     5g2+       0.0000    0.0000   -0.0000   -0.0000   -0.0000    0.0000    0.0000    0.0000   -0.0000   -0.0000
      138 NB     6g2+      -0.0000   -0.0000   -0.0000   -0.0000    0.0000   -0.0000   -0.0000   -0.0000    0.0001    0.0000
      139 NB     7g2+      -0.0000   -0.0000    0.0000    0.0000   -0.0000    0.0000    0.0000    0.0000   -0.0001   -0.0000
      140 NB     8g2+      -0.0000   -0.0000   -0.0000   -0.0000    0.0000   -0.0000   -0.0000   -0.0000    0.0001    0.0000
      141 NB     5g3+      -0.0000    0.0000    0.0000    0.0000    0.0000    0.0000    0.0000    0.0000    0.0000   -0.0000
      142 NB     6g3+      -0.0000   -0.0000   -0.0000   -0.0000   -0.0000   -0.0000   -0.0000   -0.0000   -0.0000    0.0000
      143 NB     7g3+      -0.0000    0.0000    0.0000    0.0000    0.0000    0.0000    0.0001    0.0000    0.0000   -0.0000
      144 NB     8g3+       0.0000   -0.0000   -0.0000   -0.0000   -0.0000   -0.0000   -0.0001   -0.0000   -0.0000    0.0000
      145 NB     5g4+      -0.0000   -0.0000   -0.0000   -0.0000    0.0000   -0.0000    0.0000    0.0000    0.0001   -0.0000
      146 NB     6g4+       0.0000    0.0000   -0.0000   -0.0000   -0.0000    0.0000   -0.0000   -0.0000   -0.0001    0.0000
      147 NB     7g4+       0.0000    0.0000    0.0000    0.0000    0.0000   -0.0000    0.0000    0.0000    0.0001   -0.0000
      148 NB     8g4+       0.0000    0.0000   -0.0000   -0.0000   -0.0000    0.0000   -0.0000   -0.0000   -0.0001    0.0000
      149 NB     6h5-       0.0000   -0.0000    0.0000   -0.0000    0.0000   -0.0000    0.0000   -0.0000   -0.0000    0.0000
      150 NB     7h5-      -0.0000    0.0000   -0.0000    0.0000   -0.0000    0.0000   -0.0000    0.0000    0.0000   -0.0000
      151 NB     6h4-       0.0000    0.0000   -0.0000    0.0000    0.0000   -0.0000   -0.0000    0.0000    0.0000    0.0000
      152 NB     7h4-       0.0000    0.0000    0.0000   -0.0000   -0.0000   -0.0000    0.0000   -0.0000   -0.0000   -0.0001
      153 NB     6h3-      -0.0000    0.0000   -0.0000    0.0000    0.0000   -0.0000   -0.0000    0.0000   -0.0000   -0.0000
      154 NB     7h3-       0.0000   -0.0000   -0.0000    0.0000   -0.0000    0.0000    0.0000   -0.0000    0.0000    0.0000
      155 NB     6h2-      -0.0000   -0.0000    0.0000   -0.0000    0.0000    0.0000   -0.0000    0.0000    0.0000   -0.0000
      156 NB     7h2-      -0.0000   -0.0000    0.0000   -0.0000   -0.0000    0.0000    0.0000   -0.0000   -0.0000    0.0000
      157 NB     6h1-       0.0000   -0.0000    0.0000   -0.0000   -0.0000    0.0000    0.0000   -0.0000    0.0000   -0.0000
      158 NB     7h1-      -0.0000    0.0000   -0.0000    0.0000    0.0000    0.0000   -0.0000    0.0000    0.0000   -0.0000
      159 NB     6h0        0.0000   -0.0000   -0.0000   -0.0000   -0.0000   -0.0000   -0.0000   -0.0000   -0.0000   -0.0000
      160 NB     7h0        0.0000    0.0000   -0.0000   -0.0000    0.0000    0.0000    0.0000    0.0000    0.0000    0.0000
      161 NB     6h1+       0.0000    0.0000    0.0000    0.0000   -0.0000   -0.0000    0.0000    0.0000   -0.0000   -0.0000
      162 NB     7h1+       0.0000    0.0000   -0.0000   -0.0000    0.0000    0.0000   -0.0000   -0.0000    0.0000    0.0000
      163 NB     6h2+      -0.0000    0.0000    0.0000    0.0000    0.0000    0.0000    0.0000    0.0000    0.0000   -0.0000
      164 NB     7h2+      -0.0000   -0.0000   -0.0000   -0.0000   -0.0000   -0.0000   -0.0000   -0.0000   -0.0000   -0.0000
      165 NB     6h3+      -0.0000   -0.0000    0.0000    0.0000    0.0000    0.0000    0.0000    0.0000    0.0000    0.0000
      166 NB     7h3+      -0.0000   -0.0000   -0.0000   -0.0000   -0.0000   -0.0000   -0.0000   -0.0000   -0.0000   -0.0000
      167 NB     6h4+      -0.0000    0.0000   -0.0000   -0.0000    0.0000    0.0000   -0.0000   -0.0000    0.0000   -0.0000
      168 NB     7h4+      -0.0000   -0.0000    0.0000    0.0000   -0.0000   -0.0000    0.0000    0.0000   -0.0000    0.0000
      169 NB     6h5+       0.0000    0.0000   -0.0000   -0.0000   -0.0000   -0.0000    0.0000    0.0000   -0.0000    0.0000
      170 NB     7h5+       0.0000    0.0000   -0.0000   -0.0000    0.0000    0.0000   -0.0000   -0.0000    0.0000   -0.0000

          Orbital           11        12        13        14    
          Energy          -21.3913  -21.3462  -21.3461  -21.3263
          Occ. No.          0.0000    0.0000    0.0000    0.0000

        1 NB     1s        -0.0000    0.0000   -0.0000   -0.0000
        2 NB     2s         0.0000   -0.0000   -0.0000    0.0002
        3 NB     3s         0.0000   -0.0000    0.0000    0.0073
        4 NB     4s        -0.0000   -0.0000   -0.0000   -0.0019
        5 NB     5s        -0.0000    0.0000    0.0000    0.0004
        6 NB     6s         0.0000   -0.0000   -0.0000   -0.0005
        7 NB     7s         0.0000    0.0000    0.0000    0.0013
        8 NB     8s        -0.0000   -0.0000    0.0000   -0.0011
        9 NB     9s         0.0000    0.0000    0.0000    0.0011
       10 NB    10s        -0.0000    0.0000   -0.0000   -0.0005
       11 NB     2px       -0.0000    0.0000    0.0000   -0.0018
       12 NB     3px       -0.0000    0.0003    0.0000   -0.0703
       13 NB     4px        0.0000   -0.0001   -0.0000    0.0140
       14 NB     5px       -0.0000    0.0000    0.0000   -0.0045
       15 NB     6px        0.0000   -0.0000   -0.0000    0.0107
       16 NB     7px       -0.0000    0.0000    0.0000   -0.0087
       17 NB     8px        0.0000   -0.0000   -0.0000    0.0087
       18 NB     9px       -0.0000    0.0000    0.0000   -0.0064
       19 NB    10px        0.0000   -0.0000   -0.0000    0.0027
       20 NB     2py       -0.0000    0.0000   -0.0015   -0.0000
       21 NB     3py       -0.0000    0.0000   -0.0579    0.0000
       22 NB     4py        0.0000   -0.0000    0.0114   -0.0000
       23 NB     5py       -0.0000    0.0000   -0.0036    0.0000
       24 NB     6py        0.0000   -0.0000    0.0087   -0.0000
       25 NB     7py       -0.0000    0.0000   -0.0071    0.0000
       26 NB     8py        0.0000   -0.0000    0.0071   -0.0000
       27 NB     9py       -0.0000    0.0000   -0.0052    0.0000
       28 NB    10py        0.0000   -0.0000    0.0022   -0.0000
       29 NB     2pz       -0.0000   -0.0015   -0.0000   -0.0000
       30 NB     3pz       -0.0007   -0.0579   -0.0000   -0.0003
       31 NB     4pz        0.0001    0.0114    0.0000    0.0001
       32 NB     5pz       -0.0000   -0.0036   -0.0000   -0.0000
       33 NB     6pz        0.0001    0.0087    0.0000    0.0000
       34 NB     7pz       -0.0001   -0.0071   -0.0000   -0.0000
       35 NB     8pz        0.0001    0.0071    0.0000    0.0000
       36 NB     9pz       -0.0001   -0.0052   -0.0000   -0.0000
       37 NB    10pz        0.0000    0.0022    0.0000    0.0000
       38 NB     3d2-       0.0000   -0.0000    0.9721   -0.0000
       39 NB     4d2-      -0.0000    0.0000   -0.0952    0.0000
       40 NB     5d2-       0.0000   -0.0000    0.0964   -0.0000
       41 NB     6d2-      -0.0000    0.0000   -0.0848    0.0000
       42 NB     7d2-       0.0000   -0.0000    0.0758   -0.0000
       43 NB     8d2-      -0.0000    0.0000   -0.0954    0.0000
       44 NB     9d2-       0.0000   -0.0000    0.0775   -0.0000
       45 NB    10d2-       0.0000   -0.0000    0.0681   -0.0000
       46 NB     3d1-      -0.0000   -0.0000    0.0164    0.0000
       47 NB     4d1-       0.0000    0.0000   -0.0016   -0.0000
       48 NB     5d1-      -0.0000   -0.0000    0.0017    0.0000
       49 NB     6d1-       0.0000    0.0000   -0.0015   -0.0000
       50 NB     7d1-      -0.0000   -0.0000    0.0013    0.0000
       51 NB     8d1-       0.0000    0.0000   -0.0016   -0.0000
       52 NB     9d1-      -0.0000   -0.0000    0.0013    0.0000
       53 NB    10d1-      -0.0000   -0.0000    0.0011    0.0000
       54 NB     3d0        0.8437   -0.0052   -0.0000   -0.4857
       55 NB     4d0       -0.0823    0.0005    0.0000    0.0477
       56 NB     5d0        0.0832   -0.0005   -0.0000   -0.0483
       57 NB     6d0       -0.0732    0.0005    0.0000    0.0425
       58 NB     7d0        0.0654   -0.0004   -0.0000   -0.0380
       59 NB     8d0       -0.0821    0.0005    0.0000    0.0479
       60 NB     9d0        0.0666   -0.0004   -0.0000   -0.0389
       61 NB    10d0        0.0584   -0.0004   -0.0000   -0.0342
       62 NB     3d1+       0.0093    0.9721    0.0000    0.0057
       63 NB     4d1+      -0.0009   -0.0952   -0.0000   -0.0006
       64 NB     5d1+       0.0009    0.0964    0.0000    0.0006
       65 NB     6d1+      -0.0008   -0.0848   -0.0000   -0.0005
       66 NB     7d1+       0.0007    0.0758    0.0000    0.0004
       67 NB     8d1+      -0.0009   -0.0954   -0.0000   -0.0006
       68 NB     9d1+       0.0007    0.0775    0.0000    0.0005
       69 NB    10d1+       0.0006    0.0681    0.0000    0.0004
       70 NB     3d2+       0.4873   -0.0096   -0.0000    0.8409
       71 NB     4d2+      -0.0475    0.0010    0.0000   -0.0826
       72 NB     5d2+       0.0481   -0.0010   -0.0000    0.0836
       73 NB     6d2+      -0.0423    0.0008    0.0000   -0.0736
       74 NB     7d2+       0.0378   -0.0008   -0.0000    0.0658
       75 NB     8d2+      -0.0474    0.0010    0.0000   -0.0829
       76 NB     9d2+       0.0385   -0.0008   -0.0000    0.0674
       77 NB    10d2+       0.0337   -0.0007   -0.0000    0.0592
       78 NB     4f3-       0.0000   -0.0000    0.0037   -0.0000
       79 NB     5f3-       0.0000   -0.0000    0.0042   -0.0000
       80 NB     6f3-      -0.0000    0.0000   -0.0042    0.0000
       81 NB     7f3-       0.0000   -0.0000    0.0040   -0.0000
       82 NB     8f3-       0.0000   -0.0000    0.0026   -0.0000
       83 NB     4f2-      -0.0000   -0.0000    0.0000    0.0000
       84 NB     5f2-      -0.0000   -0.0000    0.0000    0.0000
       85 NB     6f2-       0.0000    0.0000   -0.0000   -0.0000
       86 NB     7f2-      -0.0000   -0.0000    0.0000    0.0000
       87 NB     8f2-      -0.0000   -0.0000    0.0000    0.0000
       88 NB     4f1-      -0.0000    0.0000   -0.0010    0.0000
       89 NB     5f1-      -0.0000    0.0000   -0.0011    0.0000
       90 NB     6f1-       0.0000   -0.0000    0.0011   -0.0000
       91 NB     7f1-      -0.0000    0.0000   -0.0010    0.0000
       92 NB     8f1-      -0.0000    0.0000   -0.0007    0.0000
       93 NB     4f0       -0.0000   -0.0023   -0.0000   -0.0000
       94 NB     5f0       -0.0000   -0.0027   -0.0000   -0.0000
       95 NB     6f0        0.0000    0.0026    0.0000    0.0000
       96 NB     7f0       -0.0000   -0.0025   -0.0000   -0.0000
       97 NB     8f0       -0.0000   -0.0017   -0.0000    0.0000
       98 NB     4f1+       0.0023    0.0000    0.0000   -0.0025
       99 NB     5f1+       0.0026    0.0000    0.0000   -0.0029
      100 NB     6f1+      -0.0026   -0.0000   -0.0000    0.0028
      101 NB     7f1+       0.0025    0.0000    0.0000   -0.0027
      102 NB     8f1+       0.0017    0.0000   -0.0000   -0.0018
      103 NB     4f2+       0.0000    0.0030    0.0000    0.0000
      104 NB     5f2+       0.0001    0.0035    0.0000    0.0000
      105 NB     6f2+      -0.0001   -0.0034   -0.0000   -0.0000
      106 NB     7f2+       0.0000    0.0033    0.0000    0.0000
      107 NB     8f2+       0.0000    0.0021    0.0000    0.0000
      108 NB     4f3+       0.0018   -0.0000   -0.0000    0.0033
      109 NB     5f3+       0.0020   -0.0000   -0.0000    0.0037
      110 NB     6f3+      -0.0020    0.0000    0.0000   -0.0036
      111 NB     7f3+       0.0019   -0.0000   -0.0000    0.0035
      112 NB     8f3+       0.0013   -0.0000   -0.0000    0.0023
      113 NB     5g4-      -0.0000    0.0000   -0.0001    0.0000
      114 NB     6g4-       0.0000   -0.0000    0.0001   -0.0000
      115 NB     7g4-      -0.0000    0.0000   -0.0002    0.0000
      116 NB     8g4-       0.0000   -0.0000    0.0004   -0.0000
      117 NB     5g3-       0.0000    0.0000   -0.0000   -0.0000
      118 NB     6g3-      -0.0000   -0.0000    0.0000   -0.0000
      119 NB     7g3-       0.0000    0.0000   -0.0000   -0.0000
      120 NB     8g3-      -0.0000   -0.0000    0.0000    0.0000
      121 NB     5g2-       0.0000   -0.0000    0.0000   -0.0000
      122 NB     6g2-      -0.0000    0.0000   -0.0001    0.0000
      123 NB     7g2-       0.0000   -0.0000    0.0001   -0.0000
      124 NB     8g2-      -0.0000    0.0000   -0.0001    0.0000
      125 NB     5g1-      -0.0000   -0.0000    0.0000   -0.0000
      126 NB     6g1-       0.0000    0.0000   -0.0000    0.0000
      127 NB     7g1-      -0.0000   -0.0000    0.0000    0.0000
      128 NB     8g1-       0.0000    0.0000   -0.0000    0.0000
      129 NB     5g0        0.0000   -0.0000   -0.0000   -0.0001
      130 NB     6g0       -0.0001    0.0000    0.0000    0.0001
      131 NB     7g0        0.0001   -0.0000   -0.0000   -0.0001
      132 NB     8g0       -0.0001   -0.0000   -0.0000    0.0002
      133 NB     5g1+       0.0000    0.0001    0.0000    0.0000
      134 NB     6g1+      -0.0000   -0.0001   -0.0000   -0.0000
      135 NB     7g1+       0.0000    0.0002    0.0000   -0.0000
      136 NB     8g1+      -0.0000   -0.0003   -0.0000   -0.0000
      137 NB     5g2+      -0.0000    0.0000    0.0000    0.0001
      138 NB     6g2+       0.0000   -0.0000   -0.0000   -0.0001
      139 NB     7g2+      -0.0001    0.0000    0.0000    0.0002
      140 NB     8g2+       0.0001   -0.0000   -0.0000   -0.0003
      141 NB     5g3+      -0.0000   -0.0001   -0.0000    0.0000
      142 NB     6g3+       0.0000    0.0001    0.0000    0.0000
      143 NB     7g3+      -0.0000   -0.0002   -0.0000   -0.0000
      144 NB     8g3+       0.0000    0.0003    0.0000   -0.0000
      145 NB     5g4+      -0.0000    0.0000    0.0000   -0.0001
      146 NB     6g4+       0.0001   -0.0000   -0.0000    0.0002
      147 NB     7g4+      -0.0001    0.0000    0.0000   -0.0003
      148 NB     8g4+       0.0002   -0.0000   -0.0000    0.0004
      149 NB     6h5-      -0.0000   -0.0000    0.0000   -0.0000
      150 NB     7h5-       0.0000    0.0000   -0.0001    0.0000
      151 NB     6h4-      -0.0000    0.0000   -0.0000   -0.0000
      152 NB     7h4-       0.0000   -0.0000    0.0000   -0.0000
      153 NB     6h3-       0.0000    0.0000   -0.0000    0.0000
      154 NB     7h3-      -0.0000   -0.0000    0.0000   -0.0000
      155 NB     6h2-       0.0000   -0.0000    0.0000    0.0000
      156 NB     7h2-      -0.0000    0.0000   -0.0000    0.0000
      157 NB     6h1-       0.0000   -0.0000    0.0000   -0.0000
      158 NB     7h1-       0.0000    0.0000   -0.0000   -0.0000
      159 NB     6h0       -0.0000    0.0000    0.0000   -0.0000
      160 NB     7h0        0.0000   -0.0000   -0.0000    0.0000
      161 NB     6h1+      -0.0000   -0.0000   -0.0000    0.0000
      162 NB     7h1+       0.0000    0.0000    0.0000   -0.0000
      163 NB     6h2+      -0.0000   -0.0000   -0.0000    0.0000
      164 NB     7h2+      -0.0000    0.0000    0.0000   -0.0000
      165 NB     6h3+       0.0000    0.0000    0.0000   -0.0000
      166 NB     7h3+      -0.0000   -0.0000   -0.0000    0.0000
      167 NB     6h4+      -0.0000    0.0000    0.0000    0.0000
      168 NB     7h4+       0.0000   -0.0000   -0.0000   -0.0000
      169 NB     6h5+       0.0000    0.0000    0.0000    0.0001
      170 NB     7h5+      -0.0000   -0.0000   -0.0000   -0.0001
--


++    Molecular charges:
      ------------------

      Mulliken charges per centre and basis function type
      ---------------------------------------------------

                NB    
      1s       2.0000
      2s       2.0000
      2px      2.0000
      2pz      2.0000
      2py      2.0000
      3s       1.9550
      3px      1.9280
      3pz      1.9323
      3py      1.9323
      4s       0.0199
      3d2+     0.0082
      3d1+     0.0074
      3d0      0.0027
      3d1-     0.0000
      3d2-     0.0074
      4px      0.0229
      4pz      0.0227
      4py      0.0227
      5s       0.0010
      4d2+     0.0000
      4d1+     0.0000
      4d0      0.0000
      4d1-     0.0000
      4d2-     0.0000
      5px      0.0022
      5pz      0.0022
      5py      0.0022
      6s       0.0015
      4f3+     0.0000
      4f2+     0.0000
      4f1+     0.0000
      4f0      0.0000
      4f1-     0.0000
      4f2-     0.0000
      4f3-     0.0000
      5d2+     0.0000
      5d1+     0.0000
      5d0      0.0000
      5d1-     0.0000
      5d2-     0.0000
      6px      0.0129
      6pz      0.0128
      6py      0.0128
      7s       0.0090
      5f3+     0.0000
      5f2+     0.0000
      5f1+     0.0000
      5f0      0.0000
      5f1-     0.0000
      5f2-     0.0000
      5f3-     0.0000
      6d2+     0.0000
      6d1+     0.0000
      6d0      0.0000
      6d1-     0.0000
      6d2-     0.0000
      7px      0.0084
      7pz      0.0082
      7py      0.0082
      5g4+     0.0000
      5g3+     0.0000
      5g2+     0.0000
      5g1+     0.0000
      5g0      0.0000
      5g1-     0.0000
      5g2-     0.0000
      5g3-     0.0000
      5g4-     0.0000
      6f3+     0.0000
      6f2+     0.0000
      6f1+     0.0000
      6f0      0.0000
      6f1-     0.0000
      6f2-     0.0000
      6f3-     0.0000
      6g4+     0.0000
      6g3+     0.0000
      6g2+     0.0000
      6g1+     0.0000
      6g0      0.0000
      6g1-     0.0000
      6g2-     0.0000
      6g3-     0.0000
      6g4-     0.0000
      6h5+     0.0000
      6h4+     0.0000
      6h3+     0.0000
      6h2+     0.0000
      6h1+     0.0000
      6h0      0.0000
      6h1-     0.0000
      6h2-     0.0000
      6h3-     0.0000
      6h4-     0.0000
      6h5-     0.0000
      7d2+     0.0000
      7d1+     0.0000
      7d0      0.0000
      7d1-     0.0000
      7d2-     0.0000
      7f3+     0.0000
      7f2+     0.0000
      7f1+     0.0000
      7f0      0.0000
      7f1-     0.0000
      7f2-     0.0000
      7f3-     0.0000
      7g4+     0.0000
      7g3+     0.0000
      7g2+     0.0000
      7g1+     0.0000
      7g0      0.0000
      7g1-     0.0000
      7g2-     0.0000
      7g3-     0.0000
      7g4-     0.0000
      7h5+     0.0000
      7h4+     0.0000
      7h3+     0.0000
      7h2+     0.0000
      7h1+     0.0000
      7h0      0.0000
      7h1-     0.0000
      7h2-     0.0000
      7h3-     0.0000
      7h4-     0.0000
      7h5-     0.0000
      8s       0.0058
      8px      0.0087
      8pz      0.0085
      8py      0.0085
      8d2+     0.0000
      8d1+     0.0000
      8d0      0.0000
      8d1-     0.0000
      8d2-     0.0000
      8f3+     0.0000
      8f2+     0.0000
      8f1+     0.0000
      8f0      0.0000
      8f1-     0.0000
      8f2-     0.0000
      8f3-     0.0000
      8g4+     0.0000
      8g3+     0.0000
      8g2+     0.0000
      8g1+     0.0000
      8g0      0.0000
      8g1-     0.0000
      8g2-     0.0000
      8g3-     0.0000
      8g4-     0.0000
      9s       0.0061
      9px      0.0048
      9pz      0.0048
      9py      0.0048
      9d2+     0.0000
      9d1+     0.0000
      9d0      0.0000
      9d1-     0.0000
      9d2-     0.0000
     10s       0.0017
     10px      0.0011
     10pz      0.0010
     10py      0.0010
     10d2+     0.0000
     10d1+     0.0000
     10d0      0.0000
     10d1-     0.0000
     10d2-     0.0000
      Total   18.0000

      N-E     23.0000

      Total electronic charge=   18.000000

      Total            charge=   23.000000
--

 Sorry, Molden does not know how to handle
 functions with angular momentum larger than g

++    Static properties:
      ------------------


      LoProp Charges per center


                   NB    
      Nuclear     41.0000
      Electronic -18.0000

      Total       23.0000
--


++    Molecular properties:
      ---------------------

      Charge (e):
                      =   23.0000
      Dipole Moment (Debye):
      Origin of the operator (Ang)=    0.0000    0.0000    0.0000
                   X= -3.7467E-01               Y= -1.9027E-13               Z=  5.1117E-01           Total=  6.3377E-01
      Center of Charge (Ang)
                     X=   -0.00339147               Y=   -0.00000000               Z=    0.00462707
      Quadrupole Moment (Debye*Ang):
      Origin of the operator (Ang)=   -0.0000   -0.0000    0.0046
                  XX= -7.2127E-01              XY= -1.2188E-16              XZ=  1.3033E-05              YY= -7.2355E-01
                  YZ= -7.5904E-16              ZZ= -7.2355E-01
      In traceless form (Debye*Ang)
                  XX=  2.2735E-03              XY= -1.8282E-16              XZ=  1.9550E-05              YY= -1.1365E-03
                  YZ= -1.1386E-15              ZZ= -1.1369E-03
--

 Sorry, Molden does not know how to handle
 functions with angular momentum larger than g
 ###############################################################################
 ###############################################################################
 ###                                                                         ###
 ###                                                                         ###
 ###    WARNING: RunFile label nBas                                          ###
 ###    was used       62 times                                              ###
 ###                                                                         ###
 ###                                                                         ###
 ###############################################################################
 ###############################################################################
Note: The following floating-point exceptions are signalling: IEEE_UNDERFLOW_FLAG IEEE_DENORMAL
--- Stop Module: scf at Wed Mar 26 11:51:18 2025 /rc=_RC_ALL_IS_WELL_ ---
*** files: niobium_so_cf.LprOrb niobium_so_cf.ScfOrb xmldump
    saved to directory /home4/s4752295/Internship/Initial_simulations/Point_charge_model/1_electron/Madelung_charges_9_active_space/Nb
--- Module scf spent 6 seconds ---

*** symbolic link created: INPORB -> niobium_so_cf.ScfOrb
--- Start Module: rasscf at Wed Mar 26 11:51:18 2025 ---

()()()()()()()()()()()()()()()()()()()()()()()()()()()()()()()()()()()()()()()()()()()()()()()()()()

                                              &RASSCF

                                   only a single process is used
                       available to each process: 4.1 GB of memory, 1 thread?
                                            pid: 3921926
()()()()()()()()()()()()()()()()()()()()()()()()()()()()()()()()()()()()()()()()()()()()()()()()()()


      Header of the ONEINT file:
      --------------------------
      
      Integrals generated by seward 4.2.0  , Wed Mar 26 11:51:04 2025


      OrdInt status: non-squared


      Cartesian coordinates in Angstrom:
      -----------------------------------------------------
      No.  Label        X            Y            Z        
      -----------------------------------------------------
       1   NB        -0.00000000  -0.00000000   0.00463220
      -----------------------------------------------------
      Nuclear repulsion energy = -625.17889630

++    Wave function specifications:
      -----------------------------

      Number of closed shell electrons          18
      Number of electrons in active shells       1
      Max number of holes in RAS1 space          0
      Max nr of electrons in RAS3 space          0
      Number of inactive orbitals                9
      Number of active orbitals                  9
      Number of secondary orbitals             152
      Spin quantum number                      0.5
      State symmetry                             1
--

++    Orbital specifications:
      -----------------------

      Symmetry species                           1
                                                 a
      Frozen orbitals                            0
      Inactive orbitals                          9
      Active orbitals                            9
      RAS1 orbitals                              0
      RAS2 orbitals                              9
      RAS3 orbitals                              0
      Secondary orbitals                       152
      Deleted orbitals                           0
      Number of basis functions                170
--

++    CI expansion specifications:
      ----------------------------

      Number of CSFs                             9
      Number of determinants                     9
      Number of root(s) required                 9
      Root chosen for geometry opt.              9
      CI roots used                              1     2     3     4     5     6     7     8     9
      weights                                0.111 0.111 0.111 0.111 0.111 0.111 0.111 0.111 0.111
      highest root included in the CI            9
      max. size of the explicit Hamiltonian      9
--

++    Optimization specifications:
      ----------------------------

      RASSCF algorithm: Conventional
      Maximum number of macro iterations       200
      Maximum number of SX iterations          100
      Threshold for RASSCF energy            0.100E-07
      Threshold for max MO rotation          0.100E+00
      Threshold for max BLB element          0.100E-03
      Level shift parameter                  0.500E+00
      Make Quasi-Newton update
--

      The MO-coefficients are taken from the file:
      INPORB                                                                                                                          
      Title: SCF orbitals                                                                  

      Total molecular charge   22.00

      ************************************************************************************************************************
      *                                                                                                                      *
      *                                            Wave function control section                                             *
      *                                                                                                                      *
      ************************************************************************************************************************


                                         RASSCF iterations: Energy and convergence statistics
                                         ----------------------------------------------------

      Iter CI   SX   CI       RASSCF       Energy    max ROT     max BLB   max BLB  Level Ln srch  Step   QN   Walltime
          iter iter root      energy       change     param      element    value   shift minimum  type update hh:mm:ss
 Nr of preliminary CI iterations:   1
      Total energies have been shifted. Add                -3000.00 au
        1   1    5    0  -857.37509391    0.00E+00   0.97E-02    8  17 1 -0.40E+00*  0.00   0.00    SX    NO    0:00:02
        2   1    4    0  -857.39926565   -0.24E-01* -0.22E-02    8 168 1  0.30E-01*  0.00   0.00    SX    NO    0:00:01
        3   1    4    0  -857.39939169   -0.13E-03* -0.16E-02    7 169 1 -0.25E-02*  0.00   0.00    SX    NO    0:00:01
[...]
    5         0.046043       3 0.5  1.0000    9 0.5  0.0000    8 0.5  0.0000    7 0.5  0.0000    6 0.5  0.0000
    6         0.046043       3 0.5  1.0000    9 0.5  0.0000    8 0.5  0.0000    7 0.5  0.0000    6 0.5  0.0000
    7         0.046084       4 0.5  1.0000    9 0.5  0.0000    8 0.5  0.0000    7 0.5  0.0000    6 0.5  0.0000
    8         0.046084       4 0.5  1.0000    9 0.5  0.0000    8 0.5  0.0000    7 0.5  0.0000    6 0.5  0.0000
    9         0.066322       5 0.5  1.0000    9 0.5  0.0000    8 0.5  0.0000    7 0.5  0.0000    6 0.5  0.0000
   10         0.066322       5 0.5  1.0000    9 0.5  0.0000    8 0.5  0.0000    7 0.5  0.0000    6 0.5  0.0000
   11        13.958764       6 0.5  1.0000    9 0.5  0.0000    8 0.5  0.0000    7 0.5  0.0000    5 0.5  0.0000
   12        13.958764       6 0.5  1.0000    9 0.5  0.0000    8 0.5  0.0000    7 0.5  0.0000    5 0.5  0.0000
   13        15.595128       7 0.5  1.0000    9 0.5  0.0000    8 0.5  0.0000    6 0.5  0.0000    5 0.5  0.0000
   14        15.595128       7 0.5  1.0000    9 0.5  0.0000    8 0.5  0.0000    6 0.5  0.0000    5 0.5  0.0000
   15        15.596104       8 0.5  1.0000    9 0.5  0.0000    7 0.5  0.0000    6 0.5  0.0000    5 0.5  0.0000
   16        15.596104       8 0.5  1.0000    9 0.5  0.0000    7 0.5  0.0000    6 0.5  0.0000    5 0.5  0.0000
   17        16.204635       9 0.5  1.0000    8 0.5  0.0000    7 0.5  0.0000    6 0.5  0.0000    5 0.5  0.0000
   18        16.204635       9 0.5  1.0000    8 0.5  0.0000    7 0.5  0.0000    6 0.5  0.0000    5 0.5  0.0000
 -------------------------------------------------------------------------------------------------------


      ****************************************************************************************************
      *                                                                                                  *
      *                                    Special properties section                                    *
      *                                                                                                  *
      ****************************************************************************************************


++ Dipole transition strengths (SO states):
   ----------------------------------------
    for osc. strength at least    1.0000000000000001E-005

      From   To        Osc. strength     Einstein coefficients Ax, Ay, Az (sec-1)    Total A (sec-1)
     -----------------------------------------------------------------------------------------------
         1   13       1.38197382E-02  6.51217361E-10  1.07990884E+11  5.64374932E-06  1.07990884E+11
         1   15       1.38425009E-02  7.54919372E+07  5.65024959E-06  1.08106794E+11  1.08182286E+11
         2   14       1.38197382E-02  6.51217361E-10  1.07990884E+11  5.64374932E-06  1.07990884E+11
         2   16       1.38425009E-02  7.54919372E+07  5.65024959E-06  1.08106794E+11  1.08182286E+11
         3   13       1.38203145E-02  3.59193332E+07  5.64544363E-06  1.07959214E+11  1.07995133E+11
         3   15       1.38319621E-02  2.43672007E-09  1.08099668E+11  5.64991234E-06  1.08099668E+11
         4   14       1.38203145E-02  3.59193332E+07  5.64544363E-06  1.07959214E+11  1.07995133E+11
         4   16       1.38319621E-02  2.43672007E-09  1.08099668E+11  5.64991234E-06  1.08099668E+11
         5   11       3.28401873E-03  7.33686109E+05  1.76129864E-07  2.04231907E+10  2.04239244E+10
         5   13       1.70985869E-02  1.32824834E+11  1.44018081E-10  9.44812260E+03  1.32824844E+11
         5   17       7.36081765E-03  2.62976635E+06  5.33686692E-07  6.17481542E+10  6.17507840E+10
         6   12       3.28401873E-03  7.33686109E+05  1.76129864E-07  2.04231907E+10  2.04239244E+10
         6   14       1.70985869E-02  1.32824834E+11  1.44018081E-10  9.44812260E+03  1.32824844E+11
         6   18       7.36081765E-03  2.62976635E+06  5.33686692E-07  6.17481542E+10  6.17507840E+10
         7   11       3.27694129E-03  4.66850425E-14  2.03797857E+10  1.76718532E-07  2.03797857E+10
         7   15       1.70839000E-02  1.32717949E+11  1.62164742E-11  8.73613320E+06  1.32726685E+11
         7   17       7.35159672E-03  8.88812491E-16  6.16731086E+10  5.34313068E-07  6.16731086E+10
         8   12       3.27694129E-03  4.66850425E-14  2.03797857E+10  1.76718532E-07  2.03797857E+10
         8   16       1.70839000E-02  1.32717949E+11  1.62164742E-11  8.73613320E+06  1.32726685E+11
         8   18       7.35159672E-03  8.88812491E-16  6.16731086E+10  5.34313068E-07  6.16731086E+10
         9   11       4.98063599E-03  3.08846799E+10  4.34384431E-12  5.89586702E+05  3.08852695E+10
         9   13       3.81400114E-03  2.46552250E+06  2.90824255E-08  2.95481382E+10  2.95506038E+10
         9   15       3.81841361E-03  1.15328318E-11  2.95885072E+10  2.89811094E-08  2.95885072E+10
         9   17       1.58180465E-02  1.32364724E+11  1.02398599E-11  1.90052481E+06  1.32366625E+11
        10   12       4.98063599E-03  3.08846799E+10  4.34384431E-12  5.89586702E+05  3.08852695E+10
        10   14       3.81400114E-03  2.46552250E+06  2.90824255E-08  2.95481382E+10  2.95506038E+10
        10   16       3.81841361E-03  1.15328318E-11  2.95885072E+10  2.89811094E-08  2.95885072E+10
        10   18       1.58180465E-02  1.32364724E+11  1.02398599E-11  1.90052481E+06  1.32366625E+11
        11   13       1.87119307E-01  2.84326642E+04  1.57966353E-08  1.60985628E+10  1.60985913E+10
        11   15       1.87070428E-01  2.62461868E-14  1.61135746E+10  1.58385378E-08  1.61135746E+10
        11   17       1.41226674E-01  2.28872907E+10  4.03423319E-16  6.10512826E+04  2.28873517E+10
        12   14       1.87119307E-01  2.84326642E+04  1.57966353E-08  1.60985628E+10  1.60985913E+10
        12   16       1.87070428E-01  2.62461868E-14  1.61135746E+10  1.58385378E-08  1.61135746E+10
        12   18       1.41226674E-01  2.28872907E+10  4.03423319E-16  6.10512826E+04  2.28873517E+10
        13   17       1.86348483E-02  1.92035222E+03  2.19707270E-10  2.22427281E+08  2.22429201E+08
        14   18       1.86348483E-02  1.92035222E+03  2.19707270E-10  2.22427281E+08  2.22429201E+08
        15   17       1.87033525E-02  1.48968593E-15  2.22533076E+08  2.17468994E-10  2.22533076E+08
        16   18       1.87033525E-02  1.48968593E-15  2.22533076E+08  2.17468994E-10  2.22533076E+08
     -----------------------------------------------------------------------------------------------
--

++ Velocity transition strengths (SO states):
   ------------------------------------------
    for osc. strength at least    1.0000000000000001E-005

      From   To        Osc. strength     Einstein coefficients Ax, Ay, Az (sec-1)    Total A (sec-1)
     -----------------------------------------------------------------------------------------------
         1    3       1.46903278E-03  1.23169817E-23  1.59972863E-02  1.07227548E-20  1.59972863E-02
         1    5       3.10141419E-02  7.56742402E-16  2.11246540E+06  1.77598578E-10  2.11246540E+06
         1    7       3.09628747E-02  2.74717860E+00  1.78063844E-10  2.11281175E+06  2.11281450E+06
         1    9       1.21443540E-05  8.00971277E-18  1.71631347E+03  6.64706433E-14  1.71631347E+03
         1   13       1.42666879E-02  4.08858763E-10  1.11483849E+11  5.82676181E-06  1.11483849E+11
         1   15       1.42851507E-02  5.65916962E+07  5.83314821E-06  1.11585491E+11  1.11642083E+11
         2    4       1.46903278E-03  1.23169817E-23  1.59972863E-02  1.07227548E-20  1.59972863E-02
         2    6       3.10141419E-02  7.56742402E-16  2.11246540E+06  1.77598578E-10  2.11246540E+06
         2    8       3.09628747E-02  2.74717860E+00  1.78063844E-10  2.11281175E+06  2.11281450E+06
         2   10       1.21443540E-05  8.00971277E-18  1.71631347E+03  6.64706433E-14  1.71631347E+03
         2   14       1.42666879E-02  4.08858763E-10  1.11483849E+11  5.82676181E-06  1.11483849E+11
         2   16       1.42851507E-02  5.65916962E+07  5.83314821E-06  1.11585491E+11  1.11642083E+11
         3    5       3.09869474E-02  6.71630453E+00  1.77743418E-10  2.10891888E+06  2.10892560E+06
         3    7       3.10056716E-02  5.60274361E-16  2.11404478E+06  1.77764455E-10  2.11404478E+06
         3    9       1.11971389E-05  1.41621230E-01  5.30926101E-14  1.58142730E+03  1.58156892E+03
         3   13       1.42664584E-02  2.43765916E+07  5.82827061E-06  1.11457416E+11  1.11481792E+11
         3   15       1.42794365E-02  1.85018757E-09  1.11597162E+11  5.83184345E-06  1.11597162E+11
         4    6       3.09869474E-02  6.71630453E+00  1.77743418E-10  2.10891888E+06  2.10892560E+06
         4    8       3.10056716E-02  5.60274361E-16  2.11404478E+06  1.77764455E-10  2.11404478E+06
         4   10       1.11971389E-05  1.41621230E-01  5.30926101E-14  1.58142730E+03  1.58156892E+03
         4   14       1.42664584E-02  2.43765916E+07  5.82827061E-06  1.11457416E+11  1.11481792E+11
         4   16       1.42794365E-02  1.85018757E-09  1.11597162E+11  5.83184345E-06  1.11597162E+11
         5    7       5.12075012E-05  8.52238245E-20  2.88980971E-03  3.30137756E-19  2.88980971E-03
         5    9       2.25644547E-01  7.42713292E+00  2.57300933E-11  2.98149231E+06  2.98149974E+06
         5   11       3.46466801E-03  7.23091369E+05  1.86102553E-07  2.15467678E+10  2.15474909E+10
         5   13       1.56331754E-02  1.21440783E+11  2.46242315E-10  9.07611067E+05  1.21441691E+11
         5   17       8.35914674E-03  2.41544049E+06  6.05842021E-07  7.01237151E+10  7.01261305E+10
         6    8       5.12075012E-05  8.52238245E-20  2.88980971E-03  3.30137756E-19  2.88980971E-03
         6   10       2.25644547E-01  7.42713292E+00  2.57300933E-11  2.98149231E+06  2.98149974E+06
         6   12       3.46466801E-03  7.23091369E+05  1.86102553E-07  2.15467678E+10  2.15474909E+10
         6   14       1.56331754E-02  1.21440783E+11  2.46242315E-10  9.07611067E+05  1.21441691E+11
         6   18       8.35914674E-03  2.41544049E+06  6.05842021E-07  7.01237151E+10  7.01261305E+10
         7    9       2.25945758E-01  2.14368843E-16  2.97315270E+06  2.56947771E-11  2.97315270E+06
         7   11       3.45990189E-03  5.05842345E-14  2.15177197E+10  1.86363212E-07  2.15177197E+10
         7   15       1.56278028E-02  1.21399176E+11  5.89371527E-11  1.53529116E+07  1.21414529E+11
         7   17       8.35269972E-03  1.33393436E-14  7.00716821E+10  6.06360655E-07  7.00716821E+10
         8   10       2.25945758E-01  2.14368843E-16  2.97315270E+06  2.56947771E-11  2.97315270E+06
         8   12       3.45990189E-03  5.05842345E-14  2.15177197E+10  1.86363212E-07  2.15177197E+10
         8   16       1.56278028E-02  1.21399176E+11  5.89371527E-11  1.53529116E+07  1.21414529E+11
         8   18       8.35269972E-03  1.33393436E-14  7.00716821E+10  6.06360655E-07  7.00716821E+10
         9   11       4.82437954E-03  2.99158123E+10  3.68366035E-12  6.04083321E+05  2.99164164E+10
         9   13       4.48329486E-03  2.22450654E+06  3.41450085E-08  3.47341392E+10  3.47363637E+10
         9   15       4.48444421E-03  9.59062765E-12  3.47496328E+10  3.40641470E-08  3.47496328E+10
         9   17       1.34281618E-02  1.12366344E+11  1.21462804E-11  1.93285599E+06  1.12368277E+11
        10   12       4.82437954E-03  2.99158123E+10  3.68366035E-12  6.04083321E+05  2.99164164E+10
        10   14       4.48329486E-03  2.22450654E+06  3.41450085E-08  3.47341392E+10  3.47363637E+10
        10   16       4.48444421E-03  9.59062765E-12  3.47496328E+10  3.40641470E-08  3.47496328E+10
        10   18       1.34281618E-02  1.12366344E+11  1.21462804E-11  1.93285599E+06  1.12368277E+11
        11   13       1.79166568E-01  2.69511843E+04  1.51528099E-08  1.54144133E+10  1.54144402E+10
        11   15       1.79117753E-01  3.48229704E-14  1.54286135E+10  1.51591247E-08  1.54286135E+10
        11   17       1.34852271E-01  2.18543258E+10  1.07714705E-16  5.92118706E+04  2.18543850E+10
        12   14       1.79166568E-01  2.69511843E+04  1.51528099E-08  1.54144133E+10  1.54144402E+10
        12   16       1.79117753E-01  3.48229704E-14  1.54286135E+10  1.51591247E-08  1.54286135E+10
        12   18       1.34852271E-01  2.18543258E+10  1.07714705E-16  5.92118706E+04  2.18543850E+10
        13   17       2.17174101E-02  2.01178333E+03  2.54808608E-10  2.59222153E+08  2.59224164E+08
        14   18       2.17174101E-02  2.01178333E+03  2.54808608E-10  2.59222153E+08  2.59224164E+08
        15   17       2.17943911E-02  3.16245206E-15  2.59311252E+08  2.53998248E-10  2.59311252E+08
        16   18       2.17943911E-02  3.16245206E-15  2.59311252E+08  2.53998248E-10  2.59311252E+08
     -----------------------------------------------------------------------------------------------
--

++ Length and velocity gauge comparison (SO states):

 --------------------------------------------------
 A comparison between the dipole oscillator strengths in 
 length and velocity gauge will be performed

 All dipole oscillator differences above the tolerance of   0.10000000000000001       will be printed 

 Due to basis set deficiency these oscillator may be problematic 

 The tolerance is defined as ABS(1-O_l/O_v) 
 O_l : dipole oscillator strength in length gauge
 O_p : dipole oscillator strength in velocity gauge
 --------------------------------------------------

  Problematic transitions have been found

      From   To       Difference (%) Osc. st. (len.) Osc. st. (vel.)
     ---------------------------------------------------------------
         1    3      --------------- below threshold  1.46903278E-03
         1    5      --------------- below threshold  3.10141419E-02
         1    7      --------------- below threshold  3.09628747E-02
         1    9      --------------- below threshold  1.21443540E-05
         2    4      --------------- below threshold  1.46903278E-03
         2    6      --------------- below threshold  3.10141419E-02
         2    8      --------------- below threshold  3.09628747E-02
         2   10      --------------- below threshold  1.21443540E-05
         3    5      --------------- below threshold  3.09869474E-02
         3    7      --------------- below threshold  3.10056716E-02
         3    9      --------------- below threshold  1.11971389E-05
         4    6      --------------- below threshold  3.09869474E-02
         4    8      --------------- below threshold  3.10056716E-02
         4   10      --------------- below threshold  1.11971389E-05
         5    7      --------------- below threshold  5.12075012E-05
         5    9      --------------- below threshold  2.25644547E-01
         5   17            11.942954  7.36081765E-03  8.35914674E-03
         6    8      --------------- below threshold  5.12075012E-05
         6   10      --------------- below threshold  2.25644547E-01
         6   18            11.942954  7.36081765E-03  8.35914674E-03
         7    9      --------------- below threshold  2.25945758E-01
         7   17            11.985382  7.35159672E-03  8.35269972E-03
         8   10      --------------- below threshold  2.25945758E-01
         8   18            11.985382  7.35159672E-03  8.35269972E-03
         9   13            14.928613  3.81400114E-03  4.48329486E-03
         9   15            14.852021  3.81841361E-03  4.48444421E-03
         9   17            17.797557  1.58180465E-02  1.34281618E-02
        10   14            14.928613  3.81400114E-03  4.48329486E-03
        10   16            14.852021  3.81841361E-03  4.48444421E-03
        10   18            17.797557  1.58180465E-02  1.34281618E-02
        13   17            14.193966  1.86348483E-02  2.17174101E-02
        14   18            14.193966  1.86348483E-02  2.17174101E-02
        15   17            14.182725  1.87033525E-02  2.17943911E-02
        16   18            14.182725  1.87033525E-02  2.17943911E-02
     ---------------------------------------------------------------

 Number of problematic transitions =                    34

--

 Electric-dipole - electric-octupole not included
++ Total transition strengths for the second-order expansion of the wave vector (SO states):
   -----------------------------------------------------------------------------------------
    for osc. strength at least    1.0000000000000001E-005

      From   To        Osc. strength
     -------------------------------
         1   17       1.15295330E-05
         2   18       1.15295330E-05
         3   17       1.15300318E-05
         4   18       1.15300318E-05
     -------------------------------
--

++ I/O STATISTICS
 
  I. General I/O information
  - - - - - - - - - - - - - - - - - - - - - - - - - - - - - - - - - - - - - - - - - - -
  Unit  Name          Flsize      Write/Read            MBytes           Write/Read
                      (MBytes)       Calls              In/Out           Time, sec.
  - - - - - - - - - - - - - - - - - - - - - - - - - - - - - - - - - - - - - - - - - - -
   1  SCRATCH           0.00 .       9/      45 .      0.0/      0.0 .       0/       0
   2  ANNI              0.00 .       0/       0 .      0.0/      0.0 .       0/       0
   3  RUNFILE          14.69 .     322/   10733 .      2.3/     77.8 .       0/       0
   4  ONEINT            5.14 .       0/   22237 .      0.0/   3722.5 .       0/       0
   5  JOBIPH            5.91 .       0/      92 .      0.0/      0.7 .       0/       0
   6  ORDINT          403.03 .       1/    3225 .      0.0/    806.0 .       0/       0
  - - - - - - - - - - - - - - - - - - - - - - - - - - - - - - - - - - - - - - - - - - -
   *  TOTAL           428.78 .     332/   36332 .      2.3/   4607.0 .       0/       0
  - - - - - - - - - - - - - - - - - - - - - - - - - - - - - - - - - - - - - - - - - - -
 
  II. I/O Access Patterns
  - - - - - - - - - - - - - - - - - - - -
  Unit  Name               % of random
                         Write/Read calls
  - - - - - - - - - - - - - - - - - - - -
   1  SCRATCH             88.9/ 100.0
   2  ANNI                 0.0/   0.0
   3  RUNFILE             28.6/  10.8
   4  ONEINT               0.0/  17.4
   5  JOBIPH               0.0/  76.1
   6  ORDINT             100.0/   0.1
  - - - - - - - - - - - - - - - - - - - -
--
--- Stop Module: rassi at Wed Mar 26 11:51:48 2025 /rc=_RC_ALL_IS_WELL_ ---
*** files: xmldump
    saved to directory /home4/s4752295/Internship/Initial_simulations/Point_charge_model/1_electron/Madelung_charges_9_active_space/Nb
--- Module rassi spent 2 seconds ---

.##################.
.# Happy landing! #.
.##################.

    Timing: Wall=44.00 User=36.08 System=7.01

###############################################################################
Hbrk Cluster
Job 15905613 for user s4752295
Finished at: Wed Mar 26 11:51:52 CET 2025

Job details:
============

Job ID                         : 15905613
Name                           : Nb_no_SO
User                           : s4752295
Partition                      : regularmedium
Nodes                          : node100
Number of Nodes                : 1
Cores                          : 1
Number of Tasks                : 1
State                          : COMPLETED  
Submit                         : 2025-03-26T11:49:29
Start                          : 2025-03-26T11:51:00
End                            : 2025-03-26T11:51:48
Reserved walltime              : 15:00:00
Used walltime                  : 00:00:48
Used CPU time                  : 00:00:44 (Efficiency: 92.09%)
% User (Computation)           : 83.67%
% System (I/O)                 : 16.33%
Total memory reserved          : 25000M
Maximum memory used            : 1.53G

Acknowledgements:
=================

Please see this page for information about acknowledging Hbrk in your publications:

https://wiki.hpc.rug.nl/habrok/introduction/scientific_output

################################################################################
