   This run of MOLCAS is using the pymolcas driver

                             OPE
                             OPE          NMOL  CASOP  ENMOLC A   SO
                 OPE        NMOLC        AS  OP EN  MO LC     AS  OP
                OPENM       OL CA        SO  PE NM  OL CA     SOP EN
                OP EN      MO   LC       AS  OP ENMOL  CASO   PENMOL
                OP  EN     MO   LC       AS  OP EN     MO     LC ASO
               OP   E  NMOL  C  AS       OP  EN MO     LC     AS  OP
               OP  E   NMO   LC AS        OPEN  MO     LCASOP EN   M
               O  PEN   MO  LCA  SO
            OPE   NMO   L   CAS    OP
        OPENMOL  CASOP     ENMOL   CASOPE
     OPENMOLCA   SOPENMOLCASOPEN   MOLCASOPE
    OPENMOLCAS   OP           EN   MOL    CAS
    OPENMOLCAS       OP  ENM        O     LCA
    OPENMOLCAS    OPEN  MOLCASO     P  E  NMO
    OPENMOLCAS     OP               E  N  MOL
    OPENMOLCA   SO           PENM   O  L  CAS    OPEN    MO    LCAS
    OPENMOLCA   SOP           ENM   O  L  CAS   OP  EN  MOLC  AS   O
    OPENMOLCA   SOPE           NM      O  LCA   S      OP  EN MO
    OPENMOLC                AS         O  PEN   M      OL  CA  SOPE
    OPENMO        LCASOPE  NMOL        C  ASO   P      ENMOLC     AS
    OPE     NMO      LCA  SO     P     E   NM   OL  CA SO  PE N   MO
          OPENMOLCA            SOPE   NMO        LCAS  O    P  ENMO
     OPENMOLCASOPENMOLCASOPENMOLCASOPENMOLCA
        OPENMOLCASOPENMOLCASOPENMOLCASOPE
            OPENMOLCASOPENMOLCASOPENM
               OPENMOLCASOPENMOLCA        version: o91e1abe7de707b ?
                   OPENMOLCASO
                       OPE                tag:

 OpenMolcas is free software; you can redistribute it and/or modify it
 under the terms of the GNU Lesser General Public License version 2.1.
 OpenMolcas is distributed in the hope that it will be useful, but it
 is provided "as is" and without any express or implied warranties.
 For more details see the full text of the license in the file
 LICENSE or in <http://www.gnu.org/licenses/>.

                 Copyright (C) The OpenMolcas Authors
           For the author list and the recommended citation,
                   consult the file CONTRIBUTORS.md

           *************************************************
           * pymolcas version py2.10                       *
           *   build 3068ae8b88c9345ec6cfef6fef7f1169      *
           *   (after the EMIL interpreter by V. Veryazov) *
           *************************************************

configuration info
------------------
Host name: login1 (Linux)
C Compiler ID: GNU
C flags: -std=gnu99
Fortran Compiler ID: GNU
Fortran flags: -fno-aggressive-loop-optimizations -cpp -fdefault-integer-8 -fmax-stack-var-size=1048576
Definitions: _MOLCAS_;_I8_;_LINUX_;_MKL_
Parallel: OFF (GA=OFF)


   -----------------------------------------------------------------------------------------------------------------------------------
  |
  |           Project: rhenium_so_cf
  |    Submitted from: /home4/s4752295/Internship/Initial_simulations/Point_charge_model/1_electron/Madelung_charges_9_active_space/Re
  |      Scratch area: /tmp/rhenium_so_cf
  |   Save outputs to: /home4/s4752295/Internship/Initial_simulations/Point_charge_model/1_electron/Madelung_charges_9_active_space/Re
  |            Molcas: /home4/s4752295/Internship/Molcas/recomp_try/OpenMolcas-master/build
  |
  | Scratch area is empty
  |
  |    MOLCAS_DRIVER = /home4/s4752295/Internship/Molcas/bin/pymolcas
  |    MOLCAS_NPROCS = 1
  |    MOLCAS_SOURCE = /home4/s4752295/Internship/Molcas/recomp_try/OpenMolcas-master
  | MOLCAS_STRUCTURE = 0
  |
   -----------------------------------------------------------------------------------------------------------------------------------

++ ---------   Input file   ---------

&SEWARD
AMFi

CLIG
$R

Basis Set
Re.ano-rcc.Roos.24s21p15d11f4g2h.11s10p9d8f4g2h.
Spherical d
Re            -1.0658140267135469e-14   -3.5527134223784897e-15 0.008753588724385739
End of Basis

Xfield

414
-0.800440216,-0.30800000000000005,0.1778238     -0.625931
-0.800440216,-0.0,-0.3556478    -0.625931
-0.800440216,0.30800000000000005,0.1778238      -0.625931
-0.7990692140000001,0.0,0.0     1.892092
0.5318359380000001,-0.30800000000000005,-0.1778238      2.515516
0.5318359380000001,0.0,0.3556478        2.515516
0.5318359380000001,0.30800000000000005,-0.1778238       2.515516
0.712597656,-0.6160000000000001,0.0     0.004632
0.712597656,-0.30800000000000005,-0.5334716     0.004632
0.712597656,-0.30800000000000005,0.5334716      0.004632
0.712597656,0.30800000000000005,-0.5334716      0.004632
0.712597656,0.30800000000000005,0.5334716       0.004632
0.712597656,0.6160000000000001,0.0      0.004632
0.8258300780000001,-0.30800000000000005,0.1778238       -2.519484
0.8258300780000001,-0.0,-0.3556478      -2.519484
0.8258300780000001,0.30800000000000005,0.1778238        -2.519484
-0.5866210940000001,-0.0,-0.0   -3.142907
-0.9950195320000002,-0.6160000000000001,-0.3556478      -0.625931
-0.9950195320000002,0.0,0.7112954       -0.625931
-0.9950195320000002,0.6160000000000001,-0.3556478       -0.625931
-1.3218750000000001,-0.6160000000000001,0.0     1.892092
-1.3218750000000001,-0.30800000000000005,-0.5334716     1.892092
-1.3218750000000001,-0.30800000000000005,0.5334716      1.892092
-1.3218750000000001,0.30800000000000005,-0.5334716      1.892092
-1.3218750000000001,0.30800000000000005,0.5334716       1.892092
-1.3218750000000001,0.6160000000000001,0.0      1.892092
5.034375000000001,-0.6160000000000001,0.3556478 2.515516
5.034375000000001,-0.0,-0.7112954       2.515516
5.034375000000001,0.6160000000000001,0.3556478  2.515516
0.727734376,-0.6160000000000001,-0.3556478      -2.519484
0.727734376,0.0,0.7112954       -2.519484
0.727734376,0.6160000000000001,-0.3556478       -2.519484
-0.6464843760000001,-0.6160000000000001,-0.0    -3.142907
-0.6464843760000001,-0.30800000000000005,-0.5334716     -3.142907
-0.6464843760000001,-0.30800000000000005,0.5334716      -3.142907
-0.6464843760000001,0.30800000000000005,-0.5334716      -3.142907
-0.6464843760000001,0.30800000000000005,0.5334716       -3.142907
-0.6464843760000001,0.6160000000000001,-0.0     -3.142907
-1.9046875,-0.6160000000000001,0.7112954        -0.625931
-1.9046875,0.6160000000000001,0.7112954 -0.625931
-1.9046875,-0.924,0.1778238     -0.625931
-1.9046875,0.924,0.1778238      -0.625931
-1.9046875,-0.30800000000000005,-0.8891194000000001     -0.625931
-1.9046875,0.30800000000000005,-0.8891194000000001      -0.625931
1.2015625,-0.30800000000000005,-0.1778238       4.409069
1.2015625,0.30800000000000005,-0.1778238        4.409069
1.2015625,0.0,0.3556478 4.409069
-35.050000000000004,-0.0,-0.0   -5.030367
-35.050000000000004,0.0,0.0     5.039632
2.703515624,-0.6160000000000001,-0.7112954      2.515516
2.703515624,0.6160000000000001,-0.7112954       2.515516
2.703515624,-0.924,-0.1778238   2.515516
2.703515624,0.924,-0.1778238    2.515516
2.703515624,-0.30800000000000005,0.8891194000000001     2.515516
2.703515624,0.30800000000000005,0.8891194000000001      2.515516
3.8078125000000003,-0.924,-0.5334716    0.004632
3.8078125000000003,-0.924,0.5334716     0.004632
3.8078125000000003,0.924,-0.5334716     0.004632
3.8078125000000003,0.924,0.5334716      0.004632
3.8078125000000003,-0.0,-1.0669432      0.004632
3.8078125000000003,0.0,1.0669432        0.004632
9.615625000000001,-0.6160000000000001,0.7112954 -2.519484
9.615625000000001,0.6160000000000001,0.7112954  -2.519484
9.615625000000001,-0.924,0.1778238      -2.519484
9.615625000000001,0.924,0.1778238       -2.519484
9.615625000000001,-0.30800000000000005,-0.8891194000000001      -2.519484
9.615625000000001,0.30800000000000005,-0.8891194000000001       -2.519484
-29.175,-0.924,-0.5334716       1.892092
-29.175,-0.924,0.5334716        1.892092
-29.175,0.924,-0.5334716        1.892092
-29.175,0.924,0.5334716 1.892092
-29.175,-0.0,-1.0669432 1.892092
-29.175,0.0,1.0669432   1.892092
-23.55,-0.6160000000000001,0.3556478    4.409069
-23.55,-0.0,-0.7112954  4.409069
-23.55,0.6160000000000001,0.3556478     4.409069
-17.8,-0.6160000000000001,-0.0  -5.030367
-17.8,-0.30800000000000005,-0.5334716   -5.030367
-17.8,-0.30800000000000005,0.5334716    -5.030367
-17.8,0.30800000000000005,-0.5334716    -5.030367
-17.8,-0.6160000000000001,0.0   5.039632
-17.8,0.6160000000000001,-0.0   -5.030367
-17.8,0.30800000000000005,0.5334716     -5.030367
-17.8,-0.30800000000000005,-0.5334716   5.039632
-17.8,-0.30800000000000005,0.5334716    5.039632
-17.8,0.30800000000000005,-0.5334716    5.039632
-17.8,0.6160000000000001,0.0    5.039632
-17.8,0.30800000000000005,0.5334716     5.039632
-9.325000000000001,-0.30800000000000005,-0.1778238      -5.660931
-9.325000000000001,0.0,0.3556478        -5.660931
-9.325000000000001,0.30800000000000005,-0.1778238       -5.660931
0.1765625,-1.2319998,0.0        0.004632
0.1765625,-0.6160000000000001,-1.0669432        0.004632
0.1765625,-0.6160000000000001,1.0669432 0.004632
0.1765625,0.6160000000000001,-1.0669432 0.004632
0.1765625,1.2319998,0.0 0.004632
0.1765625,0.6160000000000001,1.0669432  0.004632
13.5875,-0.924,0.5334716        -3.142907
13.5875,-0.924,-0.5334716       -3.142907
13.5875,0.924,-0.5334716        -3.142907
13.5875,0.924,0.5334716 -3.142907
13.5875,-0.0,-1.0669432 -3.142907
13.5875,0.0,1.0669432   -3.142907
17.275000000000002,-1.2319998,-0.3556478        -0.625931
17.275000000000002,-0.924,-0.8891194000000001   -0.625931
17.275000000000002,-0.30800000000000005,1.2447670000000002      -0.625931
17.275000000000002,0.924,-0.8891194000000001    -0.625931
17.275000000000002,1.2319998,-0.3556478 -0.625931
17.275000000000002,0.30800000000000005,1.2447670000000002       -0.625931
0.23945312400000002,-1.2319998,0.0      1.892092
0.23945312400000002,-0.6160000000000001,-1.0669432      1.892092
0.23945312400000002,-0.6160000000000001,1.0669432       1.892092
0.23945312400000002,0.6160000000000001,-1.0669432       1.892092
0.23945312400000002,1.2319998,0.0       1.892092
0.23945312400000002,0.6160000000000001,1.0669432        1.892092
6.768750000000001,-0.6160000000000001,-0.7112954        4.409069
6.768750000000001,0.6160000000000001,-0.7112954 4.409069
6.768750000000001,-0.924,-0.1778238     4.409069
6.768750000000001,0.924,-0.1778238      4.409069
6.768750000000001,-0.30800000000000005,0.8891194000000001       4.409069
6.768750000000001,0.30800000000000005,0.8891194000000001        4.409069
32.48125,-0.6160000000000001,0.3556478  -5.660931
32.48125,-0.0,-0.7112954        -5.660931
32.48125,0.6160000000000001,0.3556478   -5.660931
0.06875,-1.2319998,0.3556478    2.515516
0.06875,-0.30800000000000005,-1.2447670000000002        2.515516
0.06875,-0.924,0.8891194000000001       2.515516
0.06875,0.30800000000000005,-1.2447670000000002 2.515516
0.06875,1.2319998,0.3556478     2.515516
0.06875,0.924,0.8891194000000001        2.515516
-18.837500000000002,-1.2319998,-0.3556478       -2.519484
-18.837500000000002,-0.924,-0.8891194000000001  -2.519484
-18.837500000000002,-0.30800000000000005,1.2447670000000002     -2.519484
-18.837500000000002,0.924,-0.8891194000000001   -2.519484
-18.837500000000002,0.30800000000000005,1.2447670000000002      -2.519484
-18.837500000000002,1.2319998,-0.3556478        -2.519484
-4.4140625,-1.2319998,-0.0      -3.142907
-4.4140625,-0.6160000000000001,-1.0669432       -3.142907
-4.4140625,-0.6160000000000001,1.0669432        -3.142907
-4.4140625,0.6160000000000001,-1.0669432        -3.142907
-4.4140625,0.6160000000000001,1.0669432 -3.142907
-4.4140625,1.2319998,-0.0       -3.142907
121.30000000000001,0.0,0.0      6.927092
64.65,-1.2319998,0.7112954      -0.625931
64.65,1.2319998,0.7112954       -0.625931
64.65,-0.0,-1.4225910000000002  -0.625931
-1.084375,-0.924,0.5334716      -5.030367
-1.084375,-0.924,-0.5334716     -5.030367
-1.084375,-0.924,0.5334716      5.039632
-1.084375,-0.924,-0.5334716     5.039632
-1.084375,0.924,-0.5334716      -5.030367
-1.084375,0.924,0.5334716       -5.030367
-1.084375,0.924,-0.5334716      5.039632
-1.084375,0.924,0.5334716       5.039632
-1.084375,-0.0,-1.0669432       -5.030367
-1.084375,0.0,1.0669432 -5.030367
-1.084375,-0.0,-1.0669432       5.039632
-1.084375,0.0,1.0669432 5.039632
18.3625,-0.6160000000000001,-0.7112954  -5.660931
18.3625,0.6160000000000001,-0.7112954   -5.660931
18.3625,-0.924,-0.1778238       -5.660931
18.3625,0.924,-0.1778238        -5.660931
18.3625,-0.30800000000000005,0.8891194000000001 -5.660931
18.3625,0.30800000000000005,0.8891194000000001  -5.660931
60.1,-1.2319998,-0.7112954      2.515516
60.1,1.2319998,-0.7112954       2.515516
60.1,0.0,1.4225910000000002     2.515516
-103.45,-1.2319998,0.7112954    -2.519484
-103.45,1.2319998,0.7112954     -2.519484
-103.45,-0.0,-1.4225910000000002        -2.519484
10.7125,-0.6160000000000001,0.0 6.927092
10.7125,-0.30800000000000005,-0.5334716 6.927092
10.7125,-0.30800000000000005,0.5334716  6.927092
10.7125,0.30800000000000005,-0.5334716  6.927092
10.7125,0.30800000000000005,0.5334716   6.927092
10.7125,0.6160000000000001,0.0  6.927092
-11.05,-0.30800000000000005,0.1778238   7.550516
-11.05,0.0,-0.3556478   7.550516
-11.05,0.30800000000000005,0.1778238    7.550516
3.10625,-0.30800000000000005,-0.1778238 -7.554483
3.10625,0.30800000000000005,-0.1778238  -7.554483
3.10625,-0.0,0.3556478  -7.554483
-24.975,-1.5399998000000001,0.1778238   -0.625931
-24.975,-0.924,1.2447670000000002       -0.625931
-24.975,-0.6160000000000001,-1.4225910000000002 -0.625931
-24.975,0.6160000000000001,-1.4225910000000002  -0.625931
-24.975,1.5399998000000001,0.1778238    -0.625931
-24.975,0.924,1.2447670000000002        -0.625931
-13.4875,-1.2319998,0.3556478   4.409069
-13.4875,-0.924,0.8891194000000001      4.409069
-13.4875,-0.30800000000000005,-1.2447670000000002       4.409069
-13.4875,0.30800000000000005,-1.2447670000000002        4.409069
-13.4875,0.924,0.8891194000000001       4.409069
-13.4875,1.2319998,0.3556478    4.409069
9.83125,-1.2319998,-0.0 -5.030367
9.83125,-0.6160000000000001,-1.0669432  -5.030367
9.83125,-0.6160000000000001,1.0669432   -5.030367
9.83125,-1.2319998,0.0  5.039632
9.83125,-0.6160000000000001,-1.0669432  5.039632
9.83125,0.6160000000000001,-1.0669432   -5.030367
9.83125,0.6160000000000001,1.0669432    -5.030367
9.83125,1.2319998,-0.0  -5.030367
9.83125,-0.6160000000000001,1.0669432   5.039632
9.83125,0.6160000000000001,-1.0669432   5.039632
9.83125,1.2319998,0.0   5.039632
9.83125,0.6160000000000001,1.0669432    5.039632
36.15,-1.5399998000000001,-0.1778238    2.515516
36.15,-0.924,-1.2447670000000002        2.515516
36.15,-0.6160000000000001,1.4225910000000002    2.515516
36.15,0.924,-1.2447670000000002 2.515516
36.15,1.5399998000000001,-0.1778238     2.515516
36.15,0.6160000000000001,1.4225910000000002     2.515516
-4.66875,-1.5399998000000001,-0.5334716 0.004632
-4.66875,-1.5399998000000001,0.5334716  0.004632
-4.66875,-1.2319998,-1.0669432  0.004632
-4.66875,-1.2319998,1.0669432   0.004632
-4.66875,-0.30800000000000005,-1.6004148000000002       0.004632
-4.66875,0.30800000000000005,-1.6004148000000002        0.004632
-4.66875,-0.30800000000000005,1.6004148000000002        0.004632
-4.66875,1.2319998,-1.0669432   0.004632
-4.66875,0.30800000000000005,1.6004148000000002 0.004632
-4.66875,1.5399998000000001,-0.5334716  0.004632
-4.66875,1.5399998000000001,0.5334716   0.004632
-4.66875,1.2319998,1.0669432    0.004632
-28.625,-1.5399998000000001,0.1778238   -2.519484
-28.625,-0.924,1.2447670000000002       -2.519484
-28.625,-0.6160000000000001,-1.4225910000000002 -2.519484
-28.625,0.6160000000000001,-1.4225910000000002  -2.519484
-28.625,1.5399998000000001,0.1778238    -2.519484
-28.625,0.924,1.2447670000000002        -2.519484
606.4,-0.0,-0.0 -8.177907
-23.200000000000003,-0.6160000000000001,-0.3556478      7.550516
-23.200000000000003,0.0,0.7112954       7.550516
-23.200000000000003,0.6160000000000001,-0.3556478       7.550516
-120.7,-0.6160000000000001,0.3556478    -7.554483
-120.7,-0.0,-0.7112954  -7.554483
-120.7,0.6160000000000001,0.3556478     -7.554483
9.78125,-1.5399998000000001,0.5334716   1.892092
9.78125,-1.5399998000000001,-0.5334716  1.892092
9.78125,-1.2319998,-1.0669432   1.892092
9.78125,-1.2319998,1.0669432    1.892092
9.78125,-0.30800000000000005,-1.6004148000000002        1.892092
9.78125,0.30800000000000005,-1.6004148000000002 1.892092
9.78125,-0.30800000000000005,1.6004148000000002 1.892092
9.78125,1.2319998,-1.0669432    1.892092
9.78125,0.30800000000000005,1.6004148000000002  1.892092
9.78125,1.5399998000000001,-0.5334716   1.892092
9.78125,1.5399998000000001,0.5334716    1.892092
9.78125,1.2319998,1.0669432     1.892092
-101.0,-1.2319998,-0.7112954    4.409069
-101.0,1.2319998,-0.7112954     4.409069
-101.0,0.0,1.4225910000000002   4.409069
5.1640625,-1.2319998,0.3556478  -5.660931
5.1640625,-0.30800000000000005,-1.2447670000000002      -5.660931
5.1640625,-0.924,0.8891194000000001     -5.660931
5.1640625,0.30800000000000005,-1.2447670000000002       -5.660931
5.1640625,0.924,0.8891194000000001      -5.660931
5.1640625,1.2319998,0.3556478   -5.660931
-11.637500000000001,-1.2319998,-1.0669432       -3.142907
-11.637500000000001,-1.5399998000000001,0.5334716       -3.142907
-11.637500000000001,-1.5399998000000001,-0.5334716      -3.142907
-11.637500000000001,-1.2319998,1.0669432        -3.142907
-11.637500000000001,-0.30800000000000005,-1.6004148000000002    -3.142907
-11.637500000000001,0.30800000000000005,-1.6004148000000002     -3.142907
-11.637500000000001,-0.30800000000000005,1.6004148000000002     -3.142907
-11.637500000000001,1.5399998000000001,-0.5334716       -3.142907
-11.637500000000001,1.2319998,-1.0669432        -3.142907
-11.637500000000001,0.30800000000000005,1.6004148000000002      -3.142907
-11.637500000000001,1.5399998000000001,0.5334716        -3.142907
-11.637500000000001,1.2319998,1.0669432 -3.142907
13.08125,-0.924,-0.5334716      6.927092
13.08125,-0.924,0.5334716       6.927092
13.08125,0.924,-0.5334716       6.927092
13.08125,0.924,0.5334716        6.927092
13.08125,-0.0,-1.0669432        6.927092
13.08125,0.0,1.0669432  6.927092
-16.650000000000002,-0.6160000000000001,-0.0    -8.177907
-16.650000000000002,-0.30800000000000005,0.5334716      -8.177907
-16.650000000000002,-0.30800000000000005,-0.5334716     -8.177907
-16.650000000000002,0.30800000000000005,-0.5334716      -8.177907
-16.650000000000002,0.6160000000000001,-0.0     -8.177907
-16.650000000000002,0.30800000000000005,0.5334716       -8.177907
-18.181250000000002,-0.6160000000000001,0.7112954       7.550516
-18.181250000000002,0.6160000000000001,0.7112954        7.550516
-18.181250000000002,-0.924,0.1778238    7.550516
-18.181250000000002,0.924,0.1778238     7.550516
-18.181250000000002,-0.30800000000000005,-0.8891194000000001    7.550516
-18.181250000000002,0.30800000000000005,-0.8891194000000001     7.550516
-9.137500000000001,-0.6160000000000001,-0.7112954       -7.554483
-9.137500000000001,0.6160000000000001,-0.7112954        -7.554483
-9.137500000000001,-0.924,-0.1778238    -7.554483
-9.137500000000001,0.924,-0.1778238     -7.554483
-9.137500000000001,-0.30800000000000005,0.8891194000000001      -7.554483
-9.137500000000001,0.30800000000000005,0.8891194000000001       -7.554483
-100.05000000000001,0.0,1.7782386       -0.625931
-100.05000000000001,-1.5399998000000001,-0.8891194000000001     -0.625931
-100.05000000000001,1.5399998000000001,-0.8891194000000001      -0.625931
-53.95,-1.5399998000000001,-0.1778238   4.409069
-53.95,-0.924,-1.2447670000000002       4.409069
-53.95,-0.6160000000000001,1.4225910000000002   4.409069
-53.95,0.924,-1.2447670000000002        4.409069
-53.95,1.5399998000000001,-0.1778238    4.409069
-53.95,0.6160000000000001,1.4225910000000002    4.409069
62.075,-1.2319998,-0.7112954    -5.660931
62.075,1.2319998,-0.7112954     -5.660931
62.075,0.0,1.4225910000000002   -5.660931
117.4,-0.0,-1.7782386   2.515516
117.4,-1.5399998000000001,0.8891194000000001    2.515516
117.4,1.5399998000000001,0.8891194000000001     2.515516
-18.775000000000002,-1.8479998,-0.0     0.004632
-18.775000000000002,0.924,-1.6004148000000002   0.004632
-18.775000000000002,-0.924,1.6004148000000002   0.004632
-18.775000000000002,1.8479998,-0.0      0.004632
-18.775000000000002,-0.924,-1.6004148000000002  0.004632
-18.775000000000002,0.924,1.6004148000000002    0.004632
-77.15,0.0,1.7782386    -2.519484
-77.15,-1.5399998000000001,-0.8891194000000001  -2.519484
-77.15,1.5399998000000001,-0.8891194000000001   -2.519484
45.6,-1.2319998,0.0     6.927092
45.6,-0.6160000000000001,-1.0669432     6.927092
45.6,-0.6160000000000001,1.0669432      6.927092
45.6,0.6160000000000001,-1.0669432      6.927092
45.6,1.2319998,0.0      6.927092
45.6,0.6160000000000001,1.0669432       6.927092
42.375,-1.8479998,-0.3556478    -0.625931
42.375,-0.6160000000000001,1.7782386    -0.625931
42.375,-1.2319998,-1.4225910000000002   -0.625931
42.375,1.2319998,-1.4225910000000002    -0.625931
42.375,0.6160000000000001,1.7782386     -0.625931
42.375,1.8479998,-0.3556478     -0.625931
22.387500000000003,-1.8479998,0.0       1.892092
22.387500000000003,-0.924,-1.6004148000000002   1.892092
22.387500000000003,-0.924,1.6004148000000002    1.892092
22.387500000000003,0.924,-1.6004148000000002    1.892092
22.387500000000003,1.8479998,0.0        1.892092
22.387500000000003,0.924,1.6004148000000002     1.892092
-0.8640625000000001,-1.5399998000000001,0.5334716       -5.030367
-0.8640625000000001,-1.5399998000000001,-0.5334716      -5.030367
-0.8640625000000001,-1.2319998,-1.0669432       -5.030367
-0.8640625000000001,-1.2319998,1.0669432        -5.030367
-0.8640625000000001,-1.5399998000000001,0.5334716       5.039632
-0.8640625000000001,0.30800000000000005,-1.6004148000000002     -5.030367
-0.8640625000000001,-0.30800000000000005,-1.6004148000000002    -5.030367
-0.8640625000000001,-1.5399998000000001,-0.5334716      5.039632
-0.8640625000000001,-1.2319998,-1.0669432       5.039632
-0.8640625000000001,-0.30800000000000005,1.6004148000000002     -5.030367
-0.8640625000000001,0.30800000000000005,-1.6004148000000002     5.039632
-0.8640625000000001,-1.2319998,1.0669432        5.039632
-0.8640625000000001,-0.30800000000000005,-1.6004148000000002    5.039632
-0.8640625000000001,1.2319998,-1.0669432        -5.030367
-0.8640625000000001,0.30800000000000005,1.6004148000000002      -5.030367
-0.8640625000000001,1.5399998000000001,-0.5334716       -5.030367
-0.8640625000000001,1.5399998000000001,0.5334716        -5.030367
-0.8640625000000001,1.2319998,1.0669432 -5.030367
-0.8640625000000001,-0.30800000000000005,1.6004148000000002     5.039632
-0.8640625000000001,1.2319998,-1.0669432        5.039632
-0.8640625000000001,1.5399998000000001,-0.5334716       5.039632
-0.8640625000000001,0.30800000000000005,1.6004148000000002      5.039632
-0.8640625000000001,1.5399998000000001,0.5334716        5.039632
-0.8640625000000001,1.2319998,1.0669432 5.039632
-0.1375,-1.5399998000000001,-0.1778238  -5.660931
-0.1375,-0.924,-1.2447670000000002      -5.660931
-0.1375,-0.6160000000000001,1.4225910000000002  -5.660931
-0.1375,0.924,-1.2447670000000002       -5.660931
-0.1375,0.6160000000000001,1.4225910000000002   -5.660931
-0.1375,1.5399998000000001,-0.1778238   -5.660931
23.200000000000003,-0.30800000000000005,0.1778238       9.444068
23.200000000000003,0.0,-0.3556478       9.444068
23.200000000000003,0.30800000000000005,0.1778238        9.444068
10.262500000000001,-1.8479998,0.3556478 2.515516
10.262500000000001,-0.6160000000000001,-1.7782386       2.515516
10.262500000000001,0.6160000000000001,-1.7782386        2.515516
10.262500000000001,-1.2319998,1.4225910000000002        2.515516
10.262500000000001,1.8479998,0.3556478  2.515516
10.262500000000001,1.2319998,1.4225910000000002 2.515516
31.375,-1.8479998,-0.3556478    -2.519484
31.375,-0.6160000000000001,1.7782386    -2.519484
31.375,-1.2319998,-1.4225910000000002   -2.519484
31.375,1.2319998,-1.4225910000000002    -2.519484
31.375,1.8479998,-0.3556478     -2.519484
31.375,0.6160000000000001,1.7782386     -2.519484
43.925000000000004,-1.8479998,-0.0      -3.142907
43.925000000000004,-0.924,-1.6004148000000002   -3.142907
43.925000000000004,-0.924,1.6004148000000002    -3.142907
43.925000000000004,0.924,-1.6004148000000002    -3.142907
43.925000000000004,1.8479998,-0.0       -3.142907
43.925000000000004,0.924,1.6004148000000002     -3.142907
1.729101562,-0.924,-0.5334716   -8.177907
1.729101562,-0.924,0.5334716    -8.177907
1.729101562,0.924,0.5334716     -8.177907
1.729101562,0.924,-0.5334716    -8.177907
1.729101562,-0.0,-1.0669432     -8.177907
1.729101562,0.0,1.0669432       -8.177907
50.375,-0.924,-0.8891194000000001       7.550516
50.375,-1.2319998,-0.3556478    7.550516
50.375,-0.30800000000000005,1.2447670000000002  7.550516
50.375,0.924,-0.8891194000000001        7.550516
50.375,0.30800000000000005,1.2447670000000002   7.550516
50.375,1.2319998,-0.3556478     7.550516
-69.60000000000001,-0.924,0.8891194000000001    -7.554483
-69.60000000000001,-1.2319998,0.3556478 -7.554483
-69.60000000000001,-0.30800000000000005,-1.2447670000000002     -7.554483
-69.60000000000001,0.30800000000000005,-1.2447670000000002      -7.554483
-69.60000000000001,1.2319998,0.3556478  -7.554483
-69.60000000000001,0.924,0.8891194000000001     -7.554483
14.253125,-1.5399998000000001,1.2447670000000002        -0.625931
14.253125,-1.8479998,0.7112954  -0.625931
14.253125,-0.30800000000000005,-1.9560626       -0.625931
14.253125,0.30800000000000005,-1.9560626        -0.625931
14.253125,1.8479998,0.7112954   -0.625931
14.253125,1.5399998000000001,1.2447670000000002 -0.625931
-96.75,-0.0,-1.7782386  4.409069
-96.75,-1.5399998000000001,0.8891194000000001   4.409069
-96.75,1.5399998000000001,0.8891194000000001    4.409069

End of input

&SCF
Occupied
9
Iterations
   50  100
End of Input

&RASSCF
LumOrb
Symmetry
1
Spin
2
Nactel
1 0 0
CIRoot
9 9 1
inactive
9
ras2
9
End of Input

>>> COPY rhenium_so_cf.JobIph $SLURM_SUBMIT_DIR/rhenium_so_cf.doublet.JobIph

>>> COPY $SLURM_SUBMIT_DIR/rhenium_so_cf.doublet.JobIph ./JOB002

&RASSI
NROFJobIph
1 All
SpinOrbit
End of Input

EOF

-- ----------------------------------

--- Start Module: seward at Tue Mar 25 14:29:43 2025 ---

()()()()()()()()()()()()()()()()()()()()()()()()()()()()()()()()()()()()()()()()()()()()()()()()()()

                                              &SEWARD

                                   only a single process is used
                       available to each process: 4.1 GB of memory, 1 thread?
                                            pid: 1838257
()()()()()()()()()()()()()()()()()()()()()()()()()()()()()()()()()()()()()()()()()()()()()()()()()()

 The speed of LIGHT in this CALCULATION =   137.03599917700001     
               SEWARD will generate:
                  Multipole Moment integrals up to order  2
                  Kinetic Energy integrals
                  Nuclear Attraction integrals (point charge)
                  One-Electron Hamiltonian integrals
                  Velocity integrals
                  Relativistic Douglas-Kroll-Hess integrals:
                    - Parametrization         : EXP
                    - DKH order of Hamiltonian: 2
                    - DKH order of Properties : 0
                         - multipole moment operators
                         - electric potential operators
                         - contact operators
                  External field from   414 point(s) added to the one-electron Hamiltonian
                  Orbital angular momentum around (-0.0000 -0.0000  0.0088 )
                  Velocity quadrupole around (-0.0000 -0.0000  0.0088 )
                  Atomic mean-field integrals
                  Two-Electron Repulsion integrals

                   Integrals are discarded if absolute value <: 0.10E-13
                   Integral cutoff threshold is set to       <: 0.10E-15

++    Symmetry information:
      ---------------------

                    Character Table for C1 

                             E  
                    a        1  x, y, xy, Rz, z, xz, Ry, yz, Rx, I
--


++    Basis set information:
      ----------------------


      Basis set label: RE.ANO-RCC.ROOS.24S21P15D11F4G2H.11S10P9D8F4G2H......

      Electronic valence basis set:
      ------------------
      Associated Effective Charge  75.000000 au
      Associated Actual Charge     75.000000 au
      Nuclear Model: Point charge

      Shell  nPrim  nBasis  Cartesian Spherical Contaminant
         s      24      11        X                  
         p      21      10        X                  
         d      15       9                 X         
         f      11       8                 X         
         g       4       4                 X         
         h       2       2                 X         
--


++    Molecular structure info:
      -------------------------

                    ************************************************ 
                    **** Cartesian Coordinates / Bohr, Angstrom **** 
                    ************************************************ 

     Center  Label                x              y              z                     x              y              z
        1      RE              -0.000000      -0.000000       0.008754             -0.000000      -0.000000       0.004632
--


++    Operator info:
      --------------


  Net charge from external field:   -39.268449999999902     
--


            Nuclear Potential Energy              0.00000000 au

                    Nuclear-External Field Potential Energy   -3430.82476999 au
                    External Field Potential Energy            8028.18450693 au 


            Total Nuclear Potential Energy          -3430.82476999 au


      Basis set specifications :
      Symmetry species         a  
      Basis functions          200

 Sorry, Molden does not know how to handle
 functions with angular momentum larger than g
Note: The following floating-point exceptions are signalling: IEEE_UNDERFLOW_FLAG IEEE_DENORMAL
--- Stop Module: seward at Tue Mar 25 14:30:02 2025 /rc=_RC_ALL_IS_WELL_ ---
*** files: rhenium_so_cf.GssOrb xmldump
    saved to directory /home4/s4752295/Internship/Initial_simulations/Point_charge_model/1_electron/Madelung_charges_9_active_space/Re
--- Module seward spent 19 seconds ---

*** symbolic link created: INPORB -> rhenium_so_cf.GssOrb
--- Start Module: scf at Tue Mar 25 14:30:02 2025 ---

()()()()()()()()()()()()()()()()()()()()()()()()()()()()()()()()()()()()()()()()()()()()()()()()()()

                                                &SCF

                                   only a single process is used
                       available to each process: 4.1 GB of memory, 1 thread?
                                            pid: 1838297
()()()()()()()()()()()()()()()()()()()()()()()()()()()()()()()()()()()()()()()()()()()()()()()()()()

++    Input section:
      --------------

      Header of the integral files:
      
       Integrals generated by seward 4.2.0  , Tue Mar 25 14:29:43 2025


      Cartesian coordinates in Angstrom:
      -----------------------------------------------------
      No.  Label        X            Y            Z        
      -----------------------------------------------------
       1   RE        -0.00000000  -0.00000000   0.00463220
      -----------------------------------------------------
      Nuclear repulsion energy =-3430.82476999
--

++    Orbital specifications:
      -----------------------

      Symmetry species               1
                                     a
      Frozen orbitals                0
      Occupied orbitals              9
      Secondary orbitals           191
      Deleted orbitals               0
      Total number of orbitals     200
      Number of basis functions    200
--

      Molecular charge                          57.000

++    Optimization specifications:
      ----------------------------

      SCF Algorithm: Conventional
      Minimized density differences are used
      Number of density matrices in core                5
      Maximum number of NDDO SCF iterations            50
      Maximum number of HF SCF iterations             100
      Threshold for SCF energy change            0.10E-08
      Threshold for density matrix               0.10E-03
      Threshold for Fock matrix                  0.15E-03
      Threshold for linear dependence            0.10E-08
      Threshold at which DIIS is turned on       0.15E+00
      Threshold at which QNR/C2DIIS is turned on 0.75E-01
      Threshold for Norm(delta) (QNR/C2DIIS)     0.20E-04
      DIIS extrapolation of the SCF procedure
      All orbitals punched on: SCFORB
--

      Detected guessorb starting orbitals                                             


++ Convergence information
                                   SCF        iterations: Energy and convergence statistics

Iter     Tot. SCF        One-elec.       Two-elec.     Energy      Max Dij or  Max Fij      DNorm      TNorm      AccCon     Time
         Energy          Energy          Energy        Change      Delta Norm                                                in Sec.

 The total and one-electron energies are shifted by a value of     15000. a.u.

   1  -917.340031890  1222.292426437  1291.192311663   0.00E+00    0.21E+00*   0.94E+01*    0.60E+01   0.67E+03   None         1.
   2  -929.887511062  1163.282384274  1337.654874654  -0.13E+02*   0.12E-01*   0.44E+00*    0.11E+01   0.68E+03   EDIIS        1.
   3  -929.899657150  1163.988699937  1336.936412902  -0.12E-01*   0.16E-02*   0.25E-01*    0.33E-01   0.68E+03   EDIIS        1.
   4  -929.899717779  1163.966198443  1336.958853767  -0.61E-04*   0.13E-03*   0.22E-02*    0.16E-02   0.68E+03   c2DIIS       1.
   5  -929.899718323  1163.967065455  1336.957986212  -0.54E-06*   0.18E-04    0.28E-03*    0.17E-03   0.68E+03   QNRc2DIIS    1.
   6  -929.899718339  1163.967082445  1336.957969205  -0.16E-07*   0.57E-05    0.70E-04     0.41E-05   0.68E+03   QNRc2DIIS    1.
   7  -929.899718340  1163.967081282  1336.957970368  -0.10E-08*   0.27E-07    0.47E-06     0.33E-02   0.68E+03   QNRc2DIIS    1.
   8  -929.899718340  1163.967081575  1336.957970075   0.18E-11    0.18E-08    0.37E-07     0.10E-02   0.68E+03   QNRc2DIIS    1.

       Convergence after  8 Macro Iterations
--

 *****************************************************************************************************************************
 *                                                                                                                           *
 *                                             SCF/KS-DFT Program, Final results                                             *
 *                                                                                                                           *
 *                                                                                                                           *
 *                                                                                                                           *
 *                                                       Final Results                                                       *
 *                                                                                                                           *
 *****************************************************************************************************************************

::    Total SCF energy                             -15929.8997183401
      One-electron energy                          -13836.0329184254
      Two-electron energy                            1336.9579700751
      Nuclear repulsion energy                      -3430.8247699899
      Kinetic energy (interpolated)                 20161.1467142157
      Virial theorem                                    0.7901286541
      Total spin, S(S+1)                                0.0000000000
      Total spin, S                                     0.0000000000
      Max non-diagonal density matrix element           0.0000000021
      Max non-diagonal Fock matrix element              0.0000000035


      All orbitals with orbital energies smaller than  E(LUMO)+0.5 are printed

++    Molecular orbitals:
      -------------------

      Title: SCF orbitals

      Molecular orbitals for symmetry species 1: a  

          Some orbital energies have been scaled by powers of 10, the power is written right after the orbital index


          Orbital            1 (1)     2         3         4         5         6         7         8         9        10    
          Energy         -275.3031 -568.7169 -512.0848 -512.0848 -512.0416 -194.0260 -176.5294 -176.5290 -176.0145 -155.8260
          Occ. No.          2.0000    2.0000    2.0000    2.0000    2.0000    2.0000    2.0000    2.0000    2.0000    0.0000

        1 RE     1s         1.0000    0.0002    0.0000    0.0000   -0.0001   -0.0000   -0.0000   -0.0000    0.0000   -0.0000
        2 RE     2s        -0.0002    0.9999    0.0001    0.0000   -0.0097    0.0119    0.0000    0.0000   -0.0024    0.0000
        3 RE     3s         0.0000   -0.0117   -0.0000   -0.0000    0.0011    0.9877    0.0007    0.0000   -0.1213    0.0000
        4 RE     4s        -0.0000    0.0034    0.0000    0.0000   -0.0002   -0.0779   -0.0001   -0.0000    0.0170   -0.0000
        5 RE     5s         0.0000   -0.0012   -0.0000   -0.0000    0.0001    0.0230    0.0000   -0.0000   -0.0052   -0.0000
        6 RE     6s        -0.0000    0.0003    0.0000    0.0000   -0.0000   -0.0064   -0.0000   -0.0000    0.0014   -0.0000
        7 RE     7s         0.0000   -0.0006   -0.0000   -0.0000    0.0000    0.0105    0.0000    0.0000   -0.0024   -0.0000
        8 RE     8s        -0.0000    0.0012    0.0000    0.0000   -0.0001   -0.0216   -0.0000    0.0000    0.0049    0.0000
        9 RE     9s         0.0000   -0.0016   -0.0000   -0.0000    0.0001    0.0261    0.0000    0.0000   -0.0059   -0.0000
       10 RE    10s        -0.0000    0.0012    0.0000    0.0000   -0.0001   -0.0174   -0.0000   -0.0000    0.0039   -0.0000
       11 RE    11s         0.0000   -0.0024   -0.0000   -0.0000    0.0002    0.0285    0.0000    0.0000   -0.0063    0.0000
       12 RE     2px        0.0001    0.0097   -0.0129   -0.0000    0.9998    0.0008   -0.0001   -0.0000    0.0140   -0.0000
       13 RE     3px       -0.0000    0.0008    0.0002    0.0000   -0.0137    0.1234   -0.0096   -0.0000    0.9798   -0.0000
       14 RE     4px        0.0000   -0.0002   -0.0000   -0.0000    0.0038   -0.0060    0.0009    0.0000   -0.0903    0.0000
       15 RE     5px       -0.0000    0.0001    0.0000    0.0000   -0.0012    0.0015   -0.0002   -0.0000    0.0254   -0.0000
       16 RE     6px        0.0000   -0.0000   -0.0000   -0.0000    0.0006   -0.0006    0.0001    0.0000   -0.0116   -0.0000
       17 RE     7px       -0.0000    0.0001    0.0000    0.0000   -0.0017    0.0017   -0.0003   -0.0000    0.0321    0.0000
       18 RE     8px        0.0000   -0.0001   -0.0000   -0.0000    0.0019   -0.0017    0.0003    0.0000   -0.0319   -0.0000
       19 RE     9px       -0.0000    0.0001    0.0000    0.0000   -0.0018    0.0013   -0.0003   -0.0000    0.0273   -0.0000
       20 RE    10px        0.0000   -0.0001   -0.0000   -0.0000    0.0019   -0.0012    0.0003    0.0000   -0.0269    0.0000
       21 RE    11px       -0.0000    0.0002    0.0000    0.0000   -0.0026    0.0008   -0.0003   -0.0000    0.0274   -0.0000
       22 RE     2py       -0.0000   -0.0000   -0.0000    0.9999   -0.0000   -0.0000   -0.0000    0.0140   -0.0000    0.0001
       23 RE     3py        0.0000    0.0000    0.0000   -0.0135    0.0000   -0.0000   -0.0000    0.9898   -0.0000    0.0025
       24 RE     4py       -0.0000    0.0000   -0.0000    0.0037   -0.0000    0.0000    0.0000   -0.0896    0.0000   -0.0004
       25 RE     5py        0.0000    0.0000    0.0000   -0.0012    0.0000   -0.0000   -0.0000    0.0252   -0.0000    0.0001
       26 RE     6py       -0.0000    0.0000   -0.0000    0.0006   -0.0000    0.0000    0.0000   -0.0115    0.0000   -0.0000
       27 RE     7py        0.0000    0.0000    0.0000   -0.0017    0.0000   -0.0000   -0.0000    0.0318   -0.0000    0.0001
       28 RE     8py       -0.0000   -0.0000   -0.0000    0.0018   -0.0000    0.0000    0.0000   -0.0315    0.0000   -0.0001
       29 RE     9py        0.0000    0.0000    0.0000   -0.0017    0.0000   -0.0000   -0.0000    0.0270   -0.0000    0.0001
       30 RE    10py       -0.0000   -0.0000   -0.0000    0.0019   -0.0000    0.0000    0.0000   -0.0266    0.0000   -0.0001
       31 RE    11py        0.0000    0.0000    0.0000   -0.0026    0.0000   -0.0000   -0.0000    0.0269   -0.0000    0.0001
       32 RE     2pz        0.0000    0.0000    0.9998    0.0000    0.0129    0.0000    0.0140    0.0000    0.0001    0.0000
       33 RE     3pz       -0.0000    0.0000   -0.0135   -0.0000   -0.0002    0.0005    0.9898    0.0000    0.0095    0.0000
       34 RE     4pz        0.0000   -0.0000    0.0037    0.0000    0.0000   -0.0000   -0.0896   -0.0000   -0.0009   -0.0000
       35 RE     5pz       -0.0000    0.0000   -0.0012   -0.0000   -0.0000    0.0000    0.0252    0.0000    0.0002    0.0000
       36 RE     6pz        0.0000   -0.0000    0.0006    0.0000    0.0000   -0.0000   -0.0115   -0.0000   -0.0001   -0.0000
       37 RE     7pz       -0.0000    0.0000   -0.0017   -0.0000   -0.0000    0.0000    0.0318    0.0000    0.0003    0.0000
       38 RE     8pz        0.0000   -0.0000    0.0018    0.0000    0.0000   -0.0000   -0.0315   -0.0000   -0.0003   -0.0000
       39 RE     9pz       -0.0000    0.0000   -0.0017   -0.0000   -0.0000    0.0000    0.0270    0.0000    0.0003    0.0000
       40 RE    10pz        0.0000   -0.0000    0.0019    0.0000    0.0000   -0.0000   -0.0266   -0.0000   -0.0003   -0.0000
       41 RE    11pz       -0.0000    0.0000   -0.0026   -0.0000   -0.0000    0.0000    0.0269    0.0000    0.0003    0.0000
       42 RE     3d2-       0.0000    0.0000   -0.0000    0.0010   -0.0000   -0.0000   -0.0000    0.0840   -0.0000   -0.0331
       43 RE     4d2-      -0.0000   -0.0000    0.0000   -0.0003    0.0000    0.0000    0.0000   -0.0025    0.0000    0.0031
       44 RE     5d2-       0.0000    0.0000   -0.0000    0.0001   -0.0000    0.0000   -0.0000    0.0004   -0.0000   -0.0006
       45 RE     6d2-      -0.0000   -0.0000    0.0000   -0.0001    0.0000   -0.0000    0.0000   -0.0004    0.0000    0.0008
       46 RE     7d2-       0.0000    0.0000   -0.0000    0.0001   -0.0000    0.0000   -0.0000    0.0005   -0.0000   -0.0011
       47 RE     8d2-      -0.0000   -0.0000    0.0000   -0.0001    0.0000   -0.0000    0.0000   -0.0004    0.0000    0.0013
       48 RE     9d2-       0.0000    0.0000   -0.0000    0.0001   -0.0000    0.0000   -0.0000    0.0001   -0.0000   -0.0011
       49 RE    10d2-      -0.0000   -0.0000    0.0000   -0.0002    0.0000   -0.0000   -0.0000    0.0001   -0.0000    0.0013
       50 RE    11d2-       0.0000    0.0000   -0.0000    0.0002   -0.0000    0.0000    0.0000   -0.0004    0.0000   -0.0009
       51 RE     3d1-      -0.0000   -0.0000   -0.0000    0.0000    0.0000    0.0000   -0.0000    0.0003    0.0000    0.9914
       52 RE     4d1-       0.0000    0.0000    0.0000   -0.0000   -0.0000   -0.0000    0.0000   -0.0000   -0.0000   -0.0947
       53 RE     5d1-      -0.0000   -0.0000   -0.0000    0.0000   -0.0000    0.0000   -0.0000    0.0000   -0.0000    0.0195
       54 RE     6d1-       0.0000    0.0000    0.0000   -0.0000   -0.0000   -0.0000    0.0000   -0.0000   -0.0000   -0.0254
       55 RE     7d1-      -0.0000   -0.0000   -0.0000    0.0000    0.0000    0.0000   -0.0000    0.0000    0.0000    0.0341
       56 RE     8d1-       0.0000    0.0000    0.0000   -0.0000   -0.0000   -0.0000    0.0000   -0.0000   -0.0000   -0.0395
       57 RE     9d1-      -0.0000   -0.0000   -0.0000    0.0000    0.0000    0.0000    0.0000   -0.0000    0.0000    0.0322
       58 RE    10d1-       0.0000    0.0000    0.0000   -0.0000   -0.0000   -0.0000   -0.0000    0.0000   -0.0000   -0.0380
       59 RE    11d1-      -0.0000   -0.0000   -0.0000    0.0000    0.0000   -0.0000    0.0000    0.0000   -0.0000    0.0274
       60 RE     3d0        0.0000    0.0000    0.0000    0.0000   -0.0006   -0.0002    0.0009    0.0000   -0.0529   -0.0000
       61 RE     4d0       -0.0000   -0.0000   -0.0000   -0.0000    0.0002    0.0000   -0.0000   -0.0000    0.0015    0.0000
       62 RE     5d0        0.0000    0.0000    0.0000    0.0000   -0.0000   -0.0000    0.0000   -0.0000   -0.0002   -0.0000
       63 RE     6d0       -0.0000   -0.0000   -0.0000   -0.0000    0.0000    0.0000   -0.0000    0.0000    0.0003    0.0000
       64 RE     7d0        0.0000    0.0000    0.0000    0.0000   -0.0001   -0.0000   -0.0000   -0.0000   -0.0003   -0.0000
       65 RE     8d0       -0.0000   -0.0000   -0.0000   -0.0000    0.0001    0.0000   -0.0000    0.0000    0.0002    0.0000
       66 RE     9d0        0.0000    0.0000    0.0000    0.0000   -0.0001   -0.0000    0.0000    0.0000   -0.0001   -0.0000
       67 RE    10d0       -0.0000   -0.0000   -0.0000   -0.0000    0.0001   -0.0000   -0.0000    0.0000   -0.0000    0.0000
       68 RE    11d0        0.0000    0.0000    0.0000    0.0000   -0.0001   -0.0000   -0.0000   -0.0000    0.0002   -0.0000
       69 RE     3d1+      -0.0000   -0.0000    0.0010    0.0000    0.0000   -0.0001    0.0841    0.0000    0.0014   -0.0000
       70 RE     4d1+       0.0000    0.0000   -0.0003   -0.0000   -0.0000   -0.0000   -0.0025   -0.0000   -0.0000    0.0000
       71 RE     5d1+      -0.0000   -0.0000    0.0001    0.0000    0.0000    0.0000    0.0004    0.0000    0.0000   -0.0000
       72 RE     6d1+       0.0000    0.0000   -0.0001   -0.0000   -0.0000   -0.0000   -0.0004   -0.0000   -0.0000    0.0000
       73 RE     7d1+      -0.0000   -0.0000    0.0001    0.0000    0.0000    0.0000    0.0005    0.0000    0.0000   -0.0000
       74 RE     8d1+       0.0000    0.0000   -0.0001   -0.0000   -0.0000   -0.0000   -0.0004   -0.0000   -0.0000    0.0000
       75 RE     9d1+      -0.0000   -0.0000    0.0001    0.0000    0.0000    0.0000    0.0001    0.0000    0.0000   -0.0000
       76 RE    10d1+       0.0000    0.0000   -0.0002   -0.0000   -0.0000   -0.0000    0.0001    0.0000    0.0000    0.0000
       77 RE    11d1+      -0.0000   -0.0000    0.0002    0.0000    0.0000    0.0000   -0.0004   -0.0000   -0.0000   -0.0000
       78 RE     3d2+      -0.0000   -0.0001   -0.0000   -0.0000    0.0010    0.0004   -0.0008   -0.0000    0.0919   -0.0000
       79 RE     4d2+       0.0000    0.0000    0.0000    0.0000   -0.0003   -0.0000    0.0000    0.0000   -0.0026    0.0000
       80 RE     5d2+      -0.0000   -0.0000   -0.0000   -0.0000    0.0001    0.0000   -0.0000   -0.0000    0.0004   -0.0000
       81 RE     6d2+       0.0000    0.0000    0.0000    0.0000   -0.0001   -0.0000    0.0000    0.0000   -0.0004    0.0000
       82 RE     7d2+      -0.0000   -0.0000   -0.0000   -0.0000    0.0001    0.0000   -0.0000   -0.0000    0.0005   -0.0000
       83 RE     8d2+       0.0000    0.0000    0.0000    0.0000   -0.0001   -0.0000    0.0000   -0.0000   -0.0004    0.0000
       84 RE     9d2+      -0.0000   -0.0000   -0.0000   -0.0000    0.0001    0.0000    0.0000    0.0000    0.0002   -0.0000
       85 RE    10d2+       0.0000    0.0000    0.0000    0.0000   -0.0002    0.0000   -0.0000   -0.0000    0.0000    0.0000
       86 RE    11d2+      -0.0000   -0.0000   -0.0000   -0.0000    0.0002    0.0000    0.0000    0.0000   -0.0003   -0.0000
       87 RE     4f3-       0.0000    0.0000    0.0000   -0.0000    0.0000    0.0000    0.0000   -0.0001    0.0000   -0.0004
       88 RE     5f3-      -0.0000   -0.0000   -0.0000    0.0000   -0.0000   -0.0000   -0.0000    0.0001   -0.0000    0.0003
       89 RE     6f3-       0.0000    0.0000    0.0000   -0.0000    0.0000    0.0000    0.0000   -0.0001    0.0000   -0.0003
       90 RE     7f3-      -0.0000   -0.0000   -0.0000    0.0000   -0.0000    0.0000   -0.0000    0.0001   -0.0000    0.0002
       91 RE     8f3-       0.0000    0.0000    0.0000   -0.0000    0.0000   -0.0000    0.0000   -0.0001    0.0000   -0.0002
       92 RE     9f3-      -0.0000   -0.0000   -0.0000    0.0000   -0.0000    0.0000   -0.0000    0.0000   -0.0000    0.0001
       93 RE    10f3-       0.0000    0.0000    0.0000   -0.0000    0.0000   -0.0000   -0.0000    0.0000    0.0000   -0.0001
       94 RE    11f3-      -0.0000   -0.0000   -0.0000    0.0000   -0.0000    0.0000    0.0000   -0.0000   -0.0000    0.0001
       95 RE     4f2-      -0.0000    0.0000    0.0000   -0.0000    0.0000    0.0000    0.0000   -0.0002    0.0000    0.0075
       96 RE     5f2-       0.0000   -0.0000   -0.0000    0.0000   -0.0000   -0.0000   -0.0000    0.0001   -0.0000   -0.0049
       97 RE     6f2-       0.0000    0.0000    0.0000   -0.0000    0.0000    0.0000    0.0000   -0.0001    0.0000    0.0054
       98 RE     7f2-      -0.0000   -0.0000   -0.0000    0.0000   -0.0000   -0.0000   -0.0000    0.0000   -0.0000   -0.0045
       99 RE     8f2-       0.0000    0.0000    0.0000   -0.0000    0.0000    0.0000    0.0000   -0.0000    0.0000    0.0039
      100 RE     9f2-      -0.0000   -0.0000   -0.0000    0.0000   -0.0000   -0.0000    0.0000   -0.0000   -0.0000   -0.0028
      101 RE    10f2-       0.0000    0.0000    0.0000   -0.0000    0.0000    0.0000   -0.0000    0.0000    0.0000    0.0023
      102 RE    11f2-      -0.0000   -0.0000   -0.0000    0.0000    0.0000   -0.0000    0.0000   -0.0000   -0.0000   -0.0013
      103 RE     4f1-       0.0000   -0.0000   -0.0000    0.0000   -0.0000    0.0000   -0.0000    0.0000   -0.0000    0.0001
      104 RE     5f1-       0.0000    0.0000    0.0000   -0.0000    0.0000   -0.0000    0.0000   -0.0000   -0.0000   -0.0001
      105 RE     6f1-      -0.0000   -0.0000   -0.0000    0.0000   -0.0000    0.0000   -0.0000    0.0000    0.0000    0.0001
      106 RE     7f1-      -0.0000    0.0000    0.0000   -0.0000    0.0000   -0.0000    0.0000   -0.0000   -0.0000   -0.0001
      107 RE     8f1-       0.0000   -0.0000   -0.0000    0.0000   -0.0000    0.0000   -0.0000    0.0000    0.0000    0.0001
      108 RE     9f1-      -0.0000    0.0000    0.0000   -0.0000    0.0000   -0.0000    0.0000   -0.0000    0.0000   -0.0000
      109 RE    10f1-       0.0000   -0.0000   -0.0000    0.0000   -0.0000    0.0000    0.0000   -0.0000   -0.0000    0.0000
      110 RE    11f1-      -0.0000    0.0000    0.0000   -0.0000    0.0000   -0.0000   -0.0000    0.0000   -0.0000   -0.0000
      111 RE     4f0        0.0000   -0.0000    0.0000    0.0000    0.0000    0.0000    0.0000    0.0000    0.0001    0.0000
      112 RE     5f0       -0.0000    0.0000   -0.0000   -0.0000   -0.0000   -0.0000   -0.0000   -0.0000   -0.0001   -0.0000
      113 RE     6f0       -0.0000   -0.0000    0.0000    0.0000    0.0000    0.0000    0.0000    0.0000    0.0001    0.0000
      114 RE     7f0        0.0000   -0.0000   -0.0000   -0.0000   -0.0000    0.0000   -0.0000   -0.0000   -0.0000   -0.0000
      115 RE     8f0       -0.0000    0.0000    0.0000    0.0000    0.0000   -0.0000    0.0000    0.0000    0.0000    0.0000
      116 RE     9f0       -0.0000    0.0000   -0.0000   -0.0000   -0.0000   -0.0000   -0.0000   -0.0000    0.0000   -0.0000
      117 RE    10f0        0.0000   -0.0000    0.0000    0.0000    0.0000    0.0000   -0.0000   -0.0000   -0.0000   -0.0000
      118 RE    11f0        0.0000   -0.0000   -0.0000   -0.0000   -0.0000    0.0000    0.0000    0.0000    0.0000    0.0000
      119 RE     4f1+       0.0000   -0.0000   -0.0000   -0.0000    0.0000   -0.0002    0.0001    0.0000    0.0003   -0.0000
      120 RE     5f1+      -0.0000    0.0000    0.0000    0.0000   -0.0000    0.0001   -0.0000   -0.0000   -0.0002    0.0000
      121 RE     6f1+       0.0000   -0.0000   -0.0000   -0.0000    0.0000   -0.0001    0.0000    0.0000    0.0002   -0.0000
      122 RE     7f1+      -0.0000    0.0000    0.0000    0.0000   -0.0000    0.0001   -0.0000   -0.0000   -0.0001    0.0000
      123 RE     8f1+       0.0000   -0.0000   -0.0000   -0.0000    0.0000   -0.0001   -0.0000   -0.0000    0.0001   -0.0000
      124 RE     9f1+      -0.0000    0.0000    0.0000    0.0000   -0.0000    0.0000    0.0000    0.0000   -0.0000    0.0000
      125 RE    10f1+       0.0000   -0.0000   -0.0000   -0.0000    0.0000   -0.0000   -0.0000   -0.0000   -0.0000   -0.0000
      126 RE    11f1+      -0.0000    0.0000    0.0000    0.0000   -0.0000   -0.0000    0.0000    0.0000    0.0001    0.0000
      127 RE     4f2+      -0.0000    0.0000   -0.0000   -0.0000   -0.0000    0.0000   -0.0001   -0.0000    0.0000   -0.0000
      128 RE     5f2+      -0.0000    0.0000    0.0000    0.0000    0.0000   -0.0000    0.0000    0.0000   -0.0000    0.0000
      129 RE     6f2+      -0.0000    0.0000   -0.0000   -0.0000   -0.0000    0.0000   -0.0001   -0.0000    0.0000   -0.0000
      130 RE     7f2+       0.0000   -0.0000    0.0000    0.0000    0.0000    0.0000    0.0001    0.0000   -0.0000    0.0000
      131 RE     8f2+      -0.0000    0.0000   -0.0000   -0.0000   -0.0000   -0.0000   -0.0001   -0.0000   -0.0000   -0.0000
      132 RE     9f2+      -0.0000    0.0000    0.0000    0.0000    0.0000   -0.0000    0.0000    0.0000    0.0000    0.0000
      133 RE    10f2+       0.0000   -0.0000   -0.0000   -0.0000   -0.0000    0.0000    0.0000    0.0000   -0.0000   -0.0000
      134 RE    11f2+       0.0000   -0.0000    0.0000    0.0000    0.0000    0.0000   -0.0000   -0.0000    0.0000    0.0000
      135 RE     4f3+      -0.0000    0.0000    0.0000    0.0000   -0.0000    0.0003    0.0001    0.0000   -0.0004   -0.0000
      136 RE     5f3+       0.0000   -0.0000   -0.0000   -0.0000    0.0000   -0.0002   -0.0000   -0.0000    0.0002    0.0000
      137 RE     6f3+      -0.0000    0.0000    0.0000    0.0000   -0.0000    0.0002    0.0000    0.0000   -0.0002   -0.0000
      138 RE     7f3+       0.0000   -0.0000   -0.0000   -0.0000    0.0000   -0.0001   -0.0000   -0.0000    0.0001    0.0000
      139 RE     8f3+      -0.0000    0.0000    0.0000    0.0000   -0.0000    0.0001    0.0000    0.0000   -0.0001   -0.0000
      140 RE     9f3+       0.0000   -0.0000   -0.0000   -0.0000    0.0000   -0.0000    0.0000    0.0000    0.0000    0.0000
      141 RE    10f3+      -0.0000    0.0000    0.0000    0.0000   -0.0000    0.0000   -0.0000   -0.0000    0.0000   -0.0000
      142 RE    11f3+       0.0000   -0.0000   -0.0000   -0.0000    0.0000    0.0000    0.0000    0.0000   -0.0001    0.0000
      143 RE     5g4-      -0.0000    0.0000   -0.0000    0.0000   -0.0000   -0.0000   -0.0000    0.0001   -0.0000   -0.0000
      144 RE     6g4-       0.0000   -0.0000    0.0000   -0.0000    0.0000   -0.0000    0.0000   -0.0001    0.0000    0.0000
      145 RE     7g4-      -0.0000    0.0000    0.0000   -0.0000    0.0000   -0.0000   -0.0000    0.0001   -0.0000    0.0000
      146 RE     8g4-       0.0000   -0.0000   -0.0000    0.0000   -0.0000    0.0000    0.0000   -0.0001    0.0000   -0.0000
      147 RE     5g3-       0.0000    0.0000    0.0000   -0.0000   -0.0000    0.0000    0.0000   -0.0001    0.0000   -0.0001
      148 RE     6g3-      -0.0000   -0.0000   -0.0000    0.0000   -0.0000   -0.0000   -0.0000    0.0000   -0.0000    0.0000
      149 RE     7g3-       0.0000    0.0000    0.0000   -0.0000    0.0000    0.0000    0.0000   -0.0000    0.0000   -0.0000
      150 RE     8g3-      -0.0000   -0.0000   -0.0000    0.0000   -0.0000   -0.0000   -0.0000    0.0000   -0.0000    0.0000
      151 RE     5g2-      -0.0000   -0.0000    0.0000   -0.0000    0.0000   -0.0000    0.0000   -0.0000    0.0000   -0.0000
      152 RE     6g2-       0.0000    0.0000   -0.0000    0.0000   -0.0000    0.0000   -0.0000    0.0000   -0.0000    0.0000
      153 RE     7g2-      -0.0000   -0.0000   -0.0000    0.0000   -0.0000   -0.0000    0.0000   -0.0000    0.0000   -0.0000
      154 RE     8g2-       0.0000    0.0000    0.0000   -0.0000    0.0000    0.0000   -0.0000    0.0000   -0.0000    0.0000
      155 RE     5g1-       0.0000   -0.0000   -0.0000    0.0000   -0.0000   -0.0000   -0.0000    0.0000   -0.0000    0.0000
      156 RE     6g1-      -0.0000   -0.0000   -0.0000    0.0000   -0.0000   -0.0000    0.0000   -0.0000    0.0000   -0.0000
      157 RE     7g1-       0.0000    0.0000    0.0000   -0.0000    0.0000    0.0000   -0.0000    0.0000   -0.0000    0.0000
      158 RE     8g1-      -0.0000   -0.0000   -0.0000    0.0000   -0.0000   -0.0000    0.0000   -0.0000    0.0000   -0.0000
      159 RE     5g0       -0.0000    0.0000    0.0000    0.0000   -0.0000   -0.0000   -0.0000   -0.0000    0.0000   -0.0000
      160 RE     6g0        0.0000   -0.0000    0.0000    0.0000    0.0000    0.0000    0.0000    0.0000   -0.0000    0.0000
      161 RE     7g0       -0.0000    0.0000   -0.0000   -0.0000    0.0000   -0.0000   -0.0000   -0.0000    0.0000   -0.0000
      162 RE     8g0       -0.0000    0.0000    0.0000    0.0000   -0.0000    0.0000    0.0000    0.0000   -0.0000    0.0000
      163 RE     5g1+       0.0000   -0.0000   -0.0000   -0.0000    0.0000    0.0000   -0.0001   -0.0000    0.0000    0.0000
      164 RE     6g1+      -0.0000    0.0000    0.0000    0.0000    0.0000   -0.0000    0.0001    0.0000   -0.0000   -0.0000
      165 RE     7g1+      -0.0000   -0.0000    0.0000    0.0000   -0.0000    0.0000   -0.0001   -0.0000    0.0000    0.0000
      166 RE     8g1+       0.0000   -0.0000   -0.0000   -0.0000    0.0000   -0.0000    0.0000    0.0000   -0.0000   -0.0000
      167 RE     5g2+       0.0000   -0.0000    0.0000    0.0000    0.0000    0.0000    0.0000    0.0000   -0.0001    0.0000
      168 RE     6g2+      -0.0000    0.0000    0.0000    0.0000   -0.0000   -0.0000   -0.0000   -0.0000    0.0001   -0.0000
      169 RE     7g2+       0.0000   -0.0000   -0.0000   -0.0000   -0.0000    0.0000    0.0000    0.0000   -0.0001    0.0000
      170 RE     8g2+       0.0000   -0.0000    0.0000    0.0000    0.0000   -0.0000   -0.0000   -0.0000    0.0000   -0.0000
      171 RE     5g3+       0.0000   -0.0000    0.0000    0.0000    0.0000    0.0001    0.0001    0.0000    0.0000   -0.0000
      172 RE     6g3+      -0.0000    0.0000   -0.0000   -0.0000    0.0000   -0.0000   -0.0001   -0.0000   -0.0000    0.0000
      173 RE     7g3+      -0.0000   -0.0000   -0.0000   -0.0000   -0.0000    0.0000    0.0001    0.0000    0.0000   -0.0000
      174 RE     8g3+       0.0000   -0.0000    0.0000    0.0000    0.0000   -0.0000   -0.0000   -0.0000   -0.0000    0.0000
      175 RE     5g4+      -0.0000    0.0000    0.0000    0.0000   -0.0000   -0.0000    0.0000    0.0000    0.0001    0.0000
      176 RE     6g4+       0.0000   -0.0000    0.0000    0.0000    0.0000    0.0000   -0.0000   -0.0000   -0.0001   -0.0000
      177 RE     7g4+      -0.0000    0.0000   -0.0000   -0.0000    0.0000   -0.0000    0.0000    0.0000    0.0001    0.0000
      178 RE     8g4+      -0.0000    0.0000   -0.0000   -0.0000   -0.0000    0.0000   -0.0000   -0.0000   -0.0000   -0.0000
      179 RE     6h5-       0.0000   -0.0000    0.0000   -0.0000   -0.0000    0.0000   -0.0000    0.0000    0.0000   -0.0000
      180 RE     7h5-      -0.0000    0.0000    0.0000   -0.0000    0.0000   -0.0000    0.0000   -0.0000   -0.0000   -0.0000
      181 RE     6h4-      -0.0000   -0.0000   -0.0000    0.0000   -0.0000   -0.0000    0.0000   -0.0000    0.0000    0.0000
      182 RE     7h4-      -0.0000   -0.0000   -0.0000    0.0000   -0.0000   -0.0000   -0.0000    0.0000   -0.0000   -0.0000
      183 RE     6h3-       0.0000    0.0000   -0.0000    0.0000   -0.0000    0.0000    0.0000   -0.0000    0.0000   -0.0000
      184 RE     7h3-      -0.0000   -0.0000    0.0000   -0.0000    0.0000   -0.0000   -0.0000    0.0000   -0.0000    0.0000
      185 RE     6h2-      -0.0000   -0.0000   -0.0000    0.0000   -0.0000   -0.0000   -0.0000    0.0000   -0.0000   -0.0000
      186 RE     7h2-       0.0000    0.0000    0.0000   -0.0000    0.0000    0.0000    0.0000   -0.0000    0.0000    0.0000
      187 RE     6h1-      -0.0000   -0.0000    0.0000   -0.0000   -0.0000   -0.0000   -0.0000    0.0000    0.0000   -0.0000
      188 RE     7h1-       0.0000    0.0000    0.0000   -0.0000    0.0000    0.0000   -0.0000    0.0000   -0.0000    0.0000
      189 RE     6h0       -0.0000    0.0000   -0.0000   -0.0000   -0.0000   -0.0000    0.0000    0.0000   -0.0000    0.0000
      190 RE     7h0       -0.0000    0.0000    0.0000    0.0000    0.0000    0.0000   -0.0000   -0.0000    0.0000   -0.0000
      191 RE     6h1+       0.0000   -0.0000    0.0000    0.0000   -0.0000    0.0000   -0.0000   -0.0000   -0.0000    0.0000
      192 RE     7h1+      -0.0000    0.0000    0.0000    0.0000   -0.0000   -0.0000    0.0000    0.0000    0.0000   -0.0000
      193 RE     6h2+       0.0000   -0.0000    0.0000    0.0000    0.0000    0.0000   -0.0000   -0.0000    0.0000    0.0000
      194 RE     7h2+       0.0000   -0.0000    0.0000    0.0000   -0.0000   -0.0000   -0.0000   -0.0000   -0.0000   -0.0000
      195 RE     6h3+      -0.0000    0.0000    0.0000    0.0000    0.0000   -0.0000    0.0000    0.0000    0.0000    0.0000
      196 RE     7h3+       0.0000   -0.0000   -0.0000   -0.0000    0.0000    0.0000   -0.0000   -0.0000   -0.0000    0.0000
      197 RE     6h4+       0.0000   -0.0000   -0.0000   -0.0000    0.0000    0.0000    0.0000    0.0000    0.0000    0.0000
      198 RE     7h4+      -0.0000   -0.0000   -0.0000   -0.0000   -0.0000   -0.0000   -0.0000   -0.0000   -0.0000   -0.0000
      199 RE     6h5+       0.0000   -0.0000    0.0000    0.0000   -0.0000    0.0000    0.0000    0.0000   -0.0000   -0.0000
      200 RE     7h5+      -0.0000    0.0000   -0.0000   -0.0000   -0.0000   -0.0000   -0.0000   -0.0000    0.0000    0.0000

          Orbital           11        12        13        14    
          Energy         -155.8255 -155.5650 -155.5638 -155.4266
          Occ. No.          0.0000    0.0000    0.0000    0.0000

        1 RE     1s        -0.0000    0.0000    0.0000   -0.0000
        2 RE     2s         0.0000    0.0000   -0.0000    0.0004
        3 RE     3s         0.0000   -0.0000   -0.0000    0.0122
        4 RE     4s        -0.0000   -0.0000    0.0000   -0.0027
        5 RE     5s         0.0000    0.0000    0.0000    0.0008
        6 RE     6s        -0.0000   -0.0000    0.0000   -0.0002
        7 RE     7s         0.0000    0.0000   -0.0000    0.0004
        8 RE     8s        -0.0000   -0.0000   -0.0000   -0.0008
        9 RE     9s         0.0000    0.0000   -0.0000    0.0009
       10 RE    10s        -0.0000   -0.0000    0.0000   -0.0006
       11 RE    11s         0.0000    0.0000   -0.0000    0.0009
       12 RE     2px       -0.0000    0.0000    0.0000   -0.0028
       13 RE     3px       -0.0002    0.0011    0.0000   -0.1032
       14 RE     4px        0.0000   -0.0002   -0.0000    0.0147
       15 RE     5px       -0.0000    0.0000    0.0000   -0.0042
       16 RE     6px        0.0000   -0.0000   -0.0000    0.0019
       17 RE     7px       -0.0000    0.0001    0.0000   -0.0054
       18 RE     8px        0.0000   -0.0001   -0.0000    0.0053
       19 RE     9px       -0.0000    0.0000    0.0000   -0.0045
       20 RE    10px        0.0000   -0.0000   -0.0000    0.0044
       21 RE    11px       -0.0000    0.0000    0.0000   -0.0043
       22 RE     2py        0.0000    0.0000   -0.0023   -0.0000
       23 RE     3py        0.0000    0.0000   -0.0824   -0.0000
       24 RE     4py       -0.0000   -0.0000    0.0113    0.0000
       25 RE     5py        0.0000    0.0000   -0.0033   -0.0000
       26 RE     6py       -0.0000   -0.0000    0.0015    0.0000
       27 RE     7py        0.0000    0.0000   -0.0041   -0.0000
       28 RE     8py       -0.0000   -0.0000    0.0041    0.0000
       29 RE     9py        0.0000    0.0000   -0.0035   -0.0000
       30 RE    10py       -0.0000   -0.0000    0.0034    0.0000
       31 RE    11py        0.0000    0.0000   -0.0034   -0.0000
       32 RE     2pz       -0.0000   -0.0023   -0.0000   -0.0000
       33 RE     3pz       -0.0014   -0.0825   -0.0000   -0.0012
       34 RE     4pz        0.0002    0.0114    0.0000    0.0002
       35 RE     5pz       -0.0001   -0.0033   -0.0000   -0.0001
       36 RE     6pz        0.0000    0.0015    0.0000    0.0000
       37 RE     7pz       -0.0001   -0.0042   -0.0000   -0.0001
       38 RE     8pz        0.0001    0.0041    0.0000    0.0001
       39 RE     9pz       -0.0001   -0.0035   -0.0000   -0.0001
       40 RE    10pz        0.0001    0.0035    0.0000    0.0001
       41 RE    11pz       -0.0001   -0.0034   -0.0000   -0.0001
       42 RE     3d2-      -0.0000   -0.0000    0.9876    0.0000
       43 RE     4d2-       0.0000    0.0000   -0.0955   -0.0000
       44 RE     5d2-      -0.0000   -0.0000    0.0197    0.0000
       45 RE     6d2-       0.0000    0.0000   -0.0256   -0.0000
       46 RE     7d2-      -0.0000   -0.0000    0.0345    0.0000
       47 RE     8d2-       0.0000    0.0000   -0.0400   -0.0000
       48 RE     9d2-      -0.0000   -0.0000    0.0327    0.0000
       49 RE    10d2-       0.0000    0.0000   -0.0385   -0.0000
       50 RE    11d2-      -0.0000   -0.0000    0.0278    0.0000
       51 RE     3d1-       0.0000   -0.0000    0.0332   -0.0000
       52 RE     4d1-      -0.0000    0.0000   -0.0033    0.0000
       53 RE     5d1-       0.0000   -0.0000    0.0007   -0.0000
       54 RE     6d1-      -0.0000    0.0000   -0.0009    0.0000
       55 RE     7d1-       0.0000   -0.0000    0.0012   -0.0000
       56 RE     8d1-      -0.0000    0.0000   -0.0014    0.0000
       57 RE     9d1-       0.0000   -0.0000    0.0011   -0.0000
       58 RE    10d1-      -0.0000    0.0000   -0.0013    0.0000
       59 RE    11d1-       0.0000   -0.0000    0.0009   -0.0000
       60 RE     3d0        0.8585   -0.0027    0.0000   -0.4938
       61 RE     4d0       -0.0820    0.0003   -0.0000    0.0482
       62 RE     5d0        0.0169   -0.0001    0.0000   -0.0100
       63 RE     6d0       -0.0220    0.0001   -0.0000    0.0130
       64 RE     7d0        0.0296   -0.0001    0.0000   -0.0175
       65 RE     8d0       -0.0342    0.0001   -0.0000    0.0202
       66 RE     9d0        0.0279   -0.0001    0.0000   -0.0165
       67 RE    10d0       -0.0329    0.0001   -0.0000    0.0195
       68 RE    11d0        0.0237   -0.0001    0.0000   -0.0140
       69 RE     3d1+       0.0123    0.9879    0.0000    0.0159
       70 RE     4d1+      -0.0011   -0.0955   -0.0000   -0.0015
       71 RE     5d1+       0.0002    0.0197    0.0000    0.0003
       72 RE     6d1+      -0.0003   -0.0256   -0.0000   -0.0004
       73 RE     7d1+       0.0004    0.0345    0.0000    0.0006
       74 RE     8d1+      -0.0005   -0.0400   -0.0000   -0.0007
       75 RE     9d1+       0.0004    0.0327    0.0000    0.0005
       76 RE    10d1+      -0.0005   -0.0385   -0.0000   -0.0006
       77 RE    11d1+       0.0003    0.0278    0.0000    0.0005
       78 RE     3d2+       0.4966   -0.0199   -0.0000    0.8532
       79 RE     4d2+      -0.0474    0.0020    0.0000   -0.0833
       80 RE     5d2+       0.0098   -0.0004   -0.0000    0.0172
       81 RE     6d2+      -0.0127    0.0005    0.0000   -0.0224
       82 RE     7d2+       0.0171   -0.0007   -0.0000    0.0302
       83 RE     8d2+      -0.0198    0.0008    0.0000   -0.0350
       84 RE     9d2+       0.0161   -0.0007   -0.0000    0.0285
       85 RE    10d2+      -0.0190    0.0008    0.0000   -0.0336
       86 RE    11d2+       0.0137   -0.0006   -0.0000    0.0242
       87 RE     4f3-      -0.0000   -0.0000    0.0098    0.0000
       88 RE     5f3-       0.0000    0.0000   -0.0063   -0.0000
       89 RE     6f3-      -0.0000   -0.0000    0.0070    0.0000
       90 RE     7f3-       0.0000    0.0000   -0.0058   -0.0000
       91 RE     8f3-      -0.0000   -0.0000    0.0049    0.0000
       92 RE     9f3-       0.0000    0.0000   -0.0035   -0.0000
       93 RE    10f3-      -0.0000   -0.0000    0.0028    0.0000
       94 RE    11f3-       0.0000    0.0000   -0.0016   -0.0000
       95 RE     4f2-       0.0000   -0.0000    0.0002   -0.0000
       96 RE     5f2-      -0.0000    0.0000   -0.0001    0.0000
       97 RE     6f2-       0.0000   -0.0000    0.0002   -0.0000
       98 RE     7f2-      -0.0000    0.0000   -0.0002    0.0000
       99 RE     8f2-       0.0000   -0.0000    0.0002   -0.0000
      100 RE     9f2-      -0.0000    0.0000   -0.0001    0.0000
      101 RE    10f2-       0.0000   -0.0000    0.0001   -0.0000
      102 RE    11f2-      -0.0000    0.0000   -0.0000    0.0000
      103 RE     4f1-       0.0000    0.0000   -0.0025   -0.0000
      104 RE     5f1-      -0.0000   -0.0000    0.0016    0.0000
      105 RE     6f1-       0.0000    0.0000   -0.0018   -0.0000
      106 RE     7f1-      -0.0000   -0.0000    0.0015    0.0000
      107 RE     8f1-       0.0000    0.0000   -0.0013   -0.0000
      108 RE     9f1-      -0.0000   -0.0000    0.0009    0.0000
      109 RE    10f1-       0.0000    0.0000   -0.0007   -0.0000
      110 RE    11f1-      -0.0000   -0.0000    0.0004    0.0000
      111 RE     4f0       -0.0001   -0.0062   -0.0000   -0.0001
      112 RE     5f0        0.0001    0.0040    0.0000    0.0001
      113 RE     6f0       -0.0001   -0.0045   -0.0000   -0.0001
      114 RE     7f0        0.0000    0.0037    0.0000    0.0001
      115 RE     8f0       -0.0000   -0.0031   -0.0000   -0.0001
      116 RE     9f0        0.0000    0.0022    0.0000    0.0001
      117 RE    10f0       -0.0000   -0.0018   -0.0000   -0.0000
      118 RE    11f0        0.0000    0.0010    0.0000    0.0000
      119 RE     4f1+       0.0059    0.0002    0.0000   -0.0068
      120 RE     5f1+      -0.0038   -0.0001   -0.0000    0.0044
      121 RE     6f1+       0.0043    0.0001    0.0000   -0.0049
      122 RE     7f1+      -0.0036   -0.0001   -0.0000    0.0040
      123 RE     8f1+       0.0031    0.0000    0.0000   -0.0034
      124 RE     9f1+      -0.0022   -0.0000   -0.0000    0.0024
      125 RE    10f1+       0.0018    0.0000    0.0000   -0.0019
      126 RE    11f1+      -0.0010   -0.0000   -0.0000    0.0010
      127 RE     4f2+       0.0002    0.0080    0.0000    0.0002
      128 RE     5f2+      -0.0001   -0.0052   -0.0000   -0.0001
      129 RE     6f2+       0.0001    0.0058    0.0000    0.0001
      130 RE     7f2+      -0.0001   -0.0047   -0.0000   -0.0001
      131 RE     8f2+       0.0001    0.0040    0.0000    0.0001
      132 RE     9f2+      -0.0000   -0.0029   -0.0000   -0.0001
      133 RE    10f2+       0.0000    0.0023    0.0000    0.0000
      134 RE    11f2+      -0.0000   -0.0013   -0.0000   -0.0000
      135 RE     4f3+       0.0046   -0.0001   -0.0000    0.0088
      136 RE     5f3+      -0.0030    0.0001    0.0000   -0.0056
      137 RE     6f3+       0.0033   -0.0001   -0.0000    0.0063
      138 RE     7f3+      -0.0028    0.0001    0.0000   -0.0051
      139 RE     8f3+       0.0024   -0.0001   -0.0000    0.0044
      140 RE     9f3+      -0.0017    0.0001    0.0000   -0.0031
      141 RE    10f3+       0.0014   -0.0001   -0.0000    0.0024
      142 RE    11f3+      -0.0008    0.0000    0.0000   -0.0013
      143 RE     5g4-      -0.0000    0.0000   -0.0001   -0.0000
      144 RE     6g4-       0.0000   -0.0000    0.0001    0.0000
      145 RE     7g4-       0.0000    0.0000   -0.0001   -0.0000
      146 RE     8g4-      -0.0000   -0.0000    0.0001    0.0000
      147 RE     5g3-      -0.0000    0.0000   -0.0001   -0.0000
      148 RE     6g3-       0.0000   -0.0000    0.0000    0.0000
      149 RE     7g3-      -0.0000    0.0000   -0.0000   -0.0000
      150 RE     8g3-       0.0000   -0.0000    0.0000    0.0000
      151 RE     5g2-      -0.0000   -0.0000    0.0000   -0.0000
      152 RE     6g2-       0.0000    0.0000   -0.0000   -0.0000
      153 RE     7g2-      -0.0000   -0.0000    0.0000    0.0000
      154 RE     8g2-       0.0000    0.0000   -0.0000    0.0000
      155 RE     5g1-       0.0000   -0.0000    0.0000    0.0000
      156 RE     6g1-      -0.0000    0.0000   -0.0000   -0.0000
      157 RE     7g1-       0.0000   -0.0000    0.0000    0.0000
      158 RE     8g1-      -0.0000    0.0000   -0.0000   -0.0000
      159 RE     5g0        0.0000   -0.0000   -0.0000   -0.0001
      160 RE     6g0       -0.0000    0.0000    0.0000    0.0001
      161 RE     7g0        0.0000   -0.0000   -0.0000   -0.0001
      162 RE     8g0       -0.0000    0.0000    0.0000    0.0001
      163 RE     5g1+      -0.0000    0.0001    0.0000    0.0000
      164 RE     6g1+       0.0000   -0.0001   -0.0000   -0.0000
      165 RE     7g1+      -0.0000    0.0001    0.0000    0.0000
      166 RE     8g1+       0.0000   -0.0000   -0.0000   -0.0000
      167 RE     5g2+      -0.0000    0.0000    0.0000    0.0002
      168 RE     6g2+       0.0000   -0.0000   -0.0000   -0.0001
      169 RE     7g2+      -0.0000    0.0000    0.0000    0.0001
      170 RE     8g2+       0.0000   -0.0000   -0.0000   -0.0001
      171 RE     5g3+       0.0000   -0.0001   -0.0000    0.0000
      172 RE     6g3+      -0.0000    0.0001    0.0000   -0.0000
      173 RE     7g3+      -0.0000   -0.0001   -0.0000    0.0000
      174 RE     8g3+       0.0000    0.0000    0.0000   -0.0000
      175 RE     5g4+      -0.0000    0.0000    0.0000   -0.0002
      176 RE     6g4+       0.0000   -0.0000   -0.0000    0.0002
      177 RE     7g4+      -0.0000    0.0000    0.0000   -0.0002
      178 RE     8g4+       0.0000   -0.0000   -0.0000    0.0001
      179 RE     6h5-      -0.0000   -0.0000    0.0000   -0.0000
      180 RE     7h5-      -0.0000    0.0000   -0.0000    0.0000
      181 RE     6h4-       0.0000    0.0000   -0.0000   -0.0000
      182 RE     7h4-      -0.0000   -0.0000    0.0000    0.0000
      183 RE     6h3-      -0.0000    0.0000   -0.0000   -0.0000
      184 RE     7h3-       0.0000   -0.0000    0.0000    0.0000
      185 RE     6h2-      -0.0000   -0.0000    0.0000    0.0000
      186 RE     7h2-       0.0000    0.0000   -0.0000    0.0000
      187 RE     6h1-      -0.0000   -0.0000    0.0000    0.0000
      188 RE     7h1-       0.0000    0.0000   -0.0000    0.0000
      189 RE     6h0       -0.0000    0.0000    0.0000   -0.0000
      190 RE     7h0        0.0000   -0.0000   -0.0000    0.0000
      191 RE     6h1+      -0.0000   -0.0000   -0.0000    0.0000
      192 RE     7h1+       0.0000    0.0000    0.0000   -0.0000
      193 RE     6h2+      -0.0000   -0.0000   -0.0000    0.0000
      194 RE     7h2+       0.0000    0.0000    0.0000    0.0000
      195 RE     6h3+       0.0000    0.0000    0.0000   -0.0000
      196 RE     7h3+      -0.0000   -0.0000   -0.0000    0.0000
      197 RE     6h4+      -0.0000    0.0000    0.0000    0.0000
      198 RE     7h4+       0.0000   -0.0000   -0.0000   -0.0000
      199 RE     6h5+       0.0000    0.0000    0.0000    0.0000
      200 RE     7h5+      -0.0000   -0.0000   -0.0000   -0.0000
--


++    Molecular charges:
      ------------------

      Mulliken charges per centre and basis function type
      ---------------------------------------------------

                RE    
      1s       2.0000
      2s       2.0000
      2px      1.9999
      2pz      1.9999
      2py      1.9999
      3s       1.9808
      3px      1.9512
      3pz      1.9599
      3py      1.9600
      4s       0.0127
      3d2+     0.0169
      3d1+     0.0142
      3d0      0.0056
      3d1-     0.0000
      3d2-     0.0141
      4px      0.0164
      4pz      0.0161
      4py      0.0161
      5s       0.0011
      4d2+     0.0000
      4d1+     0.0000
      4d0      0.0000
      4d1-     0.0000
      4d2-     0.0000
      5px      0.0013
      5pz      0.0013
      5py      0.0013
      6s       0.0001
      4f3+     0.0000
      4f2+     0.0000
      4f1+     0.0000
      4f0      0.0000
      4f1-     0.0000
      4f2-     0.0000
      4f3-     0.0000
      5d2+     0.0000
      5d1+     0.0000
      5d0      0.0000
      5d1-     0.0000
      5d2-     0.0000
      6px      0.0003
      6pz      0.0003
      6py      0.0003
      7s       0.0002
      5f3+     0.0000
      5f2+     0.0000
      5f1+     0.0000
      5f0      0.0000
      5f1-     0.0000
      5f2-     0.0000
      5f3-     0.0000
      6d2+     0.0000
      6d1+     0.0000
      6d0      0.0000
      6d1-     0.0000
      6d2-     0.0000
      7px      0.0021
      7pz      0.0020
      7py      0.0020
      5g4+     0.0000
      5g3+     0.0000
      5g2+     0.0000
      5g1+     0.0000
      5g0      0.0000
      5g1-     0.0000
      5g2-     0.0000
      5g3-     0.0000
      5g4-     0.0000
      6f3+     0.0000
      6f2+     0.0000
      6f1+     0.0000
      6f0      0.0000
      6f1-     0.0000
      6f2-     0.0000
      6f3-     0.0000
      6g4+     0.0000
      6g3+     0.0000
      6g2+     0.0000
      6g1+     0.0000
      6g0      0.0000
      6g1-     0.0000
      6g2-     0.0000
      6g3-     0.0000
      6g4-     0.0000
      6h5+     0.0000
      6h4+     0.0000
      6h3+     0.0000
      6h2+     0.0000
      6h1+     0.0000
      6h0      0.0000
      6h1-     0.0000
      6h2-     0.0000
      6h3-     0.0000
      6h4-     0.0000
      6h5-     0.0000
      7d2+     0.0000
      7d1+     0.0000
      7d0      0.0000
      7d1-     0.0000
      7d2-     0.0000
      7f3+     0.0000
      7f2+     0.0000
      7f1+     0.0000
      7f0      0.0000
      7f1-     0.0000
      7f2-     0.0000
      7f3-     0.0000
      7g4+     0.0000
      7g3+     0.0000
      7g2+     0.0000
      7g1+     0.0000
      7g0      0.0000
      7g1-     0.0000
      7g2-     0.0000
      7g3-     0.0000
      7g4-     0.0000
      7h5+     0.0000
      7h4+     0.0000
      7h3+     0.0000
      7h2+     0.0000
      7h1+     0.0000
      7h0      0.0000
      7h1-     0.0000
      7h2-     0.0000
      7h3-     0.0000
      7h4-     0.0000
      7h5-     0.0000
      8s       0.0010
      8px      0.0020
      8pz      0.0020
      8py      0.0020
      8d2+     0.0000
      8d1+     0.0000
      8d0      0.0000
      8d1-     0.0000
      8d2-     0.0000
      8f3+     0.0000
      8f2+     0.0000
      8f1+     0.0000
      8f0      0.0000
      8f1-     0.0000
      8f2-     0.0000
      8f3-     0.0000
      8g4+     0.0000
      8g3+     0.0000
      8g2+     0.0000
      8g1+     0.0000
      8g0      0.0000
      8g1-     0.0000
      8g2-     0.0000
      8g3-     0.0000
      8g4-     0.0000
      9s       0.0014
      9px      0.0015
      9pz      0.0015
      9py      0.0015
      9d2+     0.0000
      9d1+     0.0000
      9d0      0.0000
      9d1-     0.0000
      9d2-     0.0000
      9f3+     0.0000
      9f2+     0.0000
      9f1+     0.0000
      9f0      0.0000
      9f1-     0.0000
      9f2-     0.0000
      9f3-     0.0000
     10s       0.0006
     10px      0.0015
     10pz      0.0014
     10py      0.0014
     10d2+     0.0000
     10d1+     0.0000
     10d0      0.0000
     10d1-     0.0000
     10d2-     0.0000
     10f3+     0.0000
     10f2+     0.0000
     10f1+     0.0000
     10f0      0.0000
     10f1-     0.0000
     10f2-     0.0000
     10f3-     0.0000
     11s       0.0017
     11px      0.0015
     11pz      0.0015
     11py      0.0015
     11d2+     0.0000
     11d1+     0.0000
     11d0      0.0000
     11d1-     0.0000
     11d2-     0.0000
     11f3+     0.0000
     11f2+     0.0000
     11f1+     0.0000
     11f0      0.0000
     11f1-     0.0000
     11f2-     0.0000
     11f3-     0.0000
      Total   18.0000

      N-E     57.0000

      Total electronic charge=   18.000000

      Total            charge=   57.000000
--

 Sorry, Molden does not know how to handle
 functions with angular momentum larger than g

++    Static properties:
      ------------------


[...]
    6         0.263331       3 0.5  1.0000    9 0.5  0.0000    8 0.5  0.0000    7 0.5  0.0000    6 0.5  0.0000
    7         0.264513       4 0.5  1.0000    9 0.5  0.0000    8 0.5  0.0000    7 0.5  0.0000    6 0.5  0.0000
    8         0.264513       4 0.5  1.0000    9 0.5  0.0000    8 0.5  0.0000    7 0.5  0.0000    6 0.5  0.0000
    9         0.402912       5 0.5  1.0000    9 0.5  0.0000    8 0.5  0.0000    7 0.5  0.0000    6 0.5  0.0000
   10         0.402912       5 0.5  1.0000    9 0.5  0.0000    8 0.5  0.0000    7 0.5  0.0000    6 0.5  0.0000
   11        76.933518       6 0.5  1.0000    9 0.5  0.0000    8 0.5  0.0000    7 0.5  0.0000    5 0.5  0.0000
   12        76.933518       6 0.5  1.0000    9 0.5  0.0000    8 0.5  0.0000    7 0.5  0.0000    5 0.5  0.0000
   13        84.191628       7 0.5  1.0000    9 0.5  0.0000    8 0.5  0.0000    6 0.5  0.0000    5 0.5  0.0000
   14        84.191628       7 0.5  1.0000    9 0.5  0.0000    8 0.5  0.0000    6 0.5  0.0000    5 0.5  0.0000
   15        84.209826       8 0.5  1.0000    9 0.5  0.0000    7 0.5  0.0000    6 0.5  0.0000    5 0.5  0.0000
   16        84.209826       8 0.5  1.0000    9 0.5  0.0000    7 0.5  0.0000    6 0.5  0.0000    5 0.5  0.0000
   17        86.287716       9 0.5  1.0000    8 0.5  0.0000    7 0.5  0.0000    6 0.5  0.0000    5 0.5  0.0000
   18        86.287716       9 0.5  1.0000    8 0.5  0.0000    7 0.5  0.0000    6 0.5  0.0000    5 0.5  0.0000
 -------------------------------------------------------------------------------------------------------


      ****************************************************************************************************
      *                                                                                                  *
      *                                    Special properties section                                    *
      *                                                                                                  *
      ****************************************************************************************************


++ Dipole transition strengths (SO states):
   ----------------------------------------
    for osc. strength at least    1.0000000000000001E-005

      From   To        Osc. strength     Einstein coefficients Ax, Ay, Az (sec-1)    Total A (sec-1)
     -----------------------------------------------------------------------------------------------
         1   13       9.34659365E-03  2.32884609E-07  2.12863180E+12  6.11849152E-05  2.12863180E+12
         1   15       9.51514084E-03  2.06202596E+10  6.19139305E-05  2.14733411E+12  2.16795437E+12
         1   17       3.11281187E-05  3.68653970E-09  7.44663718E+09  1.27017500E-07  7.44663718E+09
         2   14       9.34659365E-03  2.32884609E-07  2.12863180E+12  6.11849152E-05  2.12863180E+12
         2   16       9.51514084E-03  2.06202596E+10  6.19139305E-05  2.14733411E+12  2.16795437E+12
         2   18       3.11281187E-05  3.68653970E-09  7.44663718E+09  1.27017500E-07  7.44663718E+09
         3   13       9.32629711E-03  9.37426177E+09  6.16181143E-05  2.11460757E+12  2.12398183E+12
         3   15       9.38119657E-03  5.44745692E-07  2.13740844E+12  6.21289949E-05  2.13740844E+12
         3   17       2.03861317E-05  8.80894975E+07  2.08081345E-07  4.78872964E+09  4.87681913E+09
         4   14       9.32629711E-03  9.37426177E+09  6.16181143E-05  2.11460757E+12  2.12398183E+12
         4   16       9.38119657E-03  5.44745692E-07  2.13740844E+12  6.21289949E-05  2.13740844E+12
         4   18       2.03861317E-05  8.80894975E+07  2.08081345E-07  4.78872964E+09  4.87681913E+09
         5   11       1.31296957E-03  7.33477975E+07  4.23365329E-06  2.47906895E+11  2.47980242E+11
         5   13       1.90430483E-02  4.30740823E+12  1.31465671E-08  2.44679186E+09  4.30985502E+12
         5   17       3.30326656E-03  6.02420231E+08  1.33476134E-05  7.84807076E+11  7.85409496E+11
         6   12       1.31296957E-03  7.33477975E+07  4.23365329E-06  2.47906895E+11  2.47980242E+11
         6   14       1.90430483E-02  4.30740823E+12  1.31465671E-08  2.44679186E+09  4.30985502E+12
         6   18       3.30326656E-03  6.02420231E+08  1.33476134E-05  7.84807076E+11  7.85409496E+11
         7   11       1.27553356E-03  9.78116371E-10  2.40902281E+11  4.35647587E-06  2.40902281E+11
         7   15       1.87505698E-02  4.24492979E+12  3.58470218E-08  4.51954155E+08  4.24538174E+12
         7   17       3.19535145E-03  7.99957621E-09  7.59729903E+11  1.37870778E-05  7.59729903E+11
         8   12       1.27553356E-03  9.78116371E-10  2.40902281E+11  4.35647587E-06  2.40902281E+11
         8   16       1.87505698E-02  4.24492979E+12  3.58470218E-08  4.51954155E+08  4.24538174E+12
         8   18       3.19535145E-03  7.99957621E-09  7.59729903E+11  1.37870778E-05  7.59729903E+11
         9   11       2.45136442E-03  4.61231105E+11  4.54294656E-12  7.32480018E+07  4.61304353E+11
         9   13       1.31387148E-03  8.33841268E+08  7.35611870E-09  2.95535532E+11  2.96369373E+11
         9   15       1.37445386E-03  1.10092836E-10  3.10169605E+11  4.90927323E-09  3.10169605E+11
         9   17       2.43335042E-02  5.76649471E+12  3.13118730E-11  4.61901782E+08  5.76695661E+12
        10   12       2.45136442E-03  4.61231105E+11  4.54294656E-12  7.32480018E+07  4.61304353E+11
        10   14       1.31387148E-03  8.33841268E+08  7.35611870E-09  2.95535532E+11  2.96369373E+11
        10   16       1.37445386E-03  1.10092836E-10  3.10169605E+11  4.90927323E-09  3.10169605E+11
        10   18       2.43335042E-02  5.76649471E+12  3.13118730E-11  4.61901782E+08  5.76695661E+12
        11   13       1.68447208E-01  3.89320016E+06  5.68185695E-09  2.85111219E+11  2.85115112E+11
        11   15       1.68453185E-01  2.33787608E-12  2.86556849E+11  5.73209588E-09  2.86556849E+11
        11   17       1.28750094E-01  3.61962925E+11  2.29722663E-12  4.96812320E+06  3.61967894E+11
        12   14       1.68447208E-01  3.89320016E+06  5.68185695E-09  2.85111219E+11  2.85115112E+11
        12   16       1.68453185E-01  2.33787608E-12  2.86556849E+11  5.73209588E-09  2.86556849E+11
        12   18       1.28750094E-01  3.61962925E+11  2.29722663E-12  4.96812320E+06  3.61967894E+11
        13   17       9.83671050E-03  1.59526012E+05  2.85590957E-11  1.38844464E+09  1.38860417E+09
        14   18       9.83671050E-03  1.59526012E+05  2.85590957E-11  1.38844464E+09  1.38860417E+09
        15   17       1.00761733E-02  2.90138509E-15  1.39781590E+09  2.70652008E-11  1.39781590E+09
        16   18       1.00761733E-02  2.90138509E-15  1.39781590E+09  2.70652008E-11  1.39781590E+09
     -----------------------------------------------------------------------------------------------
--

++ Velocity transition strengths (SO states):
   ------------------------------------------
    for osc. strength at least    1.0000000000000001E-005

      From   To        Osc. strength     Einstein coefficients Ax, Ay, Az (sec-1)    Total A (sec-1)
     -----------------------------------------------------------------------------------------------
         1    3       1.95297936E-05  1.90141084E-19  1.87139485E-01  1.52669567E-18  1.87139485E-01
         1    5       3.39695762E-04  1.78498201E-15  7.56841377E+05  6.74213124E-11  7.56841377E+05
         1    7       3.37816527E-04  1.19363389E+02  6.83692848E-11  7.59309502E+05  7.59428865E+05
         1   13       9.03150059E-03  2.29860152E-07  2.05687836E+12  5.91154761E-05  2.05687836E+12
         1   15       9.19699897E-03  2.02747318E+10  5.98152270E-05  2.07520066E+12  2.09547539E+12
         1   17       3.04201792E-05  3.63649442E-09  7.27730537E+09  1.25296927E-07  7.27730537E+09
         2    4       1.95297936E-05  1.90141084E-19  1.87139485E-01  1.52669567E-18  1.87139485E-01
         2    6       3.39695762E-04  1.78498201E-15  7.56841377E+05  6.74213124E-11  7.56841377E+05
         2    8       3.37816527E-04  1.19363389E+02  6.83692848E-11  7.59309502E+05  7.59428865E+05
         2   14       9.03150059E-03  2.29860152E-07  2.05687836E+12  5.91154761E-05  2.05687836E+12
         2   16       9.19699897E-03  2.02747318E+10  5.98152270E-05  2.07520066E+12  2.09547539E+12
         2   18       3.04201792E-05  3.63649442E-09  7.27730537E+09  1.25296927E-07  7.27730537E+09
         3    5       3.38729751E-04  1.33119848E-01  6.76748311E-11  7.51562001E+05  7.51562134E+05
         3    7       3.39445394E-04  7.37017837E-15  7.59942977E+05  6.78100082E-11  7.59942977E+05
         3   13       9.01165719E-03  9.25939282E+09  5.95370969E-05  2.04307311E+12  2.05233250E+12
         3   15       9.06512031E-03  5.35850091E-07  2.06540092E+12  6.00365334E-05  2.06540092E+12
         3   17       2.00416844E-05  8.63864244E+07  2.02943290E-07  4.70804988E+09  4.79443630E+09
         4    6       3.38729751E-04  1.33119848E-01  6.76748311E-11  7.51562001E+05  7.51562134E+05
         4    8       3.39445394E-04  7.37017837E-15  7.59942977E+05  6.78100082E-11  7.59942977E+05
         4   14       9.01165719E-03  9.25939282E+09  5.95370969E-05  2.04307311E+12  2.05233250E+12
         4   16       9.06512031E-03  5.35850091E-07  2.06540092E+12  6.00365334E-05  2.06540092E+12
         4   18       2.00416844E-05  8.63864244E+07  2.02943290E-07  4.70804988E+09  4.79443630E+09
         5    9       1.67624531E-03  2.98662107E+01  1.85450265E-11  1.04927931E+06  1.04930918E+06
         5   11       1.31662598E-03  7.33658835E+07  4.24549191E-06  2.48598327E+11  2.48671693E+11
         5   13       1.85513858E-02  4.19613082E+12  1.39402789E-08  2.46490107E+09  4.19859572E+12
         5   17       3.10980799E-03  5.78320212E+08  1.25546435E-05  7.38835583E+11  7.39413903E+11
         6   10       1.67624531E-03  2.98662107E+01  1.85450265E-11  1.04927931E+06  1.04930918E+06
         6   12       1.31662598E-03  7.33658835E+07  4.24549191E-06  2.48598327E+11  2.48671693E+11
         6   14       1.85513858E-02  4.19613082E+12  1.39402789E-08  2.46490107E+09  4.19859572E+12
         6   18       3.10980799E-03  5.78320212E+08  1.25546435E-05  7.38835583E+11  7.39413903E+11
         7    9       1.68540236E-03  2.57143771E-16  1.03724208E+06  1.84197040E-11  1.03724208E+06
         7   11       1.27928527E-03  9.83124074E-10  2.41611684E+11  4.36881530E-06  2.41611684E+11
         7   15       1.82641710E-02  4.13477931E+12  3.66523303E-08  4.89568128E+08  4.13526888E+12
         7   17       3.00515141E-03  7.73163146E-09  7.14510239E+11  1.29814619E-05  7.14510239E+11
         8   10       1.68540236E-03  2.57143771E-16  1.03724208E+06  1.84197040E-11  1.03724208E+06
         8   12       1.27928527E-03  9.83124074E-10  2.41611684E+11  4.36881530E-06  2.41611684E+11
         8   16       1.82641710E-02  4.13477931E+12  3.66523303E-08  4.89568128E+08  4.13526888E+12
         8   18       3.00515141E-03  7.73163146E-09  7.14510239E+11  1.29814619E-05  7.14510239E+11
         9   11       2.47352189E-03  4.65402365E+11  4.33232482E-12  7.32574510E+07  4.65475622E+11
         9   13       1.23441660E-03  8.11496763E+08  6.89221542E-09  2.77636244E+11  2.78447741E+11
         9   15       1.29336877E-03  1.04191515E-10  2.91872347E+11  4.55227433E-09  2.91872347E+11
         9   17       2.36229373E-02  5.59813027E+12  2.82499658E-11  4.43882854E+08  5.59857415E+12
        10   12       2.47352189E-03  4.65402365E+11  4.33232482E-12  7.32574510E+07  4.65475622E+11
        10   14       1.23441660E-03  8.11496763E+08  6.89221542E-09  2.77636244E+11  2.78447741E+11
        10   16       1.29336877E-03  1.04191515E-10  2.91872347E+11  4.55227433E-09  2.91872347E+11
        10   18       2.36229373E-02  5.59813027E+12  2.82499658E-11  4.43882854E+08  5.59857415E+12
        11   13       1.47050402E-01  3.19597826E+06  4.96969978E-09  2.48896374E+11  2.48899570E+11
        11   15       1.46991332E-01  2.36094803E-12  2.50048815E+11  4.97012756E-09  2.50048815E+11
        11   17       1.11680183E-01  3.13973864E+11  1.63771847E-12  4.78977551E+06  3.13978654E+11
        12   14       1.47050402E-01  3.19597826E+06  4.96969978E-09  2.48896374E+11  2.48899570E+11
        12   16       1.46991332E-01  2.36094803E-12  2.50048815E+11  4.97012756E-09  2.50048815E+11
        12   18       1.11680183E-01  3.13973864E+11  1.63771847E-12  4.78977551E+06  3.13978654E+11
        13   17       1.50184242E-02  1.79587383E+05  4.35116732E-11  2.11991116E+09  2.12009075E+09
        14   18       1.50184242E-02  1.79587383E+05  4.35116732E-11  2.11991116E+09  2.12009075E+09
        15   17       1.53577241E-02  9.91808610E-14  2.13050580E+09  4.23058161E-11  2.13050580E+09
        16   18       1.53577241E-02  9.91808610E-14  2.13050580E+09  4.23058161E-11  2.13050580E+09
     -----------------------------------------------------------------------------------------------
--

++ Length and velocity gauge comparison (SO states):

 --------------------------------------------------
 A comparison between the dipole oscillator strengths in 
 length and velocity gauge will be performed

 All dipole oscillator differences above the tolerance of   0.10000000000000001       will be printed 

 Due to basis set deficiency these oscillator may be problematic 

 The tolerance is defined as ABS(1-O_l/O_v) 
 O_l : dipole oscillator strength in length gauge
 O_p : dipole oscillator strength in velocity gauge
 --------------------------------------------------

  Problematic transitions have been found

      From   To       Difference (%) Osc. st. (len.) Osc. st. (vel.)
     ---------------------------------------------------------------
         1    3      --------------- below threshold  1.95297936E-05
         1    5      --------------- below threshold  3.39695762E-04
         1    7      --------------- below threshold  3.37816527E-04
         2    4      --------------- below threshold  1.95297936E-05
         2    6      --------------- below threshold  3.39695762E-04
         2    8      --------------- below threshold  3.37816527E-04
         3    5      --------------- below threshold  3.38729751E-04
         3    7      --------------- below threshold  3.39445394E-04
         4    6      --------------- below threshold  3.38729751E-04
         4    8      --------------- below threshold  3.39445394E-04
         5    9      --------------- below threshold  1.67624531E-03
         6   10      --------------- below threshold  1.67624531E-03
         7    9      --------------- below threshold  1.68540236E-03
         8   10      --------------- below threshold  1.68540236E-03
        11   13            14.550661  1.68447208E-01  1.47050402E-01
        11   15            14.600761  1.68453185E-01  1.46991332E-01
        11   17            15.284637  1.28750094E-01  1.11680183E-01
        12   14            14.550661  1.68447208E-01  1.47050402E-01
        12   16            14.600761  1.68453185E-01  1.46991332E-01
        12   18            15.284637  1.28750094E-01  1.11680183E-01
        13   17            34.502379  9.83671050E-03  1.50184242E-02
        14   18            34.502379  9.83671050E-03  1.50184242E-02
        15   17            34.390192  1.00761733E-02  1.53577241E-02
        16   18            34.390192  1.00761733E-02  1.53577241E-02
     ---------------------------------------------------------------

 Number of problematic transitions =                    24

--

 Electric-dipole - electric-octupole not included
++ Total transition strengths for the second-order expansion of the wave vector (SO states):
   -----------------------------------------------------------------------------------------
    for osc. strength at least    1.0000000000000001E-005

      From   To        Osc. strength
     -------------------------------
         1   11       3.56295149E-05
         1   17       6.05586695E-05
         2   12       3.56295149E-05
         2   18       6.05586695E-05
         3   11       3.55928891E-05
         3   17       6.05836667E-05
         4   12       3.55928891E-05
         4   18       6.05836667E-05
         5   11       4.33367021E-05
         6   12       4.33367021E-05
         7   11       4.32028062E-05
         8   12       4.32028062E-05
         9   11       4.47370405E-05
        10   12       4.47370405E-05
        11   13       1.85780307E-05
        11   15       1.86549820E-05
        12   14       1.85780307E-05
        12   16       1.86549820E-05
        13   17       2.00831692E-05
        14   18       2.00831692E-05
        15   17       1.99001426E-05
        16   18       1.99001426E-05
     -------------------------------
--

++ I/O STATISTICS
 
  I. General I/O information
  - - - - - - - - - - - - - - - - - - - - - - - - - - - - - - - - - - - - - - - - - - -
  Unit  Name          Flsize      Write/Read            MBytes           Write/Read
                      (MBytes)       Calls              In/Out           Time, sec.
  - - - - - - - - - - - - - - - - - - - - - - - - - - - - - - - - - - - - - - - - - - -
   1  SCRATCH           0.00 .       9/      45 .      0.0/      0.0 .       0/       0
   2  ANNI              0.00 .       0/       0 .      0.0/      0.0 .       0/       0
   3  RUNFILE          15.31 .     322/   10733 .      2.3/     77.8 .       0/       0
   4  ONEINT            6.58 .       0/   28767 .      0.0/   3777.9 .       0/       0
   5  JOBIPH            7.70 .       0/      92 .      0.0/      0.9 .       0/       0
   6  ORDINT          771.03 .       1/    6169 .      0.0/   1542.0 .       0/       0
  - - - - - - - - - - - - - - - - - - - - - - - - - - - - - - - - - - - - - - - - - - -
   *  TOTAL           800.62 .     332/   45806 .      2.3/   5398.7 .       0/       0
  - - - - - - - - - - - - - - - - - - - - - - - - - - - - - - - - - - - - - - - - - - -
 
  II. I/O Access Patterns
  - - - - - - - - - - - - - - - - - - - -
  Unit  Name               % of random
                         Write/Read calls
  - - - - - - - - - - - - - - - - - - - -
   1  SCRATCH             88.9/ 100.0
   2  ANNI                 0.0/   0.0
   3  RUNFILE             28.6/  10.8
   4  ONEINT               0.0/  13.4
   5  JOBIPH               0.0/  76.1
   6  ORDINT             100.0/   0.0
  - - - - - - - - - - - - - - - - - - - -
--
--- Stop Module: rassi at Tue Mar 25 14:31:12 2025 /rc=_RC_ALL_IS_WELL_ ---
*** files: xmldump
    saved to directory /home4/s4752295/Internship/Initial_simulations/Point_charge_model/1_electron/Madelung_charges_9_active_space/Re
--- Module rassi spent 4 seconds ---

.##################.
.# Happy landing! #.
.##################.

    Timing: Wall=89.38 User=75.31 System=12.85

###############################################################################
Hbrk Cluster
Job 15897494 for user s4752295
Finished at: Tue Mar 25 14:31:16 CET 2025

Job details:
============

Job ID                         : 15897494
Name                           : Re_no_SO
User                           : s4752295
Partition                      : regularmedium
Nodes                          : node91
Number of Nodes                : 1
Cores                          : 1
Number of Tasks                : 1
State                          : COMPLETED  
Submit                         : 2025-03-25T14:28:25
Start                          : 2025-03-25T14:29:39
End                            : 2025-03-25T14:31:12
Reserved walltime              : 15:00:00
Used walltime                  : 00:01:33
Used CPU time                  : 00:01:29 (Efficiency: 96.09%)
% User (Computation)           : 85.34%
% System (I/O)                 : 14.66%
Total memory reserved          : 25000M
Maximum memory used            : 3.06G

Acknowledgements:
=================

Please see this page for information about acknowledging Hbrk in your publications:

https://wiki.hpc.rug.nl/habrok/introduction/scientific_output

################################################################################
