   This run of MOLCAS is using the pymolcas driver

                             OPE
                             OPE          NMOL  CASOP  ENMOLC A   SO
                 OPE        NMOLC        AS  OP EN  MO LC     AS  OP
                OPENM       OL CA        SO  PE NM  OL CA     SOP EN
                OP EN      MO   LC       AS  OP ENMOL  CASO   PENMOL
                OP  EN     MO   LC       AS  OP EN     MO     LC ASO
               OP   E  NMOL  C  AS       OP  EN MO     LC     AS  OP
               OP  E   NMO   LC AS        OPEN  MO     LCASOP EN   M
               O  PEN   MO  LCA  SO
            OPE   NMO   L   CAS    OP
        OPENMOL  CASOP     ENMOL   CASOPE
     OPENMOLCA   SOPENMOLCASOPEN   MOLCASOPE
    OPENMOLCAS   OP           EN   MOL    CAS
    OPENMOLCAS       OP  ENM        O     LCA
    OPENMOLCAS    OPEN  MOLCASO     P  E  NMO
    OPENMOLCAS     OP               E  N  MOL
    OPENMOLCA   SO           PENM   O  L  CAS    OPEN    MO    LCAS
    OPENMOLCA   SOP           ENM   O  L  CAS   OP  EN  MOLC  AS   O
    OPENMOLCA   SOPE           NM      O  LCA   S      OP  EN MO
    OPENMOLC                AS         O  PEN   M      OL  CA  SOPE
    OPENMO        LCASOPE  NMOL        C  ASO   P      ENMOLC     AS
    OPE     NMO      LCA  SO     P     E   NM   OL  CA SO  PE N   MO
          OPENMOLCA            SOPE   NMO        LCAS  O    P  ENMO
     OPENMOLCASOPENMOLCASOPENMOLCASOPENMOLCA
        OPENMOLCASOPENMOLCASOPENMOLCASOPE
            OPENMOLCASOPENMOLCASOPENM
               OPENMOLCASOPENMOLCA        version: o91e1abe7de707b ?
                   OPENMOLCASO
                       OPE                tag:

 OpenMolcas is free software; you can redistribute it and/or modify it
 under the terms of the GNU Lesser General Public License version 2.1.
 OpenMolcas is distributed in the hope that it will be useful, but it
 is provided "as is" and without any express or implied warranties.
 For more details see the full text of the license in the file
 LICENSE or in <http://www.gnu.org/licenses/>.

                 Copyright (C) The OpenMolcas Authors
           For the author list and the recommended citation,
                   consult the file CONTRIBUTORS.md

           *************************************************
           * pymolcas version py2.10                       *
           *   build 3068ae8b88c9345ec6cfef6fef7f1169      *
           *   (after the EMIL interpreter by V. Veryazov) *
           *************************************************

configuration info
------------------
Host name: login1 (Linux)
C Compiler ID: GNU
C flags: -std=gnu99
Fortran Compiler ID: GNU
Fortran flags: -fno-aggressive-loop-optimizations -cpp -fdefault-integer-8 -fmax-stack-var-size=1048576
Definitions: _MOLCAS_;_I8_;_LINUX_;_MKL_
Parallel: OFF (GA=OFF)


   -----------------------------------------------------------------------------------------------------------------------------------
  |
  |           Project: rhenium_so_cf
  |    Submitted from: /home4/s4752295/Internship/Initial_simulations/Point_charge_model/1_electron/Madelung_charges_9_active_space/Re
  |      Scratch area: /tmp/rhenium_so_cf
  |   Save outputs to: /home4/s4752295/Internship/Initial_simulations/Point_charge_model/1_electron/Madelung_charges_9_active_space/Re
  |            Molcas: /home4/s4752295/Internship/Molcas/recomp_try/OpenMolcas-master/build
  |
  | Scratch area is empty
  |
  |    MOLCAS_DRIVER = /home4/s4752295/Internship/Molcas/bin/pymolcas
  |    MOLCAS_NPROCS = 1
  |    MOLCAS_SOURCE = /home4/s4752295/Internship/Molcas/recomp_try/OpenMolcas-master
  | MOLCAS_STRUCTURE = 0
  |
   -----------------------------------------------------------------------------------------------------------------------------------

++ ---------   Input file   ---------

&SEWARD
AMFi

CLIG
$R

Basis Set
Re.ano-rcc.Roos.24s21p15d11f4g2h.11s10p9d8f4g2h.
Spherical d
Re            -1.0658140267135469e-14   -3.5527134223784897e-15 0.008753588724385739
End of Basis

Xfield

414
-5.603081511999999,-2.1559999999999997,1.2447666        -0.625931
-5.603081511999999,-0.0,-2.4895346      -0.625931
-5.603081511999999,2.1559999999999997,1.2447666 -0.625931
-5.593484498,0.0,0.0    1.892092
3.722851566,-2.1559999999999997,-1.2447666      2.515516
3.722851566,0.0,2.4895346       2.515516
3.722851566,2.1559999999999997,-1.2447666       2.515516
4.9881835919999995,-4.311999999999999,0.0       0.004632
4.9881835919999995,-2.1559999999999997,-3.7343012       0.004632
4.9881835919999995,-2.1559999999999997,3.7343012        0.004632
4.9881835919999995,2.1559999999999997,-3.7343012        0.004632
4.9881835919999995,2.1559999999999997,3.7343012 0.004632
4.9881835919999995,4.311999999999999,0.0        0.004632
5.7808105460000005,-2.1559999999999997,1.2447666        -2.519484
5.7808105460000005,-0.0,-2.4895346      -2.519484
5.7808105460000005,2.1559999999999997,1.2447666 -2.519484
-4.106347658,-0.0,-0.0  -3.142907
-6.965136724,-4.311999999999999,-2.4895346      -0.625931
-6.965136724,0.0,4.9790678      -0.625931
-6.965136724,4.311999999999999,-2.4895346       -0.625931
-9.253124999999999,-4.311999999999999,0.0       1.892092
-9.253124999999999,-2.1559999999999997,-3.7343012       1.892092
-9.253124999999999,-2.1559999999999997,3.7343012        1.892092
-9.253124999999999,2.1559999999999997,-3.7343012        1.892092
-9.253124999999999,2.1559999999999997,3.7343012 1.892092
-9.253124999999999,4.311999999999999,0.0        1.892092
35.240624999999994,-4.311999999999999,2.4895346 2.515516
35.240624999999994,-0.0,-4.9790678      2.515516
35.240624999999994,4.311999999999999,2.4895346  2.515516
5.094140631999999,-4.311999999999999,-2.4895346 -2.519484
5.094140631999999,0.0,4.9790678 -2.519484
5.094140631999999,4.311999999999999,-2.4895346  -2.519484
-4.525390632,-4.311999999999999,-0.0    -3.142907
-4.525390632,-2.1559999999999997,-3.7343012     -3.142907
-4.525390632,-2.1559999999999997,3.7343012      -3.142907
-4.525390632,2.1559999999999997,-3.7343012      -3.142907
-4.525390632,2.1559999999999997,3.7343012       -3.142907
-4.525390632,4.311999999999999,-0.0     -3.142907
-13.3328125,-4.311999999999999,4.9790678        -0.625931
-13.3328125,4.311999999999999,4.9790678 -0.625931
-13.3328125,-6.468,1.2447666    -0.625931
-13.3328125,6.468,1.2447666     -0.625931
-13.3328125,-2.1559999999999997,-6.2238358      -0.625931
-13.3328125,2.1559999999999997,-6.2238358       -0.625931
8.4109375,-2.1559999999999997,-1.2447666        4.409069
8.4109375,2.1559999999999997,-1.2447666 4.409069
8.4109375,0.0,2.4895346 4.409069
-245.35,-0.0,-0.0       -5.030367
-245.35,0.0,0.0 5.039632
18.924609368,-4.311999999999999,-4.9790678      2.515516
18.924609368,4.311999999999999,-4.9790678       2.515516
18.924609368,-6.468,-1.2447666  2.515516
18.924609368,6.468,-1.2447666   2.515516
18.924609368,-2.1559999999999997,6.2238358      2.515516
18.924609368,2.1559999999999997,6.2238358       2.515516
26.654687499999998,-6.468,-3.7343012    0.004632
26.654687499999998,-6.468,3.7343012     0.004632
26.654687499999998,6.468,-3.7343012     0.004632
26.654687499999998,6.468,3.7343012      0.004632
26.654687499999998,-0.0,-7.4686024      0.004632
26.654687499999998,0.0,7.4686024        0.004632
67.30937499999999,-4.311999999999999,4.9790678  -2.519484
67.30937499999999,4.311999999999999,4.9790678   -2.519484
67.30937499999999,-6.468,1.2447666      -2.519484
67.30937499999999,6.468,1.2447666       -2.519484
67.30937499999999,-2.1559999999999997,-6.2238358        -2.519484
67.30937499999999,2.1559999999999997,-6.2238358 -2.519484
-204.225,-6.468,-3.7343012      1.892092
-204.225,-6.468,3.7343012       1.892092
-204.225,6.468,-3.7343012       1.892092
-204.225,6.468,3.7343012        1.892092
-204.225,-0.0,-7.4686024        1.892092
-204.225,0.0,7.4686024  1.892092
-164.85,-4.311999999999999,2.4895346    4.409069
-164.85,-0.0,-4.9790678 4.409069
-164.85,4.311999999999999,2.4895346     4.409069
-124.6,-4.311999999999999,-0.0  -5.030367
-124.6,-2.1559999999999997,-3.7343012   -5.030367
-124.6,-2.1559999999999997,3.7343012    -5.030367
-124.6,2.1559999999999997,-3.7343012    -5.030367
-124.6,-4.311999999999999,0.0   5.039632
-124.6,4.311999999999999,-0.0   -5.030367
-124.6,2.1559999999999997,3.7343012     -5.030367
-124.6,-2.1559999999999997,-3.7343012   5.039632
-124.6,-2.1559999999999997,3.7343012    5.039632
-124.6,2.1559999999999997,-3.7343012    5.039632
-124.6,4.311999999999999,0.0    5.039632
-124.6,2.1559999999999997,3.7343012     5.039632
-65.27499999999999,-2.1559999999999997,-1.2447666       -5.660931
-65.27499999999999,0.0,2.4895346        -5.660931
-65.27499999999999,2.1559999999999997,-1.2447666        -5.660931
1.2359375,-8.6239986,0.0        0.004632
1.2359375,-4.311999999999999,-7.4686024 0.004632
1.2359375,-4.311999999999999,7.4686024  0.004632
1.2359375,4.311999999999999,-7.4686024  0.004632
1.2359375,8.6239986,0.0 0.004632
1.2359375,4.311999999999999,7.4686024   0.004632
95.1125,-6.468,3.7343012        -3.142907
95.1125,-6.468,-3.7343012       -3.142907
95.1125,6.468,-3.7343012        -3.142907
95.1125,6.468,3.7343012 -3.142907
95.1125,-0.0,-7.4686024 -3.142907
95.1125,0.0,7.4686024   -3.142907
120.925,-8.6239986,-2.4895346   -0.625931
120.925,-6.468,-6.2238358       -0.625931
120.925,-2.1559999999999997,8.713369    -0.625931
120.925,6.468,-6.2238358        -0.625931
120.925,8.6239986,-2.4895346    -0.625931
120.925,2.1559999999999997,8.713369     -0.625931
1.676171868,-8.6239986,0.0      1.892092
1.676171868,-4.311999999999999,-7.4686024       1.892092
1.676171868,-4.311999999999999,7.4686024        1.892092
1.676171868,4.311999999999999,-7.4686024        1.892092
1.676171868,8.6239986,0.0       1.892092
1.676171868,4.311999999999999,7.4686024 1.892092
47.381249999999994,-4.311999999999999,-4.9790678        4.409069
47.381249999999994,4.311999999999999,-4.9790678 4.409069
47.381249999999994,-6.468,-1.2447666    4.409069
47.381249999999994,6.468,-1.2447666     4.409069
47.381249999999994,-2.1559999999999997,6.2238358        4.409069
47.381249999999994,2.1559999999999997,6.2238358 4.409069
227.36874999999998,-4.311999999999999,2.4895346 -5.660931
227.36874999999998,-0.0,-4.9790678      -5.660931
227.36874999999998,4.311999999999999,2.4895346  -5.660931
0.48124999999999996,-8.6239986,2.4895346        2.515516
0.48124999999999996,-2.1559999999999997,-8.713369       2.515516
0.48124999999999996,-6.468,6.2238358    2.515516
0.48124999999999996,2.1559999999999997,-8.713369        2.515516
0.48124999999999996,8.6239986,2.4895346 2.515516
0.48124999999999996,6.468,6.2238358     2.515516
-131.86249999999998,-8.6239986,-2.4895346       -2.519484
-131.86249999999998,-6.468,-6.2238358   -2.519484
-131.86249999999998,-2.1559999999999997,8.713369        -2.519484
-131.86249999999998,6.468,-6.2238358    -2.519484
-131.86249999999998,2.1559999999999997,8.713369 -2.519484
-131.86249999999998,8.6239986,-2.4895346        -2.519484
-30.898437499999996,-8.6239986,-0.0     -3.142907
-30.898437499999996,-4.311999999999999,-7.4686024       -3.142907
-30.898437499999996,-4.311999999999999,7.4686024        -3.142907
-30.898437499999996,4.311999999999999,-7.4686024        -3.142907
-30.898437499999996,4.311999999999999,7.4686024 -3.142907
-30.898437499999996,8.6239986,-0.0      -3.142907
849.0999999999999,0.0,0.0       6.927092
452.54999999999995,-8.6239986,4.9790678 -0.625931
452.54999999999995,8.6239986,4.9790678  -0.625931
452.54999999999995,-0.0,-9.958137       -0.625931
-7.590624999999999,-6.468,3.7343012     -5.030367
-7.590624999999999,-6.468,-3.7343012    -5.030367
-7.590624999999999,-6.468,3.7343012     5.039632
-7.590624999999999,-6.468,-3.7343012    5.039632
-7.590624999999999,6.468,-3.7343012     -5.030367
-7.590624999999999,6.468,3.7343012      -5.030367
-7.590624999999999,6.468,-3.7343012     5.039632
-7.590624999999999,6.468,3.7343012      5.039632
-7.590624999999999,-0.0,-7.4686024      -5.030367
-7.590624999999999,0.0,7.4686024        -5.030367
-7.590624999999999,-0.0,-7.4686024      5.039632
-7.590624999999999,0.0,7.4686024        5.039632
128.5375,-4.311999999999999,-4.9790678  -5.660931
128.5375,4.311999999999999,-4.9790678   -5.660931
128.5375,-6.468,-1.2447666      -5.660931
128.5375,6.468,-1.2447666       -5.660931
128.5375,-2.1559999999999997,6.2238358  -5.660931
128.5375,2.1559999999999997,6.2238358   -5.660931
420.7,-8.6239986,-4.9790678     2.515516
420.7,8.6239986,-4.9790678      2.515516
420.7,0.0,9.958137      2.515516
-724.15,-8.6239986,4.9790678    -2.519484
-724.15,8.6239986,4.9790678     -2.519484
-724.15,-0.0,-9.958137  -2.519484
74.9875,-4.311999999999999,0.0  6.927092
74.9875,-2.1559999999999997,-3.7343012  6.927092
74.9875,-2.1559999999999997,3.7343012   6.927092
74.9875,2.1559999999999997,-3.7343012   6.927092
74.9875,2.1559999999999997,3.7343012    6.927092
74.9875,4.311999999999999,0.0   6.927092
-77.35,-2.1559999999999997,1.2447666    7.550516
-77.35,0.0,-2.4895346   7.550516
-77.35,2.1559999999999997,1.2447666     7.550516
21.74375,-2.1559999999999997,-1.2447666 -7.554483
21.74375,2.1559999999999997,-1.2447666  -7.554483
21.74375,-0.0,2.4895346 -7.554483
-174.825,-10.779998599999999,1.2447666  -0.625931
-174.825,-6.468,8.713369        -0.625931
-174.825,-4.311999999999999,-9.958137   -0.625931
-174.825,4.311999999999999,-9.958137    -0.625931
-174.825,10.779998599999999,1.2447666   -0.625931
-174.825,6.468,8.713369 -0.625931
-94.4125,-8.6239986,2.4895346   4.409069
-94.4125,-6.468,6.2238358       4.409069
-94.4125,-2.1559999999999997,-8.713369  4.409069
-94.4125,2.1559999999999997,-8.713369   4.409069
-94.4125,6.468,6.2238358        4.409069
-94.4125,8.6239986,2.4895346    4.409069
68.81875,-8.6239986,-0.0        -5.030367
68.81875,-4.311999999999999,-7.4686024  -5.030367
68.81875,-4.311999999999999,7.4686024   -5.030367
68.81875,-8.6239986,0.0 5.039632
68.81875,-4.311999999999999,-7.4686024  5.039632
68.81875,4.311999999999999,-7.4686024   -5.030367
68.81875,4.311999999999999,7.4686024    -5.030367
68.81875,8.6239986,-0.0 -5.030367
68.81875,-4.311999999999999,7.4686024   5.039632
68.81875,4.311999999999999,-7.4686024   5.039632
68.81875,8.6239986,0.0  5.039632
68.81875,4.311999999999999,7.4686024    5.039632
253.04999999999998,-10.779998599999999,-1.2447666       2.515516
253.04999999999998,-6.468,-8.713369     2.515516
253.04999999999998,-4.311999999999999,9.958137  2.515516
253.04999999999998,6.468,-8.713369      2.515516
253.04999999999998,10.779998599999999,-1.2447666        2.515516
253.04999999999998,4.311999999999999,9.958137   2.515516
-32.68125,-10.779998599999999,-3.7343012        0.004632
-32.68125,-10.779998599999999,3.7343012 0.004632
-32.68125,-8.6239986,-7.4686024 0.004632
-32.68125,-8.6239986,7.4686024  0.004632
-32.68125,-2.1559999999999997,-11.202903599999999       0.004632
-32.68125,2.1559999999999997,-11.202903599999999        0.004632
-32.68125,-2.1559999999999997,11.202903599999999        0.004632
-32.68125,8.6239986,-7.4686024  0.004632
-32.68125,2.1559999999999997,11.202903599999999 0.004632
-32.68125,10.779998599999999,-3.7343012 0.004632
-32.68125,10.779998599999999,3.7343012  0.004632
-32.68125,8.6239986,7.4686024   0.004632
-200.375,-10.779998599999999,1.2447666  -2.519484
-200.375,-6.468,8.713369        -2.519484
-200.375,-4.311999999999999,-9.958137   -2.519484
-200.375,4.311999999999999,-9.958137    -2.519484
-200.375,10.779998599999999,1.2447666   -2.519484
-200.375,6.468,8.713369 -2.519484
4244.8,-0.0,-0.0        -8.177907
-162.39999999999998,-4.311999999999999,-2.4895346       7.550516
-162.39999999999998,0.0,4.9790678       7.550516
-162.39999999999998,4.311999999999999,-2.4895346        7.550516
-844.9,-4.311999999999999,2.4895346     -7.554483
-844.9,-0.0,-4.9790678  -7.554483
-844.9,4.311999999999999,2.4895346      -7.554483
68.46875,-10.779998599999999,3.7343012  1.892092
68.46875,-10.779998599999999,-3.7343012 1.892092
68.46875,-8.6239986,-7.4686024  1.892092
68.46875,-8.6239986,7.4686024   1.892092
68.46875,-2.1559999999999997,-11.202903599999999        1.892092
68.46875,2.1559999999999997,-11.202903599999999 1.892092
68.46875,-2.1559999999999997,11.202903599999999 1.892092
68.46875,8.6239986,-7.4686024   1.892092
68.46875,2.1559999999999997,11.202903599999999  1.892092
68.46875,10.779998599999999,-3.7343012  1.892092
68.46875,10.779998599999999,3.7343012   1.892092
68.46875,8.6239986,7.4686024    1.892092
-707.0,-8.6239986,-4.9790678    4.409069
-707.0,8.6239986,-4.9790678     4.409069
-707.0,0.0,9.958137     4.409069
36.1484375,-8.6239986,2.4895346 -5.660931
36.1484375,-2.1559999999999997,-8.713369        -5.660931
36.1484375,-6.468,6.2238358     -5.660931
36.1484375,2.1559999999999997,-8.713369 -5.660931
36.1484375,6.468,6.2238358      -5.660931
36.1484375,8.6239986,2.4895346  -5.660931
-81.46249999999999,-8.6239986,-7.4686024        -3.142907
-81.46249999999999,-10.779998599999999,3.7343012        -3.142907
-81.46249999999999,-10.779998599999999,-3.7343012       -3.142907
-81.46249999999999,-8.6239986,7.4686024 -3.142907
-81.46249999999999,-2.1559999999999997,-11.202903599999999      -3.142907
-81.46249999999999,2.1559999999999997,-11.202903599999999       -3.142907
-81.46249999999999,-2.1559999999999997,11.202903599999999       -3.142907
-81.46249999999999,10.779998599999999,-3.7343012        -3.142907
-81.46249999999999,8.6239986,-7.4686024 -3.142907
-81.46249999999999,2.1559999999999997,11.202903599999999        -3.142907
-81.46249999999999,10.779998599999999,3.7343012 -3.142907
-81.46249999999999,8.6239986,7.4686024  -3.142907
91.56875,-6.468,-3.7343012      6.927092
91.56875,-6.468,3.7343012       6.927092
91.56875,6.468,-3.7343012       6.927092
91.56875,6.468,3.7343012        6.927092
91.56875,-0.0,-7.4686024        6.927092
91.56875,0.0,7.4686024  6.927092
-116.55,-4.311999999999999,-0.0 -8.177907
-116.55,-2.1559999999999997,3.7343012   -8.177907
-116.55,-2.1559999999999997,-3.7343012  -8.177907
-116.55,2.1559999999999997,-3.7343012   -8.177907
-116.55,4.311999999999999,-0.0  -8.177907
-116.55,2.1559999999999997,3.7343012    -8.177907
-127.26875,-4.311999999999999,4.9790678 7.550516
-127.26875,4.311999999999999,4.9790678  7.550516
-127.26875,-6.468,1.2447666     7.550516
-127.26875,6.468,1.2447666      7.550516
-127.26875,-2.1559999999999997,-6.2238358       7.550516
-127.26875,2.1559999999999997,-6.2238358        7.550516
-63.9625,-4.311999999999999,-4.9790678  -7.554483
-63.9625,4.311999999999999,-4.9790678   -7.554483
-63.9625,-6.468,-1.2447666      -7.554483
-63.9625,6.468,-1.2447666       -7.554483
-63.9625,-2.1559999999999997,6.2238358  -7.554483
-63.9625,2.1559999999999997,6.2238358   -7.554483
-700.3499999999999,0.0,12.4476702       -0.625931
-700.3499999999999,-10.779998599999999,-6.2238358       -0.625931
-700.3499999999999,10.779998599999999,-6.2238358        -0.625931
-377.65,-10.779998599999999,-1.2447666  4.409069
-377.65,-6.468,-8.713369        4.409069
-377.65,-4.311999999999999,9.958137     4.409069
-377.65,6.468,-8.713369 4.409069
-377.65,10.779998599999999,-1.2447666   4.409069
-377.65,4.311999999999999,9.958137      4.409069
434.525,-8.6239986,-4.9790678   -5.660931
434.525,8.6239986,-4.9790678    -5.660931
434.525,0.0,9.958137    -5.660931
821.8,-0.0,-12.4476702  2.515516
821.8,-10.779998599999999,6.2238358     2.515516
821.8,10.779998599999999,6.2238358      2.515516
-131.42499999999998,-12.935998599999998,-0.0    0.004632
-131.42499999999998,6.468,-11.202903599999999   0.004632
-131.42499999999998,-6.468,11.202903599999999   0.004632
-131.42499999999998,12.935998599999998,-0.0     0.004632
-131.42499999999998,-6.468,-11.202903599999999  0.004632
-131.42499999999998,6.468,11.202903599999999    0.004632
-540.05,0.0,12.4476702  -2.519484
-540.05,-10.779998599999999,-6.2238358  -2.519484
-540.05,10.779998599999999,-6.2238358   -2.519484
319.2,-8.6239986,0.0    6.927092
319.2,-4.311999999999999,-7.4686024     6.927092
319.2,-4.311999999999999,7.4686024      6.927092
319.2,4.311999999999999,-7.4686024      6.927092
319.2,8.6239986,0.0     6.927092
319.2,4.311999999999999,7.4686024       6.927092
296.625,-12.935998599999998,-2.4895346  -0.625931
296.625,-4.311999999999999,12.4476702   -0.625931
296.625,-8.6239986,-9.958137    -0.625931
296.625,8.6239986,-9.958137     -0.625931
296.625,4.311999999999999,12.4476702    -0.625931
296.625,12.935998599999998,-2.4895346   -0.625931
156.71249999999998,-12.935998599999998,0.0      1.892092
156.71249999999998,-6.468,-11.202903599999999   1.892092
156.71249999999998,-6.468,11.202903599999999    1.892092
156.71249999999998,6.468,-11.202903599999999    1.892092
156.71249999999998,12.935998599999998,0.0       1.892092
156.71249999999998,6.468,11.202903599999999     1.892092
-6.0484374999999995,-10.779998599999999,3.7343012       -5.030367
-6.0484374999999995,-10.779998599999999,-3.7343012      -5.030367
-6.0484374999999995,-8.6239986,-7.4686024       -5.030367
-6.0484374999999995,-8.6239986,7.4686024        -5.030367
-6.0484374999999995,-10.779998599999999,3.7343012       5.039632
-6.0484374999999995,2.1559999999999997,-11.202903599999999      -5.030367
-6.0484374999999995,-2.1559999999999997,-11.202903599999999     -5.030367
-6.0484374999999995,-10.779998599999999,-3.7343012      5.039632
-6.0484374999999995,-8.6239986,-7.4686024       5.039632
-6.0484374999999995,-2.1559999999999997,11.202903599999999      -5.030367
-6.0484374999999995,2.1559999999999997,-11.202903599999999      5.039632
-6.0484374999999995,-8.6239986,7.4686024        5.039632
-6.0484374999999995,-2.1559999999999997,-11.202903599999999     5.039632
-6.0484374999999995,8.6239986,-7.4686024        -5.030367
-6.0484374999999995,2.1559999999999997,11.202903599999999       -5.030367
-6.0484374999999995,10.779998599999999,-3.7343012       -5.030367
-6.0484374999999995,10.779998599999999,3.7343012        -5.030367
-6.0484374999999995,8.6239986,7.4686024 -5.030367
-6.0484374999999995,-2.1559999999999997,11.202903599999999      5.039632
-6.0484374999999995,8.6239986,-7.4686024        5.039632
-6.0484374999999995,10.779998599999999,-3.7343012       5.039632
-6.0484374999999995,2.1559999999999997,11.202903599999999       5.039632
-6.0484374999999995,10.779998599999999,3.7343012        5.039632
-6.0484374999999995,8.6239986,7.4686024 5.039632
-0.9624999999999999,-10.779998599999999,-1.2447666      -5.660931
-0.9624999999999999,-6.468,-8.713369    -5.660931
-0.9624999999999999,-4.311999999999999,9.958137 -5.660931
-0.9624999999999999,6.468,-8.713369     -5.660931
-0.9624999999999999,4.311999999999999,9.958137  -5.660931
-0.9624999999999999,10.779998599999999,-1.2447666       -5.660931
162.39999999999998,-2.1559999999999997,1.2447666        9.444068
162.39999999999998,0.0,-2.4895346       9.444068
162.39999999999998,2.1559999999999997,1.2447666 9.444068
71.83749999999999,-12.935998599999998,2.4895346 2.515516
71.83749999999999,-4.311999999999999,-12.4476702        2.515516
71.83749999999999,4.311999999999999,-12.4476702 2.515516
71.83749999999999,-8.6239986,9.958137   2.515516
71.83749999999999,12.935998599999998,2.4895346  2.515516
71.83749999999999,8.6239986,9.958137    2.515516
219.625,-12.935998599999998,-2.4895346  -2.519484
219.625,-4.311999999999999,12.4476702   -2.519484
219.625,-8.6239986,-9.958137    -2.519484
219.625,8.6239986,-9.958137     -2.519484
219.625,12.935998599999998,-2.4895346   -2.519484
219.625,4.311999999999999,12.4476702    -2.519484
307.47499999999997,-12.935998599999998,-0.0     -3.142907
307.47499999999997,-6.468,-11.202903599999999   -3.142907
307.47499999999997,-6.468,11.202903599999999    -3.142907
307.47499999999997,6.468,-11.202903599999999    -3.142907
307.47499999999997,12.935998599999998,-0.0      -3.142907
307.47499999999997,6.468,11.202903599999999     -3.142907
12.103710933999999,-6.468,-3.7343012    -8.177907
12.103710933999999,-6.468,3.7343012     -8.177907
12.103710933999999,6.468,3.7343012      -8.177907
12.103710933999999,6.468,-3.7343012     -8.177907
12.103710933999999,-0.0,-7.4686024      -8.177907
12.103710933999999,0.0,7.4686024        -8.177907
352.625,-6.468,-6.2238358       7.550516
352.625,-8.6239986,-2.4895346   7.550516
352.625,-2.1559999999999997,8.713369    7.550516
352.625,6.468,-6.2238358        7.550516
352.625,2.1559999999999997,8.713369     7.550516
352.625,8.6239986,-2.4895346    7.550516
-487.2,-6.468,6.2238358 -7.554483
-487.2,-8.6239986,2.4895346     -7.554483
-487.2,-2.1559999999999997,-8.713369    -7.554483
-487.2,2.1559999999999997,-8.713369     -7.554483
-487.2,8.6239986,2.4895346      -7.554483
-487.2,6.468,6.2238358  -7.554483
99.771875,-10.779998599999999,8.713369  -0.625931
99.771875,-12.935998599999998,4.9790678 -0.625931
99.771875,-2.1559999999999997,-13.692438199999998       -0.625931
99.771875,2.1559999999999997,-13.692438199999998        -0.625931
99.771875,12.935998599999998,4.9790678  -0.625931
99.771875,10.779998599999999,8.713369   -0.625931
-677.25,-0.0,-12.4476702        4.409069
-677.25,-10.779998599999999,6.2238358   4.409069
-677.25,10.779998599999999,6.2238358    4.409069

End of input

&SCF
Occupied
9
Iterations
   50  100
End of Input

&RASSCF
LumOrb
Symmetry
1
Spin
2
Nactel
1 0 0
CIRoot
9 9 1
inactive
9
ras2
9
End of Input

>>> COPY rhenium_so_cf.JobIph $SLURM_SUBMIT_DIR/rhenium_so_cf.doublet.JobIph

>>> COPY $SLURM_SUBMIT_DIR/rhenium_so_cf.doublet.JobIph ./JOB002

&RASSI
NROFJobIph
1 All
SpinOrbit
End of Input

EOF

-- ----------------------------------

--- Start Module: seward at Wed Mar 26 15:55:56 2025 ---

()()()()()()()()()()()()()()()()()()()()()()()()()()()()()()()()()()()()()()()()()()()()()()()()()()

                                              &SEWARD

                                   only a single process is used
                       available to each process: 4.1 GB of memory, 1 thread?
                                            pid: 2202156
()()()()()()()()()()()()()()()()()()()()()()()()()()()()()()()()()()()()()()()()()()()()()()()()()()

 The speed of LIGHT in this CALCULATION =   137.03599917700001     
               SEWARD will generate:
                  Multipole Moment integrals up to order  2
                  Kinetic Energy integrals
                  Nuclear Attraction integrals (point charge)
                  One-Electron Hamiltonian integrals
                  Velocity integrals
                  Relativistic Douglas-Kroll-Hess integrals:
                    - Parametrization         : EXP
                    - DKH order of Hamiltonian: 2
                    - DKH order of Properties : 0
                         - multipole moment operators
                         - electric potential operators
                         - contact operators
                  External field from   414 point(s) added to the one-electron Hamiltonian
                  Orbital angular momentum around (-0.0000 -0.0000  0.0088 )
                  Velocity quadrupole around (-0.0000 -0.0000  0.0088 )
                  Atomic mean-field integrals
                  Two-Electron Repulsion integrals

                   Integrals are discarded if absolute value <: 0.10E-13
                   Integral cutoff threshold is set to       <: 0.10E-15

++    Symmetry information:
      ---------------------

                    Character Table for C1 

                             E  
                    a        1  x, y, xy, Rz, z, xz, Ry, yz, Rx, I
--


++    Basis set information:
      ----------------------


      Basis set label: RE.ANO-RCC.ROOS.24S21P15D11F4G2H.11S10P9D8F4G2H......

      Electronic valence basis set:
      ------------------
      Associated Effective Charge  75.000000 au
      Associated Actual Charge     75.000000 au
      Nuclear Model: Point charge

      Shell  nPrim  nBasis  Cartesian Spherical Contaminant
         s      24      11        X                  
         p      21      10        X                  
         d      15       9                 X         
         f      11       8                 X         
         g       4       4                 X         
         h       2       2                 X         
--


++    Molecular structure info:
      -------------------------

                    ************************************************ 
                    **** Cartesian Coordinates / Bohr, Angstrom **** 
                    ************************************************ 

     Center  Label                x              y              z                     x              y              z
        1      RE              -0.000000      -0.000000       0.008754             -0.000000      -0.000000       0.004632
--


++    Operator info:
      --------------


  Net charge from external field:   -39.268449999999902     
--


            Nuclear Potential Energy              0.00000000 au

                    Nuclear-External Field Potential Energy    -490.12333875 au
                    External Field Potential Energy            1146.88350099 au 


            Total Nuclear Potential Energy           -490.12333875 au


      Basis set specifications :
      Symmetry species         a  
      Basis functions          200

 Sorry, Molden does not know how to handle
 functions with angular momentum larger than g
Note: The following floating-point exceptions are signalling: IEEE_UNDERFLOW_FLAG IEEE_DENORMAL
--- Stop Module: seward at Wed Mar 26 15:56:20 2025 /rc=_RC_ALL_IS_WELL_ ---
*** files: rhenium_so_cf.GssOrb xmldump
    saved to directory /home4/s4752295/Internship/Initial_simulations/Point_charge_model/1_electron/Madelung_charges_9_active_space/Re
--- Module seward spent 24 seconds ---

*** symbolic link created: INPORB -> rhenium_so_cf.GssOrb
--- Start Module: scf at Wed Mar 26 15:56:20 2025 ---

()()()()()()()()()()()()()()()()()()()()()()()()()()()()()()()()()()()()()()()()()()()()()()()()()()

                                                &SCF

                                   only a single process is used
                       available to each process: 4.1 GB of memory, 1 thread?
                                            pid: 2203307
()()()()()()()()()()()()()()()()()()()()()()()()()()()()()()()()()()()()()()()()()()()()()()()()()()

++    Input section:
      --------------

      Header of the integral files:
      
       Integrals generated by seward 4.2.0  , Wed Mar 26 15:55:56 2025


      Cartesian coordinates in Angstrom:
      -----------------------------------------------------
      No.  Label        X            Y            Z        
      -----------------------------------------------------
       1   RE        -0.00000000  -0.00000000   0.00463220
      -----------------------------------------------------
      Nuclear repulsion energy = -490.12333875
--

++    Orbital specifications:
      -----------------------

      Symmetry species               1
                                     a
      Frozen orbitals                0
      Occupied orbitals              9
      Secondary orbitals           191
      Deleted orbitals               0
      Total number of orbitals     200
      Number of basis functions    200
--

      Molecular charge                          57.000

++    Optimization specifications:
      ----------------------------

      SCF Algorithm: Conventional
      Minimized density differences are used
      Number of density matrices in core                5
      Maximum number of NDDO SCF iterations            50
      Maximum number of HF SCF iterations             100
      Threshold for SCF energy change            0.10E-08
      Threshold for density matrix               0.10E-03
      Threshold for Fock matrix                  0.15E-03
      Threshold for linear dependence            0.10E-08
      Threshold at which DIIS is turned on       0.15E+00
      Threshold at which QNR/C2DIIS is turned on 0.75E-01
      Threshold for Norm(delta) (QNR/C2DIIS)     0.20E-04
      DIIS extrapolation of the SCF procedure
      All orbitals punched on: SCFORB
--

      Detected guessorb starting orbitals                                             


++ Convergence information
                                   SCF        iterations: Energy and convergence statistics

Iter     Tot. SCF        One-elec.       Two-elec.     Energy      Max Dij or  Max Fij      DNorm      TNorm      AccCon     Time
         Energy          Energy          Energy        Change      Delta Norm                                                in Sec.

 The total and one-electron energies are shifted by a value of     13000. a.u.

   1  -682.406786833 -1483.475759742  1291.192311663   0.00E+00    0.22E+00*   0.92E+01*    0.60E+01   0.67E+03   None         1.
   2  -693.759927774 -1541.140973601  1337.504384582  -0.11E+02*   0.16E-02*   0.21E+00*    0.89E+00   0.68E+03   EDIIS        1.
   3  -693.763475673 -1540.523207198  1336.883070279  -0.35E-02*   0.69E-04    0.41E-02*    0.99E-02   0.68E+03   EDIIS        1.
   4  -693.763476712 -1540.535987782  1336.895849825  -0.10E-05*   0.17E-05    0.51E-04     0.11E-03   0.68E+03   c2DIIS       1.
   5  -693.763476712 -1540.535827308  1336.895689351  -0.51E-09    0.13E-06    0.32E-05     0.69E-05   0.68E+03   QNRc2DIIS    1.

       Convergence after  5 Macro Iterations
--

 *****************************************************************************************************************************
 *                                                                                                                           *
 *                                             SCF/KS-DFT Program, Final results                                             *
 *                                                                                                                           *
 *                                                                                                                           *
 *                                                                                                                           *
 *                                                       Final Results                                                       *
 *                                                                                                                           *
 *****************************************************************************************************************************

::    Total SCF energy                             -13693.7634767123
      One-electron energy                          -14540.5358273083
      Two-electron energy                            1336.8956893506
      Nuclear repulsion energy                       -490.1233387546
      Kinetic energy (interpolated)                 20166.0707165852
      Virial theorem                                    0.6790496606
      Total spin, S(S+1)                                0.0000000000
      Total spin, S                                     0.0000000000
      Max non-diagonal density matrix element           0.0000001618
      Max non-diagonal Fock matrix element              0.0000000000


      All orbitals with orbital energies smaller than  E(LUMO)+0.5 are printed

++    Molecular orbitals:
      -------------------

      Title: SCF orbitals

      Molecular orbitals for symmetry species 1: a  

          Some orbital energies have been scaled by powers of 10, the power is written right after the orbital index


          Orbital            1 (1)     2         3         4         5         6         7         8         9        10    
          Energy         -279.2184 -607.9097 -551.2677 -551.2677 -551.2676 -232.9629 -215.5045 -215.5045 -215.5035 -194.9092
          Occ. No.          2.0000    2.0000    2.0000    2.0000    2.0000    2.0000    2.0000    2.0000    2.0000    0.0000

        1 RE     1s         1.0000    0.0001    0.0000    0.0000   -0.0000   -0.0000   -0.0000   -0.0000    0.0000   -0.0000
        2 RE     2s        -0.0001    0.9999    0.0000    0.0000   -0.0002    0.0121    0.0000    0.0000   -0.0001   -0.0000
        3 RE     3s         0.0000   -0.0117   -0.0000   -0.0000    0.0000    0.9952    0.0000    0.0000   -0.0026   -0.0000
        4 RE     4s        -0.0000    0.0034    0.0000    0.0000   -0.0000   -0.0796   -0.0000   -0.0000    0.0004    0.0000
        5 RE     5s         0.0000   -0.0012   -0.0000   -0.0000    0.0000    0.0234    0.0000    0.0000   -0.0001   -0.0000
        6 RE     6s        -0.0000    0.0003    0.0000    0.0000   -0.0000   -0.0065   -0.0000   -0.0000    0.0000   -0.0000
        7 RE     7s         0.0000   -0.0006   -0.0000   -0.0000    0.0000    0.0107    0.0000    0.0000   -0.0001   -0.0000
        8 RE     8s        -0.0000    0.0012    0.0000    0.0000   -0.0000   -0.0221   -0.0000   -0.0000    0.0001   -0.0000
        9 RE     9s         0.0000   -0.0016   -0.0000   -0.0000    0.0000    0.0267    0.0000    0.0000   -0.0001   -0.0000
       10 RE    10s        -0.0000    0.0012    0.0000    0.0000   -0.0000   -0.0179   -0.0000   -0.0000    0.0001   -0.0000
       11 RE    11s         0.0000   -0.0023   -0.0000   -0.0000    0.0000    0.0290    0.0000    0.0000   -0.0001   -0.0000
       12 RE     2px        0.0000    0.0002   -0.0020   -0.0000    0.9999    0.0000   -0.0000   -0.0000    0.0142    0.0000
       13 RE     3px       -0.0000    0.0000    0.0000    0.0000   -0.0136    0.0026   -0.0019   -0.0000    0.9932    0.0000
       14 RE     4px        0.0000   -0.0000   -0.0000   -0.0000    0.0038   -0.0001    0.0002    0.0000   -0.0909   -0.0000
       15 RE     5px       -0.0000    0.0000    0.0000    0.0000   -0.0012    0.0000   -0.0000   -0.0000    0.0255    0.0000
       16 RE     6px        0.0000   -0.0000   -0.0000   -0.0000    0.0006   -0.0000    0.0000    0.0000   -0.0117   -0.0000
       17 RE     7px       -0.0000    0.0000    0.0000    0.0000   -0.0017    0.0000   -0.0001   -0.0000    0.0322    0.0000
       18 RE     8px        0.0000   -0.0000   -0.0000   -0.0000    0.0018   -0.0000    0.0001    0.0000   -0.0319   -0.0000
       19 RE     9px       -0.0000    0.0000    0.0000    0.0000   -0.0017    0.0000   -0.0001   -0.0000    0.0274    0.0000
       20 RE    10px        0.0000   -0.0000   -0.0000   -0.0000    0.0019   -0.0000    0.0001    0.0000   -0.0270   -0.0000
       21 RE    11px       -0.0000    0.0000    0.0000    0.0000   -0.0026    0.0000   -0.0001   -0.0000    0.0273    0.0000
       22 RE     2py       -0.0000   -0.0000   -0.0007    0.9999   -0.0000   -0.0000   -0.0000    0.0142   -0.0000    0.0000
       23 RE     3py        0.0000    0.0000    0.0000   -0.0136    0.0000   -0.0000   -0.0001    0.9932   -0.0000    0.0000
       24 RE     4py       -0.0000    0.0000   -0.0000    0.0038   -0.0000    0.0000    0.0000   -0.0909    0.0000   -0.0000
       25 RE     5py        0.0000    0.0000    0.0000   -0.0012    0.0000   -0.0000   -0.0000    0.0255   -0.0000    0.0000
       26 RE     6py       -0.0000    0.0000   -0.0000    0.0006   -0.0000    0.0000    0.0000   -0.0117    0.0000   -0.0000
       27 RE     7py        0.0000    0.0000    0.0000   -0.0017    0.0000   -0.0000   -0.0000    0.0322   -0.0000    0.0000
       28 RE     8py       -0.0000    0.0000   -0.0000    0.0018   -0.0000    0.0000    0.0000   -0.0319    0.0000   -0.0000
       29 RE     9py        0.0000    0.0000    0.0000   -0.0017    0.0000   -0.0000   -0.0000    0.0274   -0.0000    0.0000
       30 RE    10py       -0.0000   -0.0000   -0.0000    0.0019   -0.0000    0.0000    0.0000   -0.0270    0.0000   -0.0000
       31 RE    11py        0.0000    0.0000    0.0000   -0.0026    0.0000   -0.0000   -0.0000    0.0273   -0.0000    0.0000
       32 RE     2pz        0.0000    0.0000    0.9999    0.0007    0.0020    0.0000    0.0142    0.0000    0.0000    0.0000
       33 RE     3pz       -0.0000    0.0000   -0.0136   -0.0000   -0.0000    0.0000    0.9932    0.0001    0.0019    0.0000
       34 RE     4pz        0.0000   -0.0000    0.0038    0.0000    0.0000   -0.0000   -0.0909   -0.0000   -0.0002   -0.0000
       35 RE     5pz       -0.0000    0.0000   -0.0012   -0.0000   -0.0000    0.0000    0.0255    0.0000    0.0000    0.0000
       36 RE     6pz        0.0000   -0.0000    0.0006    0.0000    0.0000   -0.0000   -0.0117   -0.0000   -0.0000   -0.0000
       37 RE     7pz       -0.0000    0.0000   -0.0017   -0.0000   -0.0000    0.0000    0.0322    0.0000    0.0001    0.0000
       38 RE     8pz        0.0000   -0.0000    0.0018    0.0000    0.0000   -0.0000   -0.0319   -0.0000   -0.0001   -0.0000
       39 RE     9pz       -0.0000    0.0000   -0.0017   -0.0000   -0.0000    0.0000    0.0274    0.0000    0.0001   -0.0000
       40 RE    10pz        0.0000   -0.0000    0.0019    0.0000    0.0000   -0.0000   -0.0270   -0.0000   -0.0001   -0.0000
       41 RE    11pz       -0.0000    0.0000   -0.0026   -0.0000   -0.0000    0.0000    0.0273    0.0000    0.0001    0.0000
       42 RE     3d2-       0.0000    0.0000   -0.0000    0.0000   -0.0000    0.0000   -0.0000    0.0018   -0.0000   -0.0026
       43 RE     4d2-      -0.0000   -0.0000    0.0000   -0.0000    0.0000   -0.0000    0.0000   -0.0001    0.0000    0.0002
       44 RE     5d2-       0.0000    0.0000   -0.0000    0.0000   -0.0000    0.0000   -0.0000    0.0000   -0.0000   -0.0001
       45 RE     6d2-      -0.0000   -0.0000    0.0000   -0.0000    0.0000   -0.0000    0.0000   -0.0000    0.0000    0.0001
       46 RE     7d2-       0.0000    0.0000   -0.0000    0.0000   -0.0000    0.0000   -0.0000    0.0000   -0.0000   -0.0001
       47 RE     8d2-      -0.0000   -0.0000    0.0000   -0.0000    0.0000   -0.0000    0.0000   -0.0000    0.0000    0.0001
       48 RE     9d2-       0.0000    0.0000   -0.0000    0.0000   -0.0000    0.0000   -0.0000    0.0000   -0.0000   -0.0001
       49 RE    10d2-      -0.0000   -0.0000    0.0000   -0.0000    0.0000   -0.0000   -0.0000    0.0000   -0.0000    0.0001
       50 RE    11d2-       0.0000    0.0000   -0.0000    0.0000   -0.0000    0.0000    0.0000   -0.0000    0.0000   -0.0001
       51 RE     3d1-      -0.0000   -0.0000   -0.0000    0.0000    0.0000    0.0000   -0.0000    0.0000    0.0000    0.9918
       52 RE     4d1-       0.0000    0.0000    0.0000   -0.0000   -0.0000   -0.0000    0.0000   -0.0000   -0.0000   -0.0956
       53 RE     5d1-      -0.0000   -0.0000   -0.0000    0.0000    0.0000    0.0000   -0.0000    0.0000   -0.0000    0.0197
       54 RE     6d1-       0.0000    0.0000    0.0000   -0.0000    0.0000   -0.0000   -0.0000    0.0000   -0.0000   -0.0256
       55 RE     7d1-      -0.0000   -0.0000    0.0000   -0.0000    0.0000    0.0000   -0.0000    0.0000    0.0000    0.0345
       56 RE     8d1-       0.0000    0.0000    0.0000   -0.0000    0.0000   -0.0000   -0.0000    0.0000   -0.0000   -0.0399
       57 RE     9d1-      -0.0000   -0.0000    0.0000   -0.0000    0.0000    0.0000   -0.0000    0.0000   -0.0000    0.0325
       58 RE    10d1-       0.0000    0.0000    0.0000   -0.0000    0.0000   -0.0000   -0.0000    0.0000   -0.0000   -0.0384
       59 RE    11d1-      -0.0000   -0.0000   -0.0000    0.0000    0.0000   -0.0000   -0.0000    0.0000   -0.0000    0.0276
       60 RE     3d0        0.0000    0.0000    0.0000    0.0000   -0.0000    0.0000    0.0000    0.0000   -0.0010    0.0001
       61 RE     4d0       -0.0000   -0.0000   -0.0000   -0.0000    0.0000    0.0000   -0.0000   -0.0000    0.0000   -0.0000
       62 RE     5d0        0.0000    0.0000    0.0000    0.0000   -0.0000   -0.0000    0.0000    0.0000   -0.0000    0.0000
       63 RE     6d0       -0.0000   -0.0000   -0.0000   -0.0000    0.0000    0.0000   -0.0000   -0.0000    0.0000   -0.0000
       64 RE     7d0        0.0000    0.0000    0.0000    0.0000   -0.0000   -0.0000   -0.0000   -0.0000   -0.0000    0.0000
       65 RE     8d0       -0.0000   -0.0000    0.0000    0.0000    0.0000    0.0000   -0.0000   -0.0000    0.0000   -0.0000
       66 RE     9d0        0.0000    0.0000    0.0000    0.0000   -0.0000   -0.0000   -0.0000   -0.0000   -0.0000    0.0000
       67 RE    10d0       -0.0000   -0.0000   -0.0000   -0.0000    0.0000    0.0000   -0.0000   -0.0000   -0.0000   -0.0000
       68 RE    11d0        0.0000    0.0000    0.0000    0.0000   -0.0000   -0.0000   -0.0000   -0.0000    0.0000    0.0000
       69 RE     3d1+      -0.0000   -0.0000    0.0000    0.0000    0.0000   -0.0000    0.0018    0.0000    0.0000   -0.0000
       70 RE     4d1+       0.0000    0.0000   -0.0000   -0.0000   -0.0000   -0.0000   -0.0001   -0.0000   -0.0000    0.0000
       71 RE     5d1+      -0.0000   -0.0000    0.0000    0.0000    0.0000    0.0000    0.0000    0.0000    0.0000   -0.0000
       72 RE     6d1+       0.0000    0.0000   -0.0000   -0.0000   -0.0000   -0.0000   -0.0000   -0.0000   -0.0000    0.0000
       73 RE     7d1+      -0.0000   -0.0000    0.0000    0.0000    0.0000    0.0000    0.0000    0.0000    0.0000   -0.0000
       74 RE     8d1+       0.0000    0.0000   -0.0000   -0.0000   -0.0000   -0.0000   -0.0000   -0.0000   -0.0000    0.0000
       75 RE     9d1+      -0.0000   -0.0000    0.0000    0.0000    0.0000    0.0000    0.0000    0.0000    0.0000   -0.0000
       76 RE    10d1+       0.0000    0.0000   -0.0000   -0.0000   -0.0000   -0.0000    0.0000    0.0000    0.0000    0.0000
       77 RE    11d1+      -0.0000   -0.0000    0.0000    0.0000    0.0000    0.0000   -0.0000   -0.0000   -0.0000   -0.0000
       78 RE     3d2+      -0.0000   -0.0000   -0.0000   -0.0000    0.0000   -0.0000   -0.0000   -0.0000    0.0018    0.0000
       79 RE     4d2+       0.0000    0.0000    0.0000    0.0000   -0.0000   -0.0000    0.0000    0.0000   -0.0001   -0.0000
       80 RE     5d2+      -0.0000   -0.0000   -0.0000   -0.0000    0.0000    0.0000   -0.0000   -0.0000    0.0000    0.0000
       81 RE     6d2+       0.0000    0.0000    0.0000    0.0000   -0.0000   -0.0000   -0.0000   -0.0000   -0.0000   -0.0000
       82 RE     7d2+      -0.0000   -0.0000   -0.0000   -0.0000    0.0000    0.0000   -0.0000   -0.0000    0.0000    0.0000
       83 RE     8d2+       0.0000    0.0000    0.0000    0.0000   -0.0000   -0.0000   -0.0000   -0.0000   -0.0000   -0.0000
       84 RE     9d2+      -0.0000   -0.0000    0.0000    0.0000    0.0000    0.0000   -0.0000   -0.0000    0.0000    0.0000
       85 RE    10d2+       0.0000    0.0000    0.0000    0.0000   -0.0000   -0.0000   -0.0000   -0.0000    0.0000   -0.0000
       86 RE    11d2+      -0.0000   -0.0000   -0.0000   -0.0000    0.0000    0.0000    0.0000    0.0000   -0.0000    0.0000
       87 RE     4f3-       0.0000    0.0000    0.0000   -0.0000    0.0000   -0.0000    0.0000   -0.0000    0.0000   -0.0000
       88 RE     5f3-      -0.0000   -0.0000   -0.0000    0.0000   -0.0000    0.0000   -0.0000    0.0000   -0.0000    0.0000
       89 RE     6f3-       0.0000    0.0000    0.0000   -0.0000    0.0000   -0.0000    0.0000   -0.0000    0.0000   -0.0000
       90 RE     7f3-      -0.0000   -0.0000   -0.0000    0.0000   -0.0000    0.0000   -0.0000    0.0000   -0.0000    0.0000
       91 RE     8f3-       0.0000    0.0000    0.0000   -0.0000    0.0000   -0.0000    0.0000   -0.0000    0.0000   -0.0000
       92 RE     9f3-      -0.0000   -0.0000   -0.0000    0.0000   -0.0000    0.0000   -0.0000    0.0000   -0.0000    0.0000
       93 RE    10f3-       0.0000    0.0000    0.0000   -0.0000    0.0000   -0.0000    0.0000   -0.0000    0.0000   -0.0000
       94 RE    11f3-      -0.0000   -0.0000   -0.0000    0.0000   -0.0000    0.0000   -0.0000    0.0000   -0.0000    0.0000
       95 RE     4f2-      -0.0000    0.0000    0.0000   -0.0000   -0.0000    0.0000    0.0000   -0.0000    0.0000    0.0002
       96 RE     5f2-       0.0000   -0.0000    0.0000   -0.0000    0.0000   -0.0000   -0.0000    0.0000    0.0000   -0.0001
       97 RE     6f2-       0.0000    0.0000    0.0000   -0.0000    0.0000    0.0000   -0.0000    0.0000   -0.0000    0.0001
       98 RE     7f2-      -0.0000   -0.0000    0.0000   -0.0000    0.0000   -0.0000   -0.0000    0.0000   -0.0000   -0.0001
       99 RE     8f2-       0.0000    0.0000    0.0000   -0.0000    0.0000   -0.0000   -0.0000    0.0000   -0.0000    0.0001
      100 RE     9f2-      -0.0000   -0.0000    0.0000   -0.0000    0.0000    0.0000   -0.0000    0.0000   -0.0000   -0.0001
      101 RE    10f2-       0.0000    0.0000    0.0000   -0.0000    0.0000    0.0000   -0.0000    0.0000    0.0000    0.0000
      102 RE    11f2-      -0.0000   -0.0000    0.0000   -0.0000    0.0000   -0.0000   -0.0000    0.0000   -0.0000   -0.0000
      103 RE     4f1-      -0.0000   -0.0000   -0.0000    0.0000   -0.0000    0.0000   -0.0000    0.0000   -0.0000    0.0000
      104 RE     5f1-       0.0000    0.0000    0.0000   -0.0000    0.0000   -0.0000    0.0000   -0.0000    0.0000   -0.0000
      105 RE     6f1-      -0.0000   -0.0000   -0.0000    0.0000   -0.0000    0.0000   -0.0000    0.0000   -0.0000    0.0000
      106 RE     7f1-      -0.0000    0.0000    0.0000   -0.0000    0.0000   -0.0000    0.0000   -0.0000    0.0000   -0.0000
      107 RE     8f1-       0.0000   -0.0000   -0.0000    0.0000   -0.0000    0.0000   -0.0000    0.0000   -0.0000    0.0000
      108 RE     9f1-      -0.0000    0.0000    0.0000   -0.0000    0.0000   -0.0000    0.0000   -0.0000    0.0000   -0.0000
      109 RE    10f1-       0.0000   -0.0000   -0.0000    0.0000   -0.0000    0.0000   -0.0000    0.0000   -0.0000    0.0000
      110 RE    11f1-      -0.0000    0.0000    0.0000   -0.0000    0.0000    0.0000    0.0000   -0.0000   -0.0000   -0.0000
      111 RE     4f0       -0.0000    0.0000    0.0000    0.0000    0.0000    0.0000    0.0000    0.0000    0.0000    0.0000
      112 RE     5f0        0.0000   -0.0000   -0.0000   -0.0000    0.0000    0.0000   -0.0000   -0.0000   -0.0000   -0.0000
      113 RE     6f0        0.0000   -0.0000    0.0000    0.0000    0.0000    0.0000    0.0000    0.0000    0.0000    0.0000
      114 RE     7f0        0.0000   -0.0000   -0.0000   -0.0000    0.0000    0.0000   -0.0000   -0.0000   -0.0000   -0.0000
      115 RE     8f0        0.0000   -0.0000    0.0000    0.0000    0.0000    0.0000    0.0000    0.0000   -0.0000    0.0000
      116 RE     9f0        0.0000   -0.0000   -0.0000   -0.0000    0.0000    0.0000   -0.0000   -0.0000   -0.0000   -0.0000
      117 RE    10f0        0.0000   -0.0000    0.0000    0.0000    0.0000    0.0000    0.0000    0.0000   -0.0000    0.0000
      118 RE    11f0        0.0000   -0.0000   -0.0000   -0.0000    0.0000    0.0000   -0.0000   -0.0000   -0.0000   -0.0000
      119 RE     4f1+       0.0000   -0.0000   -0.0000   -0.0000    0.0000   -0.0000   -0.0000   -0.0000    0.0000    0.0000
      120 RE     5f1+      -0.0000    0.0000    0.0000    0.0000   -0.0000    0.0000    0.0000    0.0000   -0.0000   -0.0000
      121 RE     6f1+      -0.0000    0.0000    0.0000    0.0000    0.0000   -0.0000   -0.0000   -0.0000    0.0000    0.0000
      122 RE     7f1+      -0.0000    0.0000    0.0000    0.0000   -0.0000   -0.0000   -0.0000   -0.0000   -0.0000   -0.0000
      123 RE     8f1+      -0.0000    0.0000    0.0000    0.0000    0.0000   -0.0000   -0.0000   -0.0000    0.0000    0.0000
      124 RE     9f1+      -0.0000    0.0000    0.0000    0.0000   -0.0000   -0.0000   -0.0000   -0.0000   -0.0000   -0.0000
      125 RE    10f1+       0.0000   -0.0000    0.0000    0.0000    0.0000    0.0000   -0.0000   -0.0000    0.0000    0.0000
      126 RE    11f1+      -0.0000   -0.0000    0.0000    0.0000   -0.0000    0.0000   -0.0000   -0.0000   -0.0000   -0.0000
      127 RE     4f2+      -0.0000    0.0000   -0.0000   -0.0000   -0.0000    0.0000   -0.0000   -0.0000   -0.0000   -0.0000
      128 RE     5f2+       0.0000   -0.0000    0.0000    0.0000    0.0000    0.0000    0.0000    0.0000    0.0000    0.0000
      129 RE     6f2+       0.0000   -0.0000   -0.0000   -0.0000    0.0000    0.0000   -0.0000   -0.0000   -0.0000   -0.0000
      130 RE     7f2+       0.0000   -0.0000    0.0000    0.0000    0.0000    0.0000    0.0000    0.0000   -0.0000    0.0000
      131 RE     8f2+       0.0000   -0.0000   -0.0000   -0.0000    0.0000    0.0000   -0.0000   -0.0000   -0.0000   -0.0000
      132 RE     9f2+       0.0000   -0.0000    0.0000    0.0000    0.0000    0.0000    0.0000    0.0000   -0.0000    0.0000
      133 RE    10f2+       0.0000   -0.0000   -0.0000   -0.0000    0.0000    0.0000   -0.0000   -0.0000   -0.0000   -0.0000
      134 RE    11f2+       0.0000   -0.0000    0.0000    0.0000    0.0000    0.0000    0.0000    0.0000   -0.0000    0.0000
      135 RE     4f3+      -0.0000    0.0000    0.0000    0.0000   -0.0000    0.0000    0.0000    0.0000   -0.0000    0.0000
      136 RE     5f3+       0.0000   -0.0000    0.0000    0.0000    0.0000   -0.0000   -0.0000   -0.0000    0.0000   -0.0000
      137 RE     6f3+       0.0000   -0.0000    0.0000    0.0000   -0.0000    0.0000   -0.0000   -0.0000   -0.0000    0.0000
      138 RE     7f3+       0.0000   -0.0000    0.0000    0.0000    0.0000    0.0000   -0.0000   -0.0000    0.0000   -0.0000
      139 RE     8f3+       0.0000   -0.0000    0.0000    0.0000   -0.0000    0.0000   -0.0000   -0.0000   -0.0000    0.0000
      140 RE     9f3+       0.0000   -0.0000    0.0000    0.0000    0.0000    0.0000   -0.0000   -0.0000    0.0000   -0.0000
      141 RE    10f3+      -0.0000    0.0000    0.0000    0.0000   -0.0000   -0.0000   -0.0000   -0.0000   -0.0000    0.0000
      142 RE    11f3+       0.0000    0.0000    0.0000    0.0000    0.0000   -0.0000   -0.0000   -0.0000    0.0000   -0.0000
      143 RE     5g4-      -0.0000    0.0000   -0.0000    0.0000   -0.0000   -0.0000   -0.0000    0.0000   -0.0000    0.0000
      144 RE     6g4-       0.0000   -0.0000    0.0000   -0.0000    0.0000    0.0000    0.0000   -0.0000    0.0000   -0.0000
      145 RE     7g4-      -0.0000    0.0000    0.0000   -0.0000    0.0000   -0.0000   -0.0000    0.0000   -0.0000    0.0000
      146 RE     8g4-       0.0000   -0.0000    0.0000   -0.0000    0.0000    0.0000   -0.0000    0.0000   -0.0000    0.0000
      147 RE     5g3-       0.0000    0.0000    0.0000   -0.0000   -0.0000    0.0000   -0.0000    0.0000    0.0000   -0.0000
      148 RE     6g3-      -0.0000   -0.0000   -0.0000    0.0000   -0.0000   -0.0000    0.0000   -0.0000   -0.0000    0.0000
      149 RE     7g3-       0.0000    0.0000   -0.0000    0.0000   -0.0000    0.0000    0.0000   -0.0000    0.0000   -0.0000
      150 RE     8g3-      -0.0000   -0.0000   -0.0000    0.0000    0.0000   -0.0000    0.0000   -0.0000   -0.0000    0.0000
      151 RE     5g2-      -0.0000   -0.0000    0.0000   -0.0000    0.0000   -0.0000    0.0000   -0.0000    0.0000   -0.0000
      152 RE     6g2-       0.0000    0.0000   -0.0000    0.0000   -0.0000    0.0000   -0.0000    0.0000    0.0000    0.0000
      153 RE     7g2-      -0.0000   -0.0000   -0.0000    0.0000   -0.0000   -0.0000    0.0000   -0.0000    0.0000   -0.0000
      154 RE     8g2-       0.0000    0.0000   -0.0000    0.0000   -0.0000    0.0000    0.0000   -0.0000    0.0000   -0.0000
      155 RE     5g1-       0.0000   -0.0000   -0.0000    0.0000    0.0000    0.0000   -0.0000    0.0000    0.0000    0.0000
      156 RE     6g1-      -0.0000    0.0000    0.0000   -0.0000   -0.0000   -0.0000    0.0000   -0.0000   -0.0000   -0.0000
      157 RE     7g1-       0.0000    0.0000    0.0000   -0.0000    0.0000    0.0000   -0.0000    0.0000    0.0000    0.0000
      158 RE     8g1-      -0.0000   -0.0000    0.0000   -0.0000   -0.0000   -0.0000   -0.0000    0.0000   -0.0000   -0.0000
      159 RE     5g0        0.0000   -0.0000   -0.0000   -0.0000    0.0000   -0.0000   -0.0000   -0.0000    0.0000    0.0000
      160 RE     6g0       -0.0000    0.0000    0.0000    0.0000   -0.0000   -0.0000    0.0000    0.0000   -0.0000   -0.0000
      161 RE     7g0       -0.0000    0.0000    0.0000    0.0000   -0.0000   -0.0000   -0.0000   -0.0000    0.0000    0.0000
      162 RE     8g0       -0.0000    0.0000    0.0000    0.0000   -0.0000   -0.0000   -0.0000   -0.0000    0.0000   -0.0000
      163 RE     5g1+      -0.0000    0.0000   -0.0000   -0.0000    0.0000    0.0000   -0.0000   -0.0000    0.0000   -0.0000
      164 RE     6g1+       0.0000   -0.0000    0.0000    0.0000   -0.0000    0.0000    0.0000    0.0000   -0.0000    0.0000
      165 RE     7g1+       0.0000   -0.0000    0.0000    0.0000   -0.0000    0.0000   -0.0000   -0.0000    0.0000    0.0000
      166 RE     8g1+       0.0000   -0.0000    0.0000    0.0000   -0.0000    0.0000   -0.0000   -0.0000    0.0000    0.0000
      167 RE     5g2+      -0.0000    0.0000    0.0000    0.0000   -0.0000    0.0000    0.0000    0.0000   -0.0000   -0.0000
      168 RE     6g2+       0.0000   -0.0000   -0.0000   -0.0000    0.0000    0.0000   -0.0000   -0.0000    0.0000    0.0000
      169 RE     7g2+       0.0000   -0.0000   -0.0000   -0.0000    0.0000    0.0000    0.0000    0.0000   -0.0000   -0.0000
      170 RE     8g2+       0.0000   -0.0000   -0.0000   -0.0000    0.0000    0.0000    0.0000    0.0000   -0.0000    0.0000
      171 RE     5g3+      -0.0000    0.0000    0.0000    0.0000    0.0000    0.0000    0.0000    0.0000    0.0000   -0.0000
      172 RE     6g3+       0.0000   -0.0000   -0.0000   -0.0000   -0.0000    0.0000   -0.0000   -0.0000   -0.0000    0.0000
      173 RE     7g3+       0.0000   -0.0000   -0.0000   -0.0000   -0.0000    0.0000    0.0000    0.0000    0.0000   -0.0000
      174 RE     8g3+       0.0000   -0.0000   -0.0000   -0.0000   -0.0000    0.0000    0.0000    0.0000    0.0000   -0.0000
      175 RE     5g4+       0.0000   -0.0000    0.0000    0.0000    0.0000   -0.0000    0.0000    0.0000    0.0000   -0.0000
      176 RE     6g4+      -0.0000    0.0000   -0.0000   -0.0000   -0.0000   -0.0000   -0.0000   -0.0000   -0.0000    0.0000
      177 RE     7g4+      -0.0000    0.0000   -0.0000   -0.0000   -0.0000   -0.0000    0.0000    0.0000    0.0000   -0.0000
      178 RE     8g4+      -0.0000    0.0000   -0.0000   -0.0000   -0.0000   -0.0000    0.0000    0.0000    0.0000    0.0000
      179 RE     6h5-       0.0000   -0.0000    0.0000   -0.0000   -0.0000    0.0000   -0.0000    0.0000    0.0000   -0.0000
      180 RE     7h5-      -0.0000    0.0000    0.0000   -0.0000    0.0000   -0.0000   -0.0000    0.0000   -0.0000   -0.0000
      181 RE     6h4-      -0.0000    0.0000   -0.0000    0.0000   -0.0000    0.0000    0.0000   -0.0000    0.0000    0.0000
      182 RE     7h4-       0.0000    0.0000   -0.0000    0.0000   -0.0000   -0.0000    0.0000   -0.0000    0.0000   -0.0000
      183 RE     6h3-      -0.0000    0.0000   -0.0000    0.0000   -0.0000    0.0000    0.0000   -0.0000    0.0000    0.0000
      184 RE     7h3-      -0.0000   -0.0000   -0.0000    0.0000    0.0000   -0.0000    0.0000   -0.0000   -0.0000    0.0000
      185 RE     6h2-       0.0000    0.0000   -0.0000    0.0000   -0.0000   -0.0000    0.0000   -0.0000    0.0000   -0.0000
      186 RE     7h2-      -0.0000   -0.0000   -0.0000    0.0000   -0.0000    0.0000    0.0000   -0.0000    0.0000    0.0000
      187 RE     6h1-      -0.0000   -0.0000    0.0000   -0.0000   -0.0000   -0.0000   -0.0000    0.0000    0.0000    0.0000
      188 RE     7h1-       0.0000    0.0000    0.0000   -0.0000    0.0000    0.0000   -0.0000    0.0000   -0.0000    0.0000
      189 RE     6h0        0.0000   -0.0000   -0.0000   -0.0000   -0.0000    0.0000    0.0000    0.0000    0.0000    0.0000
      190 RE     7h0        0.0000   -0.0000   -0.0000   -0.0000   -0.0000    0.0000    0.0000    0.0000    0.0000    0.0000
      191 RE     6h1+      -0.0000    0.0000    0.0000    0.0000   -0.0000   -0.0000   -0.0000   -0.0000    0.0000   -0.0000
      192 RE     7h1+      -0.0000    0.0000    0.0000    0.0000   -0.0000   -0.0000   -0.0000   -0.0000    0.0000    0.0000
      193 RE     6h2+      -0.0000    0.0000    0.0000    0.0000    0.0000   -0.0000   -0.0000   -0.0000   -0.0000   -0.0000
      194 RE     7h2+      -0.0000    0.0000    0.0000    0.0000    0.0000   -0.0000   -0.0000   -0.0000   -0.0000   -0.0000
      195 RE     6h3+       0.0000   -0.0000    0.0000    0.0000    0.0000    0.0000   -0.0000   -0.0000   -0.0000    0.0000
      196 RE     7h3+       0.0000   -0.0000    0.0000    0.0000    0.0000    0.0000   -0.0000   -0.0000   -0.0000   -0.0000
      197 RE     6h4+      -0.0000    0.0000   -0.0000   -0.0000    0.0000   -0.0000    0.0000    0.0000   -0.0000    0.0000
      198 RE     7h4+      -0.0000    0.0000   -0.0000   -0.0000    0.0000   -0.0000    0.0000    0.0000   -0.0000    0.0000
      199 RE     6h5+      -0.0000    0.0000    0.0000    0.0000   -0.0000   -0.0000   -0.0000   -0.0000    0.0000    0.0000
      200 RE     7h5+      -0.0000    0.0000    0.0000    0.0000   -0.0000   -0.0000   -0.0000   -0.0000    0.0000   -0.0000

          Orbital           11        12        13        14    
          Energy         -194.9092 -194.9087 -194.9087 -194.9085
          Occ. No.          0.0000    0.0000    0.0000    0.0000

        1 RE     1s        -0.0000    0.0000    0.0000   -0.0000
        2 RE     2s        -0.0000   -0.0000   -0.0000    0.0000
        3 RE     3s        -0.0000   -0.0000   -0.0000    0.0000
        4 RE     4s         0.0000   -0.0000    0.0000   -0.0000
        5 RE     5s        -0.0000   -0.0000   -0.0000    0.0000
        6 RE     6s        -0.0000    0.0000    0.0000   -0.0000
        7 RE     7s        -0.0000    0.0000    0.0000    0.0000
        8 RE     8s        -0.0000    0.0000    0.0000   -0.0000
        9 RE     9s        -0.0000    0.0000   -0.0000    0.0000
       10 RE    10s        -0.0000   -0.0000    0.0000   -0.0000
       11 RE    11s        -0.0000   -0.0000   -0.0000    0.0000
       12 RE     2px        0.0000    0.0000    0.0000   -0.0001
       13 RE     3px        0.0000    0.0000    0.0000   -0.0020
       14 RE     4px       -0.0000   -0.0000   -0.0000    0.0003
       15 RE     5px        0.0000    0.0000    0.0000   -0.0001
       16 RE     6px       -0.0000   -0.0000   -0.0000    0.0000
       17 RE     7px        0.0000    0.0000    0.0000   -0.0001
       18 RE     8px       -0.0000   -0.0000   -0.0000    0.0001
       19 RE     9px        0.0000    0.0000    0.0000   -0.0001
       20 RE    10px       -0.0000   -0.0000   -0.0000    0.0001
       21 RE    11px        0.0000    0.0000    0.0000   -0.0001
       22 RE     2py       -0.0000    0.0000   -0.0000   -0.0000
       23 RE     3py       -0.0000    0.0000   -0.0018   -0.0000
       24 RE     4py        0.0000   -0.0000    0.0002    0.0000
       25 RE     5py       -0.0000    0.0000   -0.0001   -0.0000
       26 RE     6py        0.0000   -0.0000    0.0000    0.0000
       27 RE     7py       -0.0000    0.0000   -0.0001   -0.0000
       28 RE     8py        0.0000   -0.0000    0.0001    0.0000
       29 RE     9py       -0.0000    0.0000   -0.0001   -0.0000
       30 RE    10py        0.0000   -0.0000    0.0001    0.0000
       31 RE    11py       -0.0000    0.0000   -0.0001   -0.0000
       32 RE     2pz        0.0000   -0.0000   -0.0000   -0.0000
       33 RE     3pz        0.0000   -0.0018   -0.0000   -0.0000
       34 RE     4pz       -0.0000    0.0002    0.0000    0.0000
       35 RE     5pz        0.0000   -0.0001   -0.0000   -0.0000
       36 RE     6pz       -0.0000    0.0000    0.0000    0.0000
       37 RE     7pz        0.0000   -0.0001   -0.0000   -0.0000
       38 RE     8pz       -0.0000    0.0001    0.0000    0.0000
       39 RE     9pz       -0.0000   -0.0001   -0.0000   -0.0000
       40 RE    10pz       -0.0000    0.0001    0.0000    0.0000
       41 RE    11pz        0.0000   -0.0001   -0.0000   -0.0000
       42 RE     3d2-       0.0000   -0.0000    0.9918    0.0000
       43 RE     4d2-      -0.0000    0.0000   -0.0956   -0.0000
       44 RE     5d2-       0.0000   -0.0000    0.0197    0.0000
       45 RE     6d2-      -0.0000    0.0000   -0.0256   -0.0000
       46 RE     7d2-       0.0000   -0.0000    0.0345    0.0000
       47 RE     8d2-      -0.0000    0.0000   -0.0399   -0.0000
       48 RE     9d2-       0.0000   -0.0000    0.0325    0.0000
       49 RE    10d2-      -0.0000    0.0000   -0.0384   -0.0000
       50 RE    11d2-       0.0000   -0.0000    0.0276    0.0000
       51 RE     3d1-      -0.0001   -0.0000    0.0026   -0.0000
       52 RE     4d1-       0.0000    0.0000   -0.0002    0.0000
       53 RE     5d1-      -0.0000   -0.0000    0.0001   -0.0000
       54 RE     6d1-       0.0000    0.0000   -0.0001    0.0000
       55 RE     7d1-      -0.0000   -0.0000    0.0001   -0.0000
       56 RE     8d1-       0.0000    0.0000   -0.0001    0.0000
       57 RE     9d1-      -0.0000   -0.0000    0.0001   -0.0000
       58 RE    10d1-       0.0000    0.0000   -0.0001    0.0000
       59 RE    11d1-      -0.0000   -0.0000    0.0001   -0.0000
       60 RE     3d0        0.8590    0.0028    0.0000   -0.4959
       61 RE     4d0       -0.0828   -0.0003   -0.0000    0.0478
       62 RE     5d0        0.0171    0.0001    0.0000   -0.0099
       63 RE     6d0       -0.0222   -0.0001   -0.0000    0.0128
       64 RE     7d0        0.0299    0.0001    0.0000   -0.0173
       65 RE     8d0       -0.0346   -0.0001   -0.0000    0.0200
       66 RE     9d0        0.0282    0.0001    0.0000   -0.0163
       67 RE    10d0       -0.0332   -0.0001   -0.0000    0.0192
       68 RE    11d0        0.0239    0.0001    0.0000   -0.0138
       69 RE     3d1+      -0.0013    0.9918    0.0000    0.0033
       70 RE     4d1+       0.0001   -0.0956   -0.0000   -0.0003
       71 RE     5d1+      -0.0000    0.0197    0.0000    0.0001
       72 RE     6d1+       0.0000   -0.0256   -0.0000   -0.0001
       73 RE     7d1+      -0.0000    0.0345    0.0000    0.0001
       74 RE     8d1+       0.0001   -0.0399   -0.0000   -0.0001
       75 RE     9d1+      -0.0000    0.0325    0.0000    0.0001
       76 RE    10d1+       0.0000   -0.0384   -0.0000   -0.0001
       77 RE    11d1+      -0.0000    0.0276    0.0000    0.0001
       78 RE     3d2+       0.4959   -0.0022   -0.0000    0.8590
       79 RE     4d2+      -0.0478    0.0002    0.0000   -0.0828
       80 RE     5d2+       0.0099   -0.0000   -0.0000    0.0171
       81 RE     6d2+      -0.0128    0.0001    0.0000   -0.0222
       82 RE     7d2+       0.0173   -0.0001   -0.0000    0.0299
       83 RE     8d2+      -0.0200    0.0001    0.0000   -0.0346
       84 RE     9d2+       0.0163   -0.0001   -0.0000    0.0282
       85 RE    10d2+      -0.0192    0.0001    0.0000   -0.0332
       86 RE    11d2+       0.0138   -0.0001   -0.0000    0.0239
       87 RE     4f3-       0.0000   -0.0000    0.0002    0.0000
       88 RE     5f3-      -0.0000    0.0000   -0.0001   -0.0000
       89 RE     6f3-       0.0000   -0.0000    0.0001    0.0000
       90 RE     7f3-      -0.0000    0.0000   -0.0001   -0.0000
       91 RE     8f3-       0.0000   -0.0000    0.0001    0.0000
       92 RE     9f3-      -0.0000    0.0000   -0.0001   -0.0000
       93 RE    10f3-       0.0000   -0.0000    0.0001    0.0000
       94 RE    11f3-      -0.0000    0.0000   -0.0000   -0.0000
       95 RE     4f2-      -0.0000   -0.0000    0.0000   -0.0000
       96 RE     5f2-       0.0000    0.0000   -0.0000    0.0000
       97 RE     6f2-      -0.0000   -0.0000    0.0000   -0.0000
       98 RE     7f2-       0.0000    0.0000   -0.0000    0.0000
       99 RE     8f2-      -0.0000   -0.0000    0.0000   -0.0000
      100 RE     9f2-       0.0000    0.0000   -0.0000    0.0000
      101 RE    10f2-      -0.0000   -0.0000    0.0000   -0.0000
      102 RE    11f2-       0.0000    0.0000   -0.0000    0.0000
      103 RE     4f1-      -0.0000    0.0000   -0.0001   -0.0000
      104 RE     5f1-       0.0000   -0.0000    0.0000    0.0000
      105 RE     6f1-      -0.0000    0.0000   -0.0000   -0.0000
      106 RE     7f1-       0.0000   -0.0000    0.0000    0.0000
      107 RE     8f1-      -0.0000    0.0000   -0.0000   -0.0000
      108 RE     9f1-       0.0000   -0.0000    0.0000    0.0000
      109 RE    10f1-      -0.0000    0.0000   -0.0000   -0.0000
      110 RE    11f1-       0.0000   -0.0000    0.0000    0.0000
      111 RE     4f0        0.0000   -0.0001   -0.0000   -0.0000
      112 RE     5f0       -0.0000    0.0001    0.0000    0.0000
      113 RE     6f0        0.0000   -0.0001   -0.0000   -0.0000
      114 RE     7f0       -0.0000    0.0001    0.0000    0.0000
      115 RE     8f0        0.0000   -0.0001   -0.0000   -0.0000
      116 RE     9f0       -0.0000    0.0000    0.0000    0.0000
      117 RE    10f0        0.0000   -0.0000   -0.0000   -0.0000
      118 RE    11f0       -0.0000    0.0000    0.0000    0.0000
      119 RE     4f1+       0.0001    0.0000    0.0000   -0.0001
      120 RE     5f1+      -0.0001   -0.0000   -0.0000    0.0001
      121 RE     6f1+       0.0001    0.0000    0.0000   -0.0001
      122 RE     7f1+      -0.0001   -0.0000   -0.0000    0.0001
      123 RE     8f1+       0.0001    0.0000    0.0000   -0.0001
      124 RE     9f1+      -0.0000   -0.0000   -0.0000    0.0000
      125 RE    10f1+       0.0000    0.0000    0.0000   -0.0000
      126 RE    11f1+      -0.0000   -0.0000   -0.0000    0.0000
      127 RE     4f2+      -0.0000    0.0002    0.0000    0.0000
      128 RE     5f2+       0.0000   -0.0001   -0.0000   -0.0000
      129 RE     6f2+      -0.0000    0.0001    0.0000    0.0000
      130 RE     7f2+       0.0000   -0.0001   -0.0000   -0.0000
      131 RE     8f2+      -0.0000    0.0001    0.0000    0.0000
      132 RE     9f2+       0.0000   -0.0001   -0.0000   -0.0000
      133 RE    10f2+      -0.0000    0.0000    0.0000    0.0000
      134 RE    11f2+       0.0000   -0.0000   -0.0000   -0.0000
      135 RE     4f3+       0.0001   -0.0000   -0.0000    0.0002
      136 RE     5f3+      -0.0001    0.0000    0.0000   -0.0001
      137 RE     6f3+       0.0001   -0.0000   -0.0000    0.0001
      138 RE     7f3+      -0.0001    0.0000    0.0000   -0.0001
      139 RE     8f3+       0.0000   -0.0000   -0.0000    0.0001
      140 RE     9f3+      -0.0000    0.0000    0.0000   -0.0001
      141 RE    10f3+       0.0000   -0.0000   -0.0000    0.0000
      142 RE    11f3+      -0.0000    0.0000    0.0000   -0.0000
      143 RE     5g4-      -0.0000    0.0000   -0.0000   -0.0000
      144 RE     6g4-       0.0000   -0.0000    0.0000    0.0000
      145 RE     7g4-      -0.0000    0.0000   -0.0000   -0.0000
      146 RE     8g4-      -0.0000   -0.0000    0.0000    0.0000
      147 RE     5g3-       0.0000    0.0000   -0.0000    0.0000
      148 RE     6g3-      -0.0000   -0.0000    0.0000   -0.0000
      149 RE     7g3-       0.0000    0.0000   -0.0000    0.0000
      150 RE     8g3-      -0.0000   -0.0000    0.0000   -0.0000
      151 RE     5g2-       0.0000   -0.0000    0.0000    0.0000
      152 RE     6g2-      -0.0000    0.0000   -0.0000   -0.0000
      153 RE     7g2-       0.0000   -0.0000    0.0000    0.0000
      154 RE     8g2-       0.0000    0.0000   -0.0000   -0.0000
      155 RE     5g1-      -0.0000   -0.0000    0.0000    0.0000
      156 RE     6g1-       0.0000    0.0000   -0.0000    0.0000
      157 RE     7g1-      -0.0000   -0.0000    0.0000   -0.0000
      158 RE     8g1-       0.0000   -0.0000    0.0000    0.0000
      159 RE     5g0        0.0000    0.0000    0.0000   -0.0000
      160 RE     6g0       -0.0000   -0.0000   -0.0000    0.0000
      161 RE     7g0        0.0000    0.0000    0.0000   -0.0000
      162 RE     8g0       -0.0000    0.0000    0.0000    0.0000
      163 RE     5g1+      -0.0000    0.0000    0.0000    0.0000
      164 RE     6g1+       0.0000   -0.0000   -0.0000   -0.0000
      165 RE     7g1+       0.0000    0.0000    0.0000    0.0000
      166 RE     8g1+       0.0000   -0.0000   -0.0000   -0.0000
      167 RE     5g2+      -0.0000   -0.0000   -0.0000    0.0000
      168 RE     6g2+       0.0000    0.0000    0.0000   -0.0000
      169 RE     7g2+      -0.0000   -0.0000   -0.0000    0.0000
      170 RE     8g2+       0.0000    0.0000    0.0000   -0.0000
      171 RE     5g3+      -0.0000   -0.0000   -0.0000   -0.0000
      172 RE     6g3+       0.0000    0.0000    0.0000    0.0000
      173 RE     7g3+      -0.0000   -0.0000   -0.0000   -0.0000
      174 RE     8g3+      -0.0000    0.0000    0.0000   -0.0000
      175 RE     5g4+      -0.0000    0.0000    0.0000   -0.0000
      176 RE     6g4+       0.0000   -0.0000   -0.0000    0.0000
      177 RE     7g4+      -0.0000    0.0000    0.0000   -0.0000
      178 RE     8g4+       0.0000   -0.0000   -0.0000    0.0000
      179 RE     6h5-       0.0000   -0.0000    0.0000   -0.0000
      180 RE     7h5-       0.0000    0.0000   -0.0000    0.0000
      181 RE     6h4-      -0.0000   -0.0000    0.0000    0.0000
      182 RE     7h4-       0.0000    0.0000   -0.0000   -0.0000
      183 RE     6h3-      -0.0000    0.0000   -0.0000   -0.0000
      184 RE     7h3-      -0.0000   -0.0000    0.0000    0.0000
      185 RE     6h2-       0.0000    0.0000   -0.0000    0.0000
      186 RE     7h2-      -0.0000    0.0000   -0.0000   -0.0000
      187 RE     6h1-      -0.0000   -0.0000    0.0000    0.0000
      188 RE     7h1-      -0.0000    0.0000   -0.0000    0.0000
      189 RE     6h0        0.0000    0.0000    0.0000   -0.0000
      190 RE     7h0        0.0000   -0.0000   -0.0000   -0.0000
      191 RE     6h1+      -0.0000   -0.0000   -0.0000    0.0000
      192 RE     7h1+       0.0000   -0.0000    0.0000   -0.0000
      193 RE     6h2+      -0.0000   -0.0000   -0.0000   -0.0000
      194 RE     7h2+      -0.0000    0.0000    0.0000    0.0000
      195 RE     6h3+       0.0000   -0.0000   -0.0000   -0.0000
      196 RE     7h3+      -0.0000   -0.0000   -0.0000    0.0000
      197 RE     6h4+       0.0000    0.0000    0.0000    0.0000
      198 RE     7h4+       0.0000   -0.0000   -0.0000   -0.0000
      199 RE     6h5+       0.0000   -0.0000   -0.0000    0.0000
      200 RE     7h5+      -0.0000   -0.0000   -0.0000   -0.0000
--


++    Molecular charges:
      ------------------

      Mulliken charges per centre and basis function type
      ---------------------------------------------------

                RE    
      1s       2.0000
      2s       2.0000
      2px      2.0000
      2pz      2.0000
      2py      2.0000
      3s       1.9812
      3px      1.9733
      3pz      1.9733
      3py      1.9733
      4s       0.0127
      3d2+     0.0000
      3d1+     0.0000
      3d0      0.0000
      3d1-     0.0000
      3d2-     0.0000
      4px      0.0166
      4pz      0.0166
      4py      0.0166
      5s       0.0011
      4d2+     0.0000
      4d1+     0.0000
      4d0      0.0000
      4d1-     0.0000
      4d2-     0.0000
      5px      0.0013
      5pz      0.0013
      5py      0.0013
      6s       0.0001
      4f3+     0.0000
      4f2+     0.0000
      4f1+     0.0000
      4f0      0.0000
      4f1-     0.0000
      4f2-     0.0000
      4f3-     0.0000
      5d2+     0.0000
      5d1+     0.0000
      5d0      0.0000
      5d1-     0.0000
      5d2-     0.0000
      6px      0.0003
      6pz      0.0003
      6py      0.0003
      7s       0.0002
      5f3+     0.0000
      5f2+     0.0000
      5f1+     0.0000
      5f0      0.0000
      5f1-     0.0000
      5f2-     0.0000
      5f3-     0.0000
      6d2+     0.0000
      6d1+     0.0000
      6d0      0.0000
      6d1-     0.0000
      6d2-     0.0000
      7px      0.0021
      7pz      0.0021
      7py      0.0021
      5g4+     0.0000
      5g3+     0.0000
      5g2+     0.0000
      5g1+     0.0000
      5g0      0.0000
      5g1-     0.0000
      5g2-     0.0000
      5g3-     0.0000
      5g4-     0.0000
      6f3+     0.0000
      6f2+     0.0000
      6f1+     0.0000
      6f0      0.0000
      6f1-     0.0000
      6f2-     0.0000
      6f3-     0.0000
      6g4+     0.0000
      6g3+     0.0000
      6g2+     0.0000
      6g1+     0.0000
      6g0      0.0000
      6g1-     0.0000
      6g2-     0.0000
      6g3-     0.0000
      6g4-     0.0000
      6h5+     0.0000
      6h4+     0.0000
      6h3+     0.0000
      6h2+     0.0000
      6h1+     0.0000
      6h0      0.0000
      6h1-     0.0000
      6h2-     0.0000
      6h3-     0.0000
      6h4-     0.0000
      6h5-     0.0000
      7d2+     0.0000
      7d1+     0.0000
      7d0      0.0000
      7d1-     0.0000
      7d2-     0.0000
      7f3+     0.0000
      7f2+     0.0000
      7f1+     0.0000
      7f0      0.0000
      7f1-     0.0000
      7f2-     0.0000
      7f3-     0.0000
      7g4+     0.0000
      7g3+     0.0000
      7g2+     0.0000
      7g1+     0.0000
      7g0      0.0000
      7g1-     0.0000
      7g2-     0.0000
      7g3-     0.0000
      7g4-     0.0000
      7h5+     0.0000
      7h4+     0.0000
      7h3+     0.0000
      7h2+     0.0000
      7h1+     0.0000
      7h0      0.0000
      7h1-     0.0000
      7h2-     0.0000
      7h3-     0.0000
      7h4-     0.0000
      7h5-     0.0000
      8s       0.0010
      8px      0.0020
      8pz      0.0020
      8py      0.0020
      8d2+     0.0000
      8d1+     0.0000
      8d0      0.0000
      8d1-     0.0000
      8d2-     0.0000
      8f3+     0.0000
      8f2+     0.0000
      8f1+     0.0000
      8f0      0.0000
      8f1-     0.0000
      8f2-     0.0000
      8f3-     0.0000
      8g4+     0.0000
      8g3+     0.0000
      8g2+     0.0000
      8g1+     0.0000
      8g0      0.0000
      8g1-     0.0000
      8g2-     0.0000
      8g3-     0.0000
      8g4-     0.0000
      9s       0.0014
      9px      0.0015
      9pz      0.0015
      9py      0.0015
      9d2+     0.0000
      9d1+     0.0000
      9d0      0.0000
      9d1-     0.0000
      9d2-     0.0000
      9f3+     0.0000
      9f2+     0.0000
      9f1+     0.0000
      9f0      0.0000
      9f1-     0.0000
      9f2-     0.0000
      9f3-     0.0000
     10s       0.0006
     10px      0.0015
     10pz      0.0015
     10py      0.0015
     10d2+     0.0000
     10d1+     0.0000
     10d0      0.0000
     10d1-     0.0000
     10d2-     0.0000
     10f3+     0.0000
     10f2+     0.0000
     10f1+     0.0000
     10f0      0.0000
     10f1-     0.0000
     10f2-     0.0000
     10f3-     0.0000
     11s       0.0017
     11px      0.0015
     11pz      0.0015
     11py      0.0015
     11d2+     0.0000
     11d1+     0.0000
     11d0      0.0000
     11d1-     0.0000
     11d2-     0.0000
     11f3+     0.0000
     11f2+     0.0000
     11f1+     0.0000
     11f0      0.0000
     11f1-     0.0000
     11f2-     0.0000
     11f3-     0.0000
      Total   18.0000

      N-E     57.0000

      Total electronic charge=   18.000000

      Total            charge=   57.000000
--

 Sorry, Molden does not know how to handle
 functions with angular momentum larger than g

++    Static properties:
      ------------------


      LoProp Charges per center


                   RE    
      Nuclear     75.0000
      Electronic -18.0000

      Total       57.0000
--


++    Molecular properties:
      ---------------------

      Charge (e):
                      =   57.0000
      Dipole Moment (Debye):
      Origin of the operator (Ang)=    0.0000    0.0000    0.0000
                   X= -4.7316E-03               Y= -5.1894E-13               Z=  1.2682E+00           Total=  1.2682E+00
      Center of Charge (Ang)
                     X=   -0.00001728               Y=   -0.00000000               Z=    0.00463219
      Quadrupole Moment (Debye*Ang):
      Origin of the operator (Ang)=   -0.0000   -0.0000    0.0046
                  XX= -1.5896E-01              XY= -8.7360E-17              XZ=  7.0422E-09              YY= -1.5896E-01
                  YZ=  4.2036E-16              ZZ= -1.5896E-01
      In traceless form (Debye*Ang)
                  XX=  3.3315E-06              XY= -1.3104E-16              XZ=  1.0563E-08              YY= -1.6657E-06
                  YZ=  6.3053E-16              ZZ= -1.6658E-06
--

[...]
::    SO-RASSI State   14     Total energy: -13802.71275813
::    SO-RASSI State   15     Total energy: -13802.71275798
::    SO-RASSI State   16     Total energy: -13802.71275798
::    SO-RASSI State   17     Total energy: -13802.70809249
::    SO-RASSI State   18     Total energy: -13802.70809249


   Eigenvalues of complex Hamiltonian:
   -----------------------------------
  (Shifted by EMIN (a.u.) =     -13888.7213365008)

 SO State       Relative EMIN(au)   Rel lowest level(eV)    D:o, cm**(-1)     J-value

     1             0.0000000000        0.0000000000              0.0000         2.1
     2             0.0000000000        0.0000000000              0.0000         2.1
     3             0.0000000052        0.0000001404              0.0011         2.1
     4             0.0000000052        0.0000001404              0.0011         2.1
     5             0.0005428814        0.0147725567            119.1487         2.1
     6             0.0005428814        0.0147725567            119.1487         2.1
     7             0.0005429126        0.0147734038            119.1555         2.1
     8             0.0005429126        0.0147734038            119.1555         2.1
     9             0.0007257450        0.0197485276            159.2826         2.1
    10             0.0007257450        0.0197485276            159.2826         2.1
    11            79.5273211199     2164.0486521035       17454229.4861         0.5
    12            79.5273211199     2164.0486521035       17454229.4861         0.5
    13            86.0085783715     2340.4126465365       18876701.0322         1.2
    14            86.0085783715     2340.4126465365       18876701.0322         1.2
    15            86.0085785228     2340.4126506515       18876701.0654         1.2
    16            86.0085785228     2340.4126506515       18876701.0654         1.2
    17            86.0132440122     2340.5396050866       18877725.0219         1.2
    18            86.0132440122     2340.5396050866       18877725.0219         1.2


 Weights of the five most important spin-orbit-free states for each spin-orbit state.

 SO State  Total energy (au)           Spin-free states, spin, and weights
 -------------------------------------------------------------------------------------------------------
    1         0.000000       1 0.5  1.0000    9 0.5  0.0000    8 0.5  0.0000    7 0.5  0.0000    6 0.5  0.0000
    2         0.000000       1 0.5  1.0000    9 0.5  0.0000    8 0.5  0.0000    7 0.5  0.0000    6 0.5  0.0000
    3         0.000000       2 0.5  1.0000    9 0.5  0.0000    8 0.5  0.0000    7 0.5  0.0000    6 0.5  0.0000
    4         0.000000       2 0.5  1.0000    9 0.5  0.0000    8 0.5  0.0000    7 0.5  0.0000    6 0.5  0.0000
    5         0.000543       3 0.5  1.0000    9 0.5  0.0000    8 0.5  0.0000    7 0.5  0.0000    6 0.5  0.0000
    6         0.000543       3 0.5  1.0000    9 0.5  0.0000    8 0.5  0.0000    7 0.5  0.0000    6 0.5  0.0000
    7         0.000543       4 0.5  1.0000    9 0.5  0.0000    8 0.5  0.0000    7 0.5  0.0000    6 0.5  0.0000
    8         0.000543       4 0.5  1.0000    9 0.5  0.0000    8 0.5  0.0000    7 0.5  0.0000    6 0.5  0.0000
    9         0.000726       5 0.5  1.0000    9 0.5  0.0000    8 0.5  0.0000    7 0.5  0.0000    6 0.5  0.0000
   10         0.000726       5 0.5  1.0000    9 0.5  0.0000    8 0.5  0.0000    7 0.5  0.0000    6 0.5  0.0000
   11        79.527321       6 0.5  1.0000    9 0.5  0.0000    8 0.5  0.0000    7 0.5  0.0000    5 0.5  0.0000
   12        79.527321       6 0.5  1.0000    9 0.5  0.0000    8 0.5  0.0000    7 0.5  0.0000    5 0.5  0.0000
   13        86.008578       7 0.5  1.0000    9 0.5  0.0000    8 0.5  0.0000    6 0.5  0.0000    5 0.5  0.0000
   14        86.008578       7 0.5  1.0000    9 0.5  0.0000    8 0.5  0.0000    6 0.5  0.0000    5 0.5  0.0000
   15        86.008579       8 0.5  1.0000    9 0.5  0.0000    7 0.5  0.0000    6 0.5  0.0000    5 0.5  0.0000
   16        86.008579       8 0.5  1.0000    9 0.5  0.0000    7 0.5  0.0000    6 0.5  0.0000    5 0.5  0.0000
   17        86.013244       9 0.5  1.0000    8 0.5  0.0000    7 0.5  0.0000    6 0.5  0.0000    5 0.5  0.0000
   18        86.013244       9 0.5  1.0000    8 0.5  0.0000    7 0.5  0.0000    6 0.5  0.0000    5 0.5  0.0000
 -------------------------------------------------------------------------------------------------------


      ****************************************************************************************************
      *                                                                                                  *
      *                                    Special properties section                                    *
      *                                                                                                  *
      ****************************************************************************************************


++ Dipole transition strengths (SO states):
   ----------------------------------------
    for osc. strength at least    1.0000000000000001E-005

      From   To        Osc. strength     Einstein coefficients Ax, Ay, Az (sec-1)    Total A (sec-1)
     -----------------------------------------------------------------------------------------------
         1   13       1.35579916E-02  2.37938014E-06  3.22246547E+12  2.29065492E+01  3.22246547E+12
         1   15       1.35580040E-02  2.13305070E+07  2.28982190E+01  3.22244709E+12  3.22246842E+12
         2   14       1.35579916E-02  2.37938014E-06  3.22246547E+12  2.29065492E+01  3.22246547E+12
         2   16       1.35580040E-02  2.13305070E+07  2.28982190E+01  3.22244709E+12  3.22246842E+12
         3   13       1.35581293E-02  5.29463239E+06  2.29025268E+01  3.22249290E+12  3.22249819E+12
         3   15       1.35578742E-02  2.50390092E-04  3.22243758E+12  2.29019512E+01  3.22243758E+12
         4   14       1.35581293E-02  5.29463239E+06  2.29025268E+01  3.22249290E+12  3.22249819E+12
         4   16       1.35578742E-02  2.50390092E-04  3.22243758E+12  2.29019512E+01  3.22243758E+12
         5   13       1.35489757E-02  3.22027434E+12  1.10825225E-03  7.58597715E+06  3.22028192E+12
         5   17       1.35598696E-02  1.51492388E+07  1.21553515E+03  3.22320567E+12  3.22322082E+12
         6   14       1.35489757E-02  3.22027434E+12  1.10825225E-03  7.58597715E+06  3.22028192E+12
         6   18       1.35598696E-02  1.51492388E+07  1.21553515E+03  3.22320567E+12  3.22322082E+12
         7   15       1.35489787E-02  3.22026138E+12  8.42453699E-04  2.12537122E+07  3.22028264E+12
         7   17       1.35598574E-02  7.20800760E-03  3.22321792E+12  1.21552911E+03  3.22321792E+12
         8   16       1.35489787E-02  3.22026138E+12  8.42453699E-04  2.12537122E+07  3.22028264E+12
         8   18       1.35598574E-02  7.20800760E-03  3.22321792E+12  1.21552911E+03  3.22321792E+12
         9   13       4.52207781E-03  6.29225927E+06  6.24252372E+00  1.07478370E+12  1.07478999E+12
         9   15       4.52232351E-03  2.07543486E-04  1.07484839E+12  6.23523777E+00  1.07484839E+12
         9   17       1.80616837E-02  4.29327910E+12  6.04081252E-05  1.78868052E+07  4.29329698E+12
        10   14       4.52207781E-03  6.29225927E+06  6.24252372E+00  1.07478370E+12  1.07478999E+12
        10   16       4.52232351E-03  2.07543486E-04  1.07484839E+12  6.23523777E+00  1.07484839E+12
        10   18       1.80616837E-02  4.29327910E+12  6.04081252E-05  1.78868052E+07  4.29329698E+12
        11   13       1.80745801E-01  6.75862450E+05  1.41602349E+00  2.43946677E+11  2.43947353E+11
        11   15       1.80745801E-01  2.87989326E-06  2.43947365E+11  1.41602082E+00  2.43947365E+11
        11   17       1.80708227E-01  2.44247236E+11  8.07174229E-08  6.76866531E+05  2.44247913E+11
        12   14       1.80745801E-01  6.75862450E+05  1.41602349E+00  2.43946677E+11  2.43947353E+11
        12   16       1.80745801E-01  2.87989326E-06  2.43947365E+11  1.41602082E+00  2.43947365E+11
        12   18       1.80708227E-01  2.44247236E+11  8.07174229E-08  6.76866531E+05  2.44247913E+11
     -----------------------------------------------------------------------------------------------
--

++ Velocity transition strengths (SO states):
   ------------------------------------------
    for osc. strength at least    1.0000000000000001E-005

      From   To        Osc. strength     Einstein coefficients Ax, Ay, Az (sec-1)    Total A (sec-1)
     -----------------------------------------------------------------------------------------------
         1    5       7.21350931E-05  2.31007670E-17  6.83073559E-01  1.40513555E-10  6.83073560E-01
         1    7       7.21304222E-05  2.89213819E-07  1.40546578E-10  6.83107380E-01  6.83107669E-01
         1   13       1.31815189E-02  2.31254538E-06  3.13299629E+12  2.22705735E+01  3.13299629E+12
         1   15       1.31815310E-02  2.07385447E+07  2.22624811E+01  3.13297842E+12  3.13299916E+12
         2    6       7.21350931E-05  2.31007670E-17  6.83073559E-01  1.40513555E-10  6.83073560E-01
         2    8       7.21304222E-05  2.89213819E-07  1.40546578E-10  6.83107380E-01  6.83107669E-01
         2   14       1.31815189E-02  2.31254538E-06  3.13299629E+12  2.22705735E+01  3.13299629E+12
         2   16       1.31815310E-02  2.07385447E+07  2.22624811E+01  3.13297842E+12  3.13299916E+12
         3    5       7.21373545E-05  2.88962002E-07  1.40522031E-10  6.83081703E-01  6.83081992E-01
         3    7       7.21288249E-05  5.81376651E-17  6.83079561E-01  1.40540588E-10  6.83079562E-01
         3   13       1.31816528E-02  5.14757952E+06  2.22666649E+01  3.13302295E+12  3.13302810E+12
         3   15       1.31814048E-02  2.43383494E-04  3.13296917E+12  2.22661046E+01  3.13296917E+12
         4    6       7.21373545E-05  2.88962002E-07  1.40522031E-10  6.83081703E-01  6.83081992E-01
         4    8       7.21288249E-05  5.81376651E-17  6.83079561E-01  1.40540588E-10  6.83079562E-01
         4   14       1.31816528E-02  5.14757952E+06  2.22666649E+01  3.13302295E+12  3.13302810E+12
         4   16       1.31814048E-02  2.43383494E-04  3.13296917E+12  2.22661046E+01  3.13296917E+12
         5    9       6.42743087E-04  2.92287282E-07  2.60420319E-10  6.90561644E-01  6.90561937E-01
         5   13       1.31727194E-02  3.13085791E+12  1.07746175E-03  7.37540636E+06  3.13086529E+12
         5   17       1.31833469E-02  1.47286946E+07  1.18178698E+03  3.13371643E+12  3.13373116E+12
         6   10       6.42743087E-04  2.92287282E-07  2.60420319E-10  6.90561644E-01  6.90561937E-01
         6   14       1.31727194E-02  3.13085791E+12  1.07746175E-03  7.37540636E+06  3.13086529E+12
         6   18       1.31833469E-02  1.47286946E+07  1.18178698E+03  3.13371643E+12  3.13373116E+12
         7    9       6.42862226E-04  1.38195441E-16  6.90454783E-01  2.60363828E-10  6.90454783E-01
         7   15       1.31727223E-02  3.13084532E+12  8.19006894E-04  2.06633020E+07  3.13086598E+12
         7   17       1.31833350E-02  7.00795231E-03  3.13372834E+12  1.18178112E+03  3.13372834E+12
         8   10       6.42862226E-04  1.38195441E-16  6.90454783E-01  2.60363828E-10  6.90454783E-01
         8   16       1.31727223E-02  3.13084532E+12  8.19006894E-04  2.06633020E+07  3.13086598E+12
         8   18       1.31833350E-02  7.00795231E-03  3.13372834E+12  1.18178112E+03  3.13372834E+12
         9   13       4.39648424E-03  6.11760628E+06  6.06916576E+00  1.04493691E+12  1.04494303E+12
         9   15       4.39672313E-03  2.01802040E-04  1.04499981E+12  6.06208371E+00  1.04499981E+12
         9   17       1.75601621E-02  4.17408147E+12  5.87393193E-05  1.73900687E+07  4.17409886E+12
        10   14       4.39648424E-03  6.11760628E+06  6.06916576E+00  1.04493691E+12  1.04494303E+12
        10   16       4.39672313E-03  2.01802040E-04  1.04499981E+12  6.06208371E+00  1.04499981E+12
        10   18       1.75601621E-02  4.17408147E+12  5.87393193E-05  1.73900687E+07  4.17409886E+12
        11   13       1.50599292E-01  5.63124938E+05  1.17984953E+00  2.03259630E+11  2.03260193E+11
        11   15       1.50599293E-01  2.39921105E-06  2.03260203E+11  1.17984723E+00  2.03260203E+11
        11   17       1.50571029E-01  2.03514174E+11  6.71775257E-08  5.63998354E+05  2.03514738E+11
        12   14       1.50599292E-01  5.63124938E+05  1.17984953E+00  2.03259630E+11  2.03260193E+11
        12   16       1.50599293E-01  2.39921105E-06  2.03260203E+11  1.17984723E+00  2.03260203E+11
        12   18       1.50571029E-01  2.03514174E+11  6.71775257E-08  5.63998354E+05  2.03514738E+11
        13   15       1.54960899E-05  2.13036668E-22  1.13857371E-08  3.05370715E-21  1.13857371E-08
        13   17       4.93235635E-04  1.51159974E-04  2.00242204E-09  3.44975072E+02  3.44975223E+02
        14   16       1.54960899E-05  2.13036668E-22  1.13857371E-08  3.05370715E-21  1.13857371E-08
        14   18       4.93235635E-04  1.51159974E-04  2.00242204E-09  3.44975072E+02  3.44975223E+02
        15   17       4.93251031E-04  6.48353354E-16  3.44963628E+02  2.00220459E-09  3.44963628E+02
        16   18       4.93251031E-04  6.48353354E-16  3.44963628E+02  2.00220459E-09  3.44963628E+02
     -----------------------------------------------------------------------------------------------
--

++ Length and velocity gauge comparison (SO states):

 --------------------------------------------------
 A comparison between the dipole oscillator strengths in 
 length and velocity gauge will be performed

 All dipole oscillator differences above the tolerance of   0.10000000000000001       will be printed 

 Due to basis set deficiency these oscillator may be problematic 

 The tolerance is defined as ABS(1-O_l/O_v) 
 O_l : dipole oscillator strength in length gauge
 O_p : dipole oscillator strength in velocity gauge
 --------------------------------------------------

  Problematic transitions have been found

      From   To       Difference (%) Osc. st. (len.) Osc. st. (vel.)
     ---------------------------------------------------------------
         1    5      --------------- below threshold  7.21350931E-05
         1    7      --------------- below threshold  7.21304222E-05
         2    6      --------------- below threshold  7.21350931E-05
         2    8      --------------- below threshold  7.21304222E-05
         3    5      --------------- below threshold  7.21373545E-05
         3    7      --------------- below threshold  7.21288249E-05
         4    6      --------------- below threshold  7.21373545E-05
         4    8      --------------- below threshold  7.21288249E-05
         5    9      --------------- below threshold  6.42743087E-04
         6   10      --------------- below threshold  6.42743087E-04
         7    9      --------------- below threshold  6.42862226E-04
         8   10      --------------- below threshold  6.42862226E-04
        11   13            20.017696  1.80745801E-01  1.50599292E-01
        11   15            20.017696  1.80745801E-01  1.50599293E-01
        11   17            20.015270  1.80708227E-01  1.50571029E-01
        12   14            20.017696  1.80745801E-01  1.50599292E-01
        12   16            20.017696  1.80745801E-01  1.50599293E-01
        12   18            20.015270  1.80708227E-01  1.50571029E-01
        13   15      --------------- below threshold  1.54960899E-05
        13   17      --------------- below threshold  4.93235635E-04
        14   16      --------------- below threshold  1.54960899E-05
        14   18      --------------- below threshold  4.93235635E-04
        15   17      --------------- below threshold  4.93251031E-04
        16   18      --------------- below threshold  4.93251031E-04
     ---------------------------------------------------------------

 Number of problematic transitions =                    24

--

 Electric-dipole - electric-octupole not included
++ Total transition strengths for the second-order expansion of the wave vector (SO states):
   -----------------------------------------------------------------------------------------
    for osc. strength at least    1.0000000000000001E-005

      From   To        Osc. strength
     -------------------------------
         1   11       6.08125838E-05
         2   12       6.08125838E-05
         3   11       6.08125835E-05
         4   12       6.08125835E-05
         5   11       6.07965097E-05
         6   12       6.07965097E-05
         7   11       6.07965075E-05
         8   12       6.07965075E-05
         9   11       6.07910029E-05
        10   12       6.07910029E-05
     -------------------------------
--

++ I/O STATISTICS
 
  I. General I/O information
  - - - - - - - - - - - - - - - - - - - - - - - - - - - - - - - - - - - - - - - - - - -
  Unit  Name          Flsize      Write/Read            MBytes           Write/Read
                      (MBytes)       Calls              In/Out           Time, sec.
  - - - - - - - - - - - - - - - - - - - - - - - - - - - - - - - - - - - - - - - - - - -
   1  SCRATCH           0.00 .       9/      45 .      0.0/      0.0 .       0/       0
   2  ANNI              0.00 .       0/       0 .      0.0/      0.0 .       0/       0
   3  RUNFILE          15.31 .     322/   10517 .      2.3/     76.3 .       0/       0
   4  ONEINT            6.58 .       0/   28767 .      0.0/   3777.9 .       0/       0
   5  JOBIPH            7.70 .       0/      92 .      0.0/      0.9 .       0/       0
   6  ORDINT          771.03 .       1/    6169 .      0.0/   1542.0 .       0/       0
  - - - - - - - - - - - - - - - - - - - - - - - - - - - - - - - - - - - - - - - - - - -
   *  TOTAL           800.62 .     332/   45590 .      2.3/   5397.1 .       0/       0
  - - - - - - - - - - - - - - - - - - - - - - - - - - - - - - - - - - - - - - - - - - -
 
  II. I/O Access Patterns
  - - - - - - - - - - - - - - - - - - - -
  Unit  Name               % of random
                         Write/Read calls
  - - - - - - - - - - - - - - - - - - - -
   1  SCRATCH             88.9/ 100.0
   2  ANNI                 0.0/   0.0
   3  RUNFILE             28.6/  10.8
   4  ONEINT               0.0/  13.4
   5  JOBIPH               0.0/  76.1
   6  ORDINT             100.0/   0.0
  - - - - - - - - - - - - - - - - - - - -
--
--- Stop Module: rassi at Wed Mar 26 15:57:21 2025 /rc=_RC_ALL_IS_WELL_ ---
*** files: xmldump
    saved to directory /home4/s4752295/Internship/Initial_simulations/Point_charge_model/1_electron/Madelung_charges_9_active_space/Re
--- Module rassi spent 4 seconds ---

.##################.
.# Happy landing! #.
.##################.

    Timing: Wall=84.29 User=68.30 System=13.83

###############################################################################
Hbrk Cluster
Job 15909457 for user s4752295
Finished at: Wed Mar 26 15:57:25 CET 2025

Job details:
============

Job ID                         : 15909457
Name                           : Re_no_SO
User                           : s4752295
Partition                      : regularmedium
Nodes                          : node72
Number of Nodes                : 1
Cores                          : 1
Number of Tasks                : 1
State                          : COMPLETED  
Submit                         : 2025-03-26T15:54:17
Start                          : 2025-03-26T15:55:52
End                            : 2025-03-26T15:57:21
Reserved walltime              : 15:00:00
Used walltime                  : 00:01:29
Used CPU time                  : 00:01:23 (Efficiency: 93.79%)
% User (Computation)           : 83.10%
% System (I/O)                 : 16.90%
Total memory reserved          : 25000M
Maximum memory used            : 3.06G

Acknowledgements:
=================

Please see this page for information about acknowledging Hbrk in your publications:

https://wiki.hpc.rug.nl/habrok/introduction/scientific_output

################################################################################
