   This run of MOLCAS is using the pymolcas driver

                             OPE
                             OPE          NMOL  CASOP  ENMOLC A   SO
                 OPE        NMOLC        AS  OP EN  MO LC     AS  OP
                OPENM       OL CA        SO  PE NM  OL CA     SOP EN
                OP EN      MO   LC       AS  OP ENMOL  CASO   PENMOL
                OP  EN     MO   LC       AS  OP EN     MO     LC ASO
               OP   E  NMOL  C  AS       OP  EN MO     LC     AS  OP
               OP  E   NMO   LC AS        OPEN  MO     LCASOP EN   M
               O  PEN   MO  LCA  SO
            OPE   NMO   L   CAS    OP
        OPENMOL  CASOP     ENMOL   CASOPE
     OPENMOLCA   SOPENMOLCASOPEN   MOLCASOPE
    OPENMOLCAS   OP           EN   MOL    CAS
    OPENMOLCAS       OP  ENM        O     LCA
    OPENMOLCAS    OPEN  MOLCASO     P  E  NMO
    OPENMOLCAS     OP               E  N  MOL
    OPENMOLCA   SO           PENM   O  L  CAS    OPEN    MO    LCAS
    OPENMOLCA   SOP           ENM   O  L  CAS   OP  EN  MOLC  AS   O
    OPENMOLCA   SOPE           NM      O  LCA   S      OP  EN MO
    OPENMOLC                AS         O  PEN   M      OL  CA  SOPE
    OPENMO        LCASOPE  NMOL        C  ASO   P      ENMOLC     AS
    OPE     NMO      LCA  SO     P     E   NM   OL  CA SO  PE N   MO
          OPENMOLCA            SOPE   NMO        LCAS  O    P  ENMO
     OPENMOLCASOPENMOLCASOPENMOLCASOPENMOLCA
        OPENMOLCASOPENMOLCASOPENMOLCASOPE
            OPENMOLCASOPENMOLCASOPENM
               OPENMOLCASOPENMOLCA        version: o91e1abe7de707b ?
                   OPENMOLCASO
                       OPE                tag:

 OpenMolcas is free software; you can redistribute it and/or modify it
 under the terms of the GNU Lesser General Public License version 2.1.
 OpenMolcas is distributed in the hope that it will be useful, but it
 is provided "as is" and without any express or implied warranties.
 For more details see the full text of the license in the file
 LICENSE or in <http://www.gnu.org/licenses/>.

                 Copyright (C) The OpenMolcas Authors
           For the author list and the recommended citation,
                   consult the file CONTRIBUTORS.md

           *************************************************
           * pymolcas version py2.10                       *
           *   build 3068ae8b88c9345ec6cfef6fef7f1169      *
           *   (after the EMIL interpreter by V. Veryazov) *
           *************************************************

configuration info
------------------
Host name: login1 (Linux)
C Compiler ID: GNU
C flags: -std=gnu99
Fortran Compiler ID: GNU
Fortran flags: -fno-aggressive-loop-optimizations -cpp -fdefault-integer-8 -fmax-stack-var-size=1048576
Definitions: _MOLCAS_;_I8_;_LINUX_;_MKL_
Parallel: OFF (GA=OFF)


   -----------------------------------------------------------------------------------------------------------------------------------
  |
  |           Project: rhenium_so_cf
  |    Submitted from: /home4/s4752295/Internship/Initial_simulations/Point_charge_model/1_electron/Madelung_charges_9_active_space/Re
  |      Scratch area: /tmp/rhenium_so_cf
  |   Save outputs to: /home4/s4752295/Internship/Initial_simulations/Point_charge_model/1_electron/Madelung_charges_9_active_space/Re
  |            Molcas: /home4/s4752295/Internship/Molcas/recomp_try/OpenMolcas-master/build
  |
  | Scratch area is empty
  |
  |    MOLCAS_DRIVER = /home4/s4752295/Internship/Molcas/bin/pymolcas
  |    MOLCAS_NPROCS = 1
  |    MOLCAS_SOURCE = /home4/s4752295/Internship/Molcas/recomp_try/OpenMolcas-master
  | MOLCAS_STRUCTURE = 0
  |
   -----------------------------------------------------------------------------------------------------------------------------------

++ ---------   Input file   ---------

&SEWARD
AMFi

CLIG
$R

Basis Set
Re.ano-rcc.Roos.24s21p15d11f4g2h.11s10p9d8f4g2h.
Spherical d
Re            -1.0658140267135469e-14   -3.5527134223784897e-15 0.008753588724385739
End of Basis

Xfield

414
-4.00220108,-1.54,0.889119      -0.625931
-4.00220108,-0.0,-1.778239      -0.625931
-4.00220108,1.54,0.889119       -0.625931
-3.99534607,0.0,0.0     1.892092
2.65917969,-1.54,-0.889119      2.515516
2.65917969,0.0,1.778239 2.515516
2.65917969,1.54,-0.889119       2.515516
3.56298828,-3.08,0.0    0.004632
3.56298828,-1.54,-2.667358      0.004632
3.56298828,-1.54,2.667358       0.004632
3.56298828,1.54,-2.667358       0.004632
3.56298828,1.54,2.667358        0.004632
3.56298828,3.08,0.0     0.004632
4.12915039,-1.54,0.889119       -2.519484
4.12915039,-0.0,-1.778239       -2.519484
4.12915039,1.54,0.889119        -2.519484
-2.93310547,-0.0,-0.0   -3.142907
-4.97509766,-3.08,-1.778239     -0.625931
-4.97509766,0.0,3.556477        -0.625931
-4.97509766,3.08,-1.778239      -0.625931
-6.609375,-3.08,0.0     1.892092
-6.609375,-1.54,-2.667358       1.892092
-6.609375,-1.54,2.667358        1.892092
-6.609375,1.54,-2.667358        1.892092
-6.609375,1.54,2.667358 1.892092
-6.609375,3.08,0.0      1.892092
25.171875,-3.08,1.778239        2.515516
25.171875,-0.0,-3.556477        2.515516
25.171875,3.08,1.778239 2.515516
3.63867188,-3.08,-1.778239      -2.519484
3.63867188,0.0,3.556477 -2.519484
3.63867188,3.08,-1.778239       -2.519484
-3.23242188,-3.08,-0.0  -3.142907
-3.23242188,-1.54,-2.667358     -3.142907
-3.23242188,-1.54,2.667358      -3.142907
-3.23242188,1.54,-2.667358      -3.142907
-3.23242188,1.54,2.667358       -3.142907
-3.23242188,3.08,-0.0   -3.142907
-9.5234375,-3.08,3.556477       -0.625931
-9.5234375,3.08,3.556477        -0.625931
-9.5234375,-4.62,0.889119       -0.625931
-9.5234375,4.62,0.889119        -0.625931
-9.5234375,-1.54,-4.445597      -0.625931
-9.5234375,1.54,-4.445597       -0.625931
6.0078125,-1.54,-0.889119       4.409069
6.0078125,1.54,-0.889119        4.409069
6.0078125,0.0,1.778239  4.409069
-175.25,-0.0,-0.0       -5.030367
-175.25,0.0,0.0 5.039632
13.51757812,-3.08,-3.556477     2.515516
13.51757812,3.08,-3.556477      2.515516
13.51757812,-4.62,-0.889119     2.515516
13.51757812,4.62,-0.889119      2.515516
13.51757812,-1.54,4.445597      2.515516
13.51757812,1.54,4.445597       2.515516
19.0390625,-4.62,-2.667358      0.004632
19.0390625,-4.62,2.667358       0.004632
19.0390625,4.62,-2.667358       0.004632
19.0390625,4.62,2.667358        0.004632
19.0390625,-0.0,-5.334716       0.004632
19.0390625,0.0,5.334716 0.004632
48.078125,-3.08,3.556477        -2.519484
48.078125,3.08,3.556477 -2.519484
48.078125,-4.62,0.889119        -2.519484
48.078125,4.62,0.889119 -2.519484
48.078125,-1.54,-4.445597       -2.519484
48.078125,1.54,-4.445597        -2.519484
-145.875,-4.62,-2.667358        1.892092
-145.875,-4.62,2.667358 1.892092
-145.875,4.62,-2.667358 1.892092
-145.875,4.62,2.667358  1.892092
-145.875,-0.0,-5.334716 1.892092
-145.875,0.0,5.334716   1.892092
-117.75,-3.08,1.778239  4.409069
-117.75,-0.0,-3.556477  4.409069
-117.75,3.08,1.778239   4.409069
-89.0,-3.08,-0.0        -5.030367
-89.0,-1.54,-2.667358   -5.030367
-89.0,-1.54,2.667358    -5.030367
-89.0,1.54,-2.667358    -5.030367
-89.0,-3.08,0.0 5.039632
-89.0,3.08,-0.0 -5.030367
-89.0,1.54,2.667358     -5.030367
-89.0,-1.54,-2.667358   5.039632
-89.0,-1.54,2.667358    5.039632
-89.0,1.54,-2.667358    5.039632
-89.0,3.08,0.0  5.039632
-89.0,1.54,2.667358     5.039632
-46.625,-1.54,-0.889119 -5.660931
-46.625,0.0,1.778239    -5.660931
-46.625,1.54,-0.889119  -5.660931
0.8828125,-6.159999,0.0 0.004632
0.8828125,-3.08,-5.334716       0.004632
0.8828125,-3.08,5.334716        0.004632
0.8828125,3.08,-5.334716        0.004632
0.8828125,6.159999,0.0  0.004632
0.8828125,3.08,5.334716 0.004632
67.9375,-4.62,2.667358  -3.142907
67.9375,-4.62,-2.667358 -3.142907
67.9375,4.62,-2.667358  -3.142907
67.9375,4.62,2.667358   -3.142907
67.9375,-0.0,-5.334716  -3.142907
67.9375,0.0,5.334716    -3.142907
86.375,-6.159999,-1.778239      -0.625931
86.375,-4.62,-4.445597  -0.625931
86.375,-1.54,6.223835   -0.625931
86.375,4.62,-4.445597   -0.625931
86.375,6.159999,-1.778239       -0.625931
86.375,1.54,6.223835    -0.625931
1.19726562,-6.159999,0.0        1.892092
1.19726562,-3.08,-5.334716      1.892092
1.19726562,-3.08,5.334716       1.892092
1.19726562,3.08,-5.334716       1.892092
1.19726562,6.159999,0.0 1.892092
1.19726562,3.08,5.334716        1.892092
33.84375,-3.08,-3.556477        4.409069
33.84375,3.08,-3.556477 4.409069
33.84375,-4.62,-0.889119        4.409069
33.84375,4.62,-0.889119 4.409069
33.84375,-1.54,4.445597 4.409069
33.84375,1.54,4.445597  4.409069
162.40625,-3.08,1.778239        -5.660931
162.40625,-0.0,-3.556477        -5.660931
162.40625,3.08,1.778239 -5.660931
0.34375,-6.159999,1.778239      2.515516
0.34375,-1.54,-6.223835 2.515516
0.34375,-4.62,4.445597  2.515516
0.34375,1.54,-6.223835  2.515516
0.34375,6.159999,1.778239       2.515516
0.34375,4.62,4.445597   2.515516
-94.1875,-6.159999,-1.778239    -2.519484
-94.1875,-4.62,-4.445597        -2.519484
-94.1875,-1.54,6.223835 -2.519484
-94.1875,4.62,-4.445597 -2.519484
-94.1875,1.54,6.223835  -2.519484
-94.1875,6.159999,-1.778239     -2.519484
-22.0703125,-6.159999,-0.0      -3.142907
-22.0703125,-3.08,-5.334716     -3.142907
-22.0703125,-3.08,5.334716      -3.142907
-22.0703125,3.08,-5.334716      -3.142907
-22.0703125,3.08,5.334716       -3.142907
-22.0703125,6.159999,-0.0       -3.142907
606.5,0.0,0.0   6.927092
323.25,-6.159999,3.556477       -0.625931
323.25,6.159999,3.556477        -0.625931
323.25,-0.0,-7.112955   -0.625931
-5.421875,-4.62,2.667358        -5.030367
-5.421875,-4.62,-2.667358       -5.030367
-5.421875,-4.62,2.667358        5.039632
-5.421875,-4.62,-2.667358       5.039632
-5.421875,4.62,-2.667358        -5.030367
-5.421875,4.62,2.667358 -5.030367
-5.421875,4.62,-2.667358        5.039632
-5.421875,4.62,2.667358 5.039632
-5.421875,-0.0,-5.334716        -5.030367
-5.421875,0.0,5.334716  -5.030367
-5.421875,-0.0,-5.334716        5.039632
-5.421875,0.0,5.334716  5.039632
91.8125,-3.08,-3.556477 -5.660931
91.8125,3.08,-3.556477  -5.660931
91.8125,-4.62,-0.889119 -5.660931
91.8125,4.62,-0.889119  -5.660931
91.8125,-1.54,4.445597  -5.660931
91.8125,1.54,4.445597   -5.660931
300.5,-6.159999,-3.556477       2.515516
300.5,6.159999,-3.556477        2.515516
300.5,0.0,7.112955      2.515516
-517.25,-6.159999,3.556477      -2.519484
-517.25,6.159999,3.556477       -2.519484
-517.25,-0.0,-7.112955  -2.519484
53.5625,-3.08,0.0       6.927092
53.5625,-1.54,-2.667358 6.927092
53.5625,-1.54,2.667358  6.927092
53.5625,1.54,-2.667358  6.927092
53.5625,1.54,2.667358   6.927092
53.5625,3.08,0.0        6.927092
-55.25,-1.54,0.889119   7.550516
-55.25,0.0,-1.778239    7.550516
-55.25,1.54,0.889119    7.550516
15.53125,-1.54,-0.889119        -7.554483
15.53125,1.54,-0.889119 -7.554483
15.53125,-0.0,1.778239  -7.554483
-124.875,-7.699999,0.889119     -0.625931
-124.875,-4.62,6.223835 -0.625931
-124.875,-3.08,-7.112955        -0.625931
-124.875,3.08,-7.112955 -0.625931
-124.875,7.699999,0.889119      -0.625931
-124.875,4.62,6.223835  -0.625931
-67.4375,-6.159999,1.778239     4.409069
-67.4375,-4.62,4.445597 4.409069
-67.4375,-1.54,-6.223835        4.409069
-67.4375,1.54,-6.223835 4.409069
-67.4375,4.62,4.445597  4.409069
-67.4375,6.159999,1.778239      4.409069
49.15625,-6.159999,-0.0 -5.030367
49.15625,-3.08,-5.334716        -5.030367
49.15625,-3.08,5.334716 -5.030367
49.15625,-6.159999,0.0  5.039632
49.15625,-3.08,-5.334716        5.039632
49.15625,3.08,-5.334716 -5.030367
49.15625,3.08,5.334716  -5.030367
49.15625,6.159999,-0.0  -5.030367
49.15625,-3.08,5.334716 5.039632
49.15625,3.08,-5.334716 5.039632
49.15625,6.159999,0.0   5.039632
49.15625,3.08,5.334716  5.039632
180.75,-7.699999,-0.889119      2.515516
180.75,-4.62,-6.223835  2.515516
180.75,-3.08,7.112955   2.515516
180.75,4.62,-6.223835   2.515516
180.75,7.699999,-0.889119       2.515516
180.75,3.08,7.112955    2.515516
-23.34375,-7.699999,-2.667358   0.004632
-23.34375,-7.699999,2.667358    0.004632
-23.34375,-6.159999,-5.334716   0.004632
-23.34375,-6.159999,5.334716    0.004632
-23.34375,-1.54,-8.002074       0.004632
-23.34375,1.54,-8.002074        0.004632
-23.34375,-1.54,8.002074        0.004632
-23.34375,6.159999,-5.334716    0.004632
-23.34375,1.54,8.002074 0.004632
-23.34375,7.699999,-2.667358    0.004632
-23.34375,7.699999,2.667358     0.004632
-23.34375,6.159999,5.334716     0.004632
-143.125,-7.699999,0.889119     -2.519484
-143.125,-4.62,6.223835 -2.519484
-143.125,-3.08,-7.112955        -2.519484
-143.125,3.08,-7.112955 -2.519484
-143.125,7.699999,0.889119      -2.519484
-143.125,4.62,6.223835  -2.519484
3032.0,-0.0,-0.0        -8.177907
-116.0,-3.08,-1.778239  7.550516
-116.0,0.0,3.556477     7.550516
-116.0,3.08,-1.778239   7.550516
-603.5,-3.08,1.778239   -7.554483
-603.5,-0.0,-3.556477   -7.554483
-603.5,3.08,1.778239    -7.554483
48.90625,-7.699999,2.667358     1.892092
48.90625,-7.699999,-2.667358    1.892092
48.90625,-6.159999,-5.334716    1.892092
48.90625,-6.159999,5.334716     1.892092
48.90625,-1.54,-8.002074        1.892092
48.90625,1.54,-8.002074 1.892092
48.90625,-1.54,8.002074 1.892092
48.90625,6.159999,-5.334716     1.892092
48.90625,1.54,8.002074  1.892092
48.90625,7.699999,-2.667358     1.892092
48.90625,7.699999,2.667358      1.892092
48.90625,6.159999,5.334716      1.892092
-505.0,-6.159999,-3.556477      4.409069
-505.0,6.159999,-3.556477       4.409069
-505.0,0.0,7.112955     4.409069
25.8203125,-6.159999,1.778239   -5.660931
25.8203125,-1.54,-6.223835      -5.660931
25.8203125,-4.62,4.445597       -5.660931
25.8203125,1.54,-6.223835       -5.660931
25.8203125,4.62,4.445597        -5.660931
25.8203125,6.159999,1.778239    -5.660931
-58.1875,-6.159999,-5.334716    -3.142907
-58.1875,-7.699999,2.667358     -3.142907
-58.1875,-7.699999,-2.667358    -3.142907
-58.1875,-6.159999,5.334716     -3.142907
-58.1875,-1.54,-8.002074        -3.142907
-58.1875,1.54,-8.002074 -3.142907
-58.1875,-1.54,8.002074 -3.142907
-58.1875,7.699999,-2.667358     -3.142907
-58.1875,6.159999,-5.334716     -3.142907
-58.1875,1.54,8.002074  -3.142907
-58.1875,7.699999,2.667358      -3.142907
-58.1875,6.159999,5.334716      -3.142907
65.40625,-4.62,-2.667358        6.927092
65.40625,-4.62,2.667358 6.927092
65.40625,4.62,-2.667358 6.927092
65.40625,4.62,2.667358  6.927092
65.40625,-0.0,-5.334716 6.927092
65.40625,0.0,5.334716   6.927092
-83.25,-3.08,-0.0       -8.177907
-83.25,-1.54,2.667358   -8.177907
-83.25,-1.54,-2.667358  -8.177907
-83.25,1.54,-2.667358   -8.177907
-83.25,3.08,-0.0        -8.177907
-83.25,1.54,2.667358    -8.177907
-90.90625,-3.08,3.556477        7.550516
-90.90625,3.08,3.556477 7.550516
-90.90625,-4.62,0.889119        7.550516
-90.90625,4.62,0.889119 7.550516
-90.90625,-1.54,-4.445597       7.550516
-90.90625,1.54,-4.445597        7.550516
-45.6875,-3.08,-3.556477        -7.554483
-45.6875,3.08,-3.556477 -7.554483
-45.6875,-4.62,-0.889119        -7.554483
-45.6875,4.62,-0.889119 -7.554483
-45.6875,-1.54,4.445597 -7.554483
-45.6875,1.54,4.445597  -7.554483
-500.25,0.0,8.891193    -0.625931
-500.25,-7.699999,-4.445597     -0.625931
-500.25,7.699999,-4.445597      -0.625931
-269.75,-7.699999,-0.889119     4.409069
-269.75,-4.62,-6.223835 4.409069
-269.75,-3.08,7.112955  4.409069
-269.75,4.62,-6.223835  4.409069
-269.75,7.699999,-0.889119      4.409069
-269.75,3.08,7.112955   4.409069
310.375,-6.159999,-3.556477     -5.660931
310.375,6.159999,-3.556477      -5.660931
310.375,0.0,7.112955    -5.660931
587.0,-0.0,-8.891193    2.515516
587.0,-7.699999,4.445597        2.515516
587.0,7.699999,4.445597 2.515516
-93.875,-9.239999,-0.0  0.004632
-93.875,4.62,-8.002074  0.004632
-93.875,-4.62,8.002074  0.004632
-93.875,9.239999,-0.0   0.004632
-93.875,-4.62,-8.002074 0.004632
-93.875,4.62,8.002074   0.004632
-385.75,0.0,8.891193    -2.519484
-385.75,-7.699999,-4.445597     -2.519484
-385.75,7.699999,-4.445597      -2.519484
228.0,-6.159999,0.0     6.927092
228.0,-3.08,-5.334716   6.927092
228.0,-3.08,5.334716    6.927092
228.0,3.08,-5.334716    6.927092
228.0,6.159999,0.0      6.927092
228.0,3.08,5.334716     6.927092
211.875,-9.239999,-1.778239     -0.625931
211.875,-3.08,8.891193  -0.625931
211.875,-6.159999,-7.112955     -0.625931
211.875,6.159999,-7.112955      -0.625931
211.875,3.08,8.891193   -0.625931
211.875,9.239999,-1.778239      -0.625931
111.9375,-9.239999,0.0  1.892092
111.9375,-4.62,-8.002074        1.892092
111.9375,-4.62,8.002074 1.892092
111.9375,4.62,-8.002074 1.892092
111.9375,9.239999,0.0   1.892092
111.9375,4.62,8.002074  1.892092
-4.3203125,-7.699999,2.667358   -5.030367
-4.3203125,-7.699999,-2.667358  -5.030367
-4.3203125,-6.159999,-5.334716  -5.030367
-4.3203125,-6.159999,5.334716   -5.030367
-4.3203125,-7.699999,2.667358   5.039632
-4.3203125,1.54,-8.002074       -5.030367
-4.3203125,-1.54,-8.002074      -5.030367
-4.3203125,-7.699999,-2.667358  5.039632
-4.3203125,-6.159999,-5.334716  5.039632
-4.3203125,-1.54,8.002074       -5.030367
-4.3203125,1.54,-8.002074       5.039632
-4.3203125,-6.159999,5.334716   5.039632
-4.3203125,-1.54,-8.002074      5.039632
-4.3203125,6.159999,-5.334716   -5.030367
-4.3203125,1.54,8.002074        -5.030367
-4.3203125,7.699999,-2.667358   -5.030367
-4.3203125,7.699999,2.667358    -5.030367
-4.3203125,6.159999,5.334716    -5.030367
-4.3203125,-1.54,8.002074       5.039632
-4.3203125,6.159999,-5.334716   5.039632
-4.3203125,7.699999,-2.667358   5.039632
-4.3203125,1.54,8.002074        5.039632
-4.3203125,7.699999,2.667358    5.039632
-4.3203125,6.159999,5.334716    5.039632
-0.6875,-7.699999,-0.889119     -5.660931
-0.6875,-4.62,-6.223835 -5.660931
-0.6875,-3.08,7.112955  -5.660931
-0.6875,4.62,-6.223835  -5.660931
-0.6875,3.08,7.112955   -5.660931
-0.6875,7.699999,-0.889119      -5.660931
116.0,-1.54,0.889119    9.444068
116.0,0.0,-1.778239     9.444068
116.0,1.54,0.889119     9.444068
51.3125,-9.239999,1.778239      2.515516
51.3125,-3.08,-8.891193 2.515516
51.3125,3.08,-8.891193  2.515516
51.3125,-6.159999,7.112955      2.515516
51.3125,9.239999,1.778239       2.515516
51.3125,6.159999,7.112955       2.515516
156.875,-9.239999,-1.778239     -2.519484
156.875,-3.08,8.891193  -2.519484
156.875,-6.159999,-7.112955     -2.519484
156.875,6.159999,-7.112955      -2.519484
156.875,9.239999,-1.778239      -2.519484
156.875,3.08,8.891193   -2.519484
219.625,-9.239999,-0.0  -3.142907
219.625,-4.62,-8.002074 -3.142907
219.625,-4.62,8.002074  -3.142907
219.625,4.62,-8.002074  -3.142907
219.625,9.239999,-0.0   -3.142907
219.625,4.62,8.002074   -3.142907
8.64550781,-4.62,-2.667358      -8.177907
8.64550781,-4.62,2.667358       -8.177907
8.64550781,4.62,2.667358        -8.177907
8.64550781,4.62,-2.667358       -8.177907
8.64550781,-0.0,-5.334716       -8.177907
8.64550781,0.0,5.334716 -8.177907
251.875,-4.62,-4.445597 7.550516
251.875,-6.159999,-1.778239     7.550516
251.875,-1.54,6.223835  7.550516
251.875,4.62,-4.445597  7.550516
251.875,1.54,6.223835   7.550516
251.875,6.159999,-1.778239      7.550516
-348.0,-4.62,4.445597   -7.554483
-348.0,-6.159999,1.778239       -7.554483
-348.0,-1.54,-6.223835  -7.554483
-348.0,1.54,-6.223835   -7.554483
-348.0,6.159999,1.778239        -7.554483
-348.0,4.62,4.445597    -7.554483
71.265625,-7.699999,6.223835    -0.625931
71.265625,-9.239999,3.556477    -0.625931
71.265625,-1.54,-9.780313       -0.625931
71.265625,1.54,-9.780313        -0.625931
71.265625,9.239999,3.556477     -0.625931
71.265625,7.699999,6.223835     -0.625931
-483.75,-0.0,-8.891193  4.409069
-483.75,-7.699999,4.445597      4.409069
-483.75,7.699999,4.445597       4.409069

End of input

&SCF
Occupied
9
Iterations
   50  100
End of Input

&RASSCF
LumOrb
Symmetry
1
Spin
2
Nactel
1 0 0
CIRoot
9 9 1
inactive
9
ras2
9
End of Input

>>> COPY rhenium_so_cf.JobIph $SLURM_SUBMIT_DIR/rhenium_so_cf.doublet.JobIph

>>> COPY $SLURM_SUBMIT_DIR/rhenium_so_cf.doublet.JobIph ./JOB002

&RASSI
NROFJobIph
1 All
SpinOrbit
End of Input

EOF

-- ----------------------------------

--- Start Module: seward at Tue Mar 25 13:59:31 2025 ---

()()()()()()()()()()()()()()()()()()()()()()()()()()()()()()()()()()()()()()()()()()()()()()()()()()

                                              &SEWARD

                                   only a single process is used
                       available to each process: 4.1 GB of memory, 1 thread?
                                            pid: 2634426
()()()()()()()()()()()()()()()()()()()()()()()()()()()()()()()()()()()()()()()()()()()()()()()()()()

 The speed of LIGHT in this CALCULATION =   137.03599917700001     
               SEWARD will generate:
                  Multipole Moment integrals up to order  2
                  Kinetic Energy integrals
                  Nuclear Attraction integrals (point charge)
                  One-Electron Hamiltonian integrals
                  Velocity integrals
                  Relativistic Douglas-Kroll-Hess integrals:
                    - Parametrization         : EXP
                    - DKH order of Hamiltonian: 2
                    - DKH order of Properties : 0
                         - multipole moment operators
                         - electric potential operators
                         - contact operators
                  External field from   414 point(s) added to the one-electron Hamiltonian
                  Orbital angular momentum around (-0.0000 -0.0000  0.0088 )
                  Velocity quadrupole around (-0.0000 -0.0000  0.0088 )
                  Atomic mean-field integrals
                  Two-Electron Repulsion integrals

                   Integrals are discarded if absolute value <: 0.10E-13
                   Integral cutoff threshold is set to       <: 0.10E-15

++    Symmetry information:
      ---------------------

                    Character Table for C1 

                             E  
                    a        1  x, y, xy, Rz, z, xz, Ry, yz, Rx, I
--


++    Basis set information:
      ----------------------


      Basis set label: RE.ANO-RCC.ROOS.24S21P15D11F4G2H.11S10P9D8F4G2H......

      Electronic valence basis set:
      ------------------
      Associated Effective Charge  75.000000 au
      Associated Actual Charge     75.000000 au
      Nuclear Model: Point charge

      Shell  nPrim  nBasis  Cartesian Spherical Contaminant
         s      24      11        X                  
         p      21      10        X                  
         d      15       9                 X         
         f      11       8                 X         
         g       4       4                 X         
         h       2       2                 X         
--


++    Molecular structure info:
      -------------------------

                    ************************************************ 
                    **** Cartesian Coordinates / Bohr, Angstrom **** 
                    ************************************************ 

     Center  Label                x              y              z                     x              y              z
        1      RE              -0.000000      -0.000000       0.008754             -0.000000      -0.000000       0.004632
--


++    Operator info:
      --------------


  Net charge from external field:   -39.268449999999902     
--


            Nuclear Potential Energy              0.00000000 au

                    Nuclear-External Field Potential Energy    -686.17251983 au
                    External Field Potential Energy            1605.63690139 au 


            Total Nuclear Potential Energy           -686.17251983 au


      Basis set specifications :
      Symmetry species         a  
      Basis functions          200

 Sorry, Molden does not know how to handle
 functions with angular momentum larger than g
Note: The following floating-point exceptions are signalling: IEEE_UNDERFLOW_FLAG IEEE_DENORMAL
--- Stop Module: seward at Tue Mar 25 13:59:49 2025 /rc=_RC_ALL_IS_WELL_ ---
*** files: rhenium_so_cf.GssOrb xmldump
    saved to directory /home4/s4752295/Internship/Initial_simulations/Point_charge_model/1_electron/Madelung_charges_9_active_space/Re
--- Module seward spent 17 seconds ---

*** symbolic link created: INPORB -> rhenium_so_cf.GssOrb
--- Start Module: scf at Tue Mar 25 13:59:49 2025 ---

()()()()()()()()()()()()()()()()()()()()()()()()()()()()()()()()()()()()()()()()()()()()()()()()()()

                                                &SCF

                                   only a single process is used
                       available to each process: 4.1 GB of memory, 1 thread?
                                            pid: 2634527
()()()()()()()()()()()()()()()()()()()()()()()()()()()()()()()()()()()()()()()()()()()()()()()()()()

++    Input section:
      --------------

      Header of the integral files:
      
       Integrals generated by seward 4.2.0  , Tue Mar 25 13:59:32 2025


      Cartesian coordinates in Angstrom:
      -----------------------------------------------------
      No.  Label        X            Y            Z        
      -----------------------------------------------------
       1   RE        -0.00000000  -0.00000000   0.00463220
      -----------------------------------------------------
      Nuclear repulsion energy = -686.17251983
--

++    Orbital specifications:
      -----------------------

      Symmetry species               1
                                     a
      Frozen orbitals                0
      Occupied orbitals              9
      Secondary orbitals           191
      Deleted orbitals               0
      Total number of orbitals     200
      Number of basis functions    200
--

      Molecular charge                          57.000

++    Optimization specifications:
      ----------------------------

      SCF Algorithm: Conventional
      Minimized density differences are used
      Number of density matrices in core                5
      Maximum number of NDDO SCF iterations            50
      Maximum number of HF SCF iterations             100
      Threshold for SCF energy change            0.10E-08
      Threshold for density matrix               0.10E-03
      Threshold for Fock matrix                  0.15E-03
      Threshold for linear dependence            0.10E-08
      Threshold at which DIIS is turned on       0.15E+00
      Threshold at which QNR/C2DIIS is turned on 0.75E-01
      Threshold for Norm(delta) (QNR/C2DIIS)     0.20E-04
      DIIS extrapolation of the SCF procedure
      All orbitals punched on: SCFORB
--

      Detected guessorb starting orbitals                                             


++ Convergence information
                                   SCF        iterations: Energy and convergence statistics

Iter     Tot. SCF        One-elec.       Two-elec.     Energy      Max Dij or  Max Fij      DNorm      TNorm      AccCon     Time
         Energy          Energy          Energy        Change      Delta Norm                                                in Sec.

 The total and one-electron energies are shifted by a value of     13000. a.u.

   1  -831.404164454 -1436.423956283  1291.192311663   0.00E+00    0.22E+00*   0.92E+01*    0.60E+01   0.67E+03   None         1.
   2  -842.758719780 -1494.090777543  1337.504577597  -0.11E+02*   0.16E-02*   0.21E+00*    0.89E+00   0.68E+03   EDIIS        1.
   3  -842.762278221 -1493.472901868  1336.883143481  -0.36E-02*   0.69E-04    0.41E-02*    0.10E-01   0.68E+03   EDIIS        1.
   4  -842.762279335 -1493.485694599  1336.895935099  -0.11E-05*   0.31E-05    0.10E-03     0.18E-03   0.68E+03   c2DIIS       1.
   5  -842.762279336 -1493.485533340  1336.895773839  -0.11E-08*   0.24E-06    0.60E-05     0.54E-05   0.68E+03   QNRc2DIIS    1.
   6  -842.762279336 -1493.485533992  1336.895774491   0.91E-11    0.18E-07    0.56E-06     0.23E-03   0.68E+03   QNRc2DIIS    1.

       Convergence after  6 Macro Iterations
--

 *****************************************************************************************************************************
 *                                                                                                                           *
 *                                             SCF/KS-DFT Program, Final results                                             *
 *                                                                                                                           *
 *                                                                                                                           *
 *                                                                                                                           *
 *                                                       Final Results                                                       *
 *                                                                                                                           *
 *****************************************************************************************************************************

::    Total SCF energy                             -13842.7622793356
      One-electron energy                          -14493.4855339923
      Two-electron energy                            1336.8957744908
      Nuclear repulsion energy                       -686.1725198341
      Kinetic energy (interpolated)                 20166.0650087913
      Virial theorem                                    0.6864384437
      Total spin, S(S+1)                                0.0000000000
      Total spin, S                                     0.0000000000
      Max non-diagonal density matrix element           0.0000000235
      Max non-diagonal Fock matrix element              0.0000000398


      All orbitals with orbital energies smaller than  E(LUMO)+0.5 are printed

++    Molecular orbitals:
      -------------------

      Title: SCF orbitals

      Molecular orbitals for symmetry species 1: a  

          Some orbital energies have been scaled by powers of 10, the power is written right after the orbital index


          Orbital            1 (1)     2         3         4         5         6         7         8         9        10    
          Energy         -278.9570 -605.2957 -548.6538 -548.6538 -548.6535 -230.3492 -212.8912 -212.8912 -212.8884 -192.2958
          Occ. No.          2.0000    2.0000    2.0000    2.0000    2.0000    2.0000    2.0000    2.0000    2.0000    0.0000

        1 RE     1s         1.0000    0.0001    0.0000    0.0000   -0.0000   -0.0000   -0.0000   -0.0000    0.0000   -0.0000
        2 RE     2s        -0.0001    0.9999    0.0000    0.0000   -0.0004    0.0121    0.0000    0.0000   -0.0001   -0.0000
        3 RE     3s         0.0000   -0.0117   -0.0000   -0.0000    0.0000    0.9952    0.0000    0.0000   -0.0050   -0.0000
        4 RE     4s        -0.0000    0.0034    0.0000    0.0000   -0.0000   -0.0795   -0.0000   -0.0000    0.0007    0.0000
        5 RE     5s         0.0000   -0.0012   -0.0000   -0.0000    0.0000    0.0234    0.0000    0.0000   -0.0002   -0.0000
        6 RE     6s        -0.0000    0.0003    0.0000    0.0000   -0.0000   -0.0065   -0.0000   -0.0000    0.0001    0.0000
        7 RE     7s         0.0000   -0.0006   -0.0000   -0.0000    0.0000    0.0107    0.0000    0.0000   -0.0001    0.0000
        8 RE     8s        -0.0000    0.0012    0.0000    0.0000   -0.0000   -0.0221   -0.0000   -0.0000    0.0002   -0.0000
        9 RE     9s         0.0000   -0.0016   -0.0000   -0.0000    0.0000    0.0267    0.0000    0.0000   -0.0002   -0.0000
       10 RE    10s        -0.0000    0.0012    0.0000    0.0000   -0.0000   -0.0179   -0.0000   -0.0000    0.0002   -0.0000
       11 RE    11s         0.0000   -0.0023   -0.0000   -0.0000    0.0000    0.0290    0.0000    0.0000   -0.0003   -0.0000
       12 RE     2px        0.0000    0.0004   -0.0028   -0.0000    0.9999    0.0000   -0.0000   -0.0000    0.0142   -0.0000
       13 RE     3px       -0.0000    0.0000    0.0000    0.0000   -0.0136    0.0051   -0.0026   -0.0000    0.9932   -0.0000
       14 RE     4px        0.0000   -0.0000   -0.0000   -0.0000    0.0038   -0.0002    0.0002    0.0000   -0.0909    0.0000
       15 RE     5px       -0.0000    0.0000    0.0000    0.0000   -0.0012    0.0001   -0.0001   -0.0000    0.0255   -0.0000
       16 RE     6px        0.0000   -0.0000   -0.0000   -0.0000    0.0006   -0.0000    0.0000    0.0000   -0.0117    0.0000
       17 RE     7px       -0.0000    0.0000    0.0000    0.0000   -0.0017    0.0001   -0.0001   -0.0000    0.0323   -0.0000
       18 RE     8px        0.0000   -0.0000   -0.0000   -0.0000    0.0018   -0.0001    0.0001    0.0000   -0.0319    0.0000
       19 RE     9px       -0.0000    0.0000    0.0000    0.0000   -0.0017    0.0001   -0.0001   -0.0000    0.0274   -0.0000
       20 RE    10px        0.0000   -0.0000   -0.0000   -0.0000    0.0019   -0.0001    0.0001    0.0000   -0.0270    0.0000
       21 RE    11px       -0.0000    0.0000    0.0000    0.0000   -0.0026    0.0000   -0.0001   -0.0000    0.0273   -0.0000
       22 RE     2py       -0.0000   -0.0000   -0.0002    0.9999   -0.0000   -0.0000   -0.0000    0.0142   -0.0000    0.0000
       23 RE     3py        0.0000    0.0000    0.0000   -0.0136    0.0000   -0.0000   -0.0000    0.9932   -0.0000    0.0000
       24 RE     4py       -0.0000    0.0000   -0.0000    0.0038   -0.0000    0.0000    0.0000   -0.0909    0.0000   -0.0000
       25 RE     5py        0.0000    0.0000    0.0000   -0.0012    0.0000   -0.0000   -0.0000    0.0255   -0.0000    0.0000
       26 RE     6py       -0.0000    0.0000   -0.0000    0.0006   -0.0000    0.0000    0.0000   -0.0117    0.0000   -0.0000
       27 RE     7py        0.0000    0.0000    0.0000   -0.0017    0.0000   -0.0000   -0.0000    0.0322   -0.0000    0.0000
       28 RE     8py       -0.0000    0.0000   -0.0000    0.0018   -0.0000    0.0000    0.0000   -0.0319    0.0000   -0.0000
       29 RE     9py        0.0000    0.0000    0.0000   -0.0017    0.0000   -0.0000   -0.0000    0.0274   -0.0000    0.0000
       30 RE    10py       -0.0000   -0.0000   -0.0000    0.0019   -0.0000    0.0000    0.0000   -0.0270    0.0000   -0.0000
       31 RE    11py        0.0000    0.0000    0.0000   -0.0026    0.0000   -0.0000   -0.0000    0.0273   -0.0000    0.0000
       32 RE     2pz        0.0000    0.0000    0.9999    0.0002    0.0028    0.0000    0.0142    0.0000    0.0000    0.0000
       33 RE     3pz       -0.0000    0.0000   -0.0136   -0.0000   -0.0000    0.0000    0.9932    0.0000    0.0026    0.0000
       34 RE     4pz        0.0000   -0.0000    0.0038    0.0000    0.0000   -0.0000   -0.0909   -0.0000   -0.0002   -0.0000
       35 RE     5pz       -0.0000    0.0000   -0.0012   -0.0000   -0.0000    0.0000    0.0255    0.0000    0.0001    0.0000
       36 RE     6pz        0.0000   -0.0000    0.0006    0.0000    0.0000   -0.0000   -0.0117   -0.0000   -0.0000    0.0000
       37 RE     7pz       -0.0000    0.0000   -0.0017   -0.0000   -0.0000    0.0000    0.0322    0.0000    0.0001    0.0000
       38 RE     8pz        0.0000   -0.0000    0.0018    0.0000    0.0000   -0.0000   -0.0319   -0.0000   -0.0001   -0.0000
       39 RE     9pz       -0.0000    0.0000   -0.0017   -0.0000   -0.0000    0.0000    0.0274    0.0000    0.0001   -0.0000
       40 RE    10pz        0.0000   -0.0000    0.0019    0.0000    0.0000   -0.0000   -0.0270   -0.0000   -0.0001   -0.0000
       41 RE    11pz       -0.0000    0.0000   -0.0026   -0.0000   -0.0000    0.0000    0.0273    0.0000    0.0001    0.0000
       42 RE     3d2-       0.0000    0.0000   -0.0000    0.0000   -0.0000    0.0000   -0.0000    0.0035   -0.0000   -0.0038
       43 RE     4d2-      -0.0000   -0.0000    0.0000   -0.0000    0.0000   -0.0000    0.0000   -0.0001    0.0000    0.0004
       44 RE     5d2-       0.0000    0.0000   -0.0000    0.0000   -0.0000    0.0000   -0.0000    0.0000   -0.0000   -0.0001
       45 RE     6d2-      -0.0000   -0.0000    0.0000   -0.0000    0.0000   -0.0000    0.0000   -0.0000    0.0000    0.0001
       46 RE     7d2-       0.0000    0.0000   -0.0000    0.0000   -0.0000    0.0000   -0.0000    0.0000   -0.0000   -0.0001
       47 RE     8d2-      -0.0000   -0.0000    0.0000   -0.0000    0.0000   -0.0000    0.0000   -0.0000    0.0000    0.0002
       48 RE     9d2-       0.0000    0.0000   -0.0000    0.0000   -0.0000    0.0000   -0.0000    0.0000   -0.0000   -0.0001
       49 RE    10d2-      -0.0000   -0.0000    0.0000   -0.0000    0.0000   -0.0000   -0.0000    0.0000   -0.0000    0.0001
       50 RE    11d2-       0.0000    0.0000   -0.0000    0.0000   -0.0000    0.0000    0.0000   -0.0000    0.0000   -0.0001
       51 RE     3d1-      -0.0000   -0.0000   -0.0000    0.0000    0.0000    0.0000   -0.0000    0.0000    0.0000    0.9918
       52 RE     4d1-       0.0000    0.0000    0.0000   -0.0000   -0.0000   -0.0000    0.0000   -0.0000   -0.0000   -0.0956
       53 RE     5d1-      -0.0000   -0.0000   -0.0000    0.0000   -0.0000    0.0000    0.0000   -0.0000   -0.0000    0.0197
       54 RE     6d1-       0.0000    0.0000   -0.0000    0.0000   -0.0000   -0.0000    0.0000   -0.0000   -0.0000   -0.0256
       55 RE     7d1-      -0.0000   -0.0000   -0.0000    0.0000    0.0000    0.0000   -0.0000    0.0000    0.0000    0.0345
       56 RE     8d1-       0.0000    0.0000    0.0000   -0.0000    0.0000   -0.0000   -0.0000    0.0000   -0.0000   -0.0399
       57 RE     9d1-      -0.0000   -0.0000    0.0000   -0.0000    0.0000    0.0000   -0.0000    0.0000   -0.0000    0.0325
       58 RE    10d1-       0.0000    0.0000    0.0000   -0.0000    0.0000   -0.0000   -0.0000    0.0000   -0.0000   -0.0384
       59 RE    11d1-      -0.0000   -0.0000   -0.0000    0.0000    0.0000   -0.0000   -0.0000    0.0000   -0.0000    0.0276
       60 RE     3d0        0.0000    0.0000    0.0000    0.0000   -0.0000    0.0000    0.0000    0.0000   -0.0020    0.0000
       61 RE     4d0       -0.0000   -0.0000   -0.0000   -0.0000    0.0000    0.0000   -0.0000   -0.0000    0.0001   -0.0000
       62 RE     5d0        0.0000    0.0000    0.0000    0.0000   -0.0000   -0.0000    0.0000    0.0000   -0.0000    0.0000
       63 RE     6d0       -0.0000   -0.0000   -0.0000   -0.0000    0.0000    0.0000   -0.0000   -0.0000    0.0000   -0.0000
       64 RE     7d0        0.0000    0.0000    0.0000    0.0000   -0.0000   -0.0000    0.0000    0.0000   -0.0000    0.0000
       65 RE     8d0       -0.0000   -0.0000   -0.0000   -0.0000    0.0000    0.0000   -0.0000   -0.0000    0.0000   -0.0000
       66 RE     9d0        0.0000    0.0000    0.0000    0.0000   -0.0000   -0.0000   -0.0000   -0.0000   -0.0000    0.0000
       67 RE    10d0       -0.0000   -0.0000   -0.0000   -0.0000    0.0000    0.0000   -0.0000   -0.0000   -0.0000   -0.0000
       68 RE    11d0        0.0000    0.0000    0.0000    0.0000   -0.0000   -0.0000   -0.0000   -0.0000    0.0000    0.0000
       69 RE     3d1+      -0.0000   -0.0000    0.0000    0.0000    0.0000   -0.0000    0.0035    0.0000    0.0000   -0.0000
       70 RE     4d1+       0.0000    0.0000   -0.0000   -0.0000   -0.0000   -0.0000   -0.0001   -0.0000   -0.0000    0.0000
       71 RE     5d1+      -0.0000   -0.0000    0.0000    0.0000    0.0000    0.0000    0.0000    0.0000    0.0000   -0.0000
       72 RE     6d1+       0.0000    0.0000   -0.0000   -0.0000   -0.0000   -0.0000   -0.0000   -0.0000   -0.0000    0.0000
       73 RE     7d1+      -0.0000   -0.0000    0.0000    0.0000    0.0000    0.0000    0.0000    0.0000    0.0000   -0.0000
       74 RE     8d1+       0.0000    0.0000   -0.0000   -0.0000   -0.0000   -0.0000   -0.0000   -0.0000   -0.0000    0.0000
       75 RE     9d1+      -0.0000   -0.0000    0.0000    0.0000    0.0000    0.0000    0.0000    0.0000    0.0000   -0.0000
       76 RE    10d1+       0.0000    0.0000   -0.0000   -0.0000   -0.0000   -0.0000    0.0000    0.0000    0.0000    0.0000
       77 RE    11d1+      -0.0000   -0.0000    0.0000    0.0000    0.0000    0.0000   -0.0000   -0.0000   -0.0000   -0.0000
       78 RE     3d2+      -0.0000   -0.0000   -0.0000   -0.0000    0.0000   -0.0000   -0.0000   -0.0000    0.0035    0.0000
       79 RE     4d2+       0.0000    0.0000    0.0000    0.0000   -0.0000   -0.0000    0.0000    0.0000   -0.0001   -0.0000
       80 RE     5d2+      -0.0000   -0.0000   -0.0000   -0.0000    0.0000    0.0000   -0.0000   -0.0000    0.0000    0.0000
       81 RE     6d2+       0.0000    0.0000    0.0000    0.0000   -0.0000   -0.0000    0.0000    0.0000   -0.0000   -0.0000
       82 RE     7d2+      -0.0000   -0.0000   -0.0000   -0.0000    0.0000    0.0000   -0.0000   -0.0000    0.0000    0.0000
       83 RE     8d2+       0.0000    0.0000    0.0000    0.0000   -0.0000   -0.0000   -0.0000   -0.0000   -0.0000   -0.0000
       84 RE     9d2+      -0.0000   -0.0000   -0.0000   -0.0000    0.0000    0.0000   -0.0000   -0.0000    0.0000    0.0000
       85 RE    10d2+       0.0000    0.0000    0.0000    0.0000   -0.0000   -0.0000   -0.0000   -0.0000    0.0000   -0.0000
       86 RE    11d2+      -0.0000   -0.0000   -0.0000   -0.0000    0.0000    0.0000    0.0000    0.0000   -0.0000    0.0000
       87 RE     4f3-       0.0000    0.0000    0.0000   -0.0000    0.0000   -0.0000    0.0000   -0.0000    0.0000   -0.0000
       88 RE     5f3-      -0.0000   -0.0000   -0.0000    0.0000   -0.0000    0.0000   -0.0000    0.0000   -0.0000    0.0000
       89 RE     6f3-       0.0000    0.0000    0.0000   -0.0000    0.0000   -0.0000    0.0000   -0.0000    0.0000   -0.0000
       90 RE     7f3-      -0.0000   -0.0000   -0.0000    0.0000   -0.0000    0.0000   -0.0000    0.0000   -0.0000    0.0000
       91 RE     8f3-       0.0000    0.0000    0.0000   -0.0000    0.0000   -0.0000    0.0000   -0.0000    0.0000   -0.0000
       92 RE     9f3-      -0.0000   -0.0000   -0.0000    0.0000   -0.0000    0.0000   -0.0000    0.0000   -0.0000    0.0000
       93 RE    10f3-       0.0000    0.0000    0.0000   -0.0000    0.0000   -0.0000    0.0000   -0.0000    0.0000   -0.0000
       94 RE    11f3-      -0.0000   -0.0000   -0.0000    0.0000   -0.0000    0.0000   -0.0000    0.0000   -0.0000    0.0000
       95 RE     4f2-      -0.0000    0.0000    0.0000   -0.0000   -0.0000    0.0000    0.0000   -0.0000    0.0000    0.0003
       96 RE     5f2-       0.0000   -0.0000   -0.0000    0.0000   -0.0000   -0.0000   -0.0000    0.0000    0.0000   -0.0002
       97 RE     6f2-       0.0000    0.0000   -0.0000    0.0000   -0.0000    0.0000    0.0000   -0.0000    0.0000    0.0002
       98 RE     7f2-      -0.0000   -0.0000   -0.0000    0.0000   -0.0000   -0.0000    0.0000   -0.0000    0.0000   -0.0002
       99 RE     8f2-       0.0000    0.0000   -0.0000    0.0000   -0.0000   -0.0000    0.0000   -0.0000    0.0000    0.0002
      100 RE     9f2-      -0.0000   -0.0000    0.0000   -0.0000    0.0000    0.0000   -0.0000    0.0000   -0.0000   -0.0001
      101 RE    10f2-       0.0000    0.0000    0.0000   -0.0000    0.0000    0.0000   -0.0000    0.0000    0.0000    0.0001
      102 RE    11f2-      -0.0000   -0.0000    0.0000   -0.0000    0.0000   -0.0000   -0.0000    0.0000   -0.0000   -0.0001
      103 RE     4f1-       0.0000   -0.0000   -0.0000    0.0000   -0.0000    0.0000   -0.0000    0.0000   -0.0000    0.0000
      104 RE     5f1-       0.0000    0.0000    0.0000   -0.0000    0.0000   -0.0000    0.0000   -0.0000    0.0000   -0.0000
      105 RE     6f1-      -0.0000   -0.0000   -0.0000    0.0000   -0.0000    0.0000   -0.0000    0.0000   -0.0000    0.0000
      106 RE     7f1-      -0.0000    0.0000    0.0000   -0.0000    0.0000   -0.0000    0.0000   -0.0000    0.0000   -0.0000
      107 RE     8f1-       0.0000   -0.0000   -0.0000    0.0000   -0.0000    0.0000   -0.0000    0.0000   -0.0000    0.0000
      108 RE     9f1-      -0.0000    0.0000    0.0000   -0.0000    0.0000   -0.0000    0.0000   -0.0000    0.0000   -0.0000
      109 RE    10f1-       0.0000   -0.0000   -0.0000    0.0000   -0.0000    0.0000   -0.0000    0.0000   -0.0000    0.0000
      110 RE    11f1-      -0.0000    0.0000    0.0000   -0.0000    0.0000    0.0000    0.0000   -0.0000   -0.0000   -0.0000
      111 RE     4f0        0.0000   -0.0000    0.0000    0.0000    0.0000    0.0000    0.0000    0.0000    0.0000    0.0000
      112 RE     5f0        0.0000   -0.0000   -0.0000   -0.0000   -0.0000    0.0000   -0.0000   -0.0000   -0.0000   -0.0000
      113 RE     6f0        0.0000   -0.0000    0.0000    0.0000   -0.0000    0.0000    0.0000    0.0000    0.0000    0.0000
      114 RE     7f0        0.0000   -0.0000   -0.0000   -0.0000   -0.0000    0.0000   -0.0000   -0.0000    0.0000   -0.0000
      115 RE     8f0        0.0000   -0.0000    0.0000    0.0000   -0.0000    0.0000    0.0000    0.0000    0.0000    0.0000
      116 RE     9f0        0.0000   -0.0000   -0.0000   -0.0000    0.0000    0.0000   -0.0000   -0.0000   -0.0000   -0.0000
      117 RE    10f0        0.0000   -0.0000    0.0000    0.0000    0.0000    0.0000    0.0000    0.0000   -0.0000    0.0000
      118 RE    11f0        0.0000   -0.0000   -0.0000   -0.0000    0.0000    0.0000   -0.0000   -0.0000   -0.0000   -0.0000
      119 RE     4f1+       0.0000   -0.0000   -0.0000   -0.0000    0.0000   -0.0000   -0.0000   -0.0000    0.0000    0.0000
      120 RE     5f1+      -0.0000    0.0000   -0.0000   -0.0000   -0.0000    0.0000    0.0000    0.0000   -0.0000   -0.0000
      121 RE     6f1+       0.0000   -0.0000   -0.0000   -0.0000    0.0000   -0.0000    0.0000    0.0000    0.0000    0.0000
      122 RE     7f1+      -0.0000    0.0000   -0.0000   -0.0000   -0.0000   -0.0000    0.0000    0.0000   -0.0000   -0.0000
      123 RE     8f1+      -0.0000    0.0000   -0.0000   -0.0000    0.0000   -0.0000   -0.0000   -0.0000    0.0000    0.0000
      124 RE     9f1+      -0.0000    0.0000    0.0000    0.0000   -0.0000   -0.0000   -0.0000   -0.0000   -0.0000   -0.0000
      125 RE    10f1+       0.0000   -0.0000    0.0000    0.0000    0.0000    0.0000   -0.0000   -0.0000    0.0000    0.0000
      126 RE    11f1+      -0.0000   -0.0000    0.0000    0.0000   -0.0000    0.0000   -0.0000   -0.0000   -0.0000   -0.0000
      127 RE     4f2+      -0.0000    0.0000   -0.0000   -0.0000   -0.0000    0.0000   -0.0000   -0.0000   -0.0000   -0.0000
      128 RE     5f2+       0.0000   -0.0000    0.0000    0.0000   -0.0000    0.0000    0.0000    0.0000    0.0000    0.0000
      129 RE     6f2+       0.0000   -0.0000   -0.0000   -0.0000   -0.0000    0.0000   -0.0000   -0.0000    0.0000   -0.0000
      130 RE     7f2+       0.0000   -0.0000    0.0000    0.0000   -0.0000    0.0000    0.0000    0.0000    0.0000    0.0000
      131 RE     8f2+       0.0000   -0.0000   -0.0000   -0.0000   -0.0000    0.0000   -0.0000   -0.0000   -0.0000   -0.0000
      132 RE     9f2+       0.0000   -0.0000    0.0000    0.0000    0.0000    0.0000    0.0000    0.0000   -0.0000    0.0000
      133 RE    10f2+       0.0000   -0.0000   -0.0000   -0.0000    0.0000    0.0000   -0.0000   -0.0000   -0.0000   -0.0000
      134 RE    11f2+       0.0000   -0.0000    0.0000    0.0000    0.0000    0.0000    0.0000    0.0000   -0.0000    0.0000
      135 RE     4f3+      -0.0000    0.0000    0.0000    0.0000   -0.0000    0.0000    0.0000    0.0000   -0.0000    0.0000
      136 RE     5f3+       0.0000   -0.0000   -0.0000   -0.0000    0.0000   -0.0000   -0.0000   -0.0000    0.0000   -0.0000
      137 RE     6f3+      -0.0000    0.0000   -0.0000   -0.0000   -0.0000    0.0000    0.0000    0.0000   -0.0000    0.0000
      138 RE     7f3+       0.0000   -0.0000   -0.0000   -0.0000    0.0000    0.0000    0.0000    0.0000    0.0000   -0.0000
      139 RE     8f3+       0.0000   -0.0000   -0.0000   -0.0000   -0.0000    0.0000    0.0000    0.0000   -0.0000    0.0000
      140 RE     9f3+       0.0000   -0.0000    0.0000    0.0000    0.0000    0.0000   -0.0000   -0.0000    0.0000   -0.0000
      141 RE    10f3+      -0.0000    0.0000    0.0000    0.0000   -0.0000   -0.0000   -0.0000   -0.0000   -0.0000    0.0000
      142 RE    11f3+       0.0000    0.0000    0.0000    0.0000    0.0000   -0.0000   -0.0000   -0.0000    0.0000   -0.0000
      143 RE     5g4-      -0.0000    0.0000   -0.0000    0.0000   -0.0000   -0.0000   -0.0000    0.0000   -0.0000    0.0000
      144 RE     6g4-       0.0000   -0.0000    0.0000   -0.0000    0.0000    0.0000    0.0000   -0.0000    0.0000   -0.0000
      145 RE     7g4-      -0.0000    0.0000    0.0000   -0.0000    0.0000   -0.0000   -0.0000    0.0000   -0.0000    0.0000
      146 RE     8g4-       0.0000   -0.0000    0.0000   -0.0000    0.0000    0.0000   -0.0000    0.0000   -0.0000   -0.0000
      147 RE     5g3-       0.0000    0.0000   -0.0000    0.0000   -0.0000    0.0000    0.0000   -0.0000    0.0000   -0.0000
      148 RE     6g3-      -0.0000   -0.0000   -0.0000    0.0000   -0.0000   -0.0000    0.0000   -0.0000    0.0000    0.0000
      149 RE     7g3-       0.0000    0.0000   -0.0000    0.0000   -0.0000    0.0000    0.0000   -0.0000    0.0000   -0.0000
      150 RE     8g3-      -0.0000   -0.0000   -0.0000    0.0000   -0.0000   -0.0000    0.0000   -0.0000    0.0000    0.0000
      151 RE     5g2-      -0.0000   -0.0000    0.0000   -0.0000   -0.0000   -0.0000    0.0000   -0.0000    0.0000   -0.0000
      152 RE     6g2-       0.0000    0.0000   -0.0000    0.0000   -0.0000    0.0000   -0.0000    0.0000   -0.0000    0.0000
      153 RE     7g2-      -0.0000   -0.0000   -0.0000    0.0000   -0.0000   -0.0000    0.0000   -0.0000    0.0000   -0.0000
      154 RE     8g2-       0.0000    0.0000   -0.0000    0.0000   -0.0000    0.0000    0.0000   -0.0000    0.0000    0.0000
      155 RE     5g1-       0.0000   -0.0000    0.0000   -0.0000    0.0000    0.0000   -0.0000    0.0000    0.0000    0.0000
      156 RE     6g1-      -0.0000    0.0000    0.0000   -0.0000    0.0000   -0.0000   -0.0000    0.0000   -0.0000   -0.0000
      157 RE     7g1-       0.0000    0.0000    0.0000   -0.0000    0.0000    0.0000   -0.0000    0.0000   -0.0000    0.0000
      158 RE     8g1-      -0.0000   -0.0000    0.0000   -0.0000    0.0000   -0.0000   -0.0000    0.0000   -0.0000   -0.0000
      159 RE     5g0        0.0000   -0.0000    0.0000    0.0000    0.0000   -0.0000   -0.0000   -0.0000    0.0000    0.0000
      160 RE     6g0        0.0000   -0.0000    0.0000    0.0000   -0.0000    0.0000   -0.0000   -0.0000   -0.0000   -0.0000
      161 RE     7g0        0.0000    0.0000    0.0000    0.0000   -0.0000   -0.0000   -0.0000   -0.0000    0.0000    0.0000
      162 RE     8g0       -0.0000    0.0000    0.0000    0.0000   -0.0000   -0.0000   -0.0000   -0.0000    0.0000   -0.0000
      163 RE     5g1+      -0.0000    0.0000   -0.0000   -0.0000   -0.0000    0.0000   -0.0000   -0.0000    0.0000   -0.0000
      164 RE     6g1+       0.0000   -0.0000    0.0000    0.0000   -0.0000    0.0000    0.0000    0.0000    0.0000   -0.0000
      165 RE     7g1+       0.0000   -0.0000    0.0000    0.0000   -0.0000    0.0000   -0.0000   -0.0000    0.0000   -0.0000
      166 RE     8g1+       0.0000   -0.0000    0.0000    0.0000   -0.0000    0.0000   -0.0000   -0.0000    0.0000    0.0000
      167 RE     5g2+      -0.0000    0.0000   -0.0000   -0.0000   -0.0000    0.0000    0.0000    0.0000   -0.0000   -0.0000
      168 RE     6g2+      -0.0000    0.0000   -0.0000   -0.0000    0.0000   -0.0000    0.0000    0.0000    0.0000    0.0000
      169 RE     7g2+      -0.0000   -0.0000   -0.0000   -0.0000    0.0000    0.0000    0.0000    0.0000   -0.0000   -0.0000
      170 RE     8g2+       0.0000   -0.0000   -0.0000   -0.0000    0.0000    0.0000    0.0000    0.0000   -0.0000    0.0000
      171 RE     5g3+      -0.0000    0.0000    0.0000    0.0000   -0.0000    0.0000    0.0000    0.0000    0.0000   -0.0000
      172 RE     6g3+       0.0000   -0.0000   -0.0000   -0.0000   -0.0000    0.0000   -0.0000   -0.0000    0.0000    0.0000
      173 RE     7g3+       0.0000   -0.0000   -0.0000   -0.0000   -0.0000    0.0000    0.0000    0.0000    0.0000    0.0000
      174 RE     8g3+       0.0000   -0.0000   -0.0000   -0.0000   -0.0000    0.0000    0.0000    0.0000    0.0000    0.0000
      175 RE     5g4+       0.0000   -0.0000   -0.0000   -0.0000    0.0000   -0.0000    0.0000    0.0000    0.0000   -0.0000
      176 RE     6g4+       0.0000   -0.0000   -0.0000   -0.0000   -0.0000    0.0000    0.0000    0.0000   -0.0000    0.0000
      177 RE     7g4+       0.0000    0.0000   -0.0000   -0.0000   -0.0000   -0.0000    0.0000    0.0000    0.0000   -0.0000
      178 RE     8g4+      -0.0000    0.0000   -0.0000   -0.0000   -0.0000   -0.0000    0.0000    0.0000    0.0000    0.0000
      179 RE     6h5-       0.0000   -0.0000    0.0000   -0.0000   -0.0000    0.0000   -0.0000    0.0000    0.0000   -0.0000
      180 RE     7h5-      -0.0000    0.0000    0.0000   -0.0000    0.0000   -0.0000   -0.0000    0.0000   -0.0000   -0.0000
      181 RE     6h4-       0.0000   -0.0000   -0.0000    0.0000   -0.0000    0.0000    0.0000   -0.0000    0.0000    0.0000
      182 RE     7h4-      -0.0000    0.0000   -0.0000    0.0000   -0.0000   -0.0000    0.0000   -0.0000    0.0000   -0.0000
      183 RE     6h3-       0.0000    0.0000   -0.0000    0.0000   -0.0000    0.0000    0.0000   -0.0000    0.0000    0.0000
      184 RE     7h3-      -0.0000   -0.0000   -0.0000    0.0000   -0.0000   -0.0000    0.0000   -0.0000   -0.0000    0.0000
      185 RE     6h2-      -0.0000    0.0000   -0.0000    0.0000   -0.0000    0.0000    0.0000   -0.0000    0.0000   -0.0000
      186 RE     7h2-       0.0000   -0.0000   -0.0000    0.0000   -0.0000    0.0000    0.0000   -0.0000    0.0000    0.0000
      187 RE     6h1-      -0.0000   -0.0000    0.0000   -0.0000   -0.0000   -0.0000   -0.0000    0.0000    0.0000    0.0000
      188 RE     7h1-       0.0000    0.0000    0.0000   -0.0000    0.0000    0.0000   -0.0000    0.0000   -0.0000    0.0000
      189 RE     6h0        0.0000   -0.0000   -0.0000   -0.0000   -0.0000    0.0000    0.0000    0.0000    0.0000    0.0000
      190 RE     7h0        0.0000   -0.0000   -0.0000   -0.0000   -0.0000    0.0000    0.0000    0.0000    0.0000    0.0000
      191 RE     6h1+      -0.0000    0.0000    0.0000    0.0000   -0.0000   -0.0000   -0.0000   -0.0000    0.0000   -0.0000
      192 RE     7h1+      -0.0000    0.0000    0.0000    0.0000   -0.0000   -0.0000   -0.0000   -0.0000    0.0000    0.0000
      193 RE     6h2+      -0.0000    0.0000    0.0000    0.0000    0.0000   -0.0000   -0.0000   -0.0000   -0.0000   -0.0000
      194 RE     7h2+      -0.0000    0.0000    0.0000    0.0000    0.0000   -0.0000   -0.0000   -0.0000   -0.0000   -0.0000
      195 RE     6h3+       0.0000   -0.0000    0.0000    0.0000    0.0000    0.0000   -0.0000   -0.0000   -0.0000    0.0000
      196 RE     7h3+       0.0000   -0.0000    0.0000    0.0000    0.0000    0.0000   -0.0000   -0.0000   -0.0000   -0.0000
      197 RE     6h4+      -0.0000    0.0000   -0.0000   -0.0000    0.0000   -0.0000    0.0000    0.0000   -0.0000    0.0000
      198 RE     7h4+      -0.0000    0.0000   -0.0000   -0.0000    0.0000   -0.0000    0.0000    0.0000   -0.0000    0.0000
      199 RE     6h5+      -0.0000    0.0000    0.0000    0.0000   -0.0000   -0.0000   -0.0000   -0.0000    0.0000    0.0000
      200 RE     7h5+      -0.0000    0.0000    0.0000    0.0000   -0.0000   -0.0000   -0.0000   -0.0000    0.0000   -0.0000

          Orbital           11        12        13        14    
          Energy         -192.2958 -192.2943 -192.2943 -192.2938
          Occ. No.          0.0000    0.0000    0.0000    0.0000

        1 RE     1s        -0.0000    0.0000    0.0000   -0.0000
        2 RE     2s        -0.0000   -0.0000    0.0000    0.0000
        3 RE     3s        -0.0000   -0.0000    0.0000    0.0001
        4 RE     4s         0.0000   -0.0000    0.0000   -0.0000
        5 RE     5s        -0.0000   -0.0000    0.0000    0.0000
        6 RE     6s         0.0000   -0.0000    0.0000   -0.0000
        7 RE     7s         0.0000   -0.0000    0.0000    0.0000
        8 RE     8s        -0.0000    0.0000   -0.0000   -0.0000
        9 RE     9s        -0.0000    0.0000    0.0000    0.0000
       10 RE    10s        -0.0000    0.0000   -0.0000   -0.0000
       11 RE    11s        -0.0000   -0.0000    0.0000    0.0000
       12 RE     2px       -0.0000    0.0000   -0.0000   -0.0001
       13 RE     3px       -0.0000    0.0000   -0.0000   -0.0040
       14 RE     4px        0.0000   -0.0000    0.0000    0.0006
       15 RE     5px       -0.0000    0.0000   -0.0000   -0.0002
       16 RE     6px        0.0000   -0.0000    0.0000    0.0001
       17 RE     7px       -0.0000    0.0000   -0.0000   -0.0002
       18 RE     8px        0.0000   -0.0000    0.0000    0.0002
       19 RE     9px       -0.0000    0.0000   -0.0000   -0.0002
       20 RE    10px        0.0000   -0.0000    0.0000    0.0002
       21 RE    11px       -0.0000    0.0000   -0.0000   -0.0002
       22 RE     2py       -0.0000   -0.0000   -0.0001    0.0000
       23 RE     3py       -0.0000   -0.0000   -0.0034    0.0000
       24 RE     4py        0.0000    0.0000    0.0005   -0.0000
       25 RE     5py       -0.0000   -0.0000   -0.0001    0.0000
       26 RE     6py        0.0000    0.0000    0.0001   -0.0000
       27 RE     7py       -0.0000   -0.0000   -0.0002    0.0000
       28 RE     8py        0.0000    0.0000    0.0002   -0.0000
       29 RE     9py       -0.0000   -0.0000   -0.0001    0.0000
       30 RE    10py        0.0000    0.0000    0.0001   -0.0000
       31 RE    11py       -0.0000   -0.0000   -0.0001    0.0000
       32 RE     2pz        0.0000   -0.0001    0.0000   -0.0000
       33 RE     3pz        0.0000   -0.0034    0.0000   -0.0000
       34 RE     4pz       -0.0000    0.0005   -0.0000    0.0000
       35 RE     5pz        0.0000   -0.0001    0.0000   -0.0000
       36 RE     6pz        0.0000    0.0001   -0.0000    0.0000
       37 RE     7pz        0.0000   -0.0002    0.0000   -0.0000
       38 RE     8pz       -0.0000    0.0002   -0.0000    0.0000
       39 RE     9pz       -0.0000   -0.0001    0.0000   -0.0000
       40 RE    10pz       -0.0000    0.0001   -0.0000    0.0000
       41 RE    11pz        0.0000   -0.0001    0.0000   -0.0000
       42 RE     3d2-       0.0000    0.0000    0.9918   -0.0000
       43 RE     4d2-      -0.0000   -0.0000   -0.0956    0.0000
       44 RE     5d2-       0.0000    0.0000    0.0197   -0.0000
       45 RE     6d2-      -0.0000   -0.0000   -0.0256    0.0000
       46 RE     7d2-       0.0000    0.0000    0.0345   -0.0000
       47 RE     8d2-      -0.0000   -0.0000   -0.0399    0.0000
       48 RE     9d2-       0.0000    0.0000    0.0325   -0.0000
       49 RE    10d2-      -0.0000   -0.0000   -0.0384    0.0000
       50 RE    11d2-       0.0000    0.0000    0.0276   -0.0000
       51 RE     3d1-      -0.0000    0.0000    0.0038   -0.0000
       52 RE     4d1-       0.0000   -0.0000   -0.0004    0.0000
       53 RE     5d1-      -0.0000    0.0000    0.0001   -0.0000
       54 RE     6d1-       0.0000   -0.0000   -0.0001    0.0000
       55 RE     7d1-      -0.0000    0.0000    0.0001   -0.0000
       56 RE     8d1-       0.0000   -0.0000   -0.0002    0.0000
       57 RE     9d1-      -0.0000    0.0000    0.0001   -0.0000
       58 RE    10d1-       0.0000   -0.0000   -0.0001    0.0000
       59 RE    11d1-      -0.0000    0.0000    0.0001   -0.0000
       60 RE     3d0        0.8590    0.0035   -0.0000   -0.4959
       61 RE     4d0       -0.0828   -0.0003    0.0000    0.0478
       62 RE     5d0        0.0171    0.0001   -0.0000   -0.0099
       63 RE     6d0       -0.0222   -0.0001    0.0000    0.0128
       64 RE     7d0        0.0299    0.0001   -0.0000   -0.0173
       65 RE     8d0       -0.0346   -0.0001    0.0000    0.0200
       66 RE     9d0        0.0282    0.0001   -0.0000   -0.0163
       67 RE    10d0       -0.0332   -0.0001    0.0000    0.0192
       68 RE    11d0        0.0239    0.0001   -0.0000   -0.0138
       69 RE     3d1+      -0.0014    0.9918   -0.0000    0.0045
       70 RE     4d1+       0.0001   -0.0956    0.0000   -0.0004
       71 RE     5d1+      -0.0000    0.0197   -0.0000    0.0001
       72 RE     6d1+       0.0000   -0.0256    0.0000   -0.0001
       73 RE     7d1+      -0.0000    0.0345   -0.0000    0.0002
       74 RE     8d1+       0.0001   -0.0399    0.0000   -0.0002
       75 RE     9d1+      -0.0000    0.0325   -0.0000    0.0001
       76 RE    10d1+       0.0001   -0.0384    0.0000   -0.0002
       77 RE    11d1+      -0.0000    0.0276   -0.0000    0.0001
       78 RE     3d2+       0.4959   -0.0032    0.0000    0.8589
       79 RE     4d2+      -0.0478    0.0003   -0.0000   -0.0828
       80 RE     5d2+       0.0099   -0.0001    0.0000    0.0171
       81 RE     6d2+      -0.0128    0.0001   -0.0000   -0.0222
       82 RE     7d2+       0.0173   -0.0001    0.0000    0.0299
       83 RE     8d2+      -0.0200    0.0001   -0.0000   -0.0346
       84 RE     9d2+       0.0163   -0.0001    0.0000    0.0282
       85 RE    10d2+      -0.0192    0.0001   -0.0000   -0.0332
       86 RE    11d2+       0.0138   -0.0001    0.0000    0.0239
       87 RE     4f3-       0.0000    0.0000    0.0004   -0.0000
       88 RE     5f3-      -0.0000   -0.0000   -0.0002    0.0000
       89 RE     6f3-       0.0000    0.0000    0.0003   -0.0000
       90 RE     7f3-      -0.0000   -0.0000   -0.0002    0.0000
       91 RE     8f3-       0.0000    0.0000    0.0002   -0.0000
       92 RE     9f3-      -0.0000   -0.0000   -0.0001    0.0000
       93 RE    10f3-       0.0000    0.0000    0.0001   -0.0000
       94 RE    11f3-      -0.0000   -0.0000   -0.0001    0.0000
       95 RE     4f2-      -0.0000    0.0000    0.0000   -0.0000
       96 RE     5f2-       0.0000   -0.0000   -0.0000    0.0000
       97 RE     6f2-      -0.0000    0.0000    0.0000   -0.0000
       98 RE     7f2-       0.0000   -0.0000   -0.0000    0.0000
       99 RE     8f2-      -0.0000    0.0000    0.0000   -0.0000
      100 RE     9f2-       0.0000   -0.0000   -0.0000    0.0000
      101 RE    10f2-      -0.0000    0.0000    0.0000   -0.0000
      102 RE    11f2-       0.0000   -0.0000   -0.0000    0.0000
      103 RE     4f1-      -0.0000   -0.0000   -0.0001    0.0000
      104 RE     5f1-       0.0000    0.0000    0.0001   -0.0000
      105 RE     6f1-      -0.0000   -0.0000   -0.0001    0.0000
      106 RE     7f1-       0.0000    0.0000    0.0001   -0.0000
      107 RE     8f1-      -0.0000   -0.0000   -0.0001    0.0000
      108 RE     9f1-       0.0000    0.0000    0.0000   -0.0000
      109 RE    10f1-      -0.0000   -0.0000   -0.0000    0.0000
      110 RE    11f1-       0.0000    0.0000    0.0000   -0.0000
      111 RE     4f0        0.0000   -0.0002    0.0000   -0.0000
      112 RE     5f0       -0.0000    0.0002   -0.0000    0.0000
      113 RE     6f0        0.0000   -0.0002    0.0000   -0.0000
      114 RE     7f0       -0.0000    0.0001   -0.0000    0.0000
      115 RE     8f0        0.0000   -0.0001    0.0000   -0.0000
      116 RE     9f0       -0.0000    0.0001   -0.0000    0.0000
      117 RE    10f0        0.0000   -0.0001    0.0000   -0.0000
      118 RE    11f0       -0.0000    0.0000   -0.0000    0.0000
      119 RE     4f1+       0.0003    0.0000   -0.0000   -0.0003
      120 RE     5f1+      -0.0002   -0.0000    0.0000    0.0002
      121 RE     6f1+       0.0002    0.0000   -0.0000   -0.0002
      122 RE     7f1+      -0.0001   -0.0000    0.0000    0.0002
      123 RE     8f1+       0.0001    0.0000   -0.0000   -0.0001
      124 RE     9f1+      -0.0001   -0.0000    0.0000    0.0001
      125 RE    10f1+       0.0001    0.0000   -0.0000   -0.0001
      126 RE    11f1+      -0.0000   -0.0000    0.0000    0.0000
      127 RE     4f2+      -0.0000    0.0003   -0.0000    0.0000
      128 RE     5f2+       0.0000   -0.0002    0.0000   -0.0000
      129 RE     6f2+      -0.0000    0.0002   -0.0000    0.0000
      130 RE     7f2+       0.0000   -0.0002    0.0000   -0.0000
      131 RE     8f2+      -0.0000    0.0002   -0.0000    0.0000
      132 RE     9f2+       0.0000   -0.0001    0.0000   -0.0000
      133 RE    10f2+      -0.0000    0.0001   -0.0000    0.0000
      134 RE    11f2+       0.0000   -0.0001    0.0000   -0.0000
      135 RE     4f3+       0.0002   -0.0000    0.0000    0.0003
      136 RE     5f3+      -0.0001    0.0000   -0.0000   -0.0002
      137 RE     6f3+       0.0001   -0.0000    0.0000    0.0002
      138 RE     7f3+      -0.0001    0.0000   -0.0000   -0.0002
      139 RE     8f3+       0.0001   -0.0000    0.0000    0.0002
      140 RE     9f3+      -0.0001    0.0000   -0.0000   -0.0001
      141 RE    10f3+       0.0001   -0.0000    0.0000    0.0001
      142 RE    11f3+      -0.0000    0.0000   -0.0000   -0.0001
      143 RE     5g4-      -0.0000   -0.0000   -0.0000    0.0000
      144 RE     6g4-       0.0000    0.0000    0.0000   -0.0000
      145 RE     7g4-      -0.0000   -0.0000   -0.0000    0.0000
      146 RE     8g4-       0.0000    0.0000    0.0000   -0.0000
      147 RE     5g3-       0.0000   -0.0000   -0.0000    0.0000
      148 RE     6g3-      -0.0000   -0.0000   -0.0000   -0.0000
      149 RE     7g3-       0.0000   -0.0000   -0.0000    0.0000
      150 RE     8g3-      -0.0000   -0.0000   -0.0000   -0.0000
      151 RE     5g2-       0.0000    0.0000    0.0000   -0.0000
      152 RE     6g2-      -0.0000   -0.0000   -0.0000    0.0000
      153 RE     7g2-       0.0000    0.0000    0.0000   -0.0000
      154 RE     8g2-      -0.0000   -0.0000   -0.0000    0.0000
      155 RE     5g1-      -0.0000    0.0000    0.0000    0.0000
      156 RE     6g1-       0.0000    0.0000    0.0000    0.0000
      157 RE     7g1-      -0.0000    0.0000    0.0000   -0.0000
      158 RE     8g1-       0.0000    0.0000    0.0000    0.0000
      159 RE     5g0        0.0000    0.0000   -0.0000   -0.0000
      160 RE     6g0       -0.0000   -0.0000    0.0000    0.0000
      161 RE     7g0        0.0000   -0.0000    0.0000   -0.0000
      162 RE     8g0       -0.0000   -0.0000    0.0000    0.0000
      163 RE     5g1+      -0.0000    0.0000   -0.0000    0.0000
      164 RE     6g1+      -0.0000   -0.0000    0.0000    0.0000
      165 RE     7g1+      -0.0000    0.0000   -0.0000    0.0000
      166 RE     8g1+       0.0000   -0.0000    0.0000    0.0000
      167 RE     5g2+      -0.0000   -0.0000    0.0000    0.0000
      168 RE     6g2+       0.0000    0.0000   -0.0000   -0.0000
      169 RE     7g2+      -0.0000    0.0000   -0.0000    0.0000
      170 RE     8g2+       0.0000    0.0000   -0.0000   -0.0000
      171 RE     5g3+      -0.0000   -0.0000    0.0000   -0.0000
      172 RE     6g3+       0.0000    0.0000   -0.0000    0.0000
      173 RE     7g3+       0.0000   -0.0000    0.0000    0.0000
      174 RE     8g3+       0.0000    0.0000   -0.0000    0.0000
      175 RE     5g4+      -0.0000    0.0000   -0.0000   -0.0000
      176 RE     6g4+       0.0000    0.0000   -0.0000    0.0000
      177 RE     7g4+      -0.0000    0.0000   -0.0000   -0.0000
      178 RE     8g4+       0.0000    0.0000   -0.0000    0.0000
      179 RE     6h5-       0.0000    0.0000    0.0000   -0.0000
      180 RE     7h5-       0.0000   -0.0000   -0.0000    0.0000
      181 RE     6h4-      -0.0000   -0.0000   -0.0000   -0.0000
      182 RE     7h4-       0.0000   -0.0000   -0.0000    0.0000
      183 RE     6h3-      -0.0000   -0.0000   -0.0000   -0.0000
      184 RE     7h3-      -0.0000    0.0000    0.0000   -0.0000
      185 RE     6h2-       0.0000   -0.0000   -0.0000   -0.0000
      186 RE     7h2-      -0.0000   -0.0000   -0.0000   -0.0000
      187 RE     6h1-      -0.0000    0.0000    0.0000    0.0000
      188 RE     7h1-      -0.0000   -0.0000   -0.0000    0.0000
      189 RE     6h0        0.0000    0.0000   -0.0000   -0.0000
      190 RE     7h0        0.0000   -0.0000    0.0000   -0.0000
      191 RE     6h1+      -0.0000   -0.0000    0.0000    0.0000
      192 RE     7h1+       0.0000   -0.0000    0.0000   -0.0000
      193 RE     6h2+      -0.0000   -0.0000    0.0000    0.0000
      194 RE     7h2+      -0.0000    0.0000   -0.0000    0.0000
      195 RE     6h3+       0.0000   -0.0000    0.0000   -0.0000
      196 RE     7h3+      -0.0000   -0.0000    0.0000    0.0000
      197 RE     6h4+       0.0000    0.0000   -0.0000    0.0000
      198 RE     7h4+       0.0000   -0.0000    0.0000    0.0000
      199 RE     6h5+       0.0000   -0.0000    0.0000    0.0000
      200 RE     7h5+      -0.0000   -0.0000    0.0000   -0.0000
--


++    Molecular charges:
      ------------------

      Mulliken charges per centre and basis function type
      ---------------------------------------------------

                RE    
      1s       2.0000
      2s       2.0000
      2px      2.0000
      2pz      2.0000
      2py      2.0000
      3s       1.9812
      3px      1.9733
      3pz      1.9733
      3py      1.9733
      4s       0.0127
      3d2+     0.0000
      3d1+     0.0000
      3d0      0.0000
      3d1-     0.0000
      3d2-     0.0000
      4px      0.0166
      4pz      0.0166
      4py      0.0166
      5s       0.0011
      4d2+     0.0000
      4d1+     0.0000
      4d0      0.0000
      4d1-     0.0000
      4d2-     0.0000
      5px      0.0013
      5pz      0.0013
      5py      0.0013
      6s       0.0001
      4f3+     0.0000
      4f2+     0.0000
      4f1+     0.0000
      4f0      0.0000
      4f1-     0.0000
      4f2-     0.0000
      4f3-     0.0000
      5d2+     0.0000
      5d1+     0.0000
      5d0      0.0000
      5d1-     0.0000
      5d2-     0.0000
      6px      0.0003
      6pz      0.0003
      6py      0.0003
      7s       0.0002
      5f3+     0.0000
      5f2+     0.0000
      5f1+     0.0000
      5f0      0.0000
      5f1-     0.0000
      5f2-     0.0000
      5f3-     0.0000
      6d2+     0.0000
      6d1+     0.0000
      6d0      0.0000
      6d1-     0.0000
      6d2-     0.0000
      7px      0.0021
      7pz      0.0021
      7py      0.0021
      5g4+     0.0000
      5g3+     0.0000
      5g2+     0.0000
      5g1+     0.0000
      5g0      0.0000
      5g1-     0.0000
      5g2-     0.0000
      5g3-     0.0000
      5g4-     0.0000
      6f3+     0.0000
      6f2+     0.0000
      6f1+     0.0000
      6f0      0.0000
      6f1-     0.0000
      6f2-     0.0000
      6f3-     0.0000
      6g4+     0.0000
      6g3+     0.0000
      6g2+     0.0000
      6g1+     0.0000
      6g0      0.0000
      6g1-     0.0000
      6g2-     0.0000
      6g3-     0.0000
      6g4-     0.0000
      6h5+     0.0000
      6h4+     0.0000
      6h3+     0.0000
      6h2+     0.0000
      6h1+     0.0000
      6h0      0.0000
      6h1-     0.0000
      6h2-     0.0000
      6h3-     0.0000
      6h4-     0.0000
      6h5-     0.0000
      7d2+     0.0000
      7d1+     0.0000
      7d0      0.0000
      7d1-     0.0000
      7d2-     0.0000
      7f3+     0.0000
      7f2+     0.0000
      7f1+     0.0000
      7f0      0.0000
      7f1-     0.0000
      7f2-     0.0000
      7f3-     0.0000
      7g4+     0.0000
      7g3+     0.0000
      7g2+     0.0000
      7g1+     0.0000
      7g0      0.0000
      7g1-     0.0000
      7g2-     0.0000
      7g3-     0.0000
      7g4-     0.0000
      7h5+     0.0000
      7h4+     0.0000
      7h3+     0.0000
      7h2+     0.0000
      7h1+     0.0000
      7h0      0.0000
      7h1-     0.0000
      7h2-     0.0000
      7h3-     0.0000
      7h4-     0.0000
      7h5-     0.0000
      8s       0.0010
      8px      0.0020
      8pz      0.0020
      8py      0.0020
      8d2+     0.0000
      8d1+     0.0000
      8d0      0.0000
      8d1-     0.0000
      8d2-     0.0000
      8f3+     0.0000
      8f2+     0.0000
      8f1+     0.0000
      8f0      0.0000
      8f1-     0.0000
      8f2-     0.0000
      8f3-     0.0000
      8g4+     0.0000
      8g3+     0.0000
      8g2+     0.0000
      8g1+     0.0000
      8g0      0.0000
      8g1-     0.0000
      8g2-     0.0000
      8g3-     0.0000
      8g4-     0.0000
      9s       0.0014
      9px      0.0015
      9pz      0.0015
      9py      0.0015
      9d2+     0.0000
      9d1+     0.0000
      9d0      0.0000
      9d1-     0.0000
      9d2-     0.0000
      9f3+     0.0000
      9f2+     0.0000
      9f1+     0.0000
      9f0      0.0000
      9f1-     0.0000
      9f2-     0.0000
      9f3-     0.0000
     10s       0.0006
     10px      0.0015
     10pz      0.0015
     10py      0.0015
     10d2+     0.0000
     10d1+     0.0000
     10d0      0.0000
     10d1-     0.0000
     10d2-     0.0000
     10f3+     0.0000
     10f2+     0.0000
     10f1+     0.0000
     10f0      0.0000
     10f1-     0.0000
     10f2-     0.0000
     10f3-     0.0000
     11s       0.0017
     11px      0.0015
     11pz      0.0015
     11py      0.0015
     11d2+     0.0000
     11d1+     0.0000
     11d0      0.0000
     11d1-     0.0000
     11d2-     0.0000
     11f3+     0.0000
     11f2+     0.0000
     11f1+     0.0000
     11f0      0.0000
     11f1-     0.0000
     11f2-     0.0000
     11f3-     0.0000
      Total   18.0000

      N-E     57.0000

      Total electronic charge=   18.000000

      Total            charge=   57.000000
--

 Sorry, Molden does not know how to handle
 functions with angular momentum larger than g

++    Static properties:
      ------------------


      LoProp Charges per center


                   RE    
      Nuclear     75.0000
      Electronic -18.0000

      Total       57.0000
--


++    Molecular properties:
      ---------------------

      Charge (e):
                      =   57.0000
      Dipole Moment (Debye):
      Origin of the operator (Ang)=    0.0000    0.0000    0.0000
                   X= -9.2736E-03               Y= -5.1887E-13               Z=  1.2682E+00           Total=  1.2682E+00
      Center of Charge (Ang)
                     X=   -0.00003387               Y=   -0.00000000               Z=    0.00463217
      Quadrupole Moment (Debye*Ang):
      Origin of the operator (Ang)=   -0.0000   -0.0000    0.0046
                  XX= -1.5896E-01              XY= -8.8722E-17              XZ=  2.6779E-08              YY= -1.5896E-01
                  YZ=  1.4143E-16              ZZ= -1.5896E-01
      In traceless form (Debye*Ang)
                  XX=  8.9629E-06              XY= -1.3308E-16              XZ=  4.0169E-08              YY= -4.4811E-06
                  YZ=  2.1214E-16              ZZ= -4.4818E-06
--

 Sorry, Molden does not know how to handle
 functions with angular momentum larger than g
 ###############################################################################
 ###############################################################################
 ###                                                                         ###
 ###                                                                         ###
 ###    WARNING: RunFile label nBas                                          ###
 ###    was used       62 times                                              ###
 ###                                                                         ###
 ###                                                                         ###
 ###############################################################################
 ###############################################################################
Note: The following floating-point exceptions are signalling: IEEE_UNDERFLOW_FLAG IEEE_DENORMAL
--- Stop Module: scf at Tue Mar 25 13:59:58 2025 /rc=_RC_ALL_IS_WELL_ ---
*** files: rhenium_so_cf.LprOrb rhenium_so_cf.ScfOrb xmldump
    saved to directory /home4/s4752295/Internship/Initial_simulations/Point_charge_model/1_electron/Madelung_charges_9_active_space/Re
--- Module scf spent 8 seconds ---

*** symbolic link created: INPORB -> rhenium_so_cf.ScfOrb
--- Start Module: rasscf at Tue Mar 25 13:59:58 2025 ---

()()()()()()()()()()()()()()()()()()()()()()()()()()()()()()()()()()()()()()()()()()()()()()()()()()

                                              &RASSCF

                                   only a single process is used
                       available to each process: 4.1 GB of memory, 1 thread?
                                            pid: 2634555
()()()()()()()()()()()()()()()()()()()()()()()()()()()()()()()()()()()()()()()()()()()()()()()()()()


      Header of the ONEINT file:
      --------------------------
      
      Integrals generated by seward 4.2.0  , Tue Mar 25 13:59:32 2025


      OrdInt status: non-squared


      Cartesian coordinates in Angstrom:
      -----------------------------------------------------
      No.  Label        X            Y            Z        
      -----------------------------------------------------
       1   RE        -0.00000000  -0.00000000   0.00463220
      -----------------------------------------------------
      Nuclear repulsion energy = -686.17251983

++    Wave function specifications:
      -----------------------------

      Number of closed shell electrons          18
      Number of electrons in active shells       1
      Max number of holes in RAS1 space          0
      Max nr of electrons in RAS3 space          0
      Number of inactive orbitals                9
      Number of active orbitals                  9
      Number of secondary orbitals             182
      Spin quantum number                      0.5
      State symmetry                             1
--

++    Orbital specifications:
      -----------------------

      Symmetry species                           1
                                                 a
      Frozen orbitals                            0
      Inactive orbitals                          9
      Active orbitals                            9
      RAS1 orbitals                              0
      RAS2 orbitals                              9
      RAS3 orbitals                              0
      Secondary orbitals                       182
      Deleted orbitals                           0
      Number of basis functions                200
--

++    CI expansion specifications:
      ----------------------------

      Number of CSFs                             9
      Number of determinants                     9
      Number of root(s) required                 9
      Root chosen for geometry opt.              9
      CI roots used                              1     2     3     4     5     6     7     8     9
      weights                                0.111 0.111 0.111 0.111 0.111 0.111 0.111 0.111 0.111
      highest root included in the CI            9
      max. size of the explicit Hamiltonian      9
--

++    Optimization specifications:
      ----------------------------

      RASSCF algorithm: Conventional
      Maximum number of macro iterations       200
      Maximum number of SX iterations          100
      Threshold for RASSCF energy            0.100E-07
      Threshold for max MO rotation          0.100E+00
      Threshold for max BLB element          0.100E-03
      Level shift parameter                  0.500E+00
      Make Quasi-Newton update
--

      The MO-coefficients are taken from the file:
      INPORB                                                                                                                          
      Title: SCF orbitals                                                                  

      Total molecular charge   56.00

      ************************************************************************************************************************
      *                                                                                                                      *
      *                                            Wave function control section                                             *
[...]
     4             0.0000000381        0.0000010354              0.0084         2.1
     5             0.0015399845        0.0419051117            337.9875         2.1
     6             0.0015399845        0.0419051117            337.9875         2.1
     7             0.0015401468        0.0419095305            338.0232         2.1
     8             0.0015401468        0.0419095305            338.0232         2.1
     9             0.0020638896        0.0561612971            452.9714         2.1
    10             0.0020638896        0.0561612971            452.9714         2.1
    11            79.5232966340     2163.9391402616       17453346.2135         0.5
    12            79.5232966340     2163.9391402616       17453346.2135         0.5
    13            86.0046519654     2340.3058035830       18875839.2856         1.2
    14            86.0046519654     2340.3058035830       18875839.2856         1.2
    15            86.0046526923     2340.3058233624       18875839.4452         1.2
    16            86.0046526923     2340.3058233624       18875839.4452         1.2
    17            86.0188049542     2340.6909260268       18878945.5076         1.2
    18            86.0188049542     2340.6909260268       18878945.5076         1.2


 Weights of the five most important spin-orbit-free states for each spin-orbit state.

 SO State  Total energy (au)           Spin-free states, spin, and weights
 -------------------------------------------------------------------------------------------------------
    1         0.000000       1 0.5  1.0000    9 0.5  0.0000    8 0.5  0.0000    7 0.5  0.0000    6 0.5  0.0000
    2         0.000000       1 0.5  1.0000    9 0.5  0.0000    8 0.5  0.0000    7 0.5  0.0000    6 0.5  0.0000
    3         0.000000       2 0.5  1.0000    9 0.5  0.0000    8 0.5  0.0000    7 0.5  0.0000    6 0.5  0.0000
    4         0.000000       2 0.5  1.0000    9 0.5  0.0000    8 0.5  0.0000    7 0.5  0.0000    6 0.5  0.0000
    5         0.001540       3 0.5  1.0000    9 0.5  0.0000    8 0.5  0.0000    7 0.5  0.0000    6 0.5  0.0000
    6         0.001540       3 0.5  1.0000    9 0.5  0.0000    8 0.5  0.0000    7 0.5  0.0000    6 0.5  0.0000
    7         0.001540       4 0.5  1.0000    9 0.5  0.0000    8 0.5  0.0000    7 0.5  0.0000    6 0.5  0.0000
    8         0.001540       4 0.5  1.0000    9 0.5  0.0000    8 0.5  0.0000    7 0.5  0.0000    6 0.5  0.0000
    9         0.002064       5 0.5  1.0000    9 0.5  0.0000    8 0.5  0.0000    7 0.5  0.0000    6 0.5  0.0000
   10         0.002064       5 0.5  1.0000    9 0.5  0.0000    8 0.5  0.0000    7 0.5  0.0000    6 0.5  0.0000
   11        79.523297       6 0.5  1.0000    9 0.5  0.0000    8 0.5  0.0000    7 0.5  0.0000    5 0.5  0.0000
   12        79.523297       6 0.5  1.0000    9 0.5  0.0000    8 0.5  0.0000    7 0.5  0.0000    5 0.5  0.0000
   13        86.004652       7 0.5  1.0000    9 0.5  0.0000    8 0.5  0.0000    6 0.5  0.0000    5 0.5  0.0000
   14        86.004652       7 0.5  1.0000    9 0.5  0.0000    8 0.5  0.0000    6 0.5  0.0000    5 0.5  0.0000
   15        86.004653       8 0.5  1.0000    9 0.5  0.0000    7 0.5  0.0000    6 0.5  0.0000    5 0.5  0.0000
   16        86.004653       8 0.5  1.0000    9 0.5  0.0000    7 0.5  0.0000    6 0.5  0.0000    5 0.5  0.0000
   17        86.018805       9 0.5  1.0000    8 0.5  0.0000    7 0.5  0.0000    6 0.5  0.0000    5 0.5  0.0000
   18        86.018805       9 0.5  1.0000    8 0.5  0.0000    7 0.5  0.0000    6 0.5  0.0000    5 0.5  0.0000
 -------------------------------------------------------------------------------------------------------


      ****************************************************************************************************
      *                                                                                                  *
      *                                    Special properties section                                    *
      *                                                                                                  *
      ****************************************************************************************************


++ Dipole transition strengths (SO states):
   ----------------------------------------
    for osc. strength at least    1.0000000000000001E-005

      From   To        Osc. strength     Einstein coefficients Ax, Ay, Az (sec-1)    Total A (sec-1)
     -----------------------------------------------------------------------------------------------
         1   13       1.35533811E-02  1.53125690E-03  3.22107553E+12  1.75996443E+02  3.22107553E+12
         1   15       1.35534249E-02  4.80312062E+07  1.75991820E+02  3.22103797E+12  3.22108600E+12
         2   14       1.35533811E-02  1.53125690E-03  3.22107553E+12  1.75996443E+02  3.22107553E+12
         2   16       1.35534249E-02  4.80312062E+07  1.75991820E+02  3.22103797E+12  3.22108600E+12
         3   13       1.35534538E-02  6.46195620E+06  1.75994476E+02  3.22108634E+12  3.22109280E+12
         3   15       1.35533724E-02  1.15281458E-03  3.22107353E+12  1.75993982E+02  3.22107353E+12
         4   14       1.35534538E-02  6.46195620E+06  1.75994476E+02  3.22108634E+12  3.22109280E+12
         4   16       1.35533724E-02  1.15281458E-03  3.22107353E+12  1.75993982E+02  3.22107353E+12
         5   13       1.35389891E-02  3.21752894E+12  3.46164992E-05  1.09994497E+07  3.21753994E+12
         5   17       1.35523597E-02  2.96676810E+07  5.46325374E+00  3.22174789E+12  3.22177756E+12
         6   14       1.35389891E-02  3.21752894E+12  3.46164992E-05  1.09994497E+07  3.21753994E+12
         6   18       1.35523597E-02  2.96676810E+07  5.46325374E+00  3.22174789E+12  3.22177756E+12
         7   15       1.35389912E-02  3.21749301E+12  6.14945995E-05  4.74530789E+07  3.21754046E+12
         7   17       1.35523142E-02  5.50430502E-05  3.22176674E+12  5.46320747E+00  3.22176674E+12
         8   16       1.35389912E-02  3.21749301E+12  6.14945995E-05  4.74530789E+07  3.21754046E+12
         8   18       1.35523142E-02  5.50430502E-05  3.22176674E+12  5.46320747E+00  3.22176674E+12
         9   11       1.02849141E-05  2.08963801E+09  5.28325960E-11  2.49819487E+04  2.08966299E+09
         9   13       4.52265043E-03  1.28593948E+07  2.31988866E+01  1.07478164E+12  1.07479450E+12
         9   15       4.52270651E-03  2.69152071E-04  1.07480785E+12  2.32019133E+01  1.07480785E+12
         9   17       1.80389772E-02  4.28828664E+12  9.10131024E-08  3.40260356E+07  4.28832067E+12
        10   12       1.02849141E-05  2.08963801E+09  5.28325960E-11  2.49819487E+04  2.08966299E+09
        10   14       4.52265043E-03  1.28593948E+07  2.31988866E+01  1.07478164E+12  1.07479450E+12
        10   16       4.52270651E-03  2.69152071E-04  1.07480785E+12  2.32019133E+01  1.07480785E+12
        10   18       1.80389772E-02  4.28828664E+12  9.10131024E-08  3.40260356E+07  4.28832067E+12
        11   13       1.80707253E-01  1.16468078E+06  5.26485238E+00  2.43901543E+11  2.43902707E+11
        11   15       1.80707252E-01  2.49257381E-05  2.43902761E+11  5.26482983E+00  2.43902761E+11
        11   17       1.80563557E-01  2.44773100E+11  4.64913679E-10  1.16993228E+06  2.44774269E+11
        12   14       1.80707253E-01  1.16468078E+06  5.26485238E+00  2.43901543E+11  2.43902707E+11
        12   16       1.80707252E-01  2.49257381E-05  2.43902761E+11  5.26482983E+00  2.43902761E+11
        12   18       1.80563557E-01  2.44773100E+11  4.64913679E-10  1.16993228E+06  2.44774269E+11
     -----------------------------------------------------------------------------------------------
--

++ Velocity transition strengths (SO states):
   ------------------------------------------
    for osc. strength at least    1.0000000000000001E-005

      From   To        Osc. strength     Einstein coefficients Ax, Ay, Az (sec-1)    Total A (sec-1)
     -----------------------------------------------------------------------------------------------
         1    3       4.70959843E-05  3.19382944E-22  2.19097257E-09  1.45344167E-21  2.19097257E-09
         1    5       9.76416099E-05  2.24546763E-17  7.44009512E+00  1.55005537E-11  7.44009512E+00
         1    7       9.76293718E-05  6.35179520E-06  1.54781681E-11  7.44072520E+00  7.44073155E+00
         1   13       1.31769648E-02  1.48871864E-03  3.13162790E+12  1.71109134E+02  3.13162790E+12
         1   15       1.31770074E-02  4.66998142E+07  1.71104584E+02  3.13159140E+12  3.13163810E+12
         2    4       4.70959843E-05  3.19382944E-22  2.19097257E-09  1.45344167E-21  2.19097257E-09
         2    6       9.76416099E-05  2.24546763E-17  7.44009512E+00  1.55005537E-11  7.44009512E+00
         2    8       9.76293718E-05  6.35179520E-06  1.54781681E-11  7.44072520E+00  7.44073155E+00
         2   14       1.31769648E-02  1.48871864E-03  3.13162790E+12  1.71109134E+02  3.13162790E+12
         2   16       1.31770074E-02  4.66998142E+07  1.71104584E+02  3.13159140E+12  3.13163810E+12
         3    5       9.76431567E-05  6.02123319E-06  1.54878638E-11  7.43983928E+00  7.43984530E+00
         3    7       9.76302305E-05  3.84733540E-18  7.44042933E+00  1.54992458E-11  7.44042933E+00
         3   13       1.31770354E-02  6.28208228E+06  1.71107205E+02  3.13163840E+12  3.13164469E+12
         3   15       1.31769564E-02  1.12086569E-03  3.13162596E+12  1.71106722E+02  3.13162596E+12
         4    6       9.76431567E-05  6.02123319E-06  1.54878638E-11  7.43983928E+00  7.43984530E+00
         4    8       9.76302305E-05  3.84733540E-18  7.44042933E+00  1.54992458E-11  7.44042933E+00
         4   14       1.31770354E-02  6.28208228E+06  1.71107205E+02  3.13163840E+12  3.13164469E+12
         4   16       1.31769564E-02  1.12086569E-03  3.13162596E+12  1.71106722E+02  3.13162596E+12
         5    9       8.61399296E-04  6.31064967E-06  1.28795818E-11  7.59661939E+00  7.59662570E+00
         5   13       1.31629799E-02  3.12818155E+12  3.36313007E-05  1.06945518E+07  3.12819224E+12
         5   17       1.31758809E-02  2.88441248E+07  5.31150520E+00  3.13226001E+12  3.13228885E+12
         6   10       8.61399296E-04  6.31064967E-06  1.28795818E-11  7.59661939E+00  7.59662570E+00
         6   14       1.31629799E-02  3.12818155E+12  3.36313007E-05  1.06945518E+07  3.12819224E+12
         6   18       1.31758809E-02  2.88441248E+07  5.31150520E+00  3.13226001E+12  3.13228885E+12
         7    9       8.61664002E-04  1.16085228E-17  7.59425019E+00  1.28726769E-11  7.59425019E+00
         7   15       1.31629818E-02  3.12814659E+12  5.97490293E-05  4.61329402E+07  3.12819273E+12
         7   17       1.31758367E-02  5.34503844E-05  3.13227831E+12  5.31145994E+00  3.13227831E+12
         8   10       8.61664002E-04  1.16085228E-17  7.59425019E+00  1.28726769E-11  7.59425019E+00
         8   16       1.31629818E-02  3.12814659E+12  5.97490293E-05  4.61329402E+07  3.12819273E+12
         8   18       1.31758367E-02  5.34503844E-05  3.13227831E+12  5.31145994E+00  3.13227831E+12
         9   11       1.02318279E-05  2.07885945E+09  5.45591763E-11  2.48520918E+04  2.07888430E+09
         9   13       4.39693353E-03  1.25026353E+07  2.25541037E+01  1.04490938E+12  1.04492189E+12
         9   15       4.39698811E-03  2.61612098E-04  1.04493487E+12  2.25570488E+01  1.04493487E+12
         9   17       1.75380765E-02  4.16922533E+12  8.87479539E-08  3.30803666E+07  4.16925841E+12
        10   12       1.02318279E-05  2.07885945E+09  5.45591763E-11  2.48520918E+04  2.07888430E+09
        10   14       4.39693353E-03  1.25026353E+07  2.25541037E+01  1.04490938E+12  1.04492189E+12
        10   16       4.39698811E-03  2.61612098E-04  1.04493487E+12  2.25570488E+01  1.04493487E+12
        10   18       1.75380765E-02  4.16922533E+12  8.87479539E-08  3.30803666E+07  4.16925841E+12
        11   13       1.50580637E-01  9.70433375E+05  4.38713870E+00  2.03240195E+11  2.03241165E+11
        11   15       1.50580637E-01  2.07677546E-05  2.03241211E+11  4.38711792E+00  2.03241211E+11
        11   17       1.50465743E-01  2.03973022E+11  3.91000619E-10  9.75003347E+05  2.03973997E+11
        12   14       1.50580637E-01  9.70433375E+05  4.38713870E+00  2.03240195E+11  2.03241165E+11
        12   16       1.50580637E-01  2.07677546E-05  2.03241211E+11  4.38711792E+00  2.03241211E+11
        12   18       1.50465743E-01  2.03973022E+11  3.91000619E-10  9.75003347E+05  2.03973997E+11
        13   15       1.96516764E-05  3.17712708E-23  3.33606748E-07  8.13637951E-22  3.33606748E-07
        13   17       6.39984502E-04  3.75139301E-03  8.89095718E-08  4.11885278E+03  4.11885653E+03
        14   16       1.96516764E-05  3.17712708E-23  3.33606748E-07  8.13637951E-22  3.33606748E-07
        14   18       6.39984502E-04  3.75139301E-03  8.89095718E-08  4.11885278E+03  4.11885653E+03
        15   17       6.40016353E-04  7.75858121E-14  4.11863843E+03  8.89045986E-08  4.11863843E+03
        16   18       6.40016353E-04  7.75858121E-14  4.11863843E+03  8.89045986E-08  4.11863843E+03
     -----------------------------------------------------------------------------------------------
--

++ Length and velocity gauge comparison (SO states):

 --------------------------------------------------
 A comparison between the dipole oscillator strengths in 
 length and velocity gauge will be performed

 All dipole oscillator differences above the tolerance of   0.10000000000000001       will be printed 

 Due to basis set deficiency these oscillator may be problematic 

 The tolerance is defined as ABS(1-O_l/O_v) 
 O_l : dipole oscillator strength in length gauge
 O_p : dipole oscillator strength in velocity gauge
 --------------------------------------------------

  Problematic transitions have been found

      From   To       Difference (%) Osc. st. (len.) Osc. st. (vel.)
     ---------------------------------------------------------------
         1    3      --------------- below threshold  4.70959843E-05
         1    5      --------------- below threshold  9.76416099E-05
         1    7      --------------- below threshold  9.76293718E-05
         2    4      --------------- below threshold  4.70959843E-05
         2    6      --------------- below threshold  9.76416099E-05
         2    8      --------------- below threshold  9.76293718E-05
         3    5      --------------- below threshold  9.76431567E-05
         3    7      --------------- below threshold  9.76302305E-05
         4    6      --------------- below threshold  9.76431567E-05
         4    8      --------------- below threshold  9.76302305E-05
         5    9      --------------- below threshold  8.61399296E-04
         6   10      --------------- below threshold  8.61399296E-04
         7    9      --------------- below threshold  8.61664002E-04
         8   10      --------------- below threshold  8.61664002E-04
        11   13            20.006966  1.80707253E-01  1.50580637E-01
        11   15            20.006965  1.80707252E-01  1.50580637E-01
        11   17            20.003101  1.80563557E-01  1.50465743E-01
        12   14            20.006966  1.80707253E-01  1.50580637E-01
        12   16            20.006965  1.80707252E-01  1.50580637E-01
        12   18            20.003101  1.80563557E-01  1.50465743E-01
        13   15      --------------- below threshold  1.96516764E-05
        13   17      --------------- below threshold  6.39984502E-04
        14   16      --------------- below threshold  1.96516764E-05
        14   18      --------------- below threshold  6.39984502E-04
        15   17      --------------- below threshold  6.40016353E-04
        16   18      --------------- below threshold  6.40016353E-04
     ---------------------------------------------------------------

 Number of problematic transitions =                    26

--

 Electric-dipole - electric-octupole not included
++ Total transition strengths for the second-order expansion of the wave vector (SO states):
   -----------------------------------------------------------------------------------------
    for osc. strength at least    1.0000000000000001E-005

      From   To        Osc. strength
     -------------------------------
         1   11       6.07662205E-05
         2   12       6.07662205E-05
         3   11       6.07662177E-05
         4   12       6.07662177E-05
         5   11       6.07361498E-05
         6   12       6.07361498E-05
         7   11       6.07361385E-05
         8   12       6.07361385E-05
         9   11       6.07255583E-05
        10   12       6.07255583E-05
     -------------------------------
--

++ I/O STATISTICS
 
  I. General I/O information
  - - - - - - - - - - - - - - - - - - - - - - - - - - - - - - - - - - - - - - - - - - -
  Unit  Name          Flsize      Write/Read            MBytes           Write/Read
                      (MBytes)       Calls              In/Out           Time, sec.
  - - - - - - - - - - - - - - - - - - - - - - - - - - - - - - - - - - - - - - - - - - -
   1  SCRATCH           0.00 .       9/      45 .      0.0/      0.0 .       0/       0
   2  ANNI              0.00 .       0/       0 .      0.0/      0.0 .       0/       0
   3  RUNFILE          15.31 .     322/   10733 .      2.3/     77.8 .       0/       0
   4  ONEINT            6.58 .       0/   28767 .      0.0/   3777.9 .       0/       0
   5  JOBIPH            7.70 .       0/      92 .      0.0/      0.9 .       0/       0
   6  ORDINT          771.03 .       1/    6169 .      0.0/   1542.0 .       0/       0
  - - - - - - - - - - - - - - - - - - - - - - - - - - - - - - - - - - - - - - - - - - -
   *  TOTAL           800.62 .     332/   45806 .      2.3/   5398.7 .       0/       0
  - - - - - - - - - - - - - - - - - - - - - - - - - - - - - - - - - - - - - - - - - - -
 
  II. I/O Access Patterns
  - - - - - - - - - - - - - - - - - - - -
  Unit  Name               % of random
                         Write/Read calls
  - - - - - - - - - - - - - - - - - - - -
   1  SCRATCH             88.9/ 100.0
   2  ANNI                 0.0/   0.0
   3  RUNFILE             28.6/  10.8
   4  ONEINT               0.0/  13.4
   5  JOBIPH               0.0/  76.1
   6  ORDINT             100.0/   0.0
  - - - - - - - - - - - - - - - - - - - -
--
--- Stop Module: rassi at Tue Mar 25 14:00:40 2025 /rc=_RC_ALL_IS_WELL_ ---
*** files: xmldump
    saved to directory /home4/s4752295/Internship/Initial_simulations/Point_charge_model/1_electron/Madelung_charges_9_active_space/Re
--- Module rassi spent 3 seconds ---

.##################.
.# Happy landing! #.
.##################.

    Timing: Wall=68.50 User=57.62 System=9.86

###############################################################################
Hbrk Cluster
Job 15897023 for user s4752295
Finished at: Tue Mar 25 14:00:44 CET 2025

Job details:
============

Job ID                         : 15897023
Name                           : Re_no_SO
User                           : s4752295
Partition                      : regularmedium
Nodes                          : node101
Number of Nodes                : 1
Cores                          : 1
Number of Tasks                : 1
State                          : COMPLETED  
Submit                         : 2025-03-25T13:58:28
Start                          : 2025-03-25T13:59:27
End                            : 2025-03-25T14:00:40
Reserved walltime              : 15:00:00
Used walltime                  : 00:01:13
Used CPU time                  : 00:01:09 (Efficiency: 93.96%)
% User (Computation)           : 85.28%
% System (I/O)                 : 14.72%
Total memory reserved          : 25000M
Maximum memory used            : 3.07G

Acknowledgements:
=================

Please see this page for information about acknowledging Hbrk in your publications:

https://wiki.hpc.rug.nl/habrok/introduction/scientific_output

################################################################################
