   This run of MOLCAS is using the pymolcas driver

                             OPE
                             OPE          NMOL  CASOP  ENMOLC A   SO
                 OPE        NMOLC        AS  OP EN  MO LC     AS  OP
                OPENM       OL CA        SO  PE NM  OL CA     SOP EN
                OP EN      MO   LC       AS  OP ENMOL  CASO   PENMOL
                OP  EN     MO   LC       AS  OP EN     MO     LC ASO
               OP   E  NMOL  C  AS       OP  EN MO     LC     AS  OP
               OP  E   NMO   LC AS        OPEN  MO     LCASOP EN   M
               O  PEN   MO  LCA  SO
            OPE   NMO   L   CAS    OP
        OPENMOL  CASOP     ENMOL   CASOPE
     OPENMOLCA   SOPENMOLCASOPEN   MOLCASOPE
    OPENMOLCAS   OP           EN   MOL    CAS
    OPENMOLCAS       OP  ENM        O     LCA
    OPENMOLCAS    OPEN  MOLCASO     P  E  NMO
    OPENMOLCAS     OP               E  N  MOL
    OPENMOLCA   SO           PENM   O  L  CAS    OPEN    MO    LCAS
    OPENMOLCA   SOP           ENM   O  L  CAS   OP  EN  MOLC  AS   O
    OPENMOLCA   SOPE           NM      O  LCA   S      OP  EN MO
    OPENMOLC                AS         O  PEN   M      OL  CA  SOPE
    OPENMO        LCASOPE  NMOL        C  ASO   P      ENMOLC     AS
    OPE     NMO      LCA  SO     P     E   NM   OL  CA SO  PE N   MO
          OPENMOLCA            SOPE   NMO        LCAS  O    P  ENMO
     OPENMOLCASOPENMOLCASOPENMOLCASOPENMOLCA
        OPENMOLCASOPENMOLCASOPENMOLCASOPE
            OPENMOLCASOPENMOLCASOPENM
               OPENMOLCASOPENMOLCA        version: o91e1abe7de707b ?
                   OPENMOLCASO
                       OPE                tag:

 OpenMolcas is free software; you can redistribute it and/or modify it
 under the terms of the GNU Lesser General Public License version 2.1.
 OpenMolcas is distributed in the hope that it will be useful, but it
 is provided "as is" and without any express or implied warranties.
 For more details see the full text of the license in the file
 LICENSE or in <http://www.gnu.org/licenses/>.

                 Copyright (C) The OpenMolcas Authors
           For the author list and the recommended citation,
                   consult the file CONTRIBUTORS.md

           *************************************************
           * pymolcas version py2.10                       *
           *   build 3068ae8b88c9345ec6cfef6fef7f1169      *
           *   (after the EMIL interpreter by V. Veryazov) *
           *************************************************

configuration info
------------------
Host name: login1 (Linux)
C Compiler ID: GNU
C flags: -std=gnu99
Fortran Compiler ID: GNU
Fortran flags: -fno-aggressive-loop-optimizations -cpp -fdefault-integer-8 -fmax-stack-var-size=1048576
Definitions: _MOLCAS_;_I8_;_LINUX_;_MKL_
Parallel: OFF (GA=OFF)


   -----------------------------------------------------------------------------------------------------------------------------------
  |
  |           Project: rhenium_so_cf
  |    Submitted from: /home4/s4752295/Internship/Initial_simulations/Point_charge_model/1_electron/Madelung_charges_9_active_space/Re
  |      Scratch area: /tmp/rhenium_so_cf
  |   Save outputs to: /home4/s4752295/Internship/Initial_simulations/Point_charge_model/1_electron/Madelung_charges_9_active_space/Re
  |            Molcas: /home4/s4752295/Internship/Molcas/recomp_try/OpenMolcas-master/build
  |
  | Scratch area is empty
  |
  |    MOLCAS_DRIVER = /home4/s4752295/Internship/Molcas/bin/pymolcas
  |    MOLCAS_NPROCS = 1
  |    MOLCAS_SOURCE = /home4/s4752295/Internship/Molcas/recomp_try/OpenMolcas-master
  | MOLCAS_STRUCTURE = 0
  |
   -----------------------------------------------------------------------------------------------------------------------------------

++ ---------   Input file   ---------

&SEWARD
AMFi

CLIG
$R

Basis Set
Re.ano-rcc.Roos.24s21p15d11f4g2h.11s10p9d8f4g2h.
Spherical d
Re            -1.0658140267135469e-14   -3.5527134223784897e-15 0.008753588724385739
End of Basis

Xfield

414
-1.600880432,-0.6160000000000001,0.3556476      -0.625931
-1.600880432,-0.0,-0.7112956    -0.625931
-1.600880432,0.6160000000000001,0.3556476       -0.625931
-1.5981384280000002,0.0,0.0     1.892092
1.0636718760000001,-0.6160000000000001,-0.3556476       2.515516
1.0636718760000001,0.0,0.7112956        2.515516
1.0636718760000001,0.6160000000000001,-0.3556476        2.515516
1.425195312,-1.2320000000000002,0.0     0.004632
1.425195312,-0.6160000000000001,-1.0669432      0.004632
1.425195312,-0.6160000000000001,1.0669432       0.004632
1.425195312,0.6160000000000001,-1.0669432       0.004632
1.425195312,0.6160000000000001,1.0669432        0.004632
1.425195312,1.2320000000000002,0.0      0.004632
1.6516601560000002,-0.6160000000000001,0.3556476        -2.519484
1.6516601560000002,-0.0,-0.7112956      -2.519484
1.6516601560000002,0.6160000000000001,0.3556476 -2.519484
-1.1732421880000001,-0.0,-0.0   -3.142907
-1.9900390640000003,-1.2320000000000002,-0.7112956      -0.625931
-1.9900390640000003,0.0,1.4225908       -0.625931
-1.9900390640000003,1.2320000000000002,-0.7112956       -0.625931
-2.6437500000000003,-1.2320000000000002,0.0     1.892092
-2.6437500000000003,-0.6160000000000001,-1.0669432      1.892092
-2.6437500000000003,-0.6160000000000001,1.0669432       1.892092
-2.6437500000000003,0.6160000000000001,-1.0669432       1.892092
-2.6437500000000003,0.6160000000000001,1.0669432        1.892092
-2.6437500000000003,1.2320000000000002,0.0      1.892092
10.068750000000001,-1.2320000000000002,0.7112956        2.515516
10.068750000000001,-0.0,-1.4225908      2.515516
10.068750000000001,1.2320000000000002,0.7112956 2.515516
1.455468752,-1.2320000000000002,-0.7112956      -2.519484
1.455468752,0.0,1.4225908       -2.519484
1.455468752,1.2320000000000002,-0.7112956       -2.519484
-1.2929687520000002,-1.2320000000000002,-0.0    -3.142907
-1.2929687520000002,-0.6160000000000001,-1.0669432      -3.142907
-1.2929687520000002,-0.6160000000000001,1.0669432       -3.142907
-1.2929687520000002,0.6160000000000001,-1.0669432       -3.142907
-1.2929687520000002,0.6160000000000001,1.0669432        -3.142907
-1.2929687520000002,1.2320000000000002,-0.0     -3.142907
-3.809375,-1.2320000000000002,1.4225908 -0.625931
-3.809375,1.2320000000000002,1.4225908  -0.625931
-3.809375,-1.848,0.3556476      -0.625931
-3.809375,1.848,0.3556476       -0.625931
-3.809375,-0.6160000000000001,-1.7782388000000002       -0.625931
-3.809375,0.6160000000000001,-1.7782388000000002        -0.625931
2.403125,-0.6160000000000001,-0.3556476 4.409069
2.403125,0.6160000000000001,-0.3556476  4.409069
2.403125,0.0,0.7112956  4.409069
-70.10000000000001,-0.0,-0.0    -5.030367
-70.10000000000001,0.0,0.0      5.039632
5.407031248,-1.2320000000000002,-1.4225908      2.515516
5.407031248,1.2320000000000002,-1.4225908       2.515516
5.407031248,-1.848,-0.3556476   2.515516
5.407031248,1.848,-0.3556476    2.515516
5.407031248,-0.6160000000000001,1.7782388000000002      2.515516
5.407031248,0.6160000000000001,1.7782388000000002       2.515516
7.6156250000000005,-1.848,-1.0669432    0.004632
7.6156250000000005,-1.848,1.0669432     0.004632
7.6156250000000005,1.848,-1.0669432     0.004632
7.6156250000000005,1.848,1.0669432      0.004632
7.6156250000000005,-0.0,-2.1338864      0.004632
7.6156250000000005,0.0,2.1338864        0.004632
19.231250000000003,-1.2320000000000002,1.4225908        -2.519484
19.231250000000003,1.2320000000000002,1.4225908 -2.519484
19.231250000000003,-1.848,0.3556476     -2.519484
19.231250000000003,1.848,0.3556476      -2.519484
19.231250000000003,-0.6160000000000001,-1.7782388000000002      -2.519484
19.231250000000003,0.6160000000000001,-1.7782388000000002       -2.519484
-58.35,-1.848,-1.0669432        1.892092
-58.35,-1.848,1.0669432 1.892092
-58.35,1.848,-1.0669432 1.892092
-58.35,1.848,1.0669432  1.892092
-58.35,-0.0,-2.1338864  1.892092
-58.35,0.0,2.1338864    1.892092
-47.1,-1.2320000000000002,0.7112956     4.409069
-47.1,-0.0,-1.4225908   4.409069
-47.1,1.2320000000000002,0.7112956      4.409069
-35.6,-1.2320000000000002,-0.0  -5.030367
-35.6,-0.6160000000000001,-1.0669432    -5.030367
-35.6,-0.6160000000000001,1.0669432     -5.030367
-35.6,0.6160000000000001,-1.0669432     -5.030367
-35.6,-1.2320000000000002,0.0   5.039632
-35.6,1.2320000000000002,-0.0   -5.030367
-35.6,0.6160000000000001,1.0669432      -5.030367
-35.6,-0.6160000000000001,-1.0669432    5.039632
-35.6,-0.6160000000000001,1.0669432     5.039632
-35.6,0.6160000000000001,-1.0669432     5.039632
-35.6,1.2320000000000002,0.0    5.039632
-35.6,0.6160000000000001,1.0669432      5.039632
-18.650000000000002,-0.6160000000000001,-0.3556476      -5.660931
-18.650000000000002,0.0,0.7112956       -5.660931
-18.650000000000002,0.6160000000000001,-0.3556476       -5.660931
0.353125,-2.4639996,0.0 0.004632
0.353125,-1.2320000000000002,-2.1338864 0.004632
0.353125,-1.2320000000000002,2.1338864  0.004632
0.353125,1.2320000000000002,-2.1338864  0.004632
0.353125,2.4639996,0.0  0.004632
0.353125,1.2320000000000002,2.1338864   0.004632
27.175,-1.848,1.0669432 -3.142907
27.175,-1.848,-1.0669432        -3.142907
27.175,1.848,-1.0669432 -3.142907
27.175,1.848,1.0669432  -3.142907
27.175,-0.0,-2.1338864  -3.142907
27.175,0.0,2.1338864    -3.142907
34.550000000000004,-2.4639996,-0.7112956        -0.625931
34.550000000000004,-1.848,-1.7782388000000002   -0.625931
34.550000000000004,-0.6160000000000001,2.4895340000000004       -0.625931
34.550000000000004,1.848,-1.7782388000000002    -0.625931
34.550000000000004,2.4639996,-0.7112956 -0.625931
34.550000000000004,0.6160000000000001,2.4895340000000004        -0.625931
0.47890624800000003,-2.4639996,0.0      1.892092
0.47890624800000003,-1.2320000000000002,-2.1338864      1.892092
0.47890624800000003,-1.2320000000000002,2.1338864       1.892092
0.47890624800000003,1.2320000000000002,-2.1338864       1.892092
0.47890624800000003,2.4639996,0.0       1.892092
0.47890624800000003,1.2320000000000002,2.1338864        1.892092
13.537500000000001,-1.2320000000000002,-1.4225908       4.409069
13.537500000000001,1.2320000000000002,-1.4225908        4.409069
13.537500000000001,-1.848,-0.3556476    4.409069
13.537500000000001,1.848,-0.3556476     4.409069
13.537500000000001,-0.6160000000000001,1.7782388000000002       4.409069
13.537500000000001,0.6160000000000001,1.7782388000000002        4.409069
64.9625,-1.2320000000000002,0.7112956   -5.660931
64.9625,-0.0,-1.4225908 -5.660931
64.9625,1.2320000000000002,0.7112956    -5.660931
0.1375,-2.4639996,0.7112956     2.515516
0.1375,-0.6160000000000001,-2.4895340000000004  2.515516
0.1375,-1.848,1.7782388000000002        2.515516
0.1375,0.6160000000000001,-2.4895340000000004   2.515516
0.1375,2.4639996,0.7112956      2.515516
0.1375,1.848,1.7782388000000002 2.515516
-37.675000000000004,-2.4639996,-0.7112956       -2.519484
-37.675000000000004,-1.848,-1.7782388000000002  -2.519484
-37.675000000000004,-0.6160000000000001,2.4895340000000004      -2.519484
-37.675000000000004,1.848,-1.7782388000000002   -2.519484
-37.675000000000004,0.6160000000000001,2.4895340000000004       -2.519484
-37.675000000000004,2.4639996,-0.7112956        -2.519484
-8.828125,-2.4639996,-0.0       -3.142907
-8.828125,-1.2320000000000002,-2.1338864        -3.142907
-8.828125,-1.2320000000000002,2.1338864 -3.142907
-8.828125,1.2320000000000002,-2.1338864 -3.142907
-8.828125,1.2320000000000002,2.1338864  -3.142907
-8.828125,2.4639996,-0.0        -3.142907
242.60000000000002,0.0,0.0      6.927092
129.3,-2.4639996,1.4225908      -0.625931
129.3,2.4639996,1.4225908       -0.625931
129.3,-0.0,-2.8451820000000003  -0.625931
-2.16875,-1.848,1.0669432       -5.030367
-2.16875,-1.848,-1.0669432      -5.030367
-2.16875,-1.848,1.0669432       5.039632
-2.16875,-1.848,-1.0669432      5.039632
-2.16875,1.848,-1.0669432       -5.030367
-2.16875,1.848,1.0669432        -5.030367
-2.16875,1.848,-1.0669432       5.039632
-2.16875,1.848,1.0669432        5.039632
-2.16875,-0.0,-2.1338864        -5.030367
-2.16875,0.0,2.1338864  -5.030367
-2.16875,-0.0,-2.1338864        5.039632
-2.16875,0.0,2.1338864  5.039632
36.725,-1.2320000000000002,-1.4225908   -5.660931
36.725,1.2320000000000002,-1.4225908    -5.660931
36.725,-1.848,-0.3556476        -5.660931
36.725,1.848,-0.3556476 -5.660931
36.725,-0.6160000000000001,1.7782388000000002   -5.660931
36.725,0.6160000000000001,1.7782388000000002    -5.660931
120.2,-2.4639996,-1.4225908     2.515516
120.2,2.4639996,-1.4225908      2.515516
120.2,0.0,2.8451820000000003    2.515516
-206.9,-2.4639996,1.4225908     -2.519484
-206.9,2.4639996,1.4225908      -2.519484
-206.9,-0.0,-2.8451820000000003 -2.519484
21.425,-1.2320000000000002,0.0  6.927092
21.425,-0.6160000000000001,-1.0669432   6.927092
21.425,-0.6160000000000001,1.0669432    6.927092
21.425,0.6160000000000001,-1.0669432    6.927092
21.425,0.6160000000000001,1.0669432     6.927092
21.425,1.2320000000000002,0.0   6.927092
-22.1,-0.6160000000000001,0.3556476     7.550516
-22.1,0.0,-0.7112956    7.550516
-22.1,0.6160000000000001,0.3556476      7.550516
6.2125,-0.6160000000000001,-0.3556476   -7.554483
6.2125,0.6160000000000001,-0.3556476    -7.554483
6.2125,-0.0,0.7112956   -7.554483
-49.95,-3.0799996000000003,0.3556476    -0.625931
-49.95,-1.848,2.4895340000000004        -0.625931
-49.95,-1.2320000000000002,-2.8451820000000003  -0.625931
-49.95,1.2320000000000002,-2.8451820000000003   -0.625931
-49.95,3.0799996000000003,0.3556476     -0.625931
-49.95,1.848,2.4895340000000004 -0.625931
-26.975,-2.4639996,0.7112956    4.409069
-26.975,-1.848,1.7782388000000002       4.409069
-26.975,-0.6160000000000001,-2.4895340000000004 4.409069
-26.975,0.6160000000000001,-2.4895340000000004  4.409069
-26.975,1.848,1.7782388000000002        4.409069
-26.975,2.4639996,0.7112956     4.409069
19.6625,-2.4639996,-0.0 -5.030367
19.6625,-1.2320000000000002,-2.1338864  -5.030367
19.6625,-1.2320000000000002,2.1338864   -5.030367
19.6625,-2.4639996,0.0  5.039632
19.6625,-1.2320000000000002,-2.1338864  5.039632
19.6625,1.2320000000000002,-2.1338864   -5.030367
19.6625,1.2320000000000002,2.1338864    -5.030367
19.6625,2.4639996,-0.0  -5.030367
19.6625,-1.2320000000000002,2.1338864   5.039632
19.6625,1.2320000000000002,-2.1338864   5.039632
19.6625,2.4639996,0.0   5.039632
19.6625,1.2320000000000002,2.1338864    5.039632
72.3,-3.0799996000000003,-0.3556476     2.515516
72.3,-1.848,-2.4895340000000004 2.515516
72.3,-1.2320000000000002,2.8451820000000003     2.515516
72.3,1.848,-2.4895340000000004  2.515516
72.3,3.0799996000000003,-0.3556476      2.515516
72.3,1.2320000000000002,2.8451820000000003      2.515516
-9.3375,-3.0799996000000003,-1.0669432  0.004632
-9.3375,-3.0799996000000003,1.0669432   0.004632
-9.3375,-2.4639996,-2.1338864   0.004632
-9.3375,-2.4639996,2.1338864    0.004632
-9.3375,-0.6160000000000001,-3.2008296000000005 0.004632
-9.3375,0.6160000000000001,-3.2008296000000005  0.004632
-9.3375,-0.6160000000000001,3.2008296000000005  0.004632
-9.3375,2.4639996,-2.1338864    0.004632
-9.3375,0.6160000000000001,3.2008296000000005   0.004632
-9.3375,3.0799996000000003,-1.0669432   0.004632
-9.3375,3.0799996000000003,1.0669432    0.004632
-9.3375,2.4639996,2.1338864     0.004632
-57.25,-3.0799996000000003,0.3556476    -2.519484
-57.25,-1.848,2.4895340000000004        -2.519484
-57.25,-1.2320000000000002,-2.8451820000000003  -2.519484
-57.25,1.2320000000000002,-2.8451820000000003   -2.519484
-57.25,3.0799996000000003,0.3556476     -2.519484
-57.25,1.848,2.4895340000000004 -2.519484
1212.8,-0.0,-0.0        -8.177907
-46.400000000000006,-1.2320000000000002,-0.7112956      7.550516
-46.400000000000006,0.0,1.4225908       7.550516
-46.400000000000006,1.2320000000000002,-0.7112956       7.550516
-241.4,-1.2320000000000002,0.7112956    -7.554483
-241.4,-0.0,-1.4225908  -7.554483
-241.4,1.2320000000000002,0.7112956     -7.554483
19.5625,-3.0799996000000003,1.0669432   1.892092
19.5625,-3.0799996000000003,-1.0669432  1.892092
19.5625,-2.4639996,-2.1338864   1.892092
19.5625,-2.4639996,2.1338864    1.892092
19.5625,-0.6160000000000001,-3.2008296000000005 1.892092
19.5625,0.6160000000000001,-3.2008296000000005  1.892092
19.5625,-0.6160000000000001,3.2008296000000005  1.892092
19.5625,2.4639996,-2.1338864    1.892092
19.5625,0.6160000000000001,3.2008296000000005   1.892092
19.5625,3.0799996000000003,-1.0669432   1.892092
19.5625,3.0799996000000003,1.0669432    1.892092
19.5625,2.4639996,2.1338864     1.892092
-202.0,-2.4639996,-1.4225908    4.409069
-202.0,2.4639996,-1.4225908     4.409069
-202.0,0.0,2.8451820000000003   4.409069
10.328125,-2.4639996,0.7112956  -5.660931
10.328125,-0.6160000000000001,-2.4895340000000004       -5.660931
10.328125,-1.848,1.7782388000000002     -5.660931
10.328125,0.6160000000000001,-2.4895340000000004        -5.660931
10.328125,1.848,1.7782388000000002      -5.660931
10.328125,2.4639996,0.7112956   -5.660931
-23.275000000000002,-2.4639996,-2.1338864       -3.142907
-23.275000000000002,-3.0799996000000003,1.0669432       -3.142907
-23.275000000000002,-3.0799996000000003,-1.0669432      -3.142907
-23.275000000000002,-2.4639996,2.1338864        -3.142907
-23.275000000000002,-0.6160000000000001,-3.2008296000000005     -3.142907
-23.275000000000002,0.6160000000000001,-3.2008296000000005      -3.142907
-23.275000000000002,-0.6160000000000001,3.2008296000000005      -3.142907
-23.275000000000002,3.0799996000000003,-1.0669432       -3.142907
-23.275000000000002,2.4639996,-2.1338864        -3.142907
-23.275000000000002,0.6160000000000001,3.2008296000000005       -3.142907
-23.275000000000002,3.0799996000000003,1.0669432        -3.142907
-23.275000000000002,2.4639996,2.1338864 -3.142907
26.1625,-1.848,-1.0669432       6.927092
26.1625,-1.848,1.0669432        6.927092
26.1625,1.848,-1.0669432        6.927092
26.1625,1.848,1.0669432 6.927092
26.1625,-0.0,-2.1338864 6.927092
26.1625,0.0,2.1338864   6.927092
-33.300000000000004,-1.2320000000000002,-0.0    -8.177907
-33.300000000000004,-0.6160000000000001,1.0669432       -8.177907
-33.300000000000004,-0.6160000000000001,-1.0669432      -8.177907
-33.300000000000004,0.6160000000000001,-1.0669432       -8.177907
-33.300000000000004,1.2320000000000002,-0.0     -8.177907
-33.300000000000004,0.6160000000000001,1.0669432        -8.177907
-36.362500000000004,-1.2320000000000002,1.4225908       7.550516
-36.362500000000004,1.2320000000000002,1.4225908        7.550516
-36.362500000000004,-1.848,0.3556476    7.550516
-36.362500000000004,1.848,0.3556476     7.550516
-36.362500000000004,-0.6160000000000001,-1.7782388000000002     7.550516
-36.362500000000004,0.6160000000000001,-1.7782388000000002      7.550516
-18.275000000000002,-1.2320000000000002,-1.4225908      -7.554483
-18.275000000000002,1.2320000000000002,-1.4225908       -7.554483
-18.275000000000002,-1.848,-0.3556476   -7.554483
-18.275000000000002,1.848,-0.3556476    -7.554483
-18.275000000000002,-0.6160000000000001,1.7782388000000002      -7.554483
-18.275000000000002,0.6160000000000001,1.7782388000000002       -7.554483
-200.10000000000002,0.0,3.5564772       -0.625931
-200.10000000000002,-3.0799996000000003,-1.7782388000000002     -0.625931
-200.10000000000002,3.0799996000000003,-1.7782388000000002      -0.625931
-107.9,-3.0799996000000003,-0.3556476   4.409069
-107.9,-1.848,-2.4895340000000004       4.409069
-107.9,-1.2320000000000002,2.8451820000000003   4.409069
-107.9,1.848,-2.4895340000000004        4.409069
-107.9,3.0799996000000003,-0.3556476    4.409069
-107.9,1.2320000000000002,2.8451820000000003    4.409069
124.15,-2.4639996,-1.4225908    -5.660931
124.15,2.4639996,-1.4225908     -5.660931
124.15,0.0,2.8451820000000003   -5.660931
234.8,-0.0,-3.5564772   2.515516
234.8,-3.0799996000000003,1.7782388000000002    2.515516
234.8,3.0799996000000003,1.7782388000000002     2.515516
-37.550000000000004,-3.6959996,-0.0     0.004632
-37.550000000000004,1.848,-3.2008296000000005   0.004632
-37.550000000000004,-1.848,3.2008296000000005   0.004632
-37.550000000000004,3.6959996,-0.0      0.004632
-37.550000000000004,-1.848,-3.2008296000000005  0.004632
-37.550000000000004,1.848,3.2008296000000005    0.004632
-154.3,0.0,3.5564772    -2.519484
-154.3,-3.0799996000000003,-1.7782388000000002  -2.519484
-154.3,3.0799996000000003,-1.7782388000000002   -2.519484
91.2,-2.4639996,0.0     6.927092
91.2,-1.2320000000000002,-2.1338864     6.927092
91.2,-1.2320000000000002,2.1338864      6.927092
91.2,1.2320000000000002,-2.1338864      6.927092
91.2,2.4639996,0.0      6.927092
91.2,1.2320000000000002,2.1338864       6.927092
84.75,-3.6959996,-0.7112956     -0.625931
84.75,-1.2320000000000002,3.5564772     -0.625931
84.75,-2.4639996,-2.8451820000000003    -0.625931
84.75,2.4639996,-2.8451820000000003     -0.625931
84.75,1.2320000000000002,3.5564772      -0.625931
84.75,3.6959996,-0.7112956      -0.625931
44.775000000000006,-3.6959996,0.0       1.892092
44.775000000000006,-1.848,-3.2008296000000005   1.892092
44.775000000000006,-1.848,3.2008296000000005    1.892092
44.775000000000006,1.848,-3.2008296000000005    1.892092
44.775000000000006,3.6959996,0.0        1.892092
44.775000000000006,1.848,3.2008296000000005     1.892092
-1.7281250000000001,-3.0799996000000003,1.0669432       -5.030367
-1.7281250000000001,-3.0799996000000003,-1.0669432      -5.030367
-1.7281250000000001,-2.4639996,-2.1338864       -5.030367
-1.7281250000000001,-2.4639996,2.1338864        -5.030367
-1.7281250000000001,-3.0799996000000003,1.0669432       5.039632
-1.7281250000000001,0.6160000000000001,-3.2008296000000005      -5.030367
-1.7281250000000001,-0.6160000000000001,-3.2008296000000005     -5.030367
-1.7281250000000001,-3.0799996000000003,-1.0669432      5.039632
-1.7281250000000001,-2.4639996,-2.1338864       5.039632
-1.7281250000000001,-0.6160000000000001,3.2008296000000005      -5.030367
-1.7281250000000001,0.6160000000000001,-3.2008296000000005      5.039632
-1.7281250000000001,-2.4639996,2.1338864        5.039632
-1.7281250000000001,-0.6160000000000001,-3.2008296000000005     5.039632
-1.7281250000000001,2.4639996,-2.1338864        -5.030367
-1.7281250000000001,0.6160000000000001,3.2008296000000005       -5.030367
-1.7281250000000001,3.0799996000000003,-1.0669432       -5.030367
-1.7281250000000001,3.0799996000000003,1.0669432        -5.030367
-1.7281250000000001,2.4639996,2.1338864 -5.030367
-1.7281250000000001,-0.6160000000000001,3.2008296000000005      5.039632
-1.7281250000000001,2.4639996,-2.1338864        5.039632
-1.7281250000000001,3.0799996000000003,-1.0669432       5.039632
-1.7281250000000001,0.6160000000000001,3.2008296000000005       5.039632
-1.7281250000000001,3.0799996000000003,1.0669432        5.039632
-1.7281250000000001,2.4639996,2.1338864 5.039632
-0.275,-3.0799996000000003,-0.3556476   -5.660931
-0.275,-1.848,-2.4895340000000004       -5.660931
-0.275,-1.2320000000000002,2.8451820000000003   -5.660931
-0.275,1.848,-2.4895340000000004        -5.660931
-0.275,1.2320000000000002,2.8451820000000003    -5.660931
-0.275,3.0799996000000003,-0.3556476    -5.660931
46.400000000000006,-0.6160000000000001,0.3556476        9.444068
46.400000000000006,0.0,-0.7112956       9.444068
46.400000000000006,0.6160000000000001,0.3556476 9.444068
20.525000000000002,-3.6959996,0.7112956 2.515516
20.525000000000002,-1.2320000000000002,-3.5564772       2.515516
20.525000000000002,1.2320000000000002,-3.5564772        2.515516
20.525000000000002,-2.4639996,2.8451820000000003        2.515516
20.525000000000002,3.6959996,0.7112956  2.515516
20.525000000000002,2.4639996,2.8451820000000003 2.515516
62.75,-3.6959996,-0.7112956     -2.519484
62.75,-1.2320000000000002,3.5564772     -2.519484
62.75,-2.4639996,-2.8451820000000003    -2.519484
62.75,2.4639996,-2.8451820000000003     -2.519484
62.75,3.6959996,-0.7112956      -2.519484
62.75,1.2320000000000002,3.5564772      -2.519484
87.85000000000001,-3.6959996,-0.0       -3.142907
87.85000000000001,-1.848,-3.2008296000000005    -3.142907
87.85000000000001,-1.848,3.2008296000000005     -3.142907
87.85000000000001,1.848,-3.2008296000000005     -3.142907
87.85000000000001,3.6959996,-0.0        -3.142907
87.85000000000001,1.848,3.2008296000000005      -3.142907
3.458203124,-1.848,-1.0669432   -8.177907
3.458203124,-1.848,1.0669432    -8.177907
3.458203124,1.848,1.0669432     -8.177907
3.458203124,1.848,-1.0669432    -8.177907
3.458203124,-0.0,-2.1338864     -8.177907
3.458203124,0.0,2.1338864       -8.177907
100.75,-1.848,-1.7782388000000002       7.550516
100.75,-2.4639996,-0.7112956    7.550516
100.75,-0.6160000000000001,2.4895340000000004   7.550516
100.75,1.848,-1.7782388000000002        7.550516
100.75,0.6160000000000001,2.4895340000000004    7.550516
100.75,2.4639996,-0.7112956     7.550516
-139.20000000000002,-1.848,1.7782388000000002   -7.554483
-139.20000000000002,-2.4639996,0.7112956        -7.554483
-139.20000000000002,-0.6160000000000001,-2.4895340000000004     -7.554483
-139.20000000000002,0.6160000000000001,-2.4895340000000004      -7.554483
-139.20000000000002,2.4639996,0.7112956 -7.554483
-139.20000000000002,1.848,1.7782388000000002    -7.554483
28.50625,-3.0799996000000003,2.4895340000000004 -0.625931
28.50625,-3.6959996,1.4225908   -0.625931
28.50625,-0.6160000000000001,-3.9121252 -0.625931
28.50625,0.6160000000000001,-3.9121252  -0.625931
28.50625,3.6959996,1.4225908    -0.625931
28.50625,3.0799996000000003,2.4895340000000004  -0.625931
-193.5,-0.0,-3.5564772  4.409069
-193.5,-3.0799996000000003,1.7782388000000002   4.409069
-193.5,3.0799996000000003,1.7782388000000002    4.409069

End of input

&SCF
Occupied
9
Iterations
   50  100
End of Input

&RASSCF
LumOrb
Symmetry
1
Spin
2
Nactel
1 0 0
CIRoot
9 9 1
inactive
9
ras2
9
End of Input

>>> COPY rhenium_so_cf.JobIph $SLURM_SUBMIT_DIR/rhenium_so_cf.doublet.JobIph

>>> COPY $SLURM_SUBMIT_DIR/rhenium_so_cf.doublet.JobIph ./JOB002

&RASSI
NROFJobIph
1 All
SpinOrbit
End of Input

EOF

-- ----------------------------------

--- Start Module: seward at Tue Mar 25 17:59:09 2025 ---

()()()()()()()()()()()()()()()()()()()()()()()()()()()()()()()()()()()()()()()()()()()()()()()()()()

                                              &SEWARD

                                   only a single process is used
                       available to each process: 4.1 GB of memory, 1 thread?
                                            pid: 814168
()()()()()()()()()()()()()()()()()()()()()()()()()()()()()()()()()()()()()()()()()()()()()()()()()()

 The speed of LIGHT in this CALCULATION =   137.03599917700001     
               SEWARD will generate:
                  Multipole Moment integrals up to order  2
                  Kinetic Energy integrals
                  Nuclear Attraction integrals (point charge)
                  One-Electron Hamiltonian integrals
                  Velocity integrals
                  Relativistic Douglas-Kroll-Hess integrals:
                    - Parametrization         : EXP
                    - DKH order of Hamiltonian: 2
                    - DKH order of Properties : 0
                         - multipole moment operators
                         - electric potential operators
                         - contact operators
                  External field from   414 point(s) added to the one-electron Hamiltonian
                  Orbital angular momentum around (-0.0000 -0.0000  0.0088 )
                  Velocity quadrupole around (-0.0000 -0.0000  0.0088 )
                  Atomic mean-field integrals
                  Two-Electron Repulsion integrals

                   Integrals are discarded if absolute value <: 0.10E-13
                   Integral cutoff threshold is set to       <: 0.10E-15

++    Symmetry information:
      ---------------------

                    Character Table for C1 

                             E  
                    a        1  x, y, xy, Rz, z, xz, Ry, yz, Rx, I
--


++    Basis set information:
      ----------------------


      Basis set label: RE.ANO-RCC.ROOS.24S21P15D11F4G2H.11S10P9D8F4G2H......

      Electronic valence basis set:
      ------------------
      Associated Effective Charge  75.000000 au
      Associated Actual Charge     75.000000 au
      Nuclear Model: Point charge

      Shell  nPrim  nBasis  Cartesian Spherical Contaminant
         s      24      11        X                  
         p      21      10        X                  
         d      15       9                 X         
         f      11       8                 X         
         g       4       4                 X         
         h       2       2                 X         
--


++    Molecular structure info:
      -------------------------

                    ************************************************ 
                    **** Cartesian Coordinates / Bohr, Angstrom **** 
                    ************************************************ 

     Center  Label                x              y              z                     x              y              z
        1      RE              -0.000000      -0.000000       0.008754             -0.000000      -0.000000       0.004632
--


++    Operator info:
      --------------


  Net charge from external field:   -39.268449999999902     
--


            Nuclear Potential Energy              0.00000000 au

                    Nuclear-External Field Potential Energy   -1715.42716175 au
                    External Field Potential Energy            4014.09225346 au 


            Total Nuclear Potential Energy          -1715.42716175 au


      Basis set specifications :
      Symmetry species         a  
      Basis functions          200

 Sorry, Molden does not know how to handle
 functions with angular momentum larger than g
Note: The following floating-point exceptions are signalling: IEEE_UNDERFLOW_FLAG IEEE_DENORMAL
--- Stop Module: seward at Tue Mar 25 17:59:34 2025 /rc=_RC_ALL_IS_WELL_ ---
*** files: rhenium_so_cf.GssOrb xmldump
    saved to directory /home4/s4752295/Internship/Initial_simulations/Point_charge_model/1_electron/Madelung_charges_9_active_space/Re
--- Module seward spent 24 seconds ---

*** symbolic link created: INPORB -> rhenium_so_cf.GssOrb
--- Start Module: scf at Tue Mar 25 17:59:34 2025 ---

()()()()()()()()()()()()()()()()()()()()()()()()()()()()()()()()()()()()()()()()()()()()()()()()()()

                                                &SCF

                                   only a single process is used
                       available to each process: 4.1 GB of memory, 1 thread?
                                            pid: 814176
()()()()()()()()()()()()()()()()()()()()()()()()()()()()()()()()()()()()()()()()()()()()()()()()()()

++    Input section:
      --------------

      Header of the integral files:
      
       Integrals generated by seward 4.2.0  , Tue Mar 25 17:59:10 2025


      Cartesian coordinates in Angstrom:
      -----------------------------------------------------
      No.  Label        X            Y            Z        
      -----------------------------------------------------
       1   RE        -0.00000000  -0.00000000   0.00463220
      -----------------------------------------------------
      Nuclear repulsion energy =-1715.42716175
--

++    Orbital specifications:
      -----------------------

      Symmetry species               1
                                     a
      Frozen orbitals                0
      Occupied orbitals              9
      Secondary orbitals           191
      Deleted orbitals               0
      Total number of orbitals     200
      Number of basis functions    200
--

      Molecular charge                          57.000

++    Optimization specifications:
      ----------------------------

      SCF Algorithm: Conventional
      Minimized density differences are used
      Number of density matrices in core                5
      Maximum number of NDDO SCF iterations            50
      Maximum number of HF SCF iterations             100
      Threshold for SCF energy change            0.10E-08
      Threshold for density matrix               0.10E-03
      Threshold for Fock matrix                  0.15E-03
      Threshold for linear dependence            0.10E-08
      Threshold at which DIIS is turned on       0.15E+00
      Threshold at which QNR/C2DIIS is turned on 0.75E-01
      Threshold for Norm(delta) (QNR/C2DIIS)     0.20E-04
      DIIS extrapolation of the SCF procedure
      All orbitals punched on: SCFORB
--

      Detected guessorb starting orbitals                                             


++ Convergence information
                                   SCF        iterations: Energy and convergence statistics

Iter     Tot. SCF        One-elec.       Two-elec.     Energy      Max Dij or  Max Fij      DNorm      TNorm      AccCon     Time
         Energy          Energy          Energy        Change      Delta Norm                                                in Sec.

 The total and one-electron energies are shifted by a value of     14000. a.u.

   1  -613.637692336  -189.402842253  1291.192311663   0.00E+00    0.22E+00*   0.92E+01*    0.60E+01   0.67E+03   None         1.
   2  -625.065046863  -247.152161335  1337.514276218  -0.11E+02*   0.34E-02*   0.20E+00*    0.91E+00   0.68E+03   EDIIS        1.
   3  -625.069146324  -246.528688005  1336.886703426  -0.41E-02*   0.36E-03*   0.67E-02*    0.14E-01   0.68E+03   EDIIS        1.
   4  -625.069151261  -246.542103500  1336.900113985  -0.49E-05*   0.10E-04    0.61E-03*    0.73E-03   0.68E+03   c2DIIS       1.
   5  -625.069151290  -246.541898865  1336.899909320  -0.29E-07*   0.12E-05    0.25E-04     0.18E-04   0.68E+03   QNRc2DIIS    1.
   6  -625.069151290  -246.541895320  1336.899905775  -0.98E-10    0.30E-06    0.33E-05     0.64E-04   0.68E+03   QNRc2DIIS    1.

       Convergence after  6 Macro Iterations
--

 *****************************************************************************************************************************
 *                                                                                                                           *
 *                                             SCF/KS-DFT Program, Final results                                             *
 *                                                                                                                           *
 *                                                                                                                           *
 *                                                                                                                           *
 *                                                       Final Results                                                       *
 *                                                                                                                           *
 *****************************************************************************************************************************

::    Total SCF energy                             -14625.0691512900
      One-electron energy                          -14246.5418953199
      Two-electron energy                            1336.8999057754
      Nuclear repulsion energy                      -1715.4271617455
      Kinetic energy (interpolated)                 20165.7675366538
      Virial theorem                                    0.7252423755
      Total spin, S(S+1)                                0.0000000000
      Total spin, S                                     0.0000000000
      Max non-diagonal density matrix element           0.0000003785
      Max non-diagonal Fock matrix element              0.0000005805


      All orbitals with orbital energies smaller than  E(LUMO)+0.5 are printed

++    Molecular orbitals:
      -------------------

      Title: SCF orbitals

      Molecular orbitals for symmetry species 1: a  

          Some orbital energies have been scaled by powers of 10, the power is written right after the orbital index


          Orbital            1 (1)     2         3         4         5         6         7         8         9        10    
          Energy         -277.5850 -591.5733 -534.9327 -534.9327 -534.9277 -216.6428 -199.1883 -199.1883 -199.1351 -178.5866
          Occ. No.          2.0000    2.0000    2.0000    2.0000    2.0000    2.0000    2.0000    2.0000    2.0000    0.0000

        1 RE     1s         1.0000    0.0001    0.0000    0.0000   -0.0000   -0.0000   -0.0000   -0.0000    0.0000   -0.0000
        2 RE     2s        -0.0001    0.9999    0.0000    0.0000   -0.0024    0.0121    0.0000    0.0000   -0.0006    0.0000
        3 RE     3s         0.0000   -0.0117   -0.0000   -0.0000    0.0003    0.9947    0.0001    0.0000   -0.0314    0.0000
        4 RE     4s        -0.0000    0.0034    0.0000    0.0000   -0.0001   -0.0794   -0.0000   -0.0000    0.0044   -0.0000
        5 RE     5s         0.0000   -0.0012   -0.0000   -0.0000    0.0000    0.0234    0.0000    0.0000   -0.0013   -0.0000
        6 RE     6s        -0.0000    0.0003    0.0000    0.0000   -0.0000   -0.0065   -0.0000   -0.0000    0.0004   -0.0000
        7 RE     7s         0.0000   -0.0006   -0.0000   -0.0000    0.0000    0.0107    0.0000    0.0000   -0.0006   -0.0000
        8 RE     8s        -0.0000    0.0012    0.0000    0.0000   -0.0000   -0.0220   -0.0000   -0.0000    0.0013    0.0000
        9 RE     9s         0.0000   -0.0016   -0.0000   -0.0000    0.0000    0.0267    0.0000    0.0000   -0.0015   -0.0000
       10 RE    10s        -0.0000    0.0012    0.0000    0.0000   -0.0000   -0.0179   -0.0000   -0.0000    0.0010   -0.0000
       11 RE    11s         0.0000   -0.0023   -0.0000   -0.0000    0.0000    0.0290    0.0000    0.0000   -0.0016    0.0000
       12 RE     2px        0.0000    0.0024   -0.0068   -0.0000    0.9999    0.0002   -0.0001   -0.0000    0.0142   -0.0000
       13 RE     3px       -0.0000    0.0002    0.0001    0.0000   -0.0136    0.0318   -0.0057   -0.0000    0.9923   -0.0000
       14 RE     4px        0.0000   -0.0001   -0.0000   -0.0000    0.0038   -0.0016    0.0005    0.0000   -0.0909    0.0000
       15 RE     5px       -0.0000    0.0000    0.0000    0.0000   -0.0012    0.0004   -0.0001   -0.0000    0.0256   -0.0000
       16 RE     6px        0.0000   -0.0000   -0.0000   -0.0000    0.0006   -0.0002    0.0001    0.0000   -0.0117    0.0000
       17 RE     7px       -0.0000    0.0000    0.0000    0.0000   -0.0017    0.0004   -0.0002   -0.0000    0.0323   -0.0000
       18 RE     8px        0.0000   -0.0000   -0.0000   -0.0000    0.0018   -0.0004    0.0002    0.0000   -0.0320    0.0000
       19 RE     9px       -0.0000    0.0000    0.0000    0.0000   -0.0017    0.0003   -0.0002   -0.0000    0.0274   -0.0000
       20 RE    10px        0.0000   -0.0000   -0.0000   -0.0000    0.0019   -0.0003    0.0002    0.0000   -0.0270    0.0000
       21 RE    11px       -0.0000    0.0000    0.0000    0.0000   -0.0026    0.0002   -0.0002   -0.0000    0.0273   -0.0000
       22 RE     2py       -0.0000   -0.0000   -0.0000    0.9999   -0.0000   -0.0000   -0.0000    0.0141   -0.0000    0.0000
       23 RE     3py        0.0000    0.0000    0.0000   -0.0136    0.0000   -0.0000   -0.0000    0.9930   -0.0000    0.0002
       24 RE     4py       -0.0000    0.0000   -0.0000    0.0038   -0.0000    0.0000    0.0000   -0.0908    0.0000   -0.0000
       25 RE     5py        0.0000    0.0000    0.0000   -0.0012    0.0000   -0.0000   -0.0000    0.0255   -0.0000    0.0000
       26 RE     6py       -0.0000    0.0000   -0.0000    0.0006   -0.0000    0.0000    0.0000   -0.0116    0.0000   -0.0000
       27 RE     7py        0.0000    0.0000    0.0000   -0.0017    0.0000   -0.0000   -0.0000    0.0322   -0.0000    0.0000
       28 RE     8py       -0.0000    0.0000   -0.0000    0.0018   -0.0000    0.0000    0.0000   -0.0319    0.0000   -0.0000
       29 RE     9py        0.0000    0.0000    0.0000   -0.0017    0.0000   -0.0000   -0.0000    0.0273   -0.0000    0.0000
       30 RE    10py       -0.0000   -0.0000   -0.0000    0.0019   -0.0000    0.0000    0.0000   -0.0269    0.0000   -0.0000
       31 RE    11py        0.0000    0.0000    0.0000   -0.0026    0.0000   -0.0000   -0.0000    0.0272   -0.0000    0.0000
       32 RE     2pz        0.0000    0.0000    0.9999    0.0000    0.0068    0.0000    0.0141    0.0000    0.0001   -0.0000
       33 RE     3pz       -0.0000    0.0000   -0.0136   -0.0000   -0.0001    0.0001    0.9930    0.0000    0.0057   -0.0000
       34 RE     4pz        0.0000   -0.0000    0.0038    0.0000    0.0000   -0.0000   -0.0908   -0.0000   -0.0005    0.0000
       35 RE     5pz       -0.0000    0.0000   -0.0012   -0.0000   -0.0000    0.0000    0.0255    0.0000    0.0001   -0.0000
       36 RE     6pz        0.0000   -0.0000    0.0006    0.0000    0.0000   -0.0000   -0.0116   -0.0000   -0.0001    0.0000
       37 RE     7pz       -0.0000    0.0000   -0.0017   -0.0000   -0.0000    0.0000    0.0322    0.0000    0.0002   -0.0000
       38 RE     8pz        0.0000   -0.0000    0.0018    0.0000    0.0000   -0.0000   -0.0319   -0.0000   -0.0002    0.0000
       39 RE     9pz       -0.0000    0.0000   -0.0017   -0.0000   -0.0000    0.0000    0.0273    0.0000    0.0002   -0.0000
       40 RE    10pz        0.0000   -0.0000    0.0019    0.0000    0.0000   -0.0000   -0.0269   -0.0000   -0.0002    0.0000
       41 RE    11pz       -0.0000    0.0000   -0.0026   -0.0000   -0.0000    0.0000    0.0272    0.0000    0.0002   -0.0000
       42 RE     3d2-       0.0000    0.0000   -0.0000    0.0003   -0.0000   -0.0000   -0.0000    0.0218   -0.0000   -0.0124
       43 RE     4d2-      -0.0000   -0.0000    0.0000   -0.0001    0.0000   -0.0000    0.0000   -0.0006    0.0000    0.0012
       44 RE     5d2-       0.0000    0.0000   -0.0000    0.0000   -0.0000    0.0000   -0.0000    0.0001   -0.0000   -0.0002
       45 RE     6d2-      -0.0000   -0.0000    0.0000   -0.0000    0.0000   -0.0000    0.0000   -0.0001    0.0000    0.0003
       46 RE     7d2-       0.0000    0.0000   -0.0000    0.0000   -0.0000    0.0000   -0.0000    0.0001   -0.0000   -0.0004
       47 RE     8d2-      -0.0000   -0.0000    0.0000   -0.0000    0.0000   -0.0000    0.0000   -0.0001    0.0000    0.0005
       48 RE     9d2-       0.0000    0.0000   -0.0000    0.0000   -0.0000    0.0000   -0.0000    0.0000   -0.0000   -0.0004
       49 RE    10d2-      -0.0000   -0.0000    0.0000   -0.0000    0.0000   -0.0000   -0.0000    0.0000   -0.0000    0.0005
       50 RE    11d2-       0.0000    0.0000   -0.0000    0.0001   -0.0000    0.0000    0.0000   -0.0001    0.0000   -0.0003
       51 RE     3d1-      -0.0000   -0.0000   -0.0000    0.0000    0.0000    0.0000   -0.0000    0.0000    0.0000    0.9918
       52 RE     4d1-       0.0000    0.0000    0.0000   -0.0000   -0.0000   -0.0000    0.0000   -0.0000   -0.0000   -0.0955
       53 RE     5d1-      -0.0000   -0.0000   -0.0000    0.0000    0.0000    0.0000   -0.0000    0.0000   -0.0000    0.0197
       54 RE     6d1-       0.0000    0.0000    0.0000   -0.0000    0.0000   -0.0000   -0.0000    0.0000   -0.0000   -0.0256
       55 RE     7d1-      -0.0000   -0.0000   -0.0000    0.0000    0.0000    0.0000    0.0000   -0.0000    0.0000    0.0345
       56 RE     8d1-       0.0000    0.0000   -0.0000    0.0000   -0.0000   -0.0000    0.0000   -0.0000    0.0000   -0.0399
       57 RE     9d1-      -0.0000   -0.0000   -0.0000    0.0000    0.0000    0.0000   -0.0000    0.0000    0.0000    0.0325
       58 RE    10d1-       0.0000    0.0000    0.0000   -0.0000    0.0000   -0.0000   -0.0000    0.0000   -0.0000   -0.0383
       59 RE    11d1-      -0.0000   -0.0000   -0.0000    0.0000    0.0000   -0.0000   -0.0000    0.0000   -0.0000    0.0276
       60 RE     3d0        0.0000    0.0000    0.0000    0.0000   -0.0001    0.0002    0.0001    0.0000   -0.0128    0.0000
       61 RE     4d0       -0.0000   -0.0000   -0.0000   -0.0000    0.0000    0.0000   -0.0000   -0.0000    0.0004   -0.0000
       62 RE     5d0        0.0000    0.0000    0.0000    0.0000   -0.0000   -0.0000    0.0000    0.0000   -0.0001    0.0000
       63 RE     6d0       -0.0000   -0.0000   -0.0000   -0.0000    0.0000    0.0000   -0.0000   -0.0000    0.0001   -0.0000
       64 RE     7d0        0.0000    0.0000    0.0000    0.0000   -0.0000   -0.0000    0.0000    0.0000   -0.0001    0.0000
       65 RE     8d0       -0.0000   -0.0000   -0.0000   -0.0000    0.0000    0.0000    0.0000    0.0000    0.0001   -0.0000
       66 RE     9d0        0.0000    0.0000    0.0000    0.0000   -0.0000   -0.0000   -0.0000   -0.0000   -0.0000    0.0000
       67 RE    10d0       -0.0000   -0.0000   -0.0000   -0.0000    0.0000    0.0000   -0.0000   -0.0000   -0.0000   -0.0000
       68 RE    11d0        0.0000    0.0000    0.0000    0.0000   -0.0000   -0.0000   -0.0000   -0.0000    0.0000    0.0000
       69 RE     3d1+      -0.0000   -0.0000    0.0003    0.0000    0.0000   -0.0000    0.0218    0.0000    0.0002    0.0000
       70 RE     4d1+       0.0000    0.0000   -0.0001   -0.0000   -0.0000   -0.0000   -0.0006   -0.0000   -0.0000   -0.0000
       71 RE     5d1+      -0.0000   -0.0000    0.0000    0.0000    0.0000    0.0000    0.0001    0.0000    0.0000    0.0000
       72 RE     6d1+       0.0000    0.0000   -0.0000   -0.0000   -0.0000   -0.0000   -0.0001   -0.0000   -0.0000   -0.0000
       73 RE     7d1+      -0.0000   -0.0000    0.0000    0.0000    0.0000    0.0000    0.0001    0.0000    0.0000    0.0000
       74 RE     8d1+       0.0000    0.0000   -0.0000   -0.0000   -0.0000   -0.0000   -0.0001   -0.0000   -0.0000   -0.0000
       75 RE     9d1+      -0.0000   -0.0000    0.0000    0.0000    0.0000    0.0000    0.0000    0.0000    0.0000    0.0000
       76 RE    10d1+       0.0000    0.0000   -0.0000   -0.0000   -0.0000   -0.0000    0.0000    0.0000    0.0000   -0.0000
       77 RE    11d1+      -0.0000   -0.0000    0.0001    0.0000    0.0000    0.0000   -0.0001   -0.0000   -0.0000    0.0000
       78 RE     3d2+      -0.0000   -0.0000   -0.0000   -0.0000    0.0003   -0.0003   -0.0001   -0.0000    0.0222    0.0000
       79 RE     4d2+       0.0000    0.0000    0.0000    0.0000   -0.0001   -0.0000    0.0000    0.0000   -0.0006   -0.0000
       80 RE     5d2+      -0.0000   -0.0000   -0.0000   -0.0000    0.0000    0.0000   -0.0000   -0.0000    0.0001    0.0000
       81 RE     6d2+       0.0000    0.0000    0.0000    0.0000   -0.0000   -0.0000    0.0000    0.0000   -0.0001   -0.0000
       82 RE     7d2+      -0.0000   -0.0000   -0.0000   -0.0000    0.0000    0.0000   -0.0000   -0.0000    0.0001    0.0000
       83 RE     8d2+       0.0000    0.0000    0.0000    0.0000   -0.0000   -0.0000    0.0000    0.0000   -0.0001   -0.0000
       84 RE     9d2+      -0.0000   -0.0000   -0.0000   -0.0000    0.0000    0.0000   -0.0000   -0.0000    0.0000    0.0000
       85 RE    10d2+       0.0000    0.0000    0.0000    0.0000   -0.0000   -0.0000   -0.0000   -0.0000    0.0000   -0.0000
       86 RE    11d2+      -0.0000   -0.0000   -0.0000   -0.0000    0.0001    0.0000    0.0000    0.0000   -0.0001    0.0000
       87 RE     4f3-       0.0000    0.0000    0.0000   -0.0000    0.0000    0.0000    0.0000   -0.0001    0.0000   -0.0000
       88 RE     5f3-      -0.0000   -0.0000   -0.0000    0.0000   -0.0000   -0.0000   -0.0000    0.0001   -0.0000    0.0000
       89 RE     6f3-       0.0000    0.0000    0.0000   -0.0000    0.0000   -0.0000    0.0000   -0.0001    0.0000   -0.0000
       90 RE     7f3-      -0.0000   -0.0000   -0.0000    0.0000   -0.0000    0.0000   -0.0000    0.0000   -0.0000    0.0000
       91 RE     8f3-       0.0000    0.0000    0.0000   -0.0000    0.0000   -0.0000    0.0000   -0.0000    0.0000   -0.0000
       92 RE     9f3-      -0.0000   -0.0000   -0.0000    0.0000   -0.0000    0.0000   -0.0000    0.0000   -0.0000    0.0000
       93 RE    10f3-       0.0000    0.0000    0.0000   -0.0000    0.0000   -0.0000    0.0000   -0.0000    0.0000   -0.0000
       94 RE    11f3-      -0.0000   -0.0000   -0.0000    0.0000   -0.0000    0.0000   -0.0000    0.0000   -0.0000    0.0000
       95 RE     4f2-      -0.0000    0.0000    0.0000   -0.0000   -0.0000    0.0000    0.0000   -0.0000    0.0000    0.0020
       96 RE     5f2-       0.0000   -0.0000   -0.0000    0.0000   -0.0000   -0.0000   -0.0000    0.0000   -0.0000   -0.0013
       97 RE     6f2-       0.0000    0.0000    0.0000   -0.0000    0.0000    0.0000    0.0000   -0.0000    0.0000    0.0014
       98 RE     7f2-      -0.0000   -0.0000   -0.0000    0.0000    0.0000   -0.0000   -0.0000    0.0000   -0.0000   -0.0012
       99 RE     8f2-       0.0000    0.0000    0.0000   -0.0000   -0.0000   -0.0000    0.0000   -0.0000    0.0000    0.0010
      100 RE     9f2-      -0.0000   -0.0000   -0.0000    0.0000    0.0000    0.0000   -0.0000    0.0000   -0.0000   -0.0007
      101 RE    10f2-       0.0000    0.0000    0.0000   -0.0000   -0.0000    0.0000   -0.0000    0.0000    0.0000    0.0006
      102 RE    11f2-      -0.0000   -0.0000   -0.0000    0.0000    0.0000   -0.0000   -0.0000    0.0000   -0.0000   -0.0003
      103 RE     4f1-       0.0000   -0.0000   -0.0000    0.0000   -0.0000    0.0000   -0.0000    0.0000   -0.0000    0.0000
      104 RE     5f1-       0.0000    0.0000    0.0000   -0.0000    0.0000   -0.0000    0.0000   -0.0000    0.0000   -0.0000
      105 RE     6f1-      -0.0000   -0.0000   -0.0000    0.0000   -0.0000    0.0000   -0.0000    0.0000   -0.0000    0.0000
      106 RE     7f1-      -0.0000    0.0000    0.0000   -0.0000    0.0000   -0.0000    0.0000   -0.0000    0.0000   -0.0000
      107 RE     8f1-       0.0000   -0.0000   -0.0000    0.0000   -0.0000    0.0000   -0.0000    0.0000   -0.0000    0.0000
      108 RE     9f1-      -0.0000    0.0000    0.0000   -0.0000    0.0000   -0.0000    0.0000   -0.0000    0.0000   -0.0000
      109 RE    10f1-       0.0000   -0.0000   -0.0000    0.0000   -0.0000    0.0000   -0.0000    0.0000   -0.0000    0.0000
      110 RE    11f1-      -0.0000    0.0000    0.0000   -0.0000    0.0000    0.0000    0.0000   -0.0000   -0.0000   -0.0000
      111 RE     4f0        0.0000   -0.0000    0.0000    0.0000    0.0000    0.0000    0.0000    0.0000    0.0000    0.0000
      112 RE     5f0        0.0000   -0.0000   -0.0000   -0.0000   -0.0000    0.0000   -0.0000   -0.0000   -0.0000   -0.0000
      113 RE     6f0        0.0000   -0.0000    0.0000    0.0000    0.0000    0.0000    0.0000    0.0000    0.0000    0.0000
      114 RE     7f0       -0.0000    0.0000   -0.0000   -0.0000   -0.0000   -0.0000   -0.0000   -0.0000   -0.0000   -0.0000
      115 RE     8f0       -0.0000    0.0000    0.0000    0.0000    0.0000   -0.0000    0.0000    0.0000    0.0000    0.0000
      116 RE     9f0       -0.0000   -0.0000   -0.0000   -0.0000   -0.0000    0.0000   -0.0000   -0.0000   -0.0000   -0.0000
      117 RE    10f0        0.0000   -0.0000    0.0000    0.0000    0.0000    0.0000    0.0000    0.0000   -0.0000    0.0000
      118 RE    11f0        0.0000   -0.0000   -0.0000   -0.0000   -0.0000    0.0000   -0.0000   -0.0000   -0.0000   -0.0000
      119 RE     4f1+       0.0000   -0.0000   -0.0000   -0.0000    0.0000   -0.0000    0.0000    0.0000    0.0001    0.0000
      120 RE     5f1+      -0.0000    0.0000   -0.0000   -0.0000   -0.0000    0.0000    0.0000    0.0000   -0.0000   -0.0000
      121 RE     6f1+       0.0000   -0.0000   -0.0000   -0.0000    0.0000   -0.0000   -0.0000   -0.0000    0.0000    0.0000
      122 RE     7f1+      -0.0000    0.0000    0.0000    0.0000   -0.0000    0.0000   -0.0000   -0.0000   -0.0000   -0.0000
      123 RE     8f1+       0.0000   -0.0000   -0.0000   -0.0000    0.0000   -0.0000   -0.0000   -0.0000    0.0000    0.0000
      124 RE     9f1+      -0.0000    0.0000    0.0000    0.0000   -0.0000   -0.0000    0.0000    0.0000   -0.0000   -0.0000
      125 RE    10f1+       0.0000   -0.0000   -0.0000   -0.0000    0.0000   -0.0000   -0.0000   -0.0000    0.0000    0.0000
      126 RE    11f1+      -0.0000    0.0000    0.0000    0.0000   -0.0000    0.0000    0.0000    0.0000   -0.0000   -0.0000
      127 RE     4f2+      -0.0000    0.0000   -0.0000   -0.0000   -0.0000    0.0000   -0.0001   -0.0000    0.0000    0.0000
      128 RE     5f2+       0.0000   -0.0000    0.0000    0.0000   -0.0000    0.0000    0.0000    0.0000    0.0000   -0.0000
      129 RE     6f2+       0.0000   -0.0000   -0.0000   -0.0000   -0.0000    0.0000   -0.0000   -0.0000   -0.0000    0.0000
      130 RE     7f2+      -0.0000    0.0000    0.0000    0.0000    0.0000   -0.0000    0.0000    0.0000    0.0000   -0.0000
      131 RE     8f2+      -0.0000    0.0000   -0.0000   -0.0000   -0.0000   -0.0000   -0.0000   -0.0000   -0.0000    0.0000
      132 RE     9f2+       0.0000   -0.0000    0.0000    0.0000    0.0000    0.0000    0.0000    0.0000    0.0000   -0.0000
      133 RE    10f2+       0.0000   -0.0000   -0.0000   -0.0000   -0.0000    0.0000   -0.0000   -0.0000   -0.0000    0.0000
      134 RE    11f2+       0.0000   -0.0000    0.0000    0.0000    0.0000    0.0000    0.0000    0.0000   -0.0000   -0.0000
      135 RE     4f3+      -0.0000    0.0000    0.0000    0.0000   -0.0000    0.0000    0.0000    0.0000   -0.0001    0.0000
      136 RE     5f3+       0.0000   -0.0000   -0.0000   -0.0000    0.0000   -0.0000   -0.0000   -0.0000    0.0001   -0.0000
      137 RE     6f3+      -0.0000    0.0000    0.0000    0.0000   -0.0000    0.0000    0.0000    0.0000   -0.0001    0.0000
      138 RE     7f3+       0.0000   -0.0000   -0.0000   -0.0000    0.0000   -0.0000   -0.0000   -0.0000    0.0000   -0.0000
      139 RE     8f3+      -0.0000    0.0000    0.0000    0.0000   -0.0000    0.0000    0.0000    0.0000   -0.0000    0.0000
      140 RE     9f3+       0.0000   -0.0000   -0.0000   -0.0000    0.0000    0.0000    0.0000    0.0000    0.0000   -0.0000
      141 RE    10f3+      -0.0000    0.0000    0.0000    0.0000   -0.0000    0.0000   -0.0000   -0.0000   -0.0000    0.0000
      142 RE    11f3+       0.0000   -0.0000   -0.0000   -0.0000    0.0000   -0.0000    0.0000   -0.0000    0.0000   -0.0000
      143 RE     5g4-      -0.0000    0.0000    0.0000   -0.0000    0.0000    0.0000   -0.0000    0.0000   -0.0000    0.0000
      144 RE     6g4-       0.0000   -0.0000    0.0000   -0.0000    0.0000    0.0000    0.0000   -0.0000    0.0000   -0.0000
      145 RE     7g4-      -0.0000    0.0000   -0.0000    0.0000   -0.0000   -0.0000   -0.0000    0.0000   -0.0000    0.0000
      146 RE     8g4-       0.0000   -0.0000   -0.0000    0.0000   -0.0000    0.0000    0.0000   -0.0000    0.0000   -0.0000
      147 RE     5g3-       0.0000    0.0000   -0.0000    0.0000   -0.0000    0.0000    0.0000   -0.0000    0.0000   -0.0000
      148 RE     6g3-      -0.0000   -0.0000   -0.0000    0.0000   -0.0000   -0.0000    0.0000   -0.0000    0.0000    0.0000
      149 RE     7g3-       0.0000    0.0000   -0.0000    0.0000   -0.0000    0.0000    0.0000   -0.0000    0.0000   -0.0000
      150 RE     8g3-      -0.0000   -0.0000   -0.0000    0.0000   -0.0000   -0.0000    0.0000   -0.0000    0.0000    0.0000
      151 RE     5g2-       0.0000   -0.0000   -0.0000    0.0000   -0.0000   -0.0000    0.0000   -0.0000    0.0000   -0.0000
      152 RE     6g2-       0.0000    0.0000   -0.0000    0.0000   -0.0000    0.0000   -0.0000    0.0000   -0.0000    0.0000
      153 RE     7g2-      -0.0000   -0.0000    0.0000   -0.0000    0.0000   -0.0000    0.0000   -0.0000    0.0000   -0.0000
      154 RE     8g2-       0.0000    0.0000    0.0000   -0.0000    0.0000    0.0000   -0.0000    0.0000   -0.0000    0.0000
      155 RE     5g1-       0.0000   -0.0000    0.0000   -0.0000    0.0000    0.0000   -0.0000    0.0000   -0.0000    0.0000
      156 RE     6g1-      -0.0000    0.0000   -0.0000    0.0000   -0.0000   -0.0000    0.0000   -0.0000   -0.0000   -0.0000
      157 RE     7g1-       0.0000    0.0000   -0.0000    0.0000   -0.0000    0.0000    0.0000   -0.0000    0.0000    0.0000
      158 RE     8g1-      -0.0000   -0.0000   -0.0000    0.0000   -0.0000   -0.0000    0.0000   -0.0000    0.0000   -0.0000
      159 RE     5g0       -0.0000    0.0000    0.0000    0.0000   -0.0000   -0.0000   -0.0000   -0.0000    0.0000    0.0000
      160 RE     6g0       -0.0000    0.0000    0.0000    0.0000   -0.0000   -0.0000   -0.0000   -0.0000   -0.0000   -0.0000
      161 RE     7g0       -0.0000    0.0000    0.0000    0.0000    0.0000   -0.0000   -0.0000   -0.0000    0.0000    0.0000
      162 RE     8g0        0.0000   -0.0000    0.0000    0.0000    0.0000    0.0000   -0.0000   -0.0000   -0.0000   -0.0000
      163 RE     5g1+       0.0000   -0.0000    0.0000    0.0000   -0.0000    0.0000   -0.0000   -0.0000    0.0000    0.0000
      164 RE     6g1+       0.0000   -0.0000    0.0000    0.0000   -0.0000    0.0000    0.0000    0.0000   -0.0000   -0.0000
      165 RE     7g1+       0.0000   -0.0000   -0.0000   -0.0000    0.0000    0.0000   -0.0000   -0.0000   -0.0000    0.0000
      166 RE     8g1+      -0.0000    0.0000   -0.0000   -0.0000    0.0000   -0.0000    0.0000    0.0000   -0.0000   -0.0000
      167 RE     5g2+       0.0000   -0.0000   -0.0000   -0.0000    0.0000    0.0000    0.0000    0.0000   -0.0000   -0.0000
      168 RE     6g2+       0.0000   -0.0000   -0.0000   -0.0000    0.0000    0.0000   -0.0000   -0.0000    0.0000    0.0000
      169 RE     7g2+       0.0000   -0.0000    0.0000    0.0000   -0.0000    0.0000   -0.0000   -0.0000   -0.0000   -0.0000
      170 RE     8g2+      -0.0000    0.0000    0.0000    0.0000   -0.0000   -0.0000   -0.0000   -0.0000    0.0000    0.0000
      171 RE     5g3+       0.0000   -0.0000   -0.0000   -0.0000   -0.0000    0.0000    0.0000    0.0000    0.0000   -0.0000
      172 RE     6g3+       0.0000   -0.0000   -0.0000   -0.0000   -0.0000    0.0000   -0.0000   -0.0000   -0.0000    0.0000
      173 RE     7g3+       0.0000   -0.0000    0.0000    0.0000    0.0000    0.0000    0.0000    0.0000   -0.0000   -0.0000
      174 RE     8g3+      -0.0000    0.0000    0.0000    0.0000    0.0000   -0.0000   -0.0000   -0.0000   -0.0000    0.0000
      175 RE     5g4+      -0.0000    0.0000   -0.0000   -0.0000   -0.0000   -0.0000    0.0000    0.0000    0.0000   -0.0000
      176 RE     6g4+      -0.0000    0.0000   -0.0000   -0.0000   -0.0000   -0.0000   -0.0000   -0.0000   -0.0000    0.0000
      177 RE     7g4+      -0.0000    0.0000    0.0000    0.0000    0.0000   -0.0000    0.0000    0.0000    0.0000   -0.0000
      178 RE     8g4+       0.0000   -0.0000   -0.0000   -0.0000    0.0000    0.0000    0.0000    0.0000   -0.0000    0.0000
      179 RE     6h5-       0.0000   -0.0000   -0.0000    0.0000   -0.0000    0.0000    0.0000   -0.0000    0.0000    0.0000
      180 RE     7h5-      -0.0000    0.0000   -0.0000    0.0000   -0.0000   -0.0000    0.0000   -0.0000   -0.0000    0.0000
      181 RE     6h4-      -0.0000   -0.0000   -0.0000    0.0000   -0.0000   -0.0000    0.0000   -0.0000    0.0000    0.0000
      182 RE     7h4-       0.0000    0.0000    0.0000   -0.0000    0.0000   -0.0000   -0.0000    0.0000   -0.0000   -0.0000
      183 RE     6h3-       0.0000    0.0000    0.0000   -0.0000   -0.0000    0.0000   -0.0000    0.0000    0.0000    0.0000
      184 RE     7h3-      -0.0000   -0.0000    0.0000   -0.0000    0.0000   -0.0000   -0.0000    0.0000   -0.0000    0.0000
      185 RE     6h2-       0.0000    0.0000    0.0000   -0.0000    0.0000    0.0000   -0.0000    0.0000   -0.0000   -0.0000
      186 RE     7h2-      -0.0000    0.0000   -0.0000    0.0000   -0.0000   -0.0000    0.0000   -0.0000    0.0000    0.0000
      187 RE     6h1-      -0.0000   -0.0000   -0.0000    0.0000   -0.0000   -0.0000    0.0000   -0.0000    0.0000    0.0000
      188 RE     7h1-       0.0000    0.0000    0.0000   -0.0000    0.0000    0.0000   -0.0000    0.0000   -0.0000    0.0000
      189 RE     6h0       -0.0000    0.0000    0.0000    0.0000    0.0000   -0.0000   -0.0000   -0.0000   -0.0000    0.0000
      190 RE     7h0       -0.0000    0.0000    0.0000    0.0000   -0.0000   -0.0000   -0.0000   -0.0000    0.0000    0.0000
      191 RE     6h1+      -0.0000    0.0000    0.0000    0.0000    0.0000   -0.0000    0.0000    0.0000   -0.0000   -0.0000
      192 RE     7h1+      -0.0000    0.0000   -0.0000   -0.0000    0.0000   -0.0000    0.0000    0.0000   -0.0000    0.0000
      193 RE     6h2+       0.0000   -0.0000   -0.0000   -0.0000   -0.0000    0.0000    0.0000    0.0000    0.0000    0.0000
      194 RE     7h2+       0.0000   -0.0000   -0.0000   -0.0000    0.0000    0.0000    0.0000    0.0000   -0.0000    0.0000
      195 RE     6h3+       0.0000   -0.0000   -0.0000   -0.0000   -0.0000    0.0000    0.0000    0.0000    0.0000    0.0000
      196 RE     7h3+       0.0000   -0.0000   -0.0000   -0.0000   -0.0000    0.0000   -0.0000   -0.0000    0.0000   -0.0000
      197 RE     6h4+       0.0000   -0.0000    0.0000    0.0000   -0.0000    0.0000   -0.0000   -0.0000    0.0000   -0.0000
      198 RE     7h4+       0.0000   -0.0000    0.0000    0.0000    0.0000    0.0000   -0.0000   -0.0000   -0.0000    0.0000
      199 RE     6h5+      -0.0000    0.0000   -0.0000   -0.0000    0.0000   -0.0000    0.0000    0.0000   -0.0000    0.0000
      200 RE     7h5+      -0.0000    0.0000    0.0000    0.0000    0.0000   -0.0000   -0.0000   -0.0000   -0.0000   -0.0000

          Orbital           11        12        13        14    
          Energy         -178.5866 -178.5589 -178.5589 -178.5484
          Occ. No.          0.0000    0.0000    0.0000    0.0000

        1 RE     1s        -0.0000    0.0000    0.0000   -0.0000
        2 RE     2s         0.0000   -0.0000   -0.0000    0.0000
        3 RE     3s         0.0000   -0.0000   -0.0000    0.0011
        4 RE     4s        -0.0000   -0.0000    0.0000   -0.0003
        5 RE     5s         0.0000    0.0000   -0.0000    0.0001
        6 RE     6s        -0.0000   -0.0000    0.0000   -0.0000
        7 RE     7s         0.0000    0.0000   -0.0000    0.0000
        8 RE     8s         0.0000   -0.0000    0.0000   -0.0001
        9 RE     9s         0.0000    0.0000   -0.0000    0.0001
       10 RE    10s        -0.0000    0.0000    0.0000   -0.0001
       11 RE    11s         0.0000   -0.0000   -0.0000    0.0001
       12 RE     2px       -0.0000    0.0000    0.0000   -0.0007
       13 RE     3px       -0.0000    0.0002    0.0000   -0.0251
       14 RE     4px        0.0000   -0.0000   -0.0000    0.0035
       15 RE     5px       -0.0000    0.0000    0.0000   -0.0010
       16 RE     6px        0.0000   -0.0000   -0.0000    0.0005
       17 RE     7px       -0.0000    0.0000    0.0000   -0.0013
       18 RE     8px        0.0000   -0.0000   -0.0000    0.0013
       19 RE     9px       -0.0000    0.0000    0.0000   -0.0011
       20 RE    10px        0.0000   -0.0000   -0.0000    0.0011
       21 RE    11px       -0.0000    0.0000    0.0000   -0.0010
       22 RE     2py       -0.0000    0.0000   -0.0006   -0.0000
       23 RE     3py       -0.0000    0.0000   -0.0213   -0.0000
       24 RE     4py        0.0000   -0.0000    0.0030    0.0000
       25 RE     5py       -0.0000    0.0000   -0.0009   -0.0000
       26 RE     6py        0.0000   -0.0000    0.0004    0.0000
       27 RE     7py       -0.0000    0.0000   -0.0011   -0.0000
       28 RE     8py        0.0000   -0.0000    0.0011    0.0000
       29 RE     9py       -0.0000    0.0000   -0.0009   -0.0000
       30 RE    10py        0.0000   -0.0000    0.0009    0.0000
       31 RE    11py       -0.0000    0.0000   -0.0009   -0.0000
       32 RE     2pz       -0.0000   -0.0006   -0.0000   -0.0000
       33 RE     3pz       -0.0001   -0.0213   -0.0000   -0.0002
       34 RE     4pz        0.0000    0.0030    0.0000    0.0000
       35 RE     5pz       -0.0000   -0.0009   -0.0000   -0.0000
       36 RE     6pz        0.0000    0.0004    0.0000    0.0000
       37 RE     7pz       -0.0000   -0.0011   -0.0000   -0.0000
       38 RE     8pz        0.0000    0.0011    0.0000    0.0000
       39 RE     9pz       -0.0000   -0.0009   -0.0000   -0.0000
       40 RE    10pz        0.0000    0.0009    0.0000    0.0000
       41 RE    11pz       -0.0000   -0.0009   -0.0000   -0.0000
       42 RE     3d2-       0.0000   -0.0000    0.9915    0.0000
       43 RE     4d2-      -0.0000    0.0000   -0.0956   -0.0000
       44 RE     5d2-       0.0000   -0.0000    0.0197    0.0000
       45 RE     6d2-      -0.0000    0.0000   -0.0256   -0.0000
       46 RE     7d2-       0.0000   -0.0000    0.0345    0.0000
       47 RE     8d2-      -0.0000    0.0000   -0.0400   -0.0000
       48 RE     9d2-       0.0000   -0.0000    0.0326    0.0000
       49 RE    10d2-      -0.0000    0.0000   -0.0384   -0.0000
       50 RE    11d2-       0.0000   -0.0000    0.0276    0.0000
       51 RE     3d1-      -0.0000   -0.0000    0.0124   -0.0000
       52 RE     4d1-       0.0000    0.0000   -0.0012    0.0000
       53 RE     5d1-      -0.0000   -0.0000    0.0002   -0.0000
       54 RE     6d1-       0.0000    0.0000   -0.0003    0.0000
       55 RE     7d1-      -0.0000   -0.0000    0.0004   -0.0000
       56 RE     8d1-       0.0000    0.0000   -0.0005    0.0000
       57 RE     9d1-      -0.0000   -0.0000    0.0004   -0.0000
       58 RE    10d1-       0.0000    0.0000   -0.0005    0.0000
       59 RE    11d1-      -0.0000   -0.0000    0.0003   -0.0000
       60 RE     3d0        0.8589    0.0044    0.0000   -0.4958
       61 RE     4d0       -0.0827   -0.0004   -0.0000    0.0479
       62 RE     5d0        0.0170    0.0001    0.0000   -0.0099
       63 RE     6d0       -0.0222   -0.0001   -0.0000    0.0128
       64 RE     7d0        0.0298    0.0002    0.0000   -0.0173
       65 RE     8d0       -0.0346   -0.0002   -0.0000    0.0200
       66 RE     9d0        0.0281    0.0001    0.0000   -0.0163
       67 RE    10d0       -0.0332   -0.0002   -0.0000    0.0192
       68 RE    11d0        0.0239    0.0001    0.0000   -0.0138
       69 RE     3d1+       0.0006    0.9915    0.0000    0.0097
       70 RE     4d1+      -0.0001   -0.0956   -0.0000   -0.0009
       71 RE     5d1+       0.0000    0.0197    0.0000    0.0002
       72 RE     6d1+      -0.0000   -0.0256   -0.0000   -0.0003
       73 RE     7d1+       0.0000    0.0345    0.0000    0.0003
       74 RE     8d1+      -0.0000   -0.0400   -0.0000   -0.0004
       75 RE     9d1+       0.0000    0.0326    0.0000    0.0003
       76 RE    10d1+      -0.0000   -0.0384   -0.0000   -0.0004
       77 RE    11d1+       0.0000    0.0276    0.0000    0.0003
       78 RE     3d2+       0.4960   -0.0087   -0.0000    0.8585
       79 RE     4d2+      -0.0478    0.0008    0.0000   -0.0829
       80 RE     5d2+       0.0098   -0.0002   -0.0000    0.0171
       81 RE     6d2+      -0.0128    0.0002    0.0000   -0.0222
       82 RE     7d2+       0.0172   -0.0003   -0.0000    0.0299
       83 RE     8d2+      -0.0200    0.0004    0.0000   -0.0346
       84 RE     9d2+       0.0163   -0.0003   -0.0000    0.0282
       85 RE    10d2+      -0.0192    0.0003    0.0000   -0.0333
       86 RE    11d2+       0.0138   -0.0002   -0.0000    0.0239
       87 RE     4f3-       0.0000   -0.0000    0.0024    0.0000
       88 RE     5f3-      -0.0000    0.0000   -0.0016   -0.0000
       89 RE     6f3-       0.0000   -0.0000    0.0017    0.0000
       90 RE     7f3-      -0.0000    0.0000   -0.0014   -0.0000
       91 RE     8f3-       0.0000   -0.0000    0.0012    0.0000
       92 RE     9f3-      -0.0000    0.0000   -0.0009   -0.0000
       93 RE    10f3-       0.0000   -0.0000    0.0007    0.0000
       94 RE    11f3-      -0.0000    0.0000   -0.0004   -0.0000
       95 RE     4f2-      -0.0000   -0.0000    0.0000   -0.0000
       96 RE     5f2-       0.0000    0.0000   -0.0000    0.0000
       97 RE     6f2-      -0.0000   -0.0000    0.0000   -0.0000
       98 RE     7f2-       0.0000    0.0000   -0.0000    0.0000
       99 RE     8f2-      -0.0000   -0.0000    0.0000   -0.0000
      100 RE     9f2-       0.0000    0.0000   -0.0000    0.0000
      101 RE    10f2-      -0.0000   -0.0000    0.0000   -0.0000
      102 RE    11f2-       0.0000    0.0000   -0.0000    0.0000
      103 RE     4f1-      -0.0000    0.0000   -0.0006   -0.0000
      104 RE     5f1-       0.0000   -0.0000    0.0004    0.0000
      105 RE     6f1-      -0.0000    0.0000   -0.0004   -0.0000
      106 RE     7f1-       0.0000   -0.0000    0.0004    0.0000
      107 RE     8f1-      -0.0000    0.0000   -0.0003   -0.0000
      108 RE     9f1-       0.0000   -0.0000    0.0002    0.0000
      109 RE    10f1-      -0.0000    0.0000   -0.0002   -0.0000
      110 RE    11f1-       0.0000   -0.0000    0.0001    0.0000
      111 RE     4f0        0.0000   -0.0015   -0.0000   -0.0000
      112 RE     5f0       -0.0000    0.0010    0.0000    0.0000
      113 RE     6f0        0.0000   -0.0011   -0.0000   -0.0000
      114 RE     7f0       -0.0000    0.0009    0.0000    0.0000
      115 RE     8f0        0.0000   -0.0008   -0.0000   -0.0000
      116 RE     9f0       -0.0000    0.0006    0.0000    0.0000
      117 RE    10f0        0.0000   -0.0004   -0.0000   -0.0000
      118 RE    11f0       -0.0000    0.0002    0.0000    0.0000
      119 RE     4f1+       0.0015    0.0000    0.0000   -0.0016
      120 RE     5f1+      -0.0010   -0.0000   -0.0000    0.0011
      121 RE     6f1+       0.0011    0.0000    0.0000   -0.0012
      122 RE     7f1+      -0.0009   -0.0000   -0.0000    0.0010
      123 RE     8f1+       0.0008    0.0000    0.0000   -0.0008
      124 RE     9f1+      -0.0006   -0.0000   -0.0000    0.0006
      125 RE    10f1+       0.0004    0.0000    0.0000   -0.0005
      126 RE    11f1+      -0.0002   -0.0000   -0.0000    0.0003
      127 RE     4f2+       0.0000    0.0020    0.0000    0.0000
      128 RE     5f2+      -0.0000   -0.0013   -0.0000   -0.0000
      129 RE     6f2+       0.0000    0.0014    0.0000    0.0000
      130 RE     7f2+      -0.0000   -0.0012   -0.0000   -0.0000
      131 RE     8f2+       0.0000    0.0010    0.0000    0.0000
      132 RE     9f2+      -0.0000   -0.0007   -0.0000   -0.0000
      133 RE    10f2+       0.0000    0.0006    0.0000    0.0000
      134 RE    11f2+      -0.0000   -0.0003   -0.0000   -0.0000
      135 RE     4f3+       0.0012   -0.0000   -0.0000    0.0021
      136 RE     5f3+      -0.0008    0.0000    0.0000   -0.0014
      137 RE     6f3+       0.0009   -0.0000   -0.0000    0.0015
      138 RE     7f3+      -0.0007    0.0000    0.0000   -0.0012
      139 RE     8f3+       0.0006   -0.0000   -0.0000    0.0011
      140 RE     9f3+      -0.0004    0.0000    0.0000   -0.0008
      141 RE    10f3+       0.0003   -0.0000   -0.0000    0.0006
      142 RE    11f3+      -0.0002    0.0000    0.0000   -0.0003
      143 RE     5g4-      -0.0000    0.0000   -0.0000   -0.0000
      144 RE     6g4-       0.0000   -0.0000    0.0000    0.0000
      145 RE     7g4-      -0.0000    0.0000   -0.0000   -0.0000
      146 RE     8g4-       0.0000   -0.0000    0.0000    0.0000
      147 RE     5g3-       0.0000    0.0000   -0.0000    0.0000
      148 RE     6g3-      -0.0000   -0.0000    0.0000    0.0000
      149 RE     7g3-       0.0000    0.0000   -0.0000    0.0000
      150 RE     8g3-      -0.0000    0.0000   -0.0000   -0.0000
      151 RE     5g2-       0.0000   -0.0000    0.0000    0.0000
      152 RE     6g2-      -0.0000    0.0000   -0.0000   -0.0000
      153 RE     7g2-       0.0000   -0.0000    0.0000    0.0000
      154 RE     8g2-      -0.0000    0.0000   -0.0000   -0.0000
      155 RE     5g1-      -0.0000   -0.0000    0.0000    0.0000
      156 RE     6g1-       0.0000    0.0000   -0.0000   -0.0000
      157 RE     7g1-      -0.0000   -0.0000    0.0000    0.0000
      158 RE     8g1-       0.0000    0.0000   -0.0000   -0.0000
      159 RE     5g0        0.0000    0.0000    0.0000   -0.0000
      160 RE     6g0       -0.0000   -0.0000   -0.0000    0.0000
      161 RE     7g0        0.0000    0.0000    0.0000   -0.0000
      162 RE     8g0       -0.0000   -0.0000   -0.0000    0.0000
      163 RE     5g1+       0.0000    0.0000    0.0000    0.0000
      164 RE     6g1+      -0.0000   -0.0000   -0.0000   -0.0000
      165 RE     7g1+       0.0000    0.0000    0.0000    0.0000
      166 RE     8g1+      -0.0000   -0.0000   -0.0000    0.0000
      167 RE     5g2+      -0.0000    0.0000    0.0000    0.0000
      168 RE     6g2+       0.0000   -0.0000   -0.0000   -0.0000
      169 RE     7g2+      -0.0000   -0.0000   -0.0000    0.0000
      170 RE     8g2+       0.0000    0.0000    0.0000   -0.0000
      171 RE     5g3+      -0.0000   -0.0000   -0.0000   -0.0000
      172 RE     6g3+       0.0000    0.0000    0.0000    0.0000
      173 RE     7g3+      -0.0000   -0.0000   -0.0000   -0.0000
      174 RE     8g3+       0.0000    0.0000    0.0000    0.0000
      175 RE     5g4+      -0.0000    0.0000    0.0000   -0.0000
      176 RE     6g4+       0.0000   -0.0000   -0.0000    0.0000
      177 RE     7g4+      -0.0000    0.0000    0.0000   -0.0000
      178 RE     8g4+       0.0000    0.0000    0.0000    0.0000
      179 RE     6h5-      -0.0000   -0.0000    0.0000   -0.0000
      180 RE     7h5-      -0.0000    0.0000   -0.0000    0.0000
      181 RE     6h4-      -0.0000    0.0000   -0.0000   -0.0000
      182 RE     7h4-       0.0000   -0.0000    0.0000    0.0000
      183 RE     6h3-      -0.0000    0.0000   -0.0000   -0.0000
      184 RE     7h3-      -0.0000   -0.0000    0.0000    0.0000
      185 RE     6h2-       0.0000   -0.0000    0.0000   -0.0000
      186 RE     7h2-      -0.0000    0.0000   -0.0000   -0.0000
      187 RE     6h1-      -0.0000   -0.0000    0.0000   -0.0000
      188 RE     7h1-      -0.0000    0.0000   -0.0000   -0.0000
      189 RE     6h0        0.0000    0.0000    0.0000   -0.0000
      190 RE     7h0        0.0000   -0.0000   -0.0000    0.0000
      191 RE     6h1+      -0.0000   -0.0000   -0.0000    0.0000
      192 RE     7h1+       0.0000    0.0000    0.0000   -0.0000
      193 RE     6h2+       0.0000   -0.0000   -0.0000   -0.0000
      194 RE     7h2+       0.0000    0.0000    0.0000   -0.0000
      195 RE     6h3+       0.0000    0.0000    0.0000   -0.0000
      196 RE     7h3+      -0.0000   -0.0000   -0.0000    0.0000
      197 RE     6h4+      -0.0000    0.0000    0.0000    0.0000
      198 RE     7h4+       0.0000   -0.0000   -0.0000   -0.0000
      199 RE     6h5+       0.0000    0.0000    0.0000    0.0000
      200 RE     7h5+      -0.0000   -0.0000   -0.0000   -0.0000
--


++    Molecular charges:
      ------------------

      Mulliken charges per centre and basis function type
      ---------------------------------------------------

                RE    
      1s       2.0000
      2s       2.0000
      2px      2.0000
      2pz      2.0000
      2py      2.0000
      3s       1.9812
      3px      1.9720
      3pz      1.9724
      3py      1.9724
      4s       0.0127
      3d2+     0.0010
      3d1+     0.0009
      3d0      0.0003
      3d1-     0.0000
      3d2-     0.0009
      4px      0.0166
      4pz      0.0165
      4py      0.0165
      5s       0.0011
      4d2+     0.0000
      4d1+     0.0000
      4d0      0.0000
      4d1-     0.0000
      4d2-     0.0000
      5px      0.0013
      5pz      0.0013
      5py      0.0013
      6s       0.0001
      4f3+     0.0000
      4f2+     0.0000
      4f1+     0.0000
      4f0      0.0000
      4f1-     0.0000
      4f2-     0.0000
      4f3-     0.0000
      5d2+     0.0000
      5d1+     0.0000
      5d0      0.0000
      5d1-     0.0000
      5d2-     0.0000
      6px      0.0003
      6pz      0.0003
      6py      0.0003
      7s       0.0002
      5f3+     0.0000
      5f2+     0.0000
      5f1+     0.0000
      5f0      0.0000
      5f1-     0.0000
      5f2-     0.0000
      5f3-     0.0000
      6d2+     0.0000
      6d1+     0.0000
      6d0      0.0000
      6d1-     0.0000
      6d2-     0.0000
      7px      0.0021
      7pz      0.0021
      7py      0.0021
      5g4+     0.0000
      5g3+     0.0000
      5g2+     0.0000
      5g1+     0.0000
      5g0      0.0000
      5g1-     0.0000
      5g2-     0.0000
      5g3-     0.0000
      5g4-     0.0000
      6f3+     0.0000
      6f2+     0.0000
      6f1+     0.0000
      6f0      0.0000
      6f1-     0.0000
      6f2-     0.0000
      6f3-     0.0000
      6g4+     0.0000
      6g3+     0.0000
      6g2+     0.0000
      6g1+     0.0000
      6g0      0.0000
      6g1-     0.0000
      6g2-     0.0000
      6g3-     0.0000
      6g4-     0.0000
      6h5+     0.0000
      6h4+     0.0000
      6h3+     0.0000
      6h2+     0.0000
      6h1+     0.0000
      6h0      0.0000
      6h1-     0.0000
      6h2-     0.0000
      6h3-     0.0000
      6h4-     0.0000
      6h5-     0.0000
      7d2+     0.0000
      7d1+     0.0000
      7d0      0.0000
      7d1-     0.0000
      7d2-     0.0000
      7f3+     0.0000
      7f2+     0.0000
      7f1+     0.0000
      7f0      0.0000
      7f1-     0.0000
      7f2-     0.0000
      7f3-     0.0000
      7g4+     0.0000
      7g3+     0.0000
      7g2+     0.0000
      7g1+     0.0000
      7g0      0.0000
      7g1-     0.0000
      7g2-     0.0000
      7g3-     0.0000
      7g4-     0.0000
      7h5+     0.0000
      7h4+     0.0000
      7h3+     0.0000
      7h2+     0.0000
      7h1+     0.0000
      7h0      0.0000
      7h1-     0.0000
      7h2-     0.0000
      7h3-     0.0000
      7h4-     0.0000
      7h5-     0.0000
      8s       0.0010
      8px      0.0020
      8pz      0.0020
      8py      0.0020
      8d2+     0.0000
      8d1+     0.0000
      8d0      0.0000
      8d1-     0.0000
      8d2-     0.0000
      8f3+     0.0000
      8f2+     0.0000
      8f1+     0.0000
      8f0      0.0000
      8f1-     0.0000
      8f2-     0.0000
      8f3-     0.0000
      8g4+     0.0000
      8g3+     0.0000
      8g2+     0.0000
      8g1+     0.0000
      8g0      0.0000
      8g1-     0.0000
      8g2-     0.0000
      8g3-     0.0000
      8g4-     0.0000
      9s       0.0014
      9px      0.0015
      9pz      0.0015
      9py      0.0015
      9d2+     0.0000
      9d1+     0.0000
      9d0      0.0000
      9d1-     0.0000
      9d2-     0.0000
      9f3+     0.0000
      9f2+     0.0000
      9f1+     0.0000
      9f0      0.0000
      9f1-     0.0000
      9f2-     0.0000
      9f3-     0.0000
     10s       0.0006
     10px      0.0015
     10pz      0.0015
     10py      0.0015
     10d2+     0.0000
     10d1+     0.0000
     10d0      0.0000
     10d1-     0.0000
     10d2-     0.0000
     10f3+     0.0000
     10f2+     0.0000
     10f1+     0.0000
     10f0      0.0000
     10f1-     0.0000
     10f2-     0.0000
     10f3-     0.0000
     11s       0.0017
     11px      0.0015
     11pz      0.0015
     11py      0.0015
     11d2+     0.0000
     11d1+     0.0000
     11d0      0.0000
     11d1-     0.0000
     11d2-     0.0000
     11f3+     0.0000
     11f2+     0.0000
     11f1+     0.0000
     11f0      0.0000
     11f1-     0.0000
     11f2-     0.0000
     11f3-     0.0000
      Total   18.0000

      N-E     57.0000

      Total electronic charge=   18.000000

      Total            charge=   57.000000
--

 Sorry, Molden does not know how to handle
 functions with angular momentum larger than g

++    Static properties:
      ------------------


      LoProp Charges per center


                   RE    
      Nuclear     75.0000
      Electronic -18.0000

      Total       57.0000
--


++    Molecular properties:
      ---------------------

      Charge (e):
                      =   57.0000
      Dipole Moment (Debye):
      Origin of the operator (Ang)=    0.0000    0.0000    0.0000
                   X= -5.7920E-02               Y= -5.1863E-13               Z=  1.2681E+00           Total=  1.2694E+00
      Center of Charge (Ang)
[...]
    14            85.8492185920     2336.0762460237       18841725.6033         1.2
    15            85.8493816531     2336.0806831429       18841761.3911         1.2
    16            85.8493816531     2336.0806831429       18841761.3911         1.2
    17            86.1560320395     2344.4250652499       18909063.3716         1.2
    18            86.1560320395     2344.4250652499       18909063.3716         1.2


 Weights of the five most important spin-orbit-free states for each spin-orbit state.

 SO State  Total energy (au)           Spin-free states, spin, and weights
 -------------------------------------------------------------------------------------------------------
    1         0.000000       1 0.5  1.0000    9 0.5  0.0000    8 0.5  0.0000    7 0.5  0.0000    6 0.5  0.0000
    2         0.000000       1 0.5  1.0000    9 0.5  0.0000    8 0.5  0.0000    7 0.5  0.0000    6 0.5  0.0000
    3         0.000009       2 0.5  1.0000    9 0.5  0.0000    8 0.5  0.0000    7 0.5  0.0000    6 0.5  0.0000
    4         0.000009       2 0.5  1.0000    9 0.5  0.0000    8 0.5  0.0000    7 0.5  0.0000    6 0.5  0.0000
    5         0.027926       3 0.5  1.0000    9 0.5  0.0000    8 0.5  0.0000    7 0.5  0.0000    6 0.5  0.0000
    6         0.027926       3 0.5  1.0000    9 0.5  0.0000    8 0.5  0.0000    7 0.5  0.0000    6 0.5  0.0000
    7         0.027949       4 0.5  1.0000    9 0.5  0.0000    8 0.5  0.0000    7 0.5  0.0000    6 0.5  0.0000
    8         0.027949       4 0.5  1.0000    9 0.5  0.0000    8 0.5  0.0000    7 0.5  0.0000    6 0.5  0.0000
    9         0.038469       5 0.5  1.0000    9 0.5  0.0000    8 0.5  0.0000    7 0.5  0.0000    6 0.5  0.0000
   10         0.038469       5 0.5  1.0000    9 0.5  0.0000    8 0.5  0.0000    7 0.5  0.0000    6 0.5  0.0000
   11        79.310113       6 0.5  1.0000    9 0.5  0.0000    8 0.5  0.0000    7 0.5  0.0000    5 0.5  0.0000
   12        79.310113       6 0.5  1.0000    9 0.5  0.0000    8 0.5  0.0000    7 0.5  0.0000    5 0.5  0.0000
   13        85.849219       7 0.5  1.0000    9 0.5  0.0000    8 0.5  0.0000    6 0.5  0.0000    5 0.5  0.0000
   14        85.849219       7 0.5  1.0000    9 0.5  0.0000    8 0.5  0.0000    6 0.5  0.0000    5 0.5  0.0000
   15        85.849382       8 0.5  1.0000    9 0.5  0.0000    7 0.5  0.0000    6 0.5  0.0000    5 0.5  0.0000
   16        85.849382       8 0.5  1.0000    9 0.5  0.0000    7 0.5  0.0000    6 0.5  0.0000    5 0.5  0.0000
   17        86.156032       9 0.5  1.0000    8 0.5  0.0000    7 0.5  0.0000    6 0.5  0.0000    5 0.5  0.0000
   18        86.156032       9 0.5  1.0000    8 0.5  0.0000    7 0.5  0.0000    6 0.5  0.0000    5 0.5  0.0000
 -------------------------------------------------------------------------------------------------------


      ****************************************************************************************************
      *                                                                                                  *
      *                                    Special properties section                                    *
      *                                                                                                  *
      ****************************************************************************************************


++ Dipole transition strengths (SO states):
   ----------------------------------------
    for osc. strength at least    1.0000000000000001E-005

      From   To        Osc. strength     Einstein coefficients Ax, Ay, Az (sec-1)    Total A (sec-1)
     -----------------------------------------------------------------------------------------------
         1   13       1.31681704E-02  9.43674461E-08  3.11822539E+12  2.39571676E-03  3.11822539E+12
         1   15       1.31705889E-02  5.90444442E+08  2.39626260E-03  3.11821949E+12  3.11880994E+12
         2   14       1.31681704E-02  9.43674461E-08  3.11822539E+12  2.39571676E-03  3.11822539E+12
         2   16       1.31705889E-02  5.90444442E+08  2.39626260E-03  3.11821949E+12  3.11880994E+12
         3   13       1.31655786E-02  6.33936107E+06  2.39663380E-03  3.11760467E+12  3.11761101E+12
         3   15       1.31714500E-02  3.24862244E-09  3.11901322E+12  2.39614195E-03  3.11901322E+12
         4   14       1.31655786E-02  6.33936107E+06  2.39663380E-03  3.11760467E+12  3.11761101E+12
         4   16       1.31714500E-02  3.24862244E-09  3.11901322E+12  2.39614195E-03  3.11901322E+12
         5   11       2.54617256E-04  4.44858226E+06  3.22963677E-04  5.14174903E+10  5.14219389E+10
         5   13       1.37541770E-02  3.25486526E+12  1.34515626E-06  8.04304339E+06  3.25487331E+12
         5   17       1.26365169E-02  1.67568901E+08  1.89429526E-02  3.01163538E+12  3.01180295E+12
         6   12       2.54617256E-04  4.44858226E+06  3.22963677E-04  5.14174903E+10  5.14219389E+10
         6   14       1.37541770E-02  3.25486526E+12  1.34515626E-06  8.04304339E+06  3.25487331E+12
         6   18       1.26365169E-02  1.67568901E+08  1.89429526E-02  3.01163538E+12  3.01180295E+12
         7   11       2.54197237E-04  1.38962404E-08  5.13370833E+10  3.23500727E-04  5.13370833E+10
         7   15       1.37508467E-02  3.25368597E+12  8.82545902E-07  4.09863173E+08  3.25409583E+12
         7   17       1.26334272E-02  4.20701717E-07  3.01106494E+12  1.89467925E-02  3.01106494E+12
         8   12       2.54197237E-04  1.38962404E-08  5.13370833E+10  3.23500727E-04  5.13370833E+10
         8   16       1.37508467E-02  3.25368597E+12  8.82545902E-07  4.09863173E+08  3.25409583E+12
         8   18       1.26334272E-02  4.20701717E-07  3.01106494E+12  1.89467925E-02  3.01106494E+12
         9   11       3.61146973E-04  7.29130622E+10  1.73190657E-09  3.98504927E+06  7.29170473E+10
         9   13       4.23650660E-03  8.43463540E+07  2.15323784E-04  1.00222239E+12  1.00230673E+12
         9   15       4.23293544E-03  3.95965707E-08  1.00146565E+12  2.15666240E-04  1.00146565E+12
         9   17       1.79321300E-02  4.27276022E+12  9.87666811E-08  1.59281663E+08  4.27291950E+12
        10   12       3.61146973E-04  7.29130622E+10  1.73190657E-09  3.98504927E+06  7.29170473E+10
        10   14       4.23650660E-03  8.43463540E+07  2.15323784E-04  1.00222239E+12  1.00230673E+12
        10   16       4.23293544E-03  3.95965707E-08  1.00146565E+12  2.15666240E-04  1.00146565E+12
        10   18       1.79321300E-02  4.27276022E+12  9.87666811E-08  1.59281663E+08  4.27291950E+12
        11   13       1.78973751E-01  4.24532851E+06  5.28844271E-05  2.45882697E+11  2.45886942E+11
        11   15       1.78973326E-01  1.11383296E-09  2.45898622E+11  5.28887531E-05  2.45898622E+11
        11   17       1.73975945E-01  2.61971732E+11  1.09437486E-11  4.65413131E+06  2.61976386E+11
        12   14       1.78973751E-01  4.24532851E+06  5.28844271E-05  2.45882697E+11  2.45886942E+11
        12   16       1.78973326E-01  1.11383296E-09  2.45898622E+11  5.28887531E-05  2.45898622E+11
        12   18       1.73975945E-01  2.61971732E+11  1.09437486E-11  4.65413131E+06  2.61976386E+11
        13   17       1.91782950E-04  2.39898263E+01  1.24990331E-10  5.80029641E+05  5.80053630E+05
        14   18       1.91782950E-04  2.39898263E+01  1.24990331E-10  5.80029641E+05  5.80053630E+05
        15   17       1.92018858E-04  5.64830309E-15  5.80149989E+05  1.24562452E-10  5.80149989E+05
        16   18       1.92018858E-04  5.64830309E-15  5.80149989E+05  1.24562452E-10  5.80149989E+05
     -----------------------------------------------------------------------------------------------
--

++ Velocity transition strengths (SO states):
   ------------------------------------------
    for osc. strength at least    1.0000000000000001E-005

      From   To        Osc. strength     Einstein coefficients Ax, Ay, Az (sec-1)    Total A (sec-1)
     -----------------------------------------------------------------------------------------------
         1    3       3.58339208E-05  2.78606329E-20  8.91478962E-05  1.02672169E-19  8.91478962E-05
         1    5       2.09993627E-04  9.17905653E-16  5.26173712E+03  4.49858975E-11  5.26173712E+03
         1    7       2.09767928E-04  3.55461477E-02  4.49943302E-11  5.26461254E+03  5.26464808E+03
         1   13       1.27975369E-02  9.12567276E-08  3.03046984E+12  2.32841581E-03  3.03046984E+12
         1   15       1.27998997E-02  5.74862851E+08  2.32893304E-03  3.03046601E+12  3.03104087E+12
         2    4       3.58339208E-05  2.78606329E-20  8.91478962E-05  1.02672169E-19  8.91478962E-05
         2    6       2.09993627E-04  9.17905653E-16  5.26173712E+03  4.49858975E-11  5.26173712E+03
         2    8       2.09767928E-04  3.55461477E-02  4.49943302E-11  5.26461254E+03  5.26464808E+03
         2   14       1.27975369E-02  9.12567276E-08  3.03046984E+12  2.32841581E-03  3.03046984E+12
         2   16       1.27998997E-02  5.74862851E+08  2.32893304E-03  3.03046601E+12  3.03104087E+12
         3    5       2.09887258E-04  2.29854367E-02  4.50114292E-11  5.25573514E+03  5.25575812E+03
         3    7       2.09947352E-04  9.86340019E-17  5.26583378E+03  4.49556657E-11  5.26583378E+03
         3   13       1.27950083E-02  6.23204355E+06  2.32908985E-03  3.02986421E+12  3.02987044E+12
         3   15       1.28007252E-02  3.24036572E-09  3.03123573E+12  2.32860374E-03  3.03123573E+12
         4    6       2.09887258E-04  2.29854367E-02  4.50114292E-11  5.25573514E+03  5.25575812E+03
         4    8       2.09947352E-04  9.86340019E-17  5.26583378E+03  4.49556657E-11  5.26583378E+03
         4   14       1.27950083E-02  6.23204355E+06  2.32908985E-03  3.02986421E+12  3.02987044E+12
         4   16       1.28007252E-02  3.24036572E-09  3.03123573E+12  2.32860374E-03  3.03123573E+12
         5    9       1.65240348E-03  3.13019342E-02  3.71053803E-11  5.90202064E+03  5.90205194E+03
         5   11       2.53581759E-04  4.42803920E+06  3.21667841E-04  5.12085622E+10  5.12129902E+10
         5   13       1.33751855E-02  3.16518952E+12  1.30388584E-06  7.89129518E+06  3.16519741E+12
         5   17       1.22714773E-02  1.62862160E+08  1.83963808E-02  2.92464626E+12  2.92480912E+12
         6   10       1.65240348E-03  3.13019342E-02  3.71053803E-11  5.90202064E+03  5.90205194E+03
         6   12       2.53581759E-04  4.42803920E+06  3.21667841E-04  5.12085622E+10  5.12129902E+10
         6   14       1.33751855E-02  3.16518952E+12  1.30388584E-06  7.89129518E+06  3.16519741E+12
         6   18       1.22714773E-02  1.62862160E+08  1.83963808E-02  2.92464626E+12  2.92480912E+12
         7    9       1.65516723E-03  6.58319836E-17  5.88644182E+03  3.70202539E-11  5.88644182E+03
         7   11       2.53164307E-04  1.36554455E-08  5.11286530E+10  3.22174427E-04  5.11286530E+10
         7   15       1.33719147E-02  3.16403604E+12  8.55766731E-07  3.97698071E+08  3.16443374E+12
         7   17       1.22684535E-02  4.07984788E-07  2.92408688E+12  1.84001551E-02  2.92408688E+12
         8   10       1.65516723E-03  6.58319836E-17  5.88644182E+03  3.70202539E-11  5.88644182E+03
         8   12       2.53164307E-04  1.36554455E-08  5.11286530E+10  3.22174427E-04  5.11286530E+10
         8   16       1.33719147E-02  3.16403604E+12  8.55766731E-07  3.97698071E+08  3.16443374E+12
         8   18       1.22684535E-02  4.07984788E-07  2.92408688E+12  1.84001551E-02  2.92408688E+12
         9   11       3.59910498E-04  7.26636822E+10  1.74901595E-09  3.96845274E+06  7.26676507E+10
         9   13       4.11273165E-03  8.20424482E+07  2.09023407E-04  9.72944404E+11  9.73026447E+11
         9   15       4.10928044E-03  3.85565555E-08  9.72213623E+11  2.09353759E-04  9.72213623E+11
         9   17       1.74345408E-02  4.15421229E+12  9.60407826E-08  1.54686103E+08  4.15436697E+12
        10   12       3.59910498E-04  7.26636822E+10  1.74901595E-09  3.96845274E+06  7.26676507E+10
        10   14       4.11273165E-03  8.20424482E+07  2.09023407E-04  9.72944404E+11  9.73026447E+11
        10   16       4.10928044E-03  3.85565555E-08  9.72213623E+11  2.09353759E-04  9.72213623E+11
        10   18       1.74345408E-02  4.15421229E+12  9.60407826E-08  1.54686103E+08  4.15436697E+12
        11   13       1.49891196E-01  3.54634653E+06  4.42933809E-05  2.05928418E+11  2.05931964E+11
        11   15       1.49890775E-01  9.32247362E-10  2.05941656E+11  4.42927336E-05  2.05941656E+11
        11   17       1.45559455E-01  2.19183136E+11  8.71903998E-12  3.90467156E+06  2.19187041E+11
        12   14       1.49891196E-01  3.54634653E+06  4.42933809E-05  2.05928418E+11  2.05931964E+11
        12   16       1.49890775E-01  9.32247362E-10  2.05941656E+11  4.42927336E-05  2.05941656E+11
        12   18       1.45559455E-01  2.19183136E+11  8.71903998E-12  3.90467156E+06  2.19187041E+11
        13   17       2.04002134E-03  7.13374528E+01  1.32631319E-09  6.17005952E+06  6.17013086E+06
        14   18       2.04002134E-03  7.13374528E+01  1.32631319E-09  6.17005952E+06  6.17013086E+06
        15   17       2.04155781E-03  1.49449032E-15  6.16821635E+06  1.32576224E-09  6.16821635E+06
        16   18       2.04155781E-03  1.49449032E-15  6.16821635E+06  1.32576224E-09  6.16821635E+06
     -----------------------------------------------------------------------------------------------
--

++ Length and velocity gauge comparison (SO states):

 --------------------------------------------------
 A comparison between the dipole oscillator strengths in 
 length and velocity gauge will be performed

 All dipole oscillator differences above the tolerance of   0.10000000000000001       will be printed 

 Due to basis set deficiency these oscillator may be problematic 

 The tolerance is defined as ABS(1-O_l/O_v) 
 O_l : dipole oscillator strength in length gauge
 O_p : dipole oscillator strength in velocity gauge
 --------------------------------------------------

  Problematic transitions have been found

      From   To       Difference (%) Osc. st. (len.) Osc. st. (vel.)
     ---------------------------------------------------------------
         1    3      --------------- below threshold  3.58339208E-05
         1    5      --------------- below threshold  2.09993627E-04
         1    7      --------------- below threshold  2.09767928E-04
         2    4      --------------- below threshold  3.58339208E-05
         2    6      --------------- below threshold  2.09993627E-04
         2    8      --------------- below threshold  2.09767928E-04
         3    5      --------------- below threshold  2.09887258E-04
         3    7      --------------- below threshold  2.09947352E-04
         4    6      --------------- below threshold  2.09887258E-04
         4    8      --------------- below threshold  2.09947352E-04
         5    9      --------------- below threshold  1.65240348E-03
         6   10      --------------- below threshold  1.65240348E-03
         7    9      --------------- below threshold  1.65516723E-03
         8   10      --------------- below threshold  1.65516723E-03
        11   13            19.402444  1.78973751E-01  1.49891196E-01
        11   15            19.402496  1.78973326E-01  1.49890775E-01
        11   17            19.522256  1.73975945E-01  1.45559455E-01
        12   14            19.402444  1.78973751E-01  1.49891196E-01
        12   16            19.402496  1.78973326E-01  1.49890775E-01
        12   18            19.522256  1.73975945E-01  1.45559455E-01
        13   17            90.598973  1.91782950E-04  2.04002134E-03
        14   18            90.598973  1.91782950E-04  2.04002134E-03
        15   17            90.594493  1.92018858E-04  2.04155781E-03
        16   18            90.594493  1.92018858E-04  2.04155781E-03
     ---------------------------------------------------------------

 Number of problematic transitions =                    24

--

 Electric-dipole - electric-octupole not included
++ Total transition strengths for the second-order expansion of the wave vector (SO states):
   -----------------------------------------------------------------------------------------
    for osc. strength at least    1.0000000000000001E-005

      From   To        Osc. strength
     -------------------------------
         1   11       5.77688678E-05
         2   12       5.77688678E-05
         3   11       5.77681570E-05
         4   12       5.77681570E-05
         5   11       5.83862931E-05
         6   12       5.83862931E-05
         7   11       5.83838502E-05
         8   12       5.83838502E-05
         9   11       5.85506402E-05
        10   12       5.85506402E-05
     -------------------------------
--

++ I/O STATISTICS
 
  I. General I/O information
  - - - - - - - - - - - - - - - - - - - - - - - - - - - - - - - - - - - - - - - - - - -
  Unit  Name          Flsize      Write/Read            MBytes           Write/Read
                      (MBytes)       Calls              In/Out           Time, sec.
  - - - - - - - - - - - - - - - - - - - - - - - - - - - - - - - - - - - - - - - - - - -
   1  SCRATCH           0.00 .       9/      45 .      0.0/      0.0 .       0/       0
   2  ANNI              0.00 .       0/       0 .      0.0/      0.0 .       0/       0
   3  RUNFILE          15.31 .     322/   10733 .      2.3/     77.8 .       0/       0
   4  ONEINT            6.58 .       0/   28767 .      0.0/   3777.9 .       0/       0
   5  JOBIPH            7.70 .       0/      92 .      0.0/      0.9 .       0/       0
   6  ORDINT          771.03 .       1/    6169 .      0.0/   1542.0 .       0/       0
  - - - - - - - - - - - - - - - - - - - - - - - - - - - - - - - - - - - - - - - - - - -
   *  TOTAL           800.62 .     332/   45806 .      2.3/   5398.7 .       0/       0
  - - - - - - - - - - - - - - - - - - - - - - - - - - - - - - - - - - - - - - - - - - -
 
  II. I/O Access Patterns
  - - - - - - - - - - - - - - - - - - - -
  Unit  Name               % of random
                         Write/Read calls
  - - - - - - - - - - - - - - - - - - - -
   1  SCRATCH             88.9/ 100.0
   2  ANNI                 0.0/   0.0
   3  RUNFILE             28.6/  10.8
   4  ONEINT               0.0/  13.4
   5  JOBIPH               0.0/  76.1
   6  ORDINT             100.0/   0.0
  - - - - - - - - - - - - - - - - - - - -
--
--- Stop Module: rassi at Tue Mar 25 18:01:09 2025 /rc=_RC_ALL_IS_WELL_ ---
*** files: xmldump
    saved to directory /home4/s4752295/Internship/Initial_simulations/Point_charge_model/1_electron/Madelung_charges_9_active_space/Re
--- Module rassi spent 6 seconds ---

.##################.
.# Happy landing! #.
.##################.

    Timing: Wall=117.55 User=99.54 System=13.19

###############################################################################
Hbrk Cluster
Job 15900846 for user s4752295
Finished at: Tue Mar 25 18:01:13 CET 2025

Job details:
============

Job ID                         : 15900846
Name                           : Re_no_SO
User                           : s4752295
Partition                      : regularmedium
Nodes                          : node100
Number of Nodes                : 1
Cores                          : 1
Number of Tasks                : 1
State                          : COMPLETED  
Submit                         : 2025-03-25T17:57:26
Start                          : 2025-03-25T17:59:04
End                            : 2025-03-25T18:01:09
Reserved walltime              : 15:00:00
Used walltime                  : 00:02:05
Used CPU time                  : 00:01:55 (Efficiency: 91.68%)
% User (Computation)           : 88.24%
% System (I/O)                 : 11.76%
Total memory reserved          : 25000M
Maximum memory used            : 3.06G

Acknowledgements:
=================

Please see this page for information about acknowledging Hbrk in your publications:

https://wiki.hpc.rug.nl/habrok/introduction/scientific_output

################################################################################
