   This run of MOLCAS is using the pymolcas driver

                             OPE
                             OPE          NMOL  CASOP  ENMOLC A   SO
                 OPE        NMOLC        AS  OP EN  MO LC     AS  OP
                OPENM       OL CA        SO  PE NM  OL CA     SOP EN
                OP EN      MO   LC       AS  OP ENMOL  CASO   PENMOL
                OP  EN     MO   LC       AS  OP EN     MO     LC ASO
               OP   E  NMOL  C  AS       OP  EN MO     LC     AS  OP
               OP  E   NMO   LC AS        OPEN  MO     LCASOP EN   M
               O  PEN   MO  LCA  SO
            OPE   NMO   L   CAS    OP
        OPENMOL  CASOP     ENMOL   CASOPE
     OPENMOLCA   SOPENMOLCASOPEN   MOLCASOPE
    OPENMOLCAS   OP           EN   MOL    CAS
    OPENMOLCAS       OP  ENM        O     LCA
    OPENMOLCAS    OPEN  MOLCASO     P  E  NMO
    OPENMOLCAS     OP               E  N  MOL
    OPENMOLCA   SO           PENM   O  L  CAS    OPEN    MO    LCAS
    OPENMOLCA   SOP           ENM   O  L  CAS   OP  EN  MOLC  AS   O
    OPENMOLCA   SOPE           NM      O  LCA   S      OP  EN MO
    OPENMOLC                AS         O  PEN   M      OL  CA  SOPE
    OPENMO        LCASOPE  NMOL        C  ASO   P      ENMOLC     AS
    OPE     NMO      LCA  SO     P     E   NM   OL  CA SO  PE N   MO
          OPENMOLCA            SOPE   NMO        LCAS  O    P  ENMO
     OPENMOLCASOPENMOLCASOPENMOLCASOPENMOLCA
        OPENMOLCASOPENMOLCASOPENMOLCASOPE
            OPENMOLCASOPENMOLCASOPENM
               OPENMOLCASOPENMOLCA        version: o91e1abe7de707b ?
                   OPENMOLCASO
                       OPE                tag:

 OpenMolcas is free software; you can redistribute it and/or modify it
 under the terms of the GNU Lesser General Public License version 2.1.
 OpenMolcas is distributed in the hope that it will be useful, but it
 is provided "as is" and without any express or implied warranties.
 For more details see the full text of the license in the file
 LICENSE or in <http://www.gnu.org/licenses/>.

                 Copyright (C) The OpenMolcas Authors
           For the author list and the recommended citation,
                   consult the file CONTRIBUTORS.md

           *************************************************
           * pymolcas version py2.10                       *
           *   build 3068ae8b88c9345ec6cfef6fef7f1169      *
           *   (after the EMIL interpreter by V. Veryazov) *
           *************************************************

configuration info
------------------
Host name: login1 (Linux)
C Compiler ID: GNU
C flags: -std=gnu99
Fortran Compiler ID: GNU
Fortran flags: -fno-aggressive-loop-optimizations -cpp -fdefault-integer-8 -fmax-stack-var-size=1048576
Definitions: _MOLCAS_;_I8_;_LINUX_;_MKL_
Parallel: OFF (GA=OFF)


   -----------------------------------------------------------------------------------------------------------------------------------
  |
  |           Project: rhenium_so_cf
  |    Submitted from: /home4/s4752295/Internship/Initial_simulations/Point_charge_model/1_electron/Madelung_charges_9_active_space/Re
  |      Scratch area: /tmp/rhenium_so_cf
  |   Save outputs to: /home4/s4752295/Internship/Initial_simulations/Point_charge_model/1_electron/Madelung_charges_9_active_space/Re
  |            Molcas: /home4/s4752295/Internship/Molcas/recomp_try/OpenMolcas-master/build
  |
  | Scratch area is empty
  |
  |    MOLCAS_DRIVER = /home4/s4752295/Internship/Molcas/bin/pymolcas
  |    MOLCAS_NPROCS = 1
  |    MOLCAS_SOURCE = /home4/s4752295/Internship/Molcas/recomp_try/OpenMolcas-master
  | MOLCAS_STRUCTURE = 0
  |
   -----------------------------------------------------------------------------------------------------------------------------------

++ ---------   Input file   ---------

&SEWARD
AMFi

CLIG
$R

Basis Set
Re.ano-rcc.Roos.24s21p15d11f4g2h.11s10p9d8f4g2h.
Spherical d
Re            -1.0658140267135469e-14   -3.5527134223784897e-15 0.008753588724385739
End of Basis

Xfield

414
-0.400220108,-0.15400000000000003,0.0889119     -0.625931
-0.400220108,-0.0,-0.1778239    -0.625931
-0.400220108,0.15400000000000003,0.0889119      -0.625931
-0.39953460700000004,0.0,0.0    1.892092
0.26591796900000003,-0.15400000000000003,-0.0889119     2.515516
0.26591796900000003,0.0,0.1778239       2.515516
0.26591796900000003,0.15400000000000003,-0.0889119      2.515516
0.356298828,-0.30800000000000005,0.0    0.004632
0.356298828,-0.15400000000000003,-0.2667358     0.004632
0.356298828,-0.15400000000000003,0.2667358      0.004632
0.356298828,0.15400000000000003,-0.2667358      0.004632
0.356298828,0.15400000000000003,0.2667358       0.004632
0.356298828,0.30800000000000005,0.0     0.004632
0.41291503900000004,-0.15400000000000003,0.0889119      -2.519484
0.41291503900000004,-0.0,-0.1778239     -2.519484
0.41291503900000004,0.15400000000000003,0.0889119       -2.519484
-0.29331054700000003,-0.0,-0.0  -3.142907
-0.4975097660000001,-0.30800000000000005,-0.1778239     -0.625931
-0.4975097660000001,0.0,0.3556477       -0.625931
-0.4975097660000001,0.30800000000000005,-0.1778239      -0.625931
-0.6609375000000001,-0.30800000000000005,0.0    1.892092
-0.6609375000000001,-0.15400000000000003,-0.2667358     1.892092
-0.6609375000000001,-0.15400000000000003,0.2667358      1.892092
-0.6609375000000001,0.15400000000000003,-0.2667358      1.892092
-0.6609375000000001,0.15400000000000003,0.2667358       1.892092
-0.6609375000000001,0.30800000000000005,0.0     1.892092
2.5171875000000004,-0.30800000000000005,0.1778239       2.515516
2.5171875000000004,-0.0,-0.3556477      2.515516
2.5171875000000004,0.30800000000000005,0.1778239        2.515516
0.363867188,-0.30800000000000005,-0.1778239     -2.519484
0.363867188,0.0,0.3556477       -2.519484
0.363867188,0.30800000000000005,-0.1778239      -2.519484
-0.32324218800000004,-0.30800000000000005,-0.0  -3.142907
-0.32324218800000004,-0.15400000000000003,-0.2667358    -3.142907
-0.32324218800000004,-0.15400000000000003,0.2667358     -3.142907
-0.32324218800000004,0.15400000000000003,-0.2667358     -3.142907
-0.32324218800000004,0.15400000000000003,0.2667358      -3.142907
-0.32324218800000004,0.30800000000000005,-0.0   -3.142907
-0.95234375,-0.30800000000000005,0.3556477      -0.625931
-0.95234375,0.30800000000000005,0.3556477       -0.625931
-0.95234375,-0.462,0.0889119    -0.625931
-0.95234375,0.462,0.0889119     -0.625931
-0.95234375,-0.15400000000000003,-0.44455970000000006   -0.625931
-0.95234375,0.15400000000000003,-0.44455970000000006    -0.625931
0.60078125,-0.15400000000000003,-0.0889119      4.409069
0.60078125,0.15400000000000003,-0.0889119       4.409069
0.60078125,0.0,0.1778239        4.409069
-17.525000000000002,-0.0,-0.0   -5.030367
-17.525000000000002,0.0,0.0     5.039632
1.351757812,-0.30800000000000005,-0.3556477     2.515516
1.351757812,0.30800000000000005,-0.3556477      2.515516
1.351757812,-0.462,-0.0889119   2.515516
1.351757812,0.462,-0.0889119    2.515516
1.351757812,-0.15400000000000003,0.44455970000000006    2.515516
1.351757812,0.15400000000000003,0.44455970000000006     2.515516
1.9039062500000001,-0.462,-0.2667358    0.004632
1.9039062500000001,-0.462,0.2667358     0.004632
1.9039062500000001,0.462,-0.2667358     0.004632
1.9039062500000001,0.462,0.2667358      0.004632
1.9039062500000001,-0.0,-0.5334716      0.004632
1.9039062500000001,0.0,0.5334716        0.004632
4.807812500000001,-0.30800000000000005,0.3556477        -2.519484
4.807812500000001,0.30800000000000005,0.3556477 -2.519484
4.807812500000001,-0.462,0.0889119      -2.519484
4.807812500000001,0.462,0.0889119       -2.519484
4.807812500000001,-0.15400000000000003,-0.44455970000000006     -2.519484
4.807812500000001,0.15400000000000003,-0.44455970000000006      -2.519484
-14.5875,-0.462,-0.2667358      1.892092
-14.5875,-0.462,0.2667358       1.892092
-14.5875,0.462,-0.2667358       1.892092
-14.5875,0.462,0.2667358        1.892092
-14.5875,-0.0,-0.5334716        1.892092
-14.5875,0.0,0.5334716  1.892092
-11.775,-0.30800000000000005,0.1778239  4.409069
-11.775,-0.0,-0.3556477 4.409069
-11.775,0.30800000000000005,0.1778239   4.409069
-8.9,-0.30800000000000005,-0.0  -5.030367
-8.9,-0.15400000000000003,-0.2667358    -5.030367
-8.9,-0.15400000000000003,0.2667358     -5.030367
-8.9,0.15400000000000003,-0.2667358     -5.030367
-8.9,-0.30800000000000005,0.0   5.039632
-8.9,0.30800000000000005,-0.0   -5.030367
-8.9,0.15400000000000003,0.2667358      -5.030367
-8.9,-0.15400000000000003,-0.2667358    5.039632
-8.9,-0.15400000000000003,0.2667358     5.039632
-8.9,0.15400000000000003,-0.2667358     5.039632
-8.9,0.30800000000000005,0.0    5.039632
-8.9,0.15400000000000003,0.2667358      5.039632
-4.6625000000000005,-0.15400000000000003,-0.0889119     -5.660931
-4.6625000000000005,0.0,0.1778239       -5.660931
-4.6625000000000005,0.15400000000000003,-0.0889119      -5.660931
0.08828125,-0.6159999,0.0       0.004632
0.08828125,-0.30800000000000005,-0.5334716      0.004632
0.08828125,-0.30800000000000005,0.5334716       0.004632
0.08828125,0.30800000000000005,-0.5334716       0.004632
0.08828125,0.6159999,0.0        0.004632
0.08828125,0.30800000000000005,0.5334716        0.004632
6.79375,-0.462,0.2667358        -3.142907
6.79375,-0.462,-0.2667358       -3.142907
6.79375,0.462,-0.2667358        -3.142907
6.79375,0.462,0.2667358 -3.142907
6.79375,-0.0,-0.5334716 -3.142907
6.79375,0.0,0.5334716   -3.142907
8.637500000000001,-0.6159999,-0.1778239 -0.625931
8.637500000000001,-0.462,-0.44455970000000006   -0.625931
8.637500000000001,-0.15400000000000003,0.6223835000000001       -0.625931
8.637500000000001,0.462,-0.44455970000000006    -0.625931
8.637500000000001,0.6159999,-0.1778239  -0.625931
8.637500000000001,0.15400000000000003,0.6223835000000001        -0.625931
0.11972656200000001,-0.6159999,0.0      1.892092
0.11972656200000001,-0.30800000000000005,-0.5334716     1.892092
0.11972656200000001,-0.30800000000000005,0.5334716      1.892092
0.11972656200000001,0.30800000000000005,-0.5334716      1.892092
0.11972656200000001,0.6159999,0.0       1.892092
0.11972656200000001,0.30800000000000005,0.5334716       1.892092
3.3843750000000004,-0.30800000000000005,-0.3556477      4.409069
3.3843750000000004,0.30800000000000005,-0.3556477       4.409069
3.3843750000000004,-0.462,-0.0889119    4.409069
3.3843750000000004,0.462,-0.0889119     4.409069
3.3843750000000004,-0.15400000000000003,0.44455970000000006     4.409069
3.3843750000000004,0.15400000000000003,0.44455970000000006      4.409069
16.240625,-0.30800000000000005,0.1778239        -5.660931
16.240625,-0.0,-0.3556477       -5.660931
16.240625,0.30800000000000005,0.1778239 -5.660931
0.034375,-0.6159999,0.1778239   2.515516
0.034375,-0.15400000000000003,-0.6223835000000001       2.515516
0.034375,-0.462,0.44455970000000006     2.515516
0.034375,0.15400000000000003,-0.6223835000000001        2.515516
0.034375,0.6159999,0.1778239    2.515516
0.034375,0.462,0.44455970000000006      2.515516
-9.418750000000001,-0.6159999,-0.1778239        -2.519484
-9.418750000000001,-0.462,-0.44455970000000006  -2.519484
-9.418750000000001,-0.15400000000000003,0.6223835000000001      -2.519484
-9.418750000000001,0.462,-0.44455970000000006   -2.519484
-9.418750000000001,0.15400000000000003,0.6223835000000001       -2.519484
-9.418750000000001,0.6159999,-0.1778239 -2.519484
-2.20703125,-0.6159999,-0.0     -3.142907
-2.20703125,-0.30800000000000005,-0.5334716     -3.142907
-2.20703125,-0.30800000000000005,0.5334716      -3.142907
-2.20703125,0.30800000000000005,-0.5334716      -3.142907
-2.20703125,0.30800000000000005,0.5334716       -3.142907
-2.20703125,0.6159999,-0.0      -3.142907
60.650000000000006,0.0,0.0      6.927092
32.325,-0.6159999,0.3556477     -0.625931
32.325,0.6159999,0.3556477      -0.625931
32.325,-0.0,-0.7112955000000001 -0.625931
-0.5421875,-0.462,0.2667358     -5.030367
-0.5421875,-0.462,-0.2667358    -5.030367
-0.5421875,-0.462,0.2667358     5.039632
-0.5421875,-0.462,-0.2667358    5.039632
-0.5421875,0.462,-0.2667358     -5.030367
-0.5421875,0.462,0.2667358      -5.030367
-0.5421875,0.462,-0.2667358     5.039632
-0.5421875,0.462,0.2667358      5.039632
-0.5421875,-0.0,-0.5334716      -5.030367
-0.5421875,0.0,0.5334716        -5.030367
-0.5421875,-0.0,-0.5334716      5.039632
-0.5421875,0.0,0.5334716        5.039632
9.18125,-0.30800000000000005,-0.3556477 -5.660931
9.18125,0.30800000000000005,-0.3556477  -5.660931
9.18125,-0.462,-0.0889119       -5.660931
9.18125,0.462,-0.0889119        -5.660931
9.18125,-0.15400000000000003,0.44455970000000006        -5.660931
9.18125,0.15400000000000003,0.44455970000000006 -5.660931
30.05,-0.6159999,-0.3556477     2.515516
30.05,0.6159999,-0.3556477      2.515516
30.05,0.0,0.7112955000000001    2.515516
-51.725,-0.6159999,0.3556477    -2.519484
-51.725,0.6159999,0.3556477     -2.519484
-51.725,-0.0,-0.7112955000000001        -2.519484
5.35625,-0.30800000000000005,0.0        6.927092
5.35625,-0.15400000000000003,-0.2667358 6.927092
5.35625,-0.15400000000000003,0.2667358  6.927092
5.35625,0.15400000000000003,-0.2667358  6.927092
5.35625,0.15400000000000003,0.2667358   6.927092
5.35625,0.30800000000000005,0.0 6.927092
-5.525,-0.15400000000000003,0.0889119   7.550516
-5.525,0.0,-0.1778239   7.550516
-5.525,0.15400000000000003,0.0889119    7.550516
1.553125,-0.15400000000000003,-0.0889119        -7.554483
1.553125,0.15400000000000003,-0.0889119 -7.554483
1.553125,-0.0,0.1778239 -7.554483
-12.4875,-0.7699999000000001,0.0889119  -0.625931
-12.4875,-0.462,0.6223835000000001      -0.625931
-12.4875,-0.30800000000000005,-0.7112955000000001       -0.625931
-12.4875,0.30800000000000005,-0.7112955000000001        -0.625931
-12.4875,0.7699999000000001,0.0889119   -0.625931
-12.4875,0.462,0.6223835000000001       -0.625931
-6.74375,-0.6159999,0.1778239   4.409069
-6.74375,-0.462,0.44455970000000006     4.409069
-6.74375,-0.15400000000000003,-0.6223835000000001       4.409069
-6.74375,0.15400000000000003,-0.6223835000000001        4.409069
-6.74375,0.462,0.44455970000000006      4.409069
-6.74375,0.6159999,0.1778239    4.409069
4.915625,-0.6159999,-0.0        -5.030367
4.915625,-0.30800000000000005,-0.5334716        -5.030367
4.915625,-0.30800000000000005,0.5334716 -5.030367
4.915625,-0.6159999,0.0 5.039632
4.915625,-0.30800000000000005,-0.5334716        5.039632
4.915625,0.30800000000000005,-0.5334716 -5.030367
4.915625,0.30800000000000005,0.5334716  -5.030367
4.915625,0.6159999,-0.0 -5.030367
4.915625,-0.30800000000000005,0.5334716 5.039632
4.915625,0.30800000000000005,-0.5334716 5.039632
4.915625,0.6159999,0.0  5.039632
4.915625,0.30800000000000005,0.5334716  5.039632
18.075,-0.7699999000000001,-0.0889119   2.515516
18.075,-0.462,-0.6223835000000001       2.515516
18.075,-0.30800000000000005,0.7112955000000001  2.515516
18.075,0.462,-0.6223835000000001        2.515516
18.075,0.7699999000000001,-0.0889119    2.515516
18.075,0.30800000000000005,0.7112955000000001   2.515516
-2.334375,-0.7699999000000001,-0.2667358        0.004632
-2.334375,-0.7699999000000001,0.2667358 0.004632
-2.334375,-0.6159999,-0.5334716 0.004632
-2.334375,-0.6159999,0.5334716  0.004632
-2.334375,-0.15400000000000003,-0.8002074000000001      0.004632
-2.334375,0.15400000000000003,-0.8002074000000001       0.004632
-2.334375,-0.15400000000000003,0.8002074000000001       0.004632
-2.334375,0.6159999,-0.5334716  0.004632
-2.334375,0.15400000000000003,0.8002074000000001        0.004632
-2.334375,0.7699999000000001,-0.2667358 0.004632
-2.334375,0.7699999000000001,0.2667358  0.004632
-2.334375,0.6159999,0.5334716   0.004632
-14.3125,-0.7699999000000001,0.0889119  -2.519484
-14.3125,-0.462,0.6223835000000001      -2.519484
-14.3125,-0.30800000000000005,-0.7112955000000001       -2.519484
-14.3125,0.30800000000000005,-0.7112955000000001        -2.519484
-14.3125,0.7699999000000001,0.0889119   -2.519484
-14.3125,0.462,0.6223835000000001       -2.519484
303.2,-0.0,-0.0 -8.177907
-11.600000000000001,-0.30800000000000005,-0.1778239     7.550516
-11.600000000000001,0.0,0.3556477       7.550516
-11.600000000000001,0.30800000000000005,-0.1778239      7.550516
-60.35,-0.30800000000000005,0.1778239   -7.554483
-60.35,-0.0,-0.3556477  -7.554483
-60.35,0.30800000000000005,0.1778239    -7.554483
4.890625,-0.7699999000000001,0.2667358  1.892092
4.890625,-0.7699999000000001,-0.2667358 1.892092
4.890625,-0.6159999,-0.5334716  1.892092
4.890625,-0.6159999,0.5334716   1.892092
4.890625,-0.15400000000000003,-0.8002074000000001       1.892092
4.890625,0.15400000000000003,-0.8002074000000001        1.892092
4.890625,-0.15400000000000003,0.8002074000000001        1.892092
4.890625,0.6159999,-0.5334716   1.892092
4.890625,0.15400000000000003,0.8002074000000001 1.892092
4.890625,0.7699999000000001,-0.2667358  1.892092
4.890625,0.7699999000000001,0.2667358   1.892092
4.890625,0.6159999,0.5334716    1.892092
-50.5,-0.6159999,-0.3556477     4.409069
-50.5,0.6159999,-0.3556477      4.409069
-50.5,0.0,0.7112955000000001    4.409069
2.58203125,-0.6159999,0.1778239 -5.660931
2.58203125,-0.15400000000000003,-0.6223835000000001     -5.660931
2.58203125,-0.462,0.44455970000000006   -5.660931
2.58203125,0.15400000000000003,-0.6223835000000001      -5.660931
2.58203125,0.462,0.44455970000000006    -5.660931
2.58203125,0.6159999,0.1778239  -5.660931
-5.8187500000000005,-0.6159999,-0.5334716       -3.142907
-5.8187500000000005,-0.7699999000000001,0.2667358       -3.142907
-5.8187500000000005,-0.7699999000000001,-0.2667358      -3.142907
-5.8187500000000005,-0.6159999,0.5334716        -3.142907
-5.8187500000000005,-0.15400000000000003,-0.8002074000000001    -3.142907
-5.8187500000000005,0.15400000000000003,-0.8002074000000001     -3.142907
-5.8187500000000005,-0.15400000000000003,0.8002074000000001     -3.142907
-5.8187500000000005,0.7699999000000001,-0.2667358       -3.142907
-5.8187500000000005,0.6159999,-0.5334716        -3.142907
-5.8187500000000005,0.15400000000000003,0.8002074000000001      -3.142907
-5.8187500000000005,0.7699999000000001,0.2667358        -3.142907
-5.8187500000000005,0.6159999,0.5334716 -3.142907
6.540625,-0.462,-0.2667358      6.927092
6.540625,-0.462,0.2667358       6.927092
6.540625,0.462,-0.2667358       6.927092
6.540625,0.462,0.2667358        6.927092
6.540625,-0.0,-0.5334716        6.927092
6.540625,0.0,0.5334716  6.927092
-8.325000000000001,-0.30800000000000005,-0.0    -8.177907
-8.325000000000001,-0.15400000000000003,0.2667358       -8.177907
-8.325000000000001,-0.15400000000000003,-0.2667358      -8.177907
-8.325000000000001,0.15400000000000003,-0.2667358       -8.177907
-8.325000000000001,0.30800000000000005,-0.0     -8.177907
-8.325000000000001,0.15400000000000003,0.2667358        -8.177907
-9.090625000000001,-0.30800000000000005,0.3556477       7.550516
-9.090625000000001,0.30800000000000005,0.3556477        7.550516
-9.090625000000001,-0.462,0.0889119     7.550516
-9.090625000000001,0.462,0.0889119      7.550516
-9.090625000000001,-0.15400000000000003,-0.44455970000000006    7.550516
-9.090625000000001,0.15400000000000003,-0.44455970000000006     7.550516
-4.5687500000000005,-0.30800000000000005,-0.3556477     -7.554483
-4.5687500000000005,0.30800000000000005,-0.3556477      -7.554483
-4.5687500000000005,-0.462,-0.0889119   -7.554483
-4.5687500000000005,0.462,-0.0889119    -7.554483
-4.5687500000000005,-0.15400000000000003,0.44455970000000006    -7.554483
-4.5687500000000005,0.15400000000000003,0.44455970000000006     -7.554483
-50.025000000000006,0.0,0.8891193       -0.625931
-50.025000000000006,-0.7699999000000001,-0.44455970000000006    -0.625931
-50.025000000000006,0.7699999000000001,-0.44455970000000006     -0.625931
-26.975,-0.7699999000000001,-0.0889119  4.409069
-26.975,-0.462,-0.6223835000000001      4.409069
-26.975,-0.30800000000000005,0.7112955000000001 4.409069
-26.975,0.462,-0.6223835000000001       4.409069
-26.975,0.7699999000000001,-0.0889119   4.409069
-26.975,0.30800000000000005,0.7112955000000001  4.409069
31.0375,-0.6159999,-0.3556477   -5.660931
31.0375,0.6159999,-0.3556477    -5.660931
31.0375,0.0,0.7112955000000001  -5.660931
58.7,-0.0,-0.8891193    2.515516
58.7,-0.7699999000000001,0.44455970000000006    2.515516
58.7,0.7699999000000001,0.44455970000000006     2.515516
-9.387500000000001,-0.9239999,-0.0      0.004632
-9.387500000000001,0.462,-0.8002074000000001    0.004632
-9.387500000000001,-0.462,0.8002074000000001    0.004632
-9.387500000000001,0.9239999,-0.0       0.004632
-9.387500000000001,-0.462,-0.8002074000000001   0.004632
-9.387500000000001,0.462,0.8002074000000001     0.004632
-38.575,0.0,0.8891193   -2.519484
-38.575,-0.7699999000000001,-0.44455970000000006        -2.519484
-38.575,0.7699999000000001,-0.44455970000000006 -2.519484
22.8,-0.6159999,0.0     6.927092
22.8,-0.30800000000000005,-0.5334716    6.927092
22.8,-0.30800000000000005,0.5334716     6.927092
22.8,0.30800000000000005,-0.5334716     6.927092
22.8,0.6159999,0.0      6.927092
22.8,0.30800000000000005,0.5334716      6.927092
21.1875,-0.9239999,-0.1778239   -0.625931
21.1875,-0.30800000000000005,0.8891193  -0.625931
21.1875,-0.6159999,-0.7112955000000001  -0.625931
21.1875,0.6159999,-0.7112955000000001   -0.625931
21.1875,0.30800000000000005,0.8891193   -0.625931
21.1875,0.9239999,-0.1778239    -0.625931
11.193750000000001,-0.9239999,0.0       1.892092
11.193750000000001,-0.462,-0.8002074000000001   1.892092
11.193750000000001,-0.462,0.8002074000000001    1.892092
11.193750000000001,0.462,-0.8002074000000001    1.892092
11.193750000000001,0.9239999,0.0        1.892092
11.193750000000001,0.462,0.8002074000000001     1.892092
-0.43203125000000003,-0.7699999000000001,0.2667358      -5.030367
-0.43203125000000003,-0.7699999000000001,-0.2667358     -5.030367
-0.43203125000000003,-0.6159999,-0.5334716      -5.030367
-0.43203125000000003,-0.6159999,0.5334716       -5.030367
-0.43203125000000003,-0.7699999000000001,0.2667358      5.039632
-0.43203125000000003,0.15400000000000003,-0.8002074000000001    -5.030367
-0.43203125000000003,-0.15400000000000003,-0.8002074000000001   -5.030367
-0.43203125000000003,-0.7699999000000001,-0.2667358     5.039632
-0.43203125000000003,-0.6159999,-0.5334716      5.039632
-0.43203125000000003,-0.15400000000000003,0.8002074000000001    -5.030367
-0.43203125000000003,0.15400000000000003,-0.8002074000000001    5.039632
-0.43203125000000003,-0.6159999,0.5334716       5.039632
-0.43203125000000003,-0.15400000000000003,-0.8002074000000001   5.039632
-0.43203125000000003,0.6159999,-0.5334716       -5.030367
-0.43203125000000003,0.15400000000000003,0.8002074000000001     -5.030367
-0.43203125000000003,0.7699999000000001,-0.2667358      -5.030367
-0.43203125000000003,0.7699999000000001,0.2667358       -5.030367
-0.43203125000000003,0.6159999,0.5334716        -5.030367
-0.43203125000000003,-0.15400000000000003,0.8002074000000001    5.039632
-0.43203125000000003,0.6159999,-0.5334716       5.039632
-0.43203125000000003,0.7699999000000001,-0.2667358      5.039632
-0.43203125000000003,0.15400000000000003,0.8002074000000001     5.039632
-0.43203125000000003,0.7699999000000001,0.2667358       5.039632
-0.43203125000000003,0.6159999,0.5334716        5.039632
-0.06875,-0.7699999000000001,-0.0889119 -5.660931
-0.06875,-0.462,-0.6223835000000001     -5.660931
-0.06875,-0.30800000000000005,0.7112955000000001        -5.660931
-0.06875,0.462,-0.6223835000000001      -5.660931
-0.06875,0.30800000000000005,0.7112955000000001 -5.660931
-0.06875,0.7699999000000001,-0.0889119  -5.660931
11.600000000000001,-0.15400000000000003,0.0889119       9.444068
11.600000000000001,0.0,-0.1778239       9.444068
11.600000000000001,0.15400000000000003,0.0889119        9.444068
5.1312500000000005,-0.9239999,0.1778239 2.515516
5.1312500000000005,-0.30800000000000005,-0.8891193      2.515516
5.1312500000000005,0.30800000000000005,-0.8891193       2.515516
5.1312500000000005,-0.6159999,0.7112955000000001        2.515516
5.1312500000000005,0.9239999,0.1778239  2.515516
5.1312500000000005,0.6159999,0.7112955000000001 2.515516
15.6875,-0.9239999,-0.1778239   -2.519484
15.6875,-0.30800000000000005,0.8891193  -2.519484
15.6875,-0.6159999,-0.7112955000000001  -2.519484
15.6875,0.6159999,-0.7112955000000001   -2.519484
15.6875,0.9239999,-0.1778239    -2.519484
15.6875,0.30800000000000005,0.8891193   -2.519484
21.962500000000002,-0.9239999,-0.0      -3.142907
21.962500000000002,-0.462,-0.8002074000000001   -3.142907
21.962500000000002,-0.462,0.8002074000000001    -3.142907
21.962500000000002,0.462,-0.8002074000000001    -3.142907
21.962500000000002,0.9239999,-0.0       -3.142907
21.962500000000002,0.462,0.8002074000000001     -3.142907
0.864550781,-0.462,-0.2667358   -8.177907
0.864550781,-0.462,0.2667358    -8.177907
0.864550781,0.462,0.2667358     -8.177907
0.864550781,0.462,-0.2667358    -8.177907
0.864550781,-0.0,-0.5334716     -8.177907
0.864550781,0.0,0.5334716       -8.177907
25.1875,-0.462,-0.44455970000000006     7.550516
25.1875,-0.6159999,-0.1778239   7.550516
25.1875,-0.15400000000000003,0.6223835000000001 7.550516
25.1875,0.462,-0.44455970000000006      7.550516
25.1875,0.15400000000000003,0.6223835000000001  7.550516
25.1875,0.6159999,-0.1778239    7.550516
-34.800000000000004,-0.462,0.44455970000000006  -7.554483
-34.800000000000004,-0.6159999,0.1778239        -7.554483
-34.800000000000004,-0.15400000000000003,-0.6223835000000001    -7.554483
-34.800000000000004,0.15400000000000003,-0.6223835000000001     -7.554483
-34.800000000000004,0.6159999,0.1778239 -7.554483
-34.800000000000004,0.462,0.44455970000000006   -7.554483
7.1265625,-0.7699999000000001,0.6223835000000001        -0.625931
7.1265625,-0.9239999,0.3556477  -0.625931
7.1265625,-0.15400000000000003,-0.9780313       -0.625931
7.1265625,0.15400000000000003,-0.9780313        -0.625931
7.1265625,0.9239999,0.3556477   -0.625931
7.1265625,0.7699999000000001,0.6223835000000001 -0.625931
-48.375,-0.0,-0.8891193 4.409069
-48.375,-0.7699999000000001,0.44455970000000006 4.409069
-48.375,0.7699999000000001,0.44455970000000006  4.409069

End of input

&SCF
Occupied
9
Iterations
   50  100
End of Input

&RASSCF
LumOrb
Symmetry
1
Spin
2
Nactel
1 0 0
CIRoot
9 9 1
inactive
9
ras2
9
End of Input

>>> COPY rhenium_so_cf.JobIph $SLURM_SUBMIT_DIR/rhenium_so_cf.doublet.JobIph

>>> COPY $SLURM_SUBMIT_DIR/rhenium_so_cf.doublet.JobIph ./JOB002

&RASSI
NROFJobIph
1 All
SpinOrbit
End of Input

EOF

-- ----------------------------------

--- Start Module: seward at Tue Mar 25 14:17:38 2025 ---

()()()()()()()()()()()()()()()()()()()()()()()()()()()()()()()()()()()()()()()()()()()()()()()()()()

                                              &SEWARD

                                   only a single process is used
                       available to each process: 4.1 GB of memory, 1 thread?
                                            pid: 1837082
()()()()()()()()()()()()()()()()()()()()()()()()()()()()()()()()()()()()()()()()()()()()()()()()()()

 The speed of LIGHT in this CALCULATION =   137.03599917700001     
               SEWARD will generate:
                  Multipole Moment integrals up to order  2
                  Kinetic Energy integrals
                  Nuclear Attraction integrals (point charge)
                  One-Electron Hamiltonian integrals
                  Velocity integrals
                  Relativistic Douglas-Kroll-Hess integrals:
                    - Parametrization         : EXP
                    - DKH order of Hamiltonian: 2
                    - DKH order of Properties : 0
                         - multipole moment operators
                         - electric potential operators
                         - contact operators
                  External field from   414 point(s) added to the one-electron Hamiltonian
                  Orbital angular momentum around (-0.0000 -0.0000  0.0088 )
                  Velocity quadrupole around (-0.0000 -0.0000  0.0088 )
                  Atomic mean-field integrals
                  Two-Electron Repulsion integrals

                   Integrals are discarded if absolute value <: 0.10E-13
                   Integral cutoff threshold is set to       <: 0.10E-15

++    Symmetry information:
      ---------------------

                    Character Table for C1 

                             E  
                    a        1  x, y, xy, Rz, z, xz, Ry, yz, Rx, I
--


++    Basis set information:
      ----------------------


      Basis set label: RE.ANO-RCC.ROOS.24S21P15D11F4G2H.11S10P9D8F4G2H......

      Electronic valence basis set:
      ------------------
      Associated Effective Charge  75.000000 au
      Associated Actual Charge     75.000000 au
      Nuclear Model: Point charge

      Shell  nPrim  nBasis  Cartesian Spherical Contaminant
         s      24      11        X                  
         p      21      10        X                  
         d      15       9                 X         
         f      11       8                 X         
         g       4       4                 X         
         h       2       2                 X         
--


++    Molecular structure info:
      -------------------------

                    ************************************************ 
                    **** Cartesian Coordinates / Bohr, Angstrom **** 
                    ************************************************ 

     Center  Label                x              y              z                     x              y              z
        1      RE              -0.000000      -0.000000       0.008754             -0.000000      -0.000000       0.004632
--


++    Operator info:
      --------------


  Net charge from external field:   -39.268449999999902     
--


            Nuclear Potential Energy              0.00000000 au

                    Nuclear-External Field Potential Energy   -6861.41320820 au
                    External Field Potential Energy           16056.36901386 au 


            Total Nuclear Potential Energy          -6861.41320820 au


      Basis set specifications :
      Symmetry species         a  
      Basis functions          200

 Sorry, Molden does not know how to handle
 functions with angular momentum larger than g
Note: The following floating-point exceptions are signalling: IEEE_UNDERFLOW_FLAG IEEE_DENORMAL
--- Stop Module: seward at Tue Mar 25 14:17:58 2025 /rc=_RC_ALL_IS_WELL_ ---
*** files: rhenium_so_cf.GssOrb xmldump
    saved to directory /home4/s4752295/Internship/Initial_simulations/Point_charge_model/1_electron/Madelung_charges_9_active_space/Re
--- Module seward spent 19 seconds ---

*** symbolic link created: INPORB -> rhenium_so_cf.GssOrb
--- Start Module: scf at Tue Mar 25 14:17:58 2025 ---

()()()()()()()()()()()()()()()()()()()()()()()()()()()()()()()()()()()()()()()()()()()()()()()()()()

                                                &SCF

                                   only a single process is used
                       available to each process: 4.1 GB of memory, 1 thread?
                                            pid: 1837098
()()()()()()()()()()()()()()()()()()()()()()()()()()()()()()()()()()()()()()()()()()()()()()()()()()

++    Input section:
      --------------

      Header of the integral files:
      
       Integrals generated by seward 4.2.0  , Tue Mar 25 14:17:39 2025


      Cartesian coordinates in Angstrom:
      -----------------------------------------------------
      No.  Label        X            Y            Z        
      -----------------------------------------------------
       1   RE        -0.00000000  -0.00000000   0.00463220
      -----------------------------------------------------
      Nuclear repulsion energy =-6861.41320820
--

++    Orbital specifications:
      -----------------------

      Symmetry species               1
                                     a
      Frozen orbitals                0
      Occupied orbitals              9
      Secondary orbitals           191
      Deleted orbitals               0
      Total number of orbitals     200
      Number of basis functions    200
--

      Molecular charge                          57.000

++    Optimization specifications:
      ----------------------------

      SCF Algorithm: Conventional
      Minimized density differences are used
      Number of density matrices in core                5
      Maximum number of NDDO SCF iterations            50
      Maximum number of HF SCF iterations             100
      Threshold for SCF energy change            0.10E-08
      Threshold for density matrix               0.10E-03
      Threshold for Fock matrix                  0.15E-03
      Threshold for linear dependence            0.10E-08
      Threshold at which DIIS is turned on       0.15E+00
      Threshold at which QNR/C2DIIS is turned on 0.75E-01
      Threshold for Norm(delta) (QNR/C2DIIS)     0.20E-04
      DIIS extrapolation of the SCF procedure
      All orbitals punched on: SCFORB
--

      Detected guessorb starting orbitals                                             


++ Convergence information
                                   SCF        iterations: Energy and convergence statistics

Iter     Tot. SCF        One-elec.       Two-elec.     Energy      Max Dij or  Max Fij      DNorm      TNorm      AccCon     Time
         Energy          Energy          Energy        Change      Delta Norm                                                in Sec.

 The total and one-electron energies are shifted by a value of     18000. a.u.

   1  -524.505919073  5045.714977468  1291.192311663   0.00E+00    0.74E+00*   0.10E+02*    0.60E+01   0.67E+03   None         1.
   2  -553.456163869  4967.808607116  1340.148437219  -0.29E+02*   0.33E-01*   0.15E+01*    0.24E+01   0.68E+03   EDIIS        1.
   3  -553.555165507  4969.242847005  1338.615195693  -0.99E-01*   0.55E-02*   0.64E-01*    0.73E-01   0.68E+03   EDIIS        1.
   4  -553.555670274  4969.148117231  1338.709420699  -0.50E-03*   0.74E-03*   0.62E-02*    0.71E-02   0.68E+03   c2DIIS       1.
   5  -553.555680338  4969.152256038  1338.705271827  -0.10E-04*   0.96E-04*   0.18E-02*    0.30E-03   0.68E+03   QNRc2DIIS    1.
   6  -553.555680864  4969.152069640  1338.705457700  -0.53E-06*   0.25E-04*   0.37E-03*    0.88E-05   0.68E+03   QNRc2DIIS    1.
   7  -553.555680889  4969.152049672  1338.705477643  -0.24E-07*   0.14E-06    0.22E-05     0.79E-04   0.68E+03   QNRc2DIIS    1.
   8  -553.555680889  4969.152048288  1338.705479027  -0.73E-11    0.32E-07    0.43E-06     0.24E-03   0.68E+03   QNRc2DIIS    1.

       Convergence after  8 Macro Iterations
--

 *****************************************************************************************************************************
 *                                                                                                                           *
 *                                             SCF/KS-DFT Program, Final results                                             *
 *                                                                                                                           *
 *                                                                                                                           *
 *                                                                                                                           *
 *                                                       Final Results                                                       *
 *                                                                                                                           *
 *****************************************************************************************************************************

::    Total SCF energy                             -18553.5556808885
      One-electron energy                          -13030.8479517116
      Two-electron energy                            1338.7054790268
      Nuclear repulsion energy                      -6861.4132082038
      Kinetic energy (interpolated)                 20104.7581700829
      Virial theorem                                    0.9228440115
      Total spin, S(S+1)                                0.0000000000
      Total spin, S                                     0.0000000000
      Max non-diagonal density matrix element           0.0000000606
      Max non-diagonal Fock matrix element              0.0000001236


      All orbitals with orbital energies smaller than  E(LUMO)+0.5 are printed

++    Molecular orbitals:
      -------------------

      Title: SCF orbitals

      Molecular orbitals for symmetry species 1: a  

          Some orbital energies have been scaled by powers of 10, the power is written right after the orbital index


          Orbital            1 (1)     2         3         4         5         6         7         8         9        10    
          Energy         -270.7872 -523.1271 -466.5334 -466.5321 -466.1122 -151.5153 -133.0015 -132.9688 -129.0561 -110.9860
          Occ. No.          2.0000    2.0000    2.0000    2.0000    2.0000    2.0000    2.0000    2.0000    2.0000    0.0000

        1 RE     1s         1.0000    0.0002    0.0000    0.0000   -0.0002   -0.0000   -0.0000   -0.0000    0.0001   -0.0000
        2 RE     2s        -0.0002    0.9990    0.0006    0.0000   -0.0417    0.0099    0.0001   -0.0000   -0.0073    0.0000
        3 RE     3s         0.0000   -0.0117   -0.0001   -0.0000    0.0041    0.9207    0.0031   -0.0000   -0.3550    0.0000
        4 RE     4s        -0.0000    0.0034    0.0000    0.0000   -0.0010   -0.0668   -0.0004   -0.0000    0.0398   -0.0000
        5 RE     5s         0.0000   -0.0012   -0.0000    0.0000    0.0004    0.0192    0.0002   -0.0000   -0.0130   -0.0000
        6 RE     6s        -0.0000    0.0003    0.0000    0.0000   -0.0001   -0.0053   -0.0000   -0.0000    0.0037   -0.0000
        7 RE     7s         0.0000   -0.0006   -0.0000   -0.0000    0.0002    0.0087    0.0001    0.0000   -0.0061    0.0000
        8 RE     8s        -0.0000    0.0012    0.0000   -0.0000   -0.0004   -0.0179   -0.0002    0.0000    0.0127    0.0000
        9 RE     9s         0.0000   -0.0016   -0.0000    0.0000    0.0005    0.0212    0.0002   -0.0000   -0.0158   -0.0000
       10 RE    10s        -0.0000    0.0012    0.0000    0.0000   -0.0003   -0.0137   -0.0001   -0.0000    0.0110   -0.0000
       11 RE    11s         0.0000   -0.0024   -0.0000   -0.0000    0.0006    0.0224    0.0003    0.0000   -0.0198    0.0000
       12 RE     2px        0.0002    0.0418   -0.0225   -0.0000    0.9987    0.0018   -0.0002    0.0000    0.0112   -0.0000
       13 RE     3px       -0.0001    0.0030    0.0003    0.0000   -0.0141    0.3791   -0.0121    0.0000    0.8257   -0.0000
       14 RE     4px        0.0000   -0.0009   -0.0001   -0.0000    0.0039   -0.0241    0.0009   -0.0000   -0.0795    0.0000
       15 RE     5px       -0.0000    0.0003    0.0000    0.0000   -0.0013    0.0057   -0.0002   -0.0000    0.0224   -0.0000
       16 RE     6px        0.0000   -0.0001   -0.0000   -0.0000    0.0006   -0.0025    0.0001   -0.0000   -0.0102   -0.0000
       17 RE     7px       -0.0000    0.0004    0.0000    0.0000   -0.0018    0.0064   -0.0003   -0.0000    0.0282   -0.0000
       18 RE     8px        0.0000   -0.0005   -0.0000   -0.0000    0.0019   -0.0055    0.0003   -0.0000   -0.0279   -0.0000
       19 RE     9px       -0.0000    0.0004    0.0000    0.0000   -0.0018    0.0037   -0.0002   -0.0000    0.0240   -0.0000
       20 RE    10px        0.0000   -0.0005   -0.0000   -0.0000    0.0020   -0.0025    0.0002   -0.0000   -0.0234    0.0000
       21 RE    11px       -0.0001    0.0007    0.0001    0.0000   -0.0028   -0.0009   -0.0003    0.0000    0.0237   -0.0000
       22 RE     2py       -0.0000    0.0000   -0.0000    0.9999   -0.0000   -0.0000   -0.0000    0.0121    0.0000    0.0007
       23 RE     3py        0.0000    0.0000    0.0000   -0.0132    0.0000   -0.0000   -0.0000    0.9568   -0.0000    0.0270
       24 RE     4py       -0.0000    0.0000   -0.0000    0.0037   -0.0000    0.0000    0.0000   -0.0810    0.0000   -0.0015
       25 RE     5py        0.0000    0.0000    0.0000   -0.0012    0.0000   -0.0000   -0.0000    0.0226   -0.0000    0.0006
       26 RE     6py       -0.0000   -0.0000   -0.0000    0.0006   -0.0000    0.0000    0.0000   -0.0103    0.0000   -0.0003
       27 RE     7py        0.0000    0.0000    0.0000   -0.0017    0.0000   -0.0000   -0.0000    0.0284   -0.0000    0.0010
       28 RE     8py       -0.0000   -0.0000   -0.0000    0.0018   -0.0000    0.0000    0.0000   -0.0280    0.0000   -0.0011
       29 RE     9py        0.0000    0.0000    0.0000   -0.0017    0.0000   -0.0000   -0.0000    0.0238   -0.0000    0.0011
       30 RE    10py       -0.0000   -0.0000   -0.0000    0.0019   -0.0000    0.0000    0.0000   -0.0232    0.0000   -0.0012
       31 RE    11py        0.0000    0.0000    0.0000   -0.0026    0.0000   -0.0000   -0.0000    0.0232   -0.0000    0.0016
       32 RE     2pz        0.0000    0.0004    0.9996    0.0000    0.0225    0.0000    0.0120    0.0000    0.0001   -0.0000
       33 RE     3pz       -0.0000    0.0000   -0.0132   -0.0000   -0.0003    0.0021    0.9557    0.0000    0.0108   -0.0000
       34 RE     4pz        0.0000   -0.0000    0.0037    0.0000    0.0001   -0.0002   -0.0811   -0.0000   -0.0012    0.0000
       35 RE     5pz       -0.0000    0.0000   -0.0012   -0.0000   -0.0000    0.0001    0.0226    0.0000    0.0003    0.0000
       36 RE     6pz        0.0000   -0.0000    0.0006    0.0000    0.0000   -0.0000   -0.0103   -0.0000   -0.0002    0.0000
       37 RE     7pz       -0.0000    0.0000   -0.0017   -0.0000   -0.0000    0.0001    0.0284    0.0000    0.0004    0.0000
       38 RE     8pz        0.0000   -0.0000    0.0018    0.0000    0.0000   -0.0001   -0.0280   -0.0000   -0.0004    0.0000
       39 RE     9pz       -0.0000    0.0000   -0.0017   -0.0000   -0.0000    0.0001    0.0238    0.0000    0.0003   -0.0000
       40 RE    10pz        0.0000   -0.0000    0.0019    0.0000    0.0000   -0.0001   -0.0231   -0.0000   -0.0003    0.0000
       41 RE    11pz       -0.0000    0.0000   -0.0026   -0.0000   -0.0001    0.0000    0.0230    0.0000    0.0003   -0.0000
       42 RE     3d2-       0.0000   -0.0000   -0.0000    0.0042   -0.0000   -0.0000   -0.0000    0.2716   -0.0000   -0.0897
       43 RE     4d2-      -0.0000   -0.0000    0.0000   -0.0011    0.0000    0.0000    0.0000   -0.0113    0.0000    0.0077
       44 RE     5d2-       0.0000    0.0000   -0.0000    0.0003   -0.0000   -0.0000   -0.0000    0.0017   -0.0000   -0.0015
       45 RE     6d2-      -0.0000   -0.0000    0.0000   -0.0004    0.0000    0.0000    0.0000   -0.0020    0.0000    0.0020
       46 RE     7d2-       0.0000    0.0000   -0.0000    0.0005   -0.0000   -0.0000   -0.0000    0.0023   -0.0000   -0.0026
       47 RE     8d2-      -0.0000   -0.0000    0.0000   -0.0007    0.0000   -0.0000    0.0000   -0.0016    0.0000    0.0029
       48 RE     9d2-       0.0000    0.0000   -0.0000    0.0006   -0.0000    0.0000   -0.0000    0.0002   -0.0000   -0.0022
       49 RE    10d2-      -0.0000   -0.0000    0.0000   -0.0009    0.0000   -0.0000   -0.0000    0.0016   -0.0000    0.0024
       50 RE    11d2-       0.0000    0.0000   -0.0000    0.0010   -0.0000    0.0000    0.0000   -0.0040    0.0000   -0.0017
       51 RE     3d1-      -0.0000    0.0000   -0.0000    0.0000    0.0000    0.0000    0.0000   -0.0014    0.0000    0.9875
       52 RE     4d1-       0.0000   -0.0000    0.0000   -0.0000   -0.0000   -0.0000   -0.0000    0.0011   -0.0000   -0.0884
       53 RE     5d1-      -0.0000   -0.0000   -0.0000    0.0000   -0.0000    0.0000    0.0000   -0.0002    0.0000    0.0181
       54 RE     6d1-       0.0000   -0.0000    0.0000   -0.0000   -0.0000   -0.0000   -0.0000    0.0002   -0.0000   -0.0236
       55 RE     7d1-      -0.0000    0.0000   -0.0000    0.0000    0.0000    0.0000    0.0000   -0.0002    0.0000    0.0317
       56 RE     8d1-       0.0000   -0.0000    0.0000   -0.0000   -0.0000   -0.0000   -0.0000    0.0000   -0.0000   -0.0368
       57 RE     9d1-      -0.0000    0.0000   -0.0000    0.0000    0.0000    0.0000   -0.0000    0.0001    0.0000    0.0300
       58 RE    10d1-       0.0000    0.0000    0.0000   -0.0000   -0.0000   -0.0000    0.0000   -0.0005   -0.0000   -0.0351
       59 RE    11d1-      -0.0000   -0.0000   -0.0000    0.0000   -0.0000   -0.0000   -0.0000    0.0005   -0.0000    0.0253
       60 RE     3d0        0.0000    0.0003    0.0001    0.0000   -0.0027   -0.0180    0.0062   -0.0000   -0.2085    0.0000
       61 RE     4d0       -0.0000   -0.0001   -0.0000   -0.0000    0.0007    0.0010   -0.0010   -0.0000    0.0114   -0.0000
       62 RE     5d0        0.0000    0.0000    0.0000    0.0000   -0.0002   -0.0001    0.0002   -0.0000   -0.0020    0.0000
       63 RE     6d0       -0.0000   -0.0000   -0.0000   -0.0000    0.0002    0.0001   -0.0002    0.0000    0.0025   -0.0000
       64 RE     7d0        0.0000    0.0000    0.0000    0.0000   -0.0003   -0.0000    0.0002    0.0000   -0.0030    0.0000
       65 RE     8d0       -0.0000   -0.0000   -0.0000   -0.0000    0.0004   -0.0002   -0.0001    0.0000    0.0028   -0.0000
       66 RE     9d0        0.0000    0.0000    0.0000    0.0000   -0.0004    0.0004   -0.0001   -0.0000   -0.0015    0.0000
       67 RE    10d0       -0.0000   -0.0000   -0.0000   -0.0000    0.0005   -0.0010    0.0003    0.0000    0.0005   -0.0000
       68 RE    11d0        0.0000    0.0000    0.0000    0.0000   -0.0006    0.0014   -0.0004   -0.0000    0.0021    0.0000
       69 RE     3d1+      -0.0000   -0.0000    0.0043    0.0000    0.0002   -0.0007    0.2749    0.0000    0.0100    0.0000
       70 RE     4d1+       0.0000    0.0000   -0.0011   -0.0000   -0.0000   -0.0002   -0.0115   -0.0000   -0.0007   -0.0000
       71 RE     5d1+      -0.0000   -0.0000    0.0003    0.0000    0.0000    0.0000    0.0017    0.0000    0.0001    0.0000
       72 RE     6d1+       0.0000    0.0000   -0.0004   -0.0000   -0.0000   -0.0001   -0.0020   -0.0000   -0.0002   -0.0000
       73 RE     7d1+      -0.0000   -0.0000    0.0005    0.0000    0.0000    0.0001    0.0023    0.0000    0.0002    0.0000
       74 RE     8d1+       0.0000    0.0000   -0.0007   -0.0000   -0.0000   -0.0001   -0.0016   -0.0000   -0.0002   -0.0000
       75 RE     9d1+      -0.0000   -0.0000    0.0006    0.0000    0.0000    0.0001    0.0002    0.0000    0.0001    0.0000
       76 RE    10d1+       0.0000    0.0000   -0.0009   -0.0000   -0.0000   -0.0001    0.0017    0.0000   -0.0001   -0.0000
       77 RE    11d1+      -0.0000   -0.0000    0.0010    0.0000    0.0000   -0.0000   -0.0042   -0.0000   -0.0002    0.0000
       78 RE     3d2+      -0.0000   -0.0005   -0.0001   -0.0000    0.0047    0.0318   -0.0018    0.0000    0.3670    0.0000
       79 RE     4d2+       0.0000    0.0001    0.0000    0.0000   -0.0012   -0.0019   -0.0005   -0.0000   -0.0200   -0.0000
       80 RE     5d2+      -0.0000   -0.0000   -0.0000   -0.0000    0.0003    0.0002    0.0001    0.0000    0.0034    0.0000
       81 RE     6d2+       0.0000    0.0000    0.0000    0.0000   -0.0004   -0.0002   -0.0001   -0.0000   -0.0043   -0.0000
       82 RE     7d2+      -0.0000   -0.0000   -0.0000   -0.0000    0.0005    0.0001    0.0001    0.0000    0.0052    0.0000
       83 RE     8d2+       0.0000    0.0001    0.0000    0.0000   -0.0007    0.0003   -0.0001   -0.0000   -0.0048   -0.0000
       84 RE     9d2+      -0.0000   -0.0001   -0.0000   -0.0000    0.0006   -0.0007   -0.0000   -0.0000    0.0026    0.0000
       85 RE    10d2+       0.0000    0.0001    0.0000    0.0000   -0.0009    0.0017    0.0002    0.0000   -0.0007   -0.0000
       86 RE    11d2+      -0.0000   -0.0001   -0.0000   -0.0000    0.0010   -0.0026   -0.0003   -0.0000   -0.0037    0.0000
       87 RE     4f3-       0.0000    0.0000    0.0000   -0.0001    0.0000    0.0000   -0.0000    0.0015   -0.0000   -0.0059
       88 RE     5f3-      -0.0000   -0.0000   -0.0000    0.0001   -0.0000   -0.0000    0.0000   -0.0016    0.0000    0.0037
       89 RE     6f3-       0.0000    0.0000    0.0000   -0.0001    0.0000    0.0000   -0.0000    0.0024   -0.0000   -0.0041
       90 RE     7f3-      -0.0000   -0.0000   -0.0000    0.0001   -0.0000    0.0000    0.0000   -0.0027    0.0000    0.0034
       91 RE     8f3-       0.0000    0.0000    0.0000   -0.0001    0.0000   -0.0000   -0.0000    0.0030   -0.0000   -0.0028
       92 RE     9f3-      -0.0000   -0.0000   -0.0000    0.0001   -0.0000    0.0000    0.0000   -0.0028    0.0000    0.0019
       93 RE    10f3-       0.0000    0.0000    0.0000   -0.0001    0.0000   -0.0000   -0.0000    0.0026   -0.0000   -0.0013
       94 RE    11f3-      -0.0000   -0.0000   -0.0000    0.0002   -0.0000   -0.0000    0.0000   -0.0009    0.0000    0.0001
       95 RE     4f2-      -0.0000    0.0000    0.0000   -0.0000    0.0000    0.0000    0.0000   -0.0023    0.0000    0.0250
       96 RE     5f2-       0.0000   -0.0000   -0.0000    0.0000   -0.0000   -0.0000   -0.0000    0.0016   -0.0000   -0.0167
       97 RE     6f2-      -0.0000    0.0000    0.0000   -0.0000    0.0000    0.0000    0.0000   -0.0019    0.0000    0.0192
       98 RE     7f2-      -0.0000   -0.0000   -0.0000    0.0000   -0.0000   -0.0000   -0.0000    0.0017   -0.0000   -0.0164
       99 RE     8f2-       0.0000    0.0000    0.0000   -0.0000    0.0000    0.0000    0.0000   -0.0015    0.0000    0.0149
      100 RE     9f2-      -0.0000   -0.0000   -0.0000    0.0000   -0.0000   -0.0000   -0.0000    0.0010   -0.0000   -0.0114
      101 RE    10f2-       0.0000    0.0000    0.0000   -0.0000    0.0000    0.0000    0.0000   -0.0006    0.0000    0.0096
      102 RE    11f2-      -0.0000   -0.0000   -0.0000    0.0000   -0.0000   -0.0000    0.0000   -0.0005    0.0000   -0.0054
      103 RE     4f1-      -0.0000   -0.0000   -0.0000    0.0000   -0.0000    0.0000    0.0000   -0.0004    0.0000    0.0017
      104 RE     5f1-       0.0000    0.0000    0.0000   -0.0000    0.0000   -0.0000   -0.0000    0.0004   -0.0000   -0.0011
      105 RE     6f1-      -0.0000   -0.0000   -0.0000    0.0000   -0.0000    0.0000    0.0000   -0.0006    0.0000    0.0012
      106 RE     7f1-       0.0000    0.0000    0.0000   -0.0000    0.0000   -0.0000   -0.0000    0.0007   -0.0000   -0.0010
      107 RE     8f1-       0.0000   -0.0000   -0.0000    0.0000   -0.0000    0.0000    0.0000   -0.0007    0.0000    0.0008
      108 RE     9f1-      -0.0000    0.0000    0.0000   -0.0000    0.0000   -0.0000   -0.0000    0.0007   -0.0000   -0.0006
      109 RE    10f1-       0.0000   -0.0000   -0.0000    0.0000   -0.0000    0.0000    0.0000   -0.0006    0.0000    0.0004
      110 RE    11f1-      -0.0000    0.0000    0.0000   -0.0000    0.0000   -0.0000   -0.0000    0.0002   -0.0000   -0.0001
      111 RE     4f0       -0.0000   -0.0000    0.0000    0.0000    0.0000   -0.0002   -0.0016   -0.0000    0.0020   -0.0000
      112 RE     5f0        0.0000    0.0000   -0.0000   -0.0000   -0.0000   -0.0000    0.0015    0.0000   -0.0012    0.0000
      113 RE     6f0       -0.0000   -0.0000    0.0001    0.0000    0.0000    0.0002   -0.0020   -0.0000    0.0012   -0.0000
      114 RE     7f0        0.0000    0.0000   -0.0001   -0.0000   -0.0000   -0.0003    0.0021    0.0000   -0.0008    0.0000
      115 RE     8f0       -0.0000   -0.0000    0.0001    0.0000    0.0000    0.0004   -0.0022   -0.0000    0.0006   -0.0000
      116 RE     9f0        0.0000    0.0000   -0.0001   -0.0000   -0.0000   -0.0004    0.0020    0.0000   -0.0002    0.0000
      117 RE    10f0       -0.0000   -0.0000    0.0001    0.0000    0.0000    0.0003   -0.0018   -0.0000    0.0001   -0.0000
      118 RE    11f0        0.0000   -0.0000   -0.0001   -0.0000   -0.0000    0.0002    0.0005    0.0000    0.0003    0.0000
      119 RE     4f1+       0.0000   -0.0000    0.0000    0.0000    0.0001   -0.0003    0.0013    0.0000   -0.0027    0.0000
      120 RE     5f1+      -0.0000    0.0000   -0.0000   -0.0000   -0.0001    0.0003   -0.0009   -0.0000    0.0019   -0.0000
      121 RE     6f1+       0.0000   -0.0000    0.0000    0.0000    0.0001   -0.0005    0.0011    0.0000   -0.0021    0.0000
      122 RE     7f1+      -0.0000    0.0000   -0.0000   -0.0000   -0.0001    0.0006   -0.0010   -0.0000    0.0019   -0.0000
      123 RE     8f1+       0.0000   -0.0000    0.0000    0.0000    0.0001   -0.0008    0.0009    0.0000   -0.0017    0.0000
      124 RE     9f1+      -0.0000    0.0000   -0.0000   -0.0000   -0.0001    0.0008   -0.0007   -0.0000    0.0014   -0.0000
      125 RE    10f1+       0.0000   -0.0001    0.0000    0.0000    0.0001   -0.0008    0.0004    0.0000   -0.0014    0.0000
      126 RE    11f1+      -0.0000    0.0001   -0.0000   -0.0000   -0.0001    0.0003    0.0003    0.0000    0.0012   -0.0000
      127 RE     4f2+      -0.0000    0.0000   -0.0001   -0.0000    0.0000   -0.0003    0.0017    0.0000    0.0017    0.0000
      128 RE     5f2+       0.0000   -0.0000    0.0001    0.0000   -0.0000    0.0000   -0.0016   -0.0000   -0.0010   -0.0000
      129 RE     6f2+      -0.0000    0.0000   -0.0001   -0.0000    0.0000    0.0001    0.0023    0.0000    0.0010    0.0000
      130 RE     7f2+       0.0000   -0.0000    0.0001    0.0000   -0.0000   -0.0003   -0.0025   -0.0000   -0.0008   -0.0000
      131 RE     8f2+      -0.0000    0.0000   -0.0001   -0.0000    0.0000    0.0004    0.0028    0.0000    0.0005    0.0000
      132 RE     9f2+       0.0000   -0.0000    0.0001    0.0000   -0.0000   -0.0004   -0.0026   -0.0000   -0.0003   -0.0000
      133 RE    10f2+      -0.0000    0.0000   -0.0001   -0.0000    0.0000    0.0004    0.0023    0.0000    0.0002    0.0000
      134 RE    11f2+       0.0000   -0.0000    0.0001    0.0000    0.0000   -0.0000   -0.0008   -0.0000    0.0002   -0.0000
      135 RE     4f3+      -0.0000    0.0001    0.0000    0.0000   -0.0001    0.0008    0.0013    0.0000    0.0040    0.0000
      136 RE     5f3+       0.0000   -0.0000   -0.0000   -0.0000    0.0001   -0.0007   -0.0009   -0.0000   -0.0027   -0.0000
      137 RE     6f3+      -0.0000    0.0001    0.0000    0.0000   -0.0001    0.0010    0.0011    0.0000    0.0032    0.0000
      138 RE     7f3+       0.0000   -0.0001   -0.0000   -0.0000    0.0001   -0.0012   -0.0010   -0.0000   -0.0028   -0.0000
      139 RE     8f3+      -0.0000    0.0001    0.0000    0.0000   -0.0001    0.0014    0.0009    0.0000    0.0026    0.0000
      140 RE     9f3+       0.0000   -0.0001   -0.0000   -0.0000    0.0001   -0.0014   -0.0006   -0.0000   -0.0021   -0.0000
      141 RE    10f3+      -0.0000    0.0001    0.0000    0.0000   -0.0002    0.0013    0.0004    0.0000    0.0020    0.0000
      142 RE    11f3+       0.0000   -0.0001   -0.0000   -0.0000    0.0002   -0.0005    0.0002    0.0000   -0.0015   -0.0000
      143 RE     5g4-      -0.0000    0.0000   -0.0000    0.0000   -0.0000   -0.0000    0.0000   -0.0002    0.0000   -0.0002
      144 RE     6g4-       0.0000   -0.0000    0.0000   -0.0000    0.0000   -0.0000   -0.0000    0.0002   -0.0000    0.0002
      145 RE     7g4-      -0.0000    0.0000   -0.0000    0.0000   -0.0000    0.0000    0.0000   -0.0001    0.0000   -0.0002
      146 RE     8g4-       0.0000   -0.0000    0.0000   -0.0000    0.0000   -0.0000   -0.0000    0.0001   -0.0000    0.0001
      147 RE     5g3-       0.0000    0.0000    0.0000   -0.0000    0.0000    0.0000    0.0000   -0.0008    0.0000   -0.0012
      148 RE     6g3-      -0.0000   -0.0000   -0.0000    0.0000   -0.0000   -0.0000   -0.0000    0.0008   -0.0000    0.0010
      149 RE     7g3-       0.0000    0.0000    0.0000   -0.0000    0.0000    0.0000    0.0000   -0.0008    0.0000   -0.0009
      150 RE     8g3-      -0.0000   -0.0000   -0.0000    0.0000   -0.0000   -0.0000   -0.0000    0.0005   -0.0000    0.0006
      151 RE     5g2-       0.0000   -0.0000    0.0000   -0.0000    0.0000   -0.0000   -0.0000    0.0001   -0.0000    0.0000
      152 RE     6g2-       0.0000    0.0000   -0.0000    0.0000   -0.0000    0.0000    0.0000   -0.0001    0.0000   -0.0000
      153 RE     7g2-      -0.0000   -0.0000    0.0000   -0.0000    0.0000   -0.0000   -0.0000    0.0001   -0.0000    0.0000
      154 RE     8g2-       0.0000    0.0000   -0.0000    0.0000    0.0000    0.0000    0.0000   -0.0000    0.0000   -0.0000
      155 RE     5g1-       0.0000   -0.0000    0.0000   -0.0000   -0.0000    0.0000    0.0000   -0.0003    0.0000    0.0003
      156 RE     6g1-      -0.0000    0.0000    0.0000   -0.0000    0.0000   -0.0000   -0.0000    0.0002   -0.0000   -0.0002
      157 RE     7g1-       0.0000    0.0000   -0.0000    0.0000   -0.0000    0.0000    0.0000   -0.0002    0.0000    0.0002
      158 RE     8g1-      -0.0000   -0.0000    0.0000   -0.0000    0.0000   -0.0000   -0.0000    0.0001   -0.0000   -0.0001
      159 RE     5g0        0.0000   -0.0000   -0.0000   -0.0000    0.0000    0.0001   -0.0007   -0.0000   -0.0005    0.0000
      160 RE     6g0       -0.0000    0.0000    0.0000    0.0000   -0.0000   -0.0001    0.0006    0.0000    0.0004   -0.0000
      161 RE     7g0        0.0000   -0.0000   -0.0000   -0.0000    0.0000    0.0000   -0.0006   -0.0000   -0.0004    0.0000
      162 RE     8g0       -0.0000    0.0000    0.0000    0.0000   -0.0000   -0.0000    0.0004    0.0000    0.0003   -0.0000
      163 RE     5g1+      -0.0000    0.0000   -0.0000   -0.0000    0.0000    0.0001    0.0001    0.0000    0.0001   -0.0000
      164 RE     6g1+       0.0000   -0.0000    0.0000    0.0000   -0.0000   -0.0002   -0.0001   -0.0000   -0.0001    0.0000
      165 RE     7g1+      -0.0000    0.0000   -0.0000   -0.0000    0.0000    0.0002    0.0000    0.0000    0.0001   -0.0000
      166 RE     8g1+       0.0000   -0.0000    0.0000    0.0000   -0.0000   -0.0001    0.0000    0.0000   -0.0001    0.0000
      167 RE     5g2+      -0.0000    0.0000    0.0000    0.0000   -0.0000   -0.0002   -0.0001   -0.0000    0.0006   -0.0000
      168 RE     6g2+       0.0000   -0.0000   -0.0000   -0.0000    0.0000    0.0001    0.0001    0.0000   -0.0006    0.0000
      169 RE     7g2+      -0.0000    0.0000    0.0000    0.0000   -0.0000   -0.0001   -0.0001   -0.0000    0.0005   -0.0000
      170 RE     8g2+      -0.0000   -0.0000   -0.0000   -0.0000    0.0000    0.0001    0.0000   -0.0000   -0.0004    0.0000
      171 RE     5g3+      -0.0000    0.0000    0.0000    0.0000    0.0000    0.0002   -0.0001   -0.0000    0.0001    0.0000
      172 RE     6g3+       0.0000   -0.0000   -0.0000   -0.0000   -0.0000   -0.0002    0.0001    0.0000   -0.0001   -0.0000
      173 RE     7g3+      -0.0000    0.0000    0.0000    0.0000    0.0000    0.0002   -0.0001   -0.0000    0.0001    0.0000
      174 RE     8g3+       0.0000   -0.0000   -0.0000   -0.0000   -0.0000   -0.0002    0.0000    0.0000   -0.0001   -0.0000
      175 RE     5g4+       0.0000   -0.0000    0.0000    0.0000    0.0000    0.0003    0.0004    0.0000   -0.0008   -0.0000
      176 RE     6g4+      -0.0000    0.0000   -0.0000   -0.0000   -0.0000   -0.0002   -0.0003   -0.0000    0.0007    0.0000
      177 RE     7g4+       0.0000   -0.0000    0.0000    0.0000    0.0000    0.0002    0.0004    0.0000   -0.0007   -0.0000
      178 RE     8g4+       0.0000    0.0000   -0.0000   -0.0000   -0.0000   -0.0001   -0.0003   -0.0000    0.0005    0.0000
      179 RE     6h5-       0.0000   -0.0000    0.0000   -0.0000   -0.0000    0.0000   -0.0000    0.0001    0.0000    0.0000
      180 RE     7h5-      -0.0000    0.0000   -0.0000    0.0000    0.0000   -0.0000    0.0000   -0.0001   -0.0000   -0.0000
      181 RE     6h4-      -0.0000    0.0000   -0.0000    0.0000    0.0000    0.0000    0.0000   -0.0001    0.0000   -0.0000
      182 RE     7h4-       0.0000   -0.0000    0.0000   -0.0000   -0.0000   -0.0000   -0.0000    0.0001   -0.0000    0.0000
      183 RE     6h3-      -0.0000   -0.0000    0.0000   -0.0000   -0.0000    0.0000    0.0000   -0.0000    0.0000   -0.0001
      184 RE     7h3-      -0.0000   -0.0000   -0.0000    0.0000    0.0000   -0.0000   -0.0000    0.0000   -0.0000    0.0001
      185 RE     6h2-       0.0000    0.0000   -0.0000    0.0000   -0.0000   -0.0000   -0.0000    0.0000   -0.0000    0.0001
      186 RE     7h2-      -0.0000    0.0000    0.0000   -0.0000    0.0000    0.0000    0.0000   -0.0000    0.0000   -0.0001
      187 RE     6h1-      -0.0000   -0.0000    0.0000   -0.0000   -0.0000    0.0000    0.0000    0.0000    0.0000   -0.0001
      188 RE     7h1-       0.0000    0.0000   -0.0000    0.0000    0.0000   -0.0000    0.0000   -0.0000   -0.0000    0.0001
      189 RE     6h0        0.0000   -0.0000    0.0000    0.0000   -0.0000   -0.0000    0.0000    0.0000    0.0000   -0.0000
      190 RE     7h0       -0.0000    0.0000   -0.0000   -0.0000    0.0000    0.0000   -0.0001   -0.0000   -0.0000    0.0000
      191 RE     6h1+      -0.0000    0.0000    0.0000    0.0000   -0.0000    0.0000   -0.0000   -0.0000    0.0000   -0.0000
      192 RE     7h1+      -0.0000   -0.0000   -0.0000   -0.0000    0.0000   -0.0000    0.0001    0.0000   -0.0000    0.0000
      193 RE     6h2+      -0.0000    0.0000    0.0000    0.0000    0.0000    0.0000   -0.0001   -0.0000   -0.0000   -0.0000
      194 RE     7h2+       0.0000   -0.0000   -0.0000   -0.0000   -0.0000   -0.0000    0.0001    0.0000    0.0000    0.0000
      195 RE     6h3+       0.0000   -0.0000    0.0000    0.0000    0.0000   -0.0000   -0.0000    0.0000   -0.0000    0.0000
      196 RE     7h3+       0.0000    0.0000   -0.0000   -0.0000   -0.0000    0.0000    0.0000   -0.0000    0.0001    0.0000
      197 RE     6h4+      -0.0000    0.0000    0.0000    0.0000    0.0000    0.0001    0.0000    0.0000   -0.0000   -0.0000
      198 RE     7h4+       0.0000   -0.0000   -0.0000   -0.0000   -0.0000   -0.0001   -0.0001   -0.0000    0.0000   -0.0000
      199 RE     6h5+      -0.0000    0.0000    0.0000    0.0000   -0.0000    0.0000    0.0000   -0.0000    0.0001   -0.0000
      200 RE     7h5+      -0.0000   -0.0000   -0.0000   -0.0000    0.0000   -0.0000   -0.0000    0.0000   -0.0001    0.0000

          Orbital           11    
          Energy         -110.9521
          Occ. No.          0.0000

        1 RE     1s        -0.0000
        2 RE     2s         0.0000
        3 RE     3s         0.0011
        4 RE     4s        -0.0004
        5 RE     5s         0.0001
        6 RE     6s        -0.0000
        7 RE     7s         0.0000
        8 RE     8s        -0.0001
        9 RE     9s         0.0001
       10 RE    10s        -0.0001
       11 RE    11s         0.0001
       12 RE     2px       -0.0001
       13 RE     3px       -0.0035
       14 RE     4px        0.0004
       15 RE     5px       -0.0001
       16 RE     6px        0.0001
       17 RE     7px       -0.0002
       18 RE     8px        0.0002
       19 RE     9px       -0.0002
       20 RE    10px        0.0002
       21 RE    11px       -0.0002
       22 RE     2py        0.0000
       23 RE     3py       -0.0000
       24 RE     4py        0.0000
       25 RE     5py       -0.0000
       26 RE     6py        0.0000
       27 RE     7py       -0.0000
       28 RE     8py        0.0000
       29 RE     9py       -0.0000
       30 RE    10py        0.0000
       31 RE    11py       -0.0000
       32 RE     2pz       -0.0006
       33 RE     3pz       -0.0208
       34 RE     4pz        0.0009
       35 RE     5pz       -0.0004
       36 RE     6pz        0.0002
       37 RE     7pz       -0.0007
       38 RE     8pz        0.0008
       39 RE     9pz       -0.0008
       40 RE    10pz        0.0009
       41 RE    11pz       -0.0013
       42 RE     3d2-       0.0000
       43 RE     4d2-      -0.0000
       44 RE     5d2-       0.0000
       45 RE     6d2-      -0.0000
       46 RE     7d2-       0.0000
       47 RE     8d2-      -0.0000
       48 RE     9d2-       0.0000
       49 RE    10d2-      -0.0000
       50 RE    11d2-       0.0000
       51 RE     3d1-      -0.0000
       52 RE     4d1-       0.0000
       53 RE     5d1-      -0.0000
       54 RE     6d1-       0.0000
       55 RE     7d1-      -0.0000
       56 RE     8d1-       0.0000
       57 RE     9d1-      -0.0000
       58 RE    10d1-       0.0000
       59 RE    11d1-      -0.0000
       60 RE     3d0        0.8573
       61 RE     4d0       -0.0771
       62 RE     5d0        0.0158
       63 RE     6d0       -0.0206
       64 RE     7d0        0.0277
       65 RE     8d0       -0.0321
       66 RE     9d0        0.0262
       67 RE    10d0       -0.0306
       68 RE    11d0        0.0221
       69 RE     3d1+       0.0557
       70 RE     4d1+      -0.0047
       71 RE     5d1+       0.0009
       72 RE     6d1+      -0.0012
       73 RE     7d1+       0.0015
       74 RE     8d1+      -0.0016
       75 RE     9d1+       0.0012
       76 RE    10d1+      -0.0013
       77 RE    11d1+       0.0009
       78 RE     3d2+       0.4953
       79 RE     4d2+      -0.0443
       80 RE     5d2+       0.0091
       81 RE     6d2+      -0.0118
       82 RE     7d2+       0.0159
       83 RE     8d2+      -0.0185
       84 RE     9d2+       0.0151
       85 RE    10d2+      -0.0176
       86 RE    11d2+       0.0127
       87 RE     4f3-       0.0000
       88 RE     5f3-      -0.0000
       89 RE     6f3-       0.0000
       90 RE     7f3-      -0.0000
       91 RE     8f3-       0.0000
       92 RE     9f3-      -0.0000
       93 RE    10f3-       0.0000
       94 RE    11f3-      -0.0000
       95 RE     4f2-      -0.0000
       96 RE     5f2-       0.0000
       97 RE     6f2-      -0.0000
       98 RE     7f2-       0.0000
       99 RE     8f2-      -0.0000
      100 RE     9f2-       0.0000
      101 RE    10f2-      -0.0000
      102 RE    11f2-       0.0000
      103 RE     4f1-      -0.0000
      104 RE     5f1-       0.0000
      105 RE     6f1-      -0.0000
      106 RE     7f1-       0.0000
      107 RE     8f1-      -0.0000
      108 RE     9f1-       0.0000
      109 RE    10f1-      -0.0000
      110 RE    11f1-       0.0000
      111 RE     4f0       -0.0026
      112 RE     5f0        0.0016
      113 RE     6f0       -0.0018
      114 RE     7f0        0.0014
      115 RE     8f0       -0.0012
      116 RE     9f0        0.0008
      117 RE    10f0       -0.0005
      118 RE    11f0       -0.0000
      119 RE     4f1+       0.0195
      120 RE     5f1+      -0.0130
      121 RE     6f1+       0.0150
      122 RE     7f1+      -0.0128
      123 RE     8f1+       0.0116
      124 RE     9f1+      -0.0090
      125 RE    10f1+       0.0076
      126 RE    11f1+      -0.0044
      127 RE     4f2+       0.0038
      128 RE     5f2+      -0.0024
      129 RE     6f2+       0.0026
      130 RE     7f2+      -0.0021
      131 RE     8f2+       0.0017
      132 RE     9f2+      -0.0012
      133 RE    10f2+       0.0008
      134 RE    11f2+      -0.0001
      135 RE     4f3+       0.0153
      136 RE     5f3+      -0.0102
      137 RE     6f3+       0.0117
      138 RE     7f3+      -0.0100
      139 RE     8f3+       0.0091
      140 RE     9f3+      -0.0070
      141 RE    10f3+       0.0059
      142 RE    11f3+      -0.0034
      143 RE     5g4-       0.0000
      144 RE     6g4-      -0.0000
      145 RE     7g4-       0.0000
      146 RE     8g4-      -0.0000
      147 RE     5g3-       0.0000
      148 RE     6g3-      -0.0000
      149 RE     7g3-       0.0000
      150 RE     8g3-      -0.0000
      151 RE     5g2-      -0.0000
      152 RE     6g2-       0.0000
      153 RE     7g2-      -0.0000
      154 RE     8g2-       0.0000
      155 RE     5g1-      -0.0000
      156 RE     6g1-       0.0000
      157 RE     7g1-      -0.0000
      158 RE     8g1-       0.0000
      159 RE     5g0        0.0007
      160 RE     6g0       -0.0006
      161 RE     7g0        0.0006
      162 RE     8g0       -0.0004
      163 RE     5g1+      -0.0002
      164 RE     6g1+       0.0002
      165 RE     7g1+      -0.0002
      166 RE     8g1+       0.0001
      167 RE     5g2+      -0.0006
      168 RE     6g2+       0.0005
      169 RE     7g2+      -0.0005
      170 RE     8g2+       0.0003
      171 RE     5g3+       0.0001
      172 RE     6g3+      -0.0001
      173 RE     7g3+       0.0001
      174 RE     8g3+      -0.0001
      175 RE     5g4+      -0.0008
      176 RE     6g4+       0.0007
      177 RE     7g4+      -0.0007
      178 RE     8g4+       0.0004
      179 RE     6h5-      -0.0000
      180 RE     7h5-       0.0000
      181 RE     6h4-       0.0000
      182 RE     7h4-      -0.0000
      183 RE     6h3-       0.0000
      184 RE     7h3-      -0.0000
      185 RE     6h2-      -0.0000
      186 RE     7h2-       0.0000
      187 RE     6h1-       0.0000
      188 RE     7h1-      -0.0000
      189 RE     6h0       -0.0001
      190 RE     7h0        0.0001
      191 RE     6h1+       0.0000
      192 RE     7h1+      -0.0000
      193 RE     6h2+      -0.0001
      194 RE     7h2+       0.0001
      195 RE     6h3+      -0.0001
      196 RE     7h3+       0.0001
      197 RE     6h4+      -0.0000
      198 RE     7h4+       0.0001
      199 RE     6h5+      -0.0001
      200 RE     7h5+       0.0001
--


++    Molecular charges:
      ------------------

      Mulliken charges per centre and basis function type
      ---------------------------------------------------

                RE    
      1s       2.0000
      2s       1.9999
      2px      1.9997
      2pz      1.9998
      2py      1.9998
      3s       1.9479
      3px      1.6515
      3pz      1.8274
      3py      1.8313
      4s       0.0121
      3d2+     0.2714
      3d1+     0.1514
      3d0      0.0877
      3d1-     0.0000
      3d2-     0.1476
      4px      0.0139
      4pz      0.0132
      4py      0.0131
      5s       0.0011
      4d2+     0.0008
      4d1+     0.0003
      4d0      0.0003
      4d1-     0.0000
      4d2-     0.0003
      5px      0.0011
      5pz      0.0010
      5py      0.0010
      6s       0.0001
      4f3+     0.0000
      4f2+     0.0000
      4f1+     0.0000
      4f0      0.0000
      4f1-     0.0000
      4f2-     0.0000
      4f3-     0.0000
      5d2+     0.0000
      5d1+     0.0000
      5d0      0.0000
      5d1-     0.0000
      5d2-     0.0000
      6px      0.0002
      6pz      0.0002
      6py      0.0002
      7s       0.0002
      5f3+     0.0000
      5f2+     0.0000
      5f1+     0.0000
      5f0      0.0000
      5f1-     0.0000
      5f2-     0.0000
      5f3-     0.0000
      6d2+     0.0000
      6d1+     0.0000
      6d0      0.0000
      6d1-     0.0000
      6d2-     0.0000
      7px      0.0017
      7pz      0.0016
      7py      0.0016
      5g4+     0.0000
      5g3+     0.0000
      5g2+     0.0000
      5g1+     0.0000
      5g0      0.0000
      5g1-     0.0000
      5g2-     0.0000
      5g3-     0.0000
      5g4-     0.0000
      6f3+     0.0000
      6f2+     0.0000
      6f1+     0.0000
      6f0      0.0000
      6f1-     0.0000
      6f2-     0.0000
      6f3-     0.0000
      6g4+     0.0000
      6g3+     0.0000
      6g2+     0.0000
      6g1+     0.0000
      6g0      0.0000
      6g1-     0.0000
      6g2-     0.0000
      6g3-     0.0000
      6g4-     0.0000
      6h5+     0.0000
      6h4+     0.0000
      6h3+     0.0000
      6h2+     0.0000
      6h1+     0.0000
      6h0      0.0000
      6h1-     0.0000
      6h2-     0.0000
      6h3-     0.0000
      6h4-     0.0000
      6h5-     0.0000
      7d2+     0.0001
      7d1+     0.0000
      7d0      0.0000
      7d1-     0.0000
      7d2-     0.0000
      7f3+     0.0000
      7f2+     0.0000
      7f1+     0.0000
      7f0      0.0000
      7f1-     0.0000
      7f2-     0.0000
      7f3-     0.0000
      7g4+     0.0000
      7g3+     0.0000
      7g2+     0.0000
      7g1+     0.0000
      7g0      0.0000
      7g1-     0.0000
      7g2-     0.0000
      7g3-     0.0000
      7g4-     0.0000
      7h5+     0.0000
      7h4+     0.0000
      7h3+     0.0000
      7h2+     0.0000
      7h1+     0.0000
      7h0      0.0000
      7h1-     0.0000
      7h2-     0.0000
      7h3-     0.0000
      7h4-     0.0000
      7h5-     0.0000
      8s       0.0010
      8px      0.0016
      8pz      0.0016
      8py      0.0016
      8d2+     0.0000
      8d1+     0.0000
      8d0      0.0000
      8d1-     0.0000
      8d2-     0.0000
      8f3+     0.0000
      8f2+     0.0000
      8f1+     0.0000
      8f0      0.0000
      8f1-     0.0000
      8f2-     0.0000
      8f3-     0.0000
      8g4+     0.0000
      8g3+     0.0000
      8g2+     0.0000
      8g1+     0.0000
      8g0      0.0000
      8g1-     0.0000
      8g2-     0.0000
      8g3-     0.0000
      8g4-     0.0000
      9s       0.0014
      9px      0.0012
      9pz      0.0011
      9py      0.0011
      9d2+     0.0000
      9d1+     0.0000
      9d0      0.0000
      9d1-     0.0000
      9d2-     0.0000
      9f3+     0.0000
      9f2+     0.0000
      9f1+     0.0000
      9f0      0.0000
      9f1-     0.0000
      9f2-     0.0000
      9f3-     0.0000
     10s       0.0006
     10px      0.0011
     10pz      0.0011
     10py      0.0011
     10d2+     0.0000
     10d1+     0.0000
     10d0      0.0000
     10d1-     0.0000
     10d2-     0.0000
     10f3+     0.0000
     10f2+     0.0000
     10f1+     0.0000
     10f0      0.0000
     10f1-     0.0000
     10f2-     0.0000
     10f3-     0.0000
     11s       0.0018
     11px      0.0011
     11pz      0.0011
     11py      0.0011
     11d2+     0.0000
     11d1+     0.0000
     11d0      0.0000
     11d1-     0.0000
     11d2-     0.0000
     11f3+     0.0000
     11f2+     0.0000
     11f1+     0.0000
     11f0      0.0000
     11f1-     0.0000
     11f2-     0.0000
     11f3-     0.0000
      Total   18.0000

      N-E     57.0000

      Total electronic charge=   18.000000

      Total            charge=   57.000000
--

 Sorry, Molden does not know how to handle
 functions with angular momentum larger than g

++    Static properties:
      ------------------


      LoProp Charges per center


                   RE    
      Nuclear     75.0000
      Electronic -18.0000

      Total       57.0000
--


++    Molecular properties:
      ---------------------

      Charge (e):
                      =   57.0000
      Dipole Moment (Debye):
      Origin of the operator (Ang)=    0.0000    0.0000    0.0000
                   X= -8.0980E-01               Y= -5.0495E-13               Z=  1.2615E+00           Total=  1.4990E+00
      Center of Charge (Ang)
                     X=   -0.00295781               Y=   -0.00000000               Z=    0.00460754
      Quadrupole Moment (Debye*Ang):
      Origin of the operator (Ang)=   -0.0000   -0.0000    0.0046
                  XX= -1.5595E-01              XY= -1.5520E-15              XZ=  2.4469E-04              YY= -1.6089E-01
                  YZ=  3.5216E-16              ZZ= -1.6069E-01
      In traceless form (Debye*Ang)
                  XX=  4.8403E-03              XY= -2.3281E-15              XZ=  3.6704E-04              YY= -2.5689E-03
                  YZ=  5.2825E-16              ZZ= -2.2714E-03
--

 Sorry, Molden does not know how to handle
 functions with angular momentum larger than g
 ###############################################################################
 ###############################################################################
 ###                                                                         ###
 ###                                                                         ###
 ###    WARNING: RunFile label nBas                                          ###
 ###    was used       62 times                                              ###
 ###                                                                         ###
 ###                                                                         ###
 ###############################################################################
 ###############################################################################
Note: The following floating-point exceptions are signalling: IEEE_UNDERFLOW_FLAG IEEE_DENORMAL
--- Stop Module: scf at Tue Mar 25 14:18:10 2025 /rc=_RC_ALL_IS_WELL_ ---
*** files: rhenium_so_cf.LprOrb rhenium_so_cf.ScfOrb xmldump
    saved to directory /home4/s4752295/Internship/Initial_simulations/Point_charge_model/1_electron/Madelung_charges_9_active_space/Re
--- Module scf spent 12 seconds ---

*** symbolic link created: INPORB -> rhenium_so_cf.ScfOrb
--- Start Module: rasscf at Tue Mar 25 14:18:10 2025 ---

()()()()()()()()()()()()()()()()()()()()()()()()()()()()()()()()()()()()()()()()()()()()()()()()()()

                                              &RASSCF

                                   only a single process is used
                       available to each process: 4.1 GB of memory, 1 thread?
                                            pid: 1837101
()()()()()()()()()()()()()()()()()()()()()()()()()()()()()()()()()()()()()()()()()()()()()()()()()()


      Header of the ONEINT file:
      --------------------------
      
      Integrals generated by seward 4.2.0  , Tue Mar 25 14:17:39 2025


      OrdInt status: non-squared


      Cartesian coordinates in Angstrom:
      -----------------------------------------------------
      No.  Label        X            Y            Z        
      -----------------------------------------------------
       1   RE        -0.00000000  -0.00000000   0.00463220
      -----------------------------------------------------
      Nuclear repulsion energy =-6861.41320820

++    Wave function specifications:
      -----------------------------

      Number of closed shell electrons          18
      Number of electrons in active shells       1
      Max number of holes in RAS1 space          0
      Max nr of electrons in RAS3 space          0
      Number of inactive orbitals                9
      Number of active orbitals                  9
      Number of secondary orbitals             182
      Spin quantum number                      0.5
      State symmetry                             1
--

++    Orbital specifications:
      -----------------------

      Symmetry species                           1
                                                 a
      Frozen orbitals                            0
      Inactive orbitals                          9
      Active orbitals                            9
      RAS1 orbitals                              0
      RAS2 orbitals                              9
      RAS3 orbitals                              0
      Secondary orbitals                       182
      Deleted orbitals                           0
      Number of basis functions                200
--

++    CI expansion specifications:
      ----------------------------

      Number of CSFs                             9
      Number of determinants                     9
      Number of root(s) required                 9
      Root chosen for geometry opt.              9
      CI roots used                              1     2     3     4     5     6     7     8     9
      weights                                0.111 0.111 0.111 0.111 0.111 0.111 0.111 0.111 0.111
      highest root included in the CI            9
      max. size of the explicit Hamiltonian      9
--

++    Optimization specifications:
      ----------------------------

      RASSCF algorithm: Conventional
      Maximum number of macro iterations       200
      Maximum number of SX iterations          100
      Threshold for RASSCF energy            0.100E-07
      Threshold for max MO rotation          0.100E+00
      Threshold for max BLB element          0.100E-03
      Level shift parameter                  0.500E+00
      Make Quasi-Newton update
--

      The MO-coefficients are taken from the file:
[...]
         3   15       8.36556232E-03  8.70259232E+06  3.00473358E-08  1.70738492E+12  1.70739362E+12
         3   17       6.95448354E-03  3.08265933E+10  1.81969988E-08  1.54124192E+12  1.57206852E+12
         4    6       5.09621789E-04  8.72051305E+05  3.31799454E-13  8.89224292E+07  8.97944805E+07
         4    8       4.66905373E-04  2.74394377E-14  8.56191159E+07  2.93190525E-13  8.56191159E+07
         4   12       2.79535121E-04  3.62602272E+08  7.64250557E-10  4.82033139E+10  4.85659162E+10
         4   14       1.06711564E-02  7.58909089E-12  2.16734850E+12  2.69095957E-08  2.16734850E+12
         4   16       8.36556232E-03  8.70259232E+06  3.00473358E-08  1.70738492E+12  1.70739362E+12
         4   18       6.95448354E-03  3.08265933E+10  1.81969988E-08  1.54124192E+12  1.57206852E+12
         5    9       7.06278545E-04  5.54281325E+04  5.54412473E-13  1.68001808E+08  1.68057236E+08
         5   11       2.76970455E-04  2.34079753E+09  1.35469580E-10  4.27634713E+10  4.51042688E+10
         5   15       7.84529103E-03  1.50844240E+12  1.79983918E-12  5.38833850E+07  1.50849628E+12
         5   17       9.91947763E-04  1.16593211E+10  2.00874782E-10  2.00225786E+11  2.11885107E+11
         6   10       7.06278545E-04  5.54281325E+04  5.54412473E-13  1.68001808E+08  1.68057236E+08
         6   12       2.76970455E-04  2.34079753E+09  1.35469580E-10  4.27634713E+10  4.51042688E+10
         6   16       7.84529103E-03  1.50844240E+12  1.79983918E-12  5.38833850E+07  1.50849628E+12
         6   18       9.91947763E-04  1.16593211E+10  2.00874782E-10  2.00225786E+11  2.11885107E+11
         7    9       7.19578462E-04  8.39436983E-16  1.65331480E+08  5.32835917E-13  1.65331480E+08
         7   11       2.92012618E-04  1.02885921E-11  4.74908037E+10  1.38018251E-10  4.74908037E+10
         7   13       6.50521735E-03  1.24294410E+12  3.13568490E-11  8.06213618E+07  1.24302473E+12
         7   17       2.33743112E-04  1.39747446E-11  4.98709083E+10  8.55689313E-10  4.98709083E+10
         8   10       7.19578462E-04  8.39436983E-16  1.65331480E+08  5.32835917E-13  1.65331480E+08
         8   12       2.92012618E-04  1.02885921E-11  4.74908037E+10  1.38018251E-10  4.74908037E+10
         8   14       6.50521735E-03  1.24294410E+12  3.13568490E-11  8.06213618E+07  1.24302473E+12
         8   18       2.33743112E-04  1.39747446E-11  4.98709083E+10  8.55689313E-10  4.98709083E+10
         9   11       5.66097838E-04  8.45652293E+10  3.28876423E-12  7.09939347E+08  8.52751686E+10
         9   13       5.77814592E-03  3.46139965E-13  1.02885131E+12  1.29224582E-11  1.02885131E+12
         9   15       4.98653904E-03  8.36868622E+08  1.73835130E-11  8.91705145E+11  8.92542014E+11
         9   17       2.09438434E-02  4.17851582E+12  2.01345500E-12  1.55003566E+09  4.18006586E+12
        10   12       5.66097838E-04  8.45652293E+10  3.28876423E-12  7.09939347E+08  8.52751686E+10
        10   14       5.77814592E-03  3.46139965E-13  1.02885131E+12  1.29224582E-11  1.02885131E+12
        10   16       4.98653904E-03  8.36868622E+08  1.73835130E-11  8.91705145E+11  8.92542014E+11
        10   18       2.09438434E-02  4.17851582E+12  2.01345500E-12  1.55003566E+09  4.18006586E+12
        11   13       1.58213153E-01  9.48195547E-16  1.81293751E+11  2.50818887E-12  1.81293751E+11
        11   15       1.56816191E-01  2.44954162E+08  2.67630349E-12  1.91337702E+11  1.91582656E+11
        11   17       8.55142850E-02  2.92597603E+11  1.36637185E-13  1.34777875E+09  2.93945381E+11
        12   14       1.58213153E-01  9.48195547E-16  1.81293751E+11  2.50818887E-12  1.81293751E+11
        12   16       1.56816191E-01  2.44954162E+08  2.67630349E-12  1.91337702E+11  1.91582656E+11
        12   18       8.55142850E-02  2.92597603E+11  1.36637185E-13  1.34777875E+09  2.93945381E+11
        13   15       3.62181434E-04  8.22077157E-20  4.39803870E+05  2.09766309E-17  4.39803870E+05
        13   17       3.61623666E-02  8.52066610E-18  2.22024143E+10  2.64719697E-13  2.22024143E+10
        14   16       3.62181434E-04  8.22077157E-20  4.39803870E+05  2.09766309E-17  4.39803870E+05
        14   18       3.61623666E-02  8.52066610E-18  2.22024143E+10  2.64719697E-13  2.22024143E+10
        15   17       2.46314223E-02  1.01279279E+07  2.29756588E-13  1.37974954E+10  1.38076233E+10
        16   18       2.46314223E-02  1.01279279E+07  2.29756588E-13  1.37974954E+10  1.38076233E+10
     -----------------------------------------------------------------------------------------------
--

++ Velocity transition strengths (SO states):
   ------------------------------------------
    for osc. strength at least    1.0000000000000001E-005

      From   To        Osc. strength     Einstein coefficients Ax, Ay, Az (sec-1)    Total A (sec-1)
     -----------------------------------------------------------------------------------------------
         1    5       1.15823069E-03  3.04490655E-14  2.10021825E+08  6.04738817E-13  2.10021825E+08
         1    7       1.14421585E-03  3.09787227E+06  5.81829987E-13  2.12712770E+08  2.15810642E+08
         1    9       1.14017226E-05  2.91790839E-15  9.51720089E+06  2.85388150E-13  9.51720089E+06
         1   11       3.15177507E-04  3.81073968E-12  5.48089772E+10  6.68899671E-10  5.48089772E+10
         1   13       9.86971828E-03  2.60421264E+09  2.68879019E-08  2.00368381E+12  2.00628802E+12
         1   15       1.09474661E-02  1.48588005E-12  2.23626094E+12  2.11882553E-08  2.23626094E+12
         1   17       5.88572854E-03  3.57647262E-10  1.33155406E+12  2.08313368E-08  1.33155406E+12
         2    6       1.15823069E-03  3.04490655E-14  2.10021825E+08  6.04738817E-13  2.10021825E+08
         2    8       1.14421585E-03  3.09787227E+06  5.81829987E-13  2.12712770E+08  2.15810642E+08
         2   10       1.14017226E-05  2.91790839E-15  9.51720089E+06  2.85388150E-13  9.51720089E+06
         2   12       3.15177507E-04  3.81073968E-12  5.48089772E+10  6.68899671E-10  5.48089772E+10
         2   14       9.86971828E-03  2.60421264E+09  2.68879019E-08  2.00368381E+12  2.00628802E+12
         2   16       1.09474661E-02  1.48588005E-12  2.23626094E+12  2.11882553E-08  2.23626094E+12
         2   18       5.88572854E-03  3.57647262E-10  1.33155406E+12  2.08313368E-08  1.33155406E+12
         3    5       1.17540971E-03  1.00123215E+06  5.96141496E-13  2.06104651E+08  2.07105883E+08
         3    7       1.13070122E-03  6.45135717E-14  2.07343889E+08  6.18876198E-13  2.07343889E+08
         3    9       1.56961049E-05  3.22268159E+05  2.02114614E-14  1.26060671E+07  1.29283352E+07
         3   11       2.75955943E-04  3.37476588E+08  8.14516097E-10  4.76067665E+10  4.79442430E+10
         3   13       1.02218586E-02  2.96234729E-12  2.07610180E+12  2.61309682E-08  2.07610180E+12
         3   15       7.98547743E-03  1.78841088E+07  2.91514910E-08  1.62980688E+12  1.62982477E+12
         3   17       6.86475467E-03  2.94833261E+10  1.83235319E-08  1.52230728E+12  1.55179060E+12
         4    6       1.17540971E-03  1.00123215E+06  5.96141496E-13  2.06104651E+08  2.07105883E+08
         4    8       1.13070122E-03  6.45135717E-14  2.07343889E+08  6.18876198E-13  2.07343889E+08
         4   10       1.56961049E-05  3.22268159E+05  2.02114614E-14  1.26060671E+07  1.29283352E+07
         4   12       2.75955943E-04  3.37476588E+08  8.14516097E-10  4.76067665E+10  4.79442430E+10
         4   14       1.02218586E-02  2.96234729E-12  2.07610180E+12  2.61309682E-08  2.07610180E+12
         4   16       7.98547743E-03  1.78841088E+07  2.91514910E-08  1.62980688E+12  1.62982477E+12
         4   18       6.86475467E-03  2.94833261E+10  1.83235319E-08  1.52230728E+12  1.55179060E+12
         5    9       2.65627187E-03  4.41905401E+05  2.25952646E-12  6.31613627E+08  6.32055532E+08
         5   11       3.68872792E-04  2.28769960E+09  1.97130191E-10  5.77829510E+10  6.00706506E+10
         5   15       7.68892884E-03  1.47836786E+12  1.17587976E-12  6.81659983E+07  1.47843603E+12
         5   17       8.86170629E-04  1.19669014E+10  1.51118380E-10  1.77324328E+11  1.89291229E+11
         6   10       2.65627187E-03  4.41905401E+05  2.25952646E-12  6.31613627E+08  6.32055532E+08
         6   12       3.68872792E-04  2.28769960E+09  1.97130191E-10  5.77829510E+10  6.00706506E+10
         6   16       7.68892884E-03  1.47836786E+12  1.17587976E-12  6.81659983E+07  1.47843603E+12
         6   18       8.86170629E-04  1.19669014E+10  1.51118380E-10  1.77324328E+11  1.89291229E+11
         7    9       2.70951524E-03  1.85098468E-15  6.22544649E+08  2.18684165E-12  6.22544649E+08
         7   11       3.91496751E-04  7.05297199E-12  6.36703994E+10  1.60614086E-10  6.36703994E+10
         7   13       6.39468640E-03  1.22174140E+12  2.02080952E-11  1.67181958E+08  1.22190859E+12
         7   17       1.75671110E-04  1.76931631E-11  3.74809259E+10  8.16705704E-10  3.74809259E+10
         8   10       2.70951524E-03  1.85098468E-15  6.22544649E+08  2.18684165E-12  6.22544649E+08
         8   12       3.91496751E-04  7.05297199E-12  6.36703994E+10  1.60614086E-10  6.36703994E+10
         8   14       6.39468640E-03  1.22174140E+12  2.02080952E-11  1.67181958E+08  1.22190859E+12
         8   18       1.75671110E-04  1.76931631E-11  3.74809259E+10  8.16705704E-10  3.74809259E+10
         9   11       3.04922685E-04  4.53253059E+10  1.35808682E-13  6.07432357E+08  4.59327383E+10
         9   13       5.39069194E-03  2.54334244E-12  9.59864954E+11  6.76686771E-12  9.59864954E+11
         9   15       4.63664718E-03  9.76401849E+08  1.73626438E-11  8.28941257E+11  8.29917659E+11
         9   17       2.01907303E-02  4.02814435E+12  1.85921261E-14  1.62583866E+09  4.02977019E+12
        10   12       3.04922685E-04  4.53253059E+10  1.35808682E-13  6.07432357E+08  4.59327383E+10
        10   14       5.39069194E-03  2.54334244E-12  9.59864954E+11  6.76686771E-12  9.59864954E+11
        10   16       4.63664718E-03  9.76401849E+08  1.73626438E-11  8.28941257E+11  8.29917659E+11
        10   18       2.01907303E-02  4.02814435E+12  1.85921261E-14  1.62583866E+09  4.02977019E+12
        11   13       1.30519288E-01  1.01578904E-14  1.49560343E+11  2.02217592E-12  1.49560343E+11
        11   15       1.30001533E-01  1.89758326E+08  2.02616907E-12  1.58633928E+11  1.58823686E+11
        11   17       7.40315074E-02  2.53364561E+11  1.59355286E-14  1.11099683E+09  2.54475557E+11
        12   14       1.30519288E-01  1.01578904E-14  1.49560343E+11  2.02217592E-12  1.49560343E+11
        12   16       1.30001533E-01  1.89758326E+08  2.02616907E-12  1.58633928E+11  1.58823686E+11
        12   18       7.40315074E-02  2.53364561E+11  1.59355286E-14  1.11099683E+09  2.54475557E+11
        13   15       3.08323780E-04  1.33310776E-16  3.74404787E+05  2.37853571E-16  3.74404787E+05
        13   17       3.44849979E-02  9.50014450E-16  2.11726429E+10  2.46216865E-13  2.11726429E+10
        14   16       3.08323780E-04  1.33310776E-16  3.74404787E+05  2.37853571E-16  3.74404787E+05
        14   18       3.44849979E-02  9.50014450E-16  2.11726429E+10  2.46216865E-13  2.11726429E+10
        15   17       2.27293850E-02  1.92196842E+07  2.82140326E-13  1.27222239E+10  1.27414436E+10
        16   18       2.27293850E-02  1.92196842E+07  2.82140326E-13  1.27222239E+10  1.27414436E+10
     -----------------------------------------------------------------------------------------------
--

++ Length and velocity gauge comparison (SO states):

 --------------------------------------------------
 A comparison between the dipole oscillator strengths in 
 length and velocity gauge will be performed

 All dipole oscillator differences above the tolerance of   0.10000000000000001       will be printed 

 Due to basis set deficiency these oscillator may be problematic 

 The tolerance is defined as ABS(1-O_l/O_v) 
 O_l : dipole oscillator strength in length gauge
 O_p : dipole oscillator strength in velocity gauge
 --------------------------------------------------

  Problematic transitions have been found

      From   To       Difference (%) Osc. st. (len.) Osc. st. (vel.)
     ---------------------------------------------------------------
         1    5            57.628715  4.90757228E-04  1.15823069E-03
         1    7            57.073928  4.91166927E-04  1.14421585E-03
         1    9      --------------- below threshold  1.14017226E-05
         2    6            57.628715  4.90757228E-04  1.15823069E-03
         2    8            57.073928  4.91166927E-04  1.14421585E-03
         2   10      --------------- below threshold  1.14017226E-05
         3    5            56.643051  5.09621789E-04  1.17540971E-03
         3    7            58.706565  4.66905373E-04  1.13070122E-03
         3    9      --------------- below threshold  1.56961049E-05
         4    6            56.643051  5.09621789E-04  1.17540971E-03
         4    8            58.706565  4.66905373E-04  1.13070122E-03
         4   10      --------------- below threshold  1.56961049E-05
         5    9            73.410909  7.06278545E-04  2.65627187E-03
         5   11            24.914371  2.76970455E-04  3.68872792E-04
         5   17            11.936430  9.91947763E-04  8.86170629E-04
         6   10            73.410909  7.06278545E-04  2.65627187E-03
         6   12            24.914371  2.76970455E-04  3.68872792E-04
         6   18            11.936430  9.91947763E-04  8.86170629E-04
         7    9            73.442539  7.19578462E-04  2.70951524E-03
         7   11            25.411228  2.92012618E-04  3.91496751E-04
         7   17            33.057230  2.33743112E-04  1.75671110E-04
         8   10            73.442539  7.19578462E-04  2.70951524E-03
         8   12            25.411228  2.92012618E-04  3.91496751E-04
         8   18            33.057230  2.33743112E-04  1.75671110E-04
         9   11            85.652910  5.66097838E-04  3.04922685E-04
        10   12            85.652910  5.66097838E-04  3.04922685E-04
        11   13            21.218217  1.58213153E-01  1.30519288E-01
        11   15            20.626417  1.56816191E-01  1.30001533E-01
        11   17            15.510663  8.55142850E-02  7.40315074E-02
        12   14            21.218217  1.58213153E-01  1.30519288E-01
        12   16            20.626417  1.56816191E-01  1.30001533E-01
        12   18            15.510663  8.55142850E-02  7.40315074E-02
        13   15            17.467889  3.62181434E-04  3.08323780E-04
        14   16            17.467889  3.62181434E-04  3.08323780E-04
     ---------------------------------------------------------------

 Number of problematic transitions =                    34

--

 Electric-dipole - electric-octupole not included
++ Total transition strengths for the second-order expansion of the wave vector (SO states):
   -----------------------------------------------------------------------------------------
    for osc. strength at least    1.0000000000000001E-005

      From   To        Osc. strength
     -------------------------------
         1    5       2.06750201E-05
         1    7       2.00193066E-05
         1   11       4.09198228E-05
         1   13       1.09107828E-05
         1   15       1.00612450E-05
         1   17       5.32768681E-05
         2    6       2.06750201E-05
         2    8       2.00193066E-05
         2   12       4.09198228E-05
         2   14       1.09107828E-05
         2   16       1.00612450E-05
         2   18       5.32768681E-05
         3    5       1.91362750E-05
         3    7       2.10738552E-05
         3   11       4.03410419E-05
         3   15       1.06479001E-05
         3   17       5.34860947E-05
         4    6       1.91362750E-05
         4    8       2.10738552E-05
         4   12       4.03410419E-05
         4   16       1.06479001E-05
         4   18       5.34860947E-05
         5    9       6.37500514E-05
         5   11       2.17513216E-05
         6   10       6.37500514E-05
         6   12       2.17513216E-05
         7    9       6.20766636E-05
         7   11       2.21112608E-05
         8   10       6.20766636E-05
         8   12       2.21112608E-05
         9   11       1.54329806E-05
        10   12       1.54329806E-05
        11   13       1.12672712E-05
        11   15       1.19738411E-05
        12   14       1.12672712E-05
        12   16       1.19738411E-05
        13   17       4.16436735E-05
        14   18       4.16436735E-05
        15   17       3.77410108E-05
        16   18       3.77410108E-05
     -------------------------------
--

++ I/O STATISTICS
 
  I. General I/O information
  - - - - - - - - - - - - - - - - - - - - - - - - - - - - - - - - - - - - - - - - - - -
  Unit  Name          Flsize      Write/Read            MBytes           Write/Read
                      (MBytes)       Calls              In/Out           Time, sec.
  - - - - - - - - - - - - - - - - - - - - - - - - - - - - - - - - - - - - - - - - - - -
   1  SCRATCH           0.00 .       9/      45 .      0.0/      0.0 .       0/       0
   2  ANNI              0.00 .       0/       0 .      0.0/      0.0 .       0/       0
   3  RUNFILE          15.31 .     322/   10733 .      2.3/     77.8 .       0/       0
   4  ONEINT            6.58 .       0/   28767 .      0.0/   3777.9 .       0/       0
   5  JOBIPH            7.70 .       0/      92 .      0.0/      0.9 .       0/       0
   6  ORDINT          771.03 .       1/    6169 .      0.0/   1542.0 .       0/       0
  - - - - - - - - - - - - - - - - - - - - - - - - - - - - - - - - - - - - - - - - - - -
   *  TOTAL           800.62 .     332/   45806 .      2.3/   5398.7 .       0/       0
  - - - - - - - - - - - - - - - - - - - - - - - - - - - - - - - - - - - - - - - - - - -
 
  II. I/O Access Patterns
  - - - - - - - - - - - - - - - - - - - -
  Unit  Name               % of random
                         Write/Read calls
  - - - - - - - - - - - - - - - - - - - -
   1  SCRATCH             88.9/ 100.0
   2  ANNI                 0.0/   0.0
   3  RUNFILE             28.6/  10.8
   4  ONEINT               0.0/  13.4
   5  JOBIPH               0.0/  76.1
   6  ORDINT             100.0/   0.0
  - - - - - - - - - - - - - - - - - - - -
--
--- Stop Module: rassi at Tue Mar 25 14:19:04 2025 /rc=_RC_ALL_IS_WELL_ ---
*** files: xmldump
    saved to directory /home4/s4752295/Internship/Initial_simulations/Point_charge_model/1_electron/Madelung_charges_9_active_space/Re
--- Module rassi spent 4 seconds ---

.##################.
.# Happy landing! #.
.##################.

    Timing: Wall=85.79 User=72.19 System=12.41

###############################################################################
Hbrk Cluster
Job 15897332 for user s4752295
Finished at: Tue Mar 25 14:19:09 CET 2025

Job details:
============

Job ID                         : 15897332
Name                           : Re_no_SO
User                           : s4752295
Partition                      : regularmedium
Nodes                          : node91
Number of Nodes                : 1
Cores                          : 1
Number of Tasks                : 1
State                          : COMPLETED  
Submit                         : 2025-03-25T14:17:17
Start                          : 2025-03-25T14:17:34
End                            : 2025-03-25T14:19:05
Reserved walltime              : 15:00:00
Used walltime                  : 00:01:31
Used CPU time                  : 00:01:26 (Efficiency: 94.26%)
% User (Computation)           : 85.25%
% System (I/O)                 : 14.75%
Total memory reserved          : 25000M
Maximum memory used            : 3.06G

Acknowledgements:
=================

Please see this page for information about acknowledging Hbrk in your publications:

https://wiki.hpc.rug.nl/habrok/introduction/scientific_output

################################################################################
