   This run of MOLCAS is using the pymolcas driver

                             OPE
                             OPE          NMOL  CASOP  ENMOLC A   SO
                 OPE        NMOLC        AS  OP EN  MO LC     AS  OP
                OPENM       OL CA        SO  PE NM  OL CA     SOP EN
                OP EN      MO   LC       AS  OP ENMOL  CASO   PENMOL
                OP  EN     MO   LC       AS  OP EN     MO     LC ASO
               OP   E  NMOL  C  AS       OP  EN MO     LC     AS  OP
               OP  E   NMO   LC AS        OPEN  MO     LCASOP EN   M
               O  PEN   MO  LCA  SO
            OPE   NMO   L   CAS    OP
        OPENMOL  CASOP     ENMOL   CASOPE
     OPENMOLCA   SOPENMOLCASOPEN   MOLCASOPE
    OPENMOLCAS   OP           EN   MOL    CAS
    OPENMOLCAS       OP  ENM        O     LCA
    OPENMOLCAS    OPEN  MOLCASO     P  E  NMO
    OPENMOLCAS     OP               E  N  MOL
    OPENMOLCA   SO           PENM   O  L  CAS    OPEN    MO    LCAS
    OPENMOLCA   SOP           ENM   O  L  CAS   OP  EN  MOLC  AS   O
    OPENMOLCA   SOPE           NM      O  LCA   S      OP  EN MO
    OPENMOLC                AS         O  PEN   M      OL  CA  SOPE
    OPENMO        LCASOPE  NMOL        C  ASO   P      ENMOLC     AS
    OPE     NMO      LCA  SO     P     E   NM   OL  CA SO  PE N   MO
          OPENMOLCA            SOPE   NMO        LCAS  O    P  ENMO
     OPENMOLCASOPENMOLCASOPENMOLCASOPENMOLCA
        OPENMOLCASOPENMOLCASOPENMOLCASOPE
            OPENMOLCASOPENMOLCASOPENM
               OPENMOLCASOPENMOLCA        version: o91e1abe7de707b ?
                   OPENMOLCASO
                       OPE                tag:

 OpenMolcas is free software; you can redistribute it and/or modify it
 under the terms of the GNU Lesser General Public License version 2.1.
 OpenMolcas is distributed in the hope that it will be useful, but it
 is provided "as is" and without any express or implied warranties.
 For more details see the full text of the license in the file
 LICENSE or in <http://www.gnu.org/licenses/>.

                 Copyright (C) The OpenMolcas Authors
           For the author list and the recommended citation,
                   consult the file CONTRIBUTORS.md

           *************************************************
           * pymolcas version py2.10                       *
           *   build 3068ae8b88c9345ec6cfef6fef7f1169      *
           *   (after the EMIL interpreter by V. Veryazov) *
           *************************************************

configuration info
------------------
Host name: login1 (Linux)
C Compiler ID: GNU
C flags: -std=gnu99
Fortran Compiler ID: GNU
Fortran flags: -fno-aggressive-loop-optimizations -cpp -fdefault-integer-8 -fmax-stack-var-size=1048576
Definitions: _MOLCAS_;_I8_;_LINUX_;_MKL_
Parallel: OFF (GA=OFF)


   -----------------------------------------------------------------------------------------------------------------------------------
  |
  |           Project: rhenium_so_cf
  |    Submitted from: /home4/s4752295/Internship/Initial_simulations/Point_charge_model/1_electron/Madelung_charges_9_active_space/Re
  |      Scratch area: /tmp/rhenium_so_cf
  |   Save outputs to: /home4/s4752295/Internship/Initial_simulations/Point_charge_model/1_electron/Madelung_charges_9_active_space/Re
  |            Molcas: /home4/s4752295/Internship/Molcas/recomp_try/OpenMolcas-master/build
  |
  | Scratch area is empty
  |
  |    MOLCAS_DRIVER = /home4/s4752295/Internship/Molcas/bin/pymolcas
  |    MOLCAS_NPROCS = 1
  |    MOLCAS_SOURCE = /home4/s4752295/Internship/Molcas/recomp_try/OpenMolcas-master
  | MOLCAS_STRUCTURE = 0
  |
   -----------------------------------------------------------------------------------------------------------------------------------

++ ---------   Input file   ---------

&SEWARD
AMFi

CLIG
$R

Basis Set
Re.ano-rcc.Roos.24s21p15d11f4g2h.11s10p9d8f4g2h.
Spherical d
Re            -1.0658140267135469e-14   -3.5527134223784897e-15 0.008753588724385739
End of Basis

Xfield

414
-1.200660324,-0.46199999999999997,0.26673569999999996   -0.625931
-1.200660324,-0.0,-0.5334717    -0.625931
-1.200660324,0.46199999999999997,0.26673569999999996    -0.625931
-1.198603821,0.0,0.0    1.892092
0.797753907,-0.46199999999999997,-0.26673569999999996   2.515516
0.797753907,0.0,0.5334717       2.515516
0.797753907,0.46199999999999997,-0.26673569999999996    2.515516
1.068896484,-0.9239999999999999,0.0     0.004632
1.068896484,-0.46199999999999997,-0.8002074     0.004632
1.068896484,-0.46199999999999997,0.8002074      0.004632
1.068896484,0.46199999999999997,-0.8002074      0.004632
1.068896484,0.46199999999999997,0.8002074       0.004632
1.068896484,0.9239999999999999,0.0      0.004632
1.2387451170000001,-0.46199999999999997,0.26673569999999996     -2.519484
1.2387451170000001,-0.0,-0.5334717      -2.519484
1.2387451170000001,0.46199999999999997,0.26673569999999996      -2.519484
-0.879931641,-0.0,-0.0  -3.142907
-1.492529298,-0.9239999999999999,-0.5334717     -0.625931
-1.492529298,0.0,1.0669431      -0.625931
-1.492529298,0.9239999999999999,-0.5334717      -0.625931
-1.9828124999999999,-0.9239999999999999,0.0     1.892092
-1.9828124999999999,-0.46199999999999997,-0.8002074     1.892092
-1.9828124999999999,-0.46199999999999997,0.8002074      1.892092
-1.9828124999999999,0.46199999999999997,-0.8002074      1.892092
-1.9828124999999999,0.46199999999999997,0.8002074       1.892092
-1.9828124999999999,0.9239999999999999,0.0      1.892092
7.551562499999999,-0.9239999999999999,0.5334717 2.515516
7.551562499999999,-0.0,-1.0669431       2.515516
7.551562499999999,0.9239999999999999,0.5334717  2.515516
1.0916015639999999,-0.9239999999999999,-0.5334717       -2.519484
1.0916015639999999,0.0,1.0669431        -2.519484
1.0916015639999999,0.9239999999999999,-0.5334717        -2.519484
-0.9697265639999999,-0.9239999999999999,-0.0    -3.142907
-0.9697265639999999,-0.46199999999999997,-0.8002074     -3.142907
-0.9697265639999999,-0.46199999999999997,0.8002074      -3.142907
-0.9697265639999999,0.46199999999999997,-0.8002074      -3.142907
-0.9697265639999999,0.46199999999999997,0.8002074       -3.142907
-0.9697265639999999,0.9239999999999999,-0.0     -3.142907
-2.85703125,-0.9239999999999999,1.0669431       -0.625931
-2.85703125,0.9239999999999999,1.0669431        -0.625931
-2.85703125,-1.386,0.26673569999999996  -0.625931
-2.85703125,1.386,0.26673569999999996   -0.625931
-2.85703125,-0.46199999999999997,-1.3336791000000001    -0.625931
-2.85703125,0.46199999999999997,-1.3336791000000001     -0.625931
1.80234375,-0.46199999999999997,-0.26673569999999996    4.409069
1.80234375,0.46199999999999997,-0.26673569999999996     4.409069
1.80234375,0.0,0.5334717        4.409069
-52.574999999999996,-0.0,-0.0   -5.030367
-52.574999999999996,0.0,0.0     5.039632
4.055273435999999,-0.9239999999999999,-1.0669431        2.515516
4.055273435999999,0.9239999999999999,-1.0669431 2.515516
4.055273435999999,-1.386,-0.26673569999999996   2.515516
4.055273435999999,1.386,-0.26673569999999996    2.515516
4.055273435999999,-0.46199999999999997,1.3336791000000001       2.515516
4.055273435999999,0.46199999999999997,1.3336791000000001        2.515516
5.71171875,-1.386,-0.8002074    0.004632
5.71171875,-1.386,0.8002074     0.004632
5.71171875,1.386,-0.8002074     0.004632
5.71171875,1.386,0.8002074      0.004632
5.71171875,-0.0,-1.6004148      0.004632
5.71171875,0.0,1.6004148        0.004632
14.423437499999999,-0.9239999999999999,1.0669431        -2.519484
14.423437499999999,0.9239999999999999,1.0669431 -2.519484
14.423437499999999,-1.386,0.26673569999999996   -2.519484
14.423437499999999,1.386,0.26673569999999996    -2.519484
14.423437499999999,-0.46199999999999997,-1.3336791000000001     -2.519484
14.423437499999999,0.46199999999999997,-1.3336791000000001      -2.519484
-43.762499999999996,-1.386,-0.8002074   1.892092
-43.762499999999996,-1.386,0.8002074    1.892092
-43.762499999999996,1.386,-0.8002074    1.892092
-43.762499999999996,1.386,0.8002074     1.892092
-43.762499999999996,-0.0,-1.6004148     1.892092
-43.762499999999996,0.0,1.6004148       1.892092
-35.324999999999996,-0.9239999999999999,0.5334717       4.409069
-35.324999999999996,-0.0,-1.0669431     4.409069
-35.324999999999996,0.9239999999999999,0.5334717        4.409069
-26.7,-0.9239999999999999,-0.0  -5.030367
-26.7,-0.46199999999999997,-0.8002074   -5.030367
-26.7,-0.46199999999999997,0.8002074    -5.030367
-26.7,0.46199999999999997,-0.8002074    -5.030367
-26.7,-0.9239999999999999,0.0   5.039632
-26.7,0.9239999999999999,-0.0   -5.030367
-26.7,0.46199999999999997,0.8002074     -5.030367
-26.7,-0.46199999999999997,-0.8002074   5.039632
-26.7,-0.46199999999999997,0.8002074    5.039632
-26.7,0.46199999999999997,-0.8002074    5.039632
-26.7,0.9239999999999999,0.0    5.039632
-26.7,0.46199999999999997,0.8002074     5.039632
-13.987499999999999,-0.46199999999999997,-0.26673569999999996   -5.660931
-13.987499999999999,0.0,0.5334717       -5.660931
-13.987499999999999,0.46199999999999997,-0.26673569999999996    -5.660931
0.26484375,-1.8479997,0.0       0.004632
0.26484375,-0.9239999999999999,-1.6004148       0.004632
0.26484375,-0.9239999999999999,1.6004148        0.004632
0.26484375,0.9239999999999999,-1.6004148        0.004632
0.26484375,1.8479997,0.0        0.004632
0.26484375,0.9239999999999999,1.6004148 0.004632
20.381249999999998,-1.386,0.8002074     -3.142907
20.381249999999998,-1.386,-0.8002074    -3.142907
20.381249999999998,1.386,-0.8002074     -3.142907
20.381249999999998,1.386,0.8002074      -3.142907
20.381249999999998,-0.0,-1.6004148      -3.142907
20.381249999999998,0.0,1.6004148        -3.142907
25.912499999999998,-1.8479997,-0.5334717        -0.625931
25.912499999999998,-1.386,-1.3336791000000001   -0.625931
25.912499999999998,-0.46199999999999997,1.8671505       -0.625931
25.912499999999998,1.386,-1.3336791000000001    -0.625931
25.912499999999998,1.8479997,-0.5334717 -0.625931
25.912499999999998,0.46199999999999997,1.8671505        -0.625931
0.359179686,-1.8479997,0.0      1.892092
0.359179686,-0.9239999999999999,-1.6004148      1.892092
0.359179686,-0.9239999999999999,1.6004148       1.892092
0.359179686,0.9239999999999999,-1.6004148       1.892092
0.359179686,1.8479997,0.0       1.892092
0.359179686,0.9239999999999999,1.6004148        1.892092
10.153125,-0.9239999999999999,-1.0669431        4.409069
10.153125,0.9239999999999999,-1.0669431 4.409069
10.153125,-1.386,-0.26673569999999996   4.409069
10.153125,1.386,-0.26673569999999996    4.409069
10.153125,-0.46199999999999997,1.3336791000000001       4.409069
10.153125,0.46199999999999997,1.3336791000000001        4.409069
48.721875,-0.9239999999999999,0.5334717 -5.660931
48.721875,-0.0,-1.0669431       -5.660931
48.721875,0.9239999999999999,0.5334717  -5.660931
0.103125,-1.8479997,0.5334717   2.515516
0.103125,-0.46199999999999997,-1.8671505        2.515516
0.103125,-1.386,1.3336791000000001      2.515516
0.103125,0.46199999999999997,-1.8671505 2.515516
0.103125,1.8479997,0.5334717    2.515516
0.103125,1.386,1.3336791000000001       2.515516
-28.256249999999998,-1.8479997,-0.5334717       -2.519484
-28.256249999999998,-1.386,-1.3336791000000001  -2.519484
-28.256249999999998,-0.46199999999999997,1.8671505      -2.519484
-28.256249999999998,1.386,-1.3336791000000001   -2.519484
-28.256249999999998,0.46199999999999997,1.8671505       -2.519484
-28.256249999999998,1.8479997,-0.5334717        -2.519484
-6.62109375,-1.8479997,-0.0     -3.142907
-6.62109375,-0.9239999999999999,-1.6004148      -3.142907
-6.62109375,-0.9239999999999999,1.6004148       -3.142907
-6.62109375,0.9239999999999999,-1.6004148       -3.142907
-6.62109375,0.9239999999999999,1.6004148        -3.142907
-6.62109375,1.8479997,-0.0      -3.142907
181.95,0.0,0.0  6.927092
96.975,-1.8479997,1.0669431     -0.625931
96.975,1.8479997,1.0669431      -0.625931
96.975,-0.0,-2.1338865  -0.625931
-1.6265625,-1.386,0.8002074     -5.030367
-1.6265625,-1.386,-0.8002074    -5.030367
-1.6265625,-1.386,0.8002074     5.039632
-1.6265625,-1.386,-0.8002074    5.039632
-1.6265625,1.386,-0.8002074     -5.030367
-1.6265625,1.386,0.8002074      -5.030367
-1.6265625,1.386,-0.8002074     5.039632
-1.6265625,1.386,0.8002074      5.039632
-1.6265625,-0.0,-1.6004148      -5.030367
-1.6265625,0.0,1.6004148        -5.030367
-1.6265625,-0.0,-1.6004148      5.039632
-1.6265625,0.0,1.6004148        5.039632
27.54375,-0.9239999999999999,-1.0669431 -5.660931
27.54375,0.9239999999999999,-1.0669431  -5.660931
27.54375,-1.386,-0.26673569999999996    -5.660931
27.54375,1.386,-0.26673569999999996     -5.660931
27.54375,-0.46199999999999997,1.3336791000000001        -5.660931
27.54375,0.46199999999999997,1.3336791000000001 -5.660931
90.14999999999999,-1.8479997,-1.0669431 2.515516
90.14999999999999,1.8479997,-1.0669431  2.515516
90.14999999999999,0.0,2.1338865 2.515516
-155.17499999999998,-1.8479997,1.0669431        -2.519484
-155.17499999999998,1.8479997,1.0669431 -2.519484
-155.17499999999998,-0.0,-2.1338865     -2.519484
16.068749999999998,-0.9239999999999999,0.0      6.927092
16.068749999999998,-0.46199999999999997,-0.8002074      6.927092
16.068749999999998,-0.46199999999999997,0.8002074       6.927092
16.068749999999998,0.46199999999999997,-0.8002074       6.927092
16.068749999999998,0.46199999999999997,0.8002074        6.927092
16.068749999999998,0.9239999999999999,0.0       6.927092
-16.575,-0.46199999999999997,0.26673569999999996        7.550516
-16.575,0.0,-0.5334717  7.550516
-16.575,0.46199999999999997,0.26673569999999996 7.550516
4.659375,-0.46199999999999997,-0.26673569999999996      -7.554483
4.659375,0.46199999999999997,-0.26673569999999996       -7.554483
4.659375,-0.0,0.5334717 -7.554483
-37.4625,-2.3099997,0.26673569999999996 -0.625931
-37.4625,-1.386,1.8671505       -0.625931
-37.4625,-0.9239999999999999,-2.1338865 -0.625931
-37.4625,0.9239999999999999,-2.1338865  -0.625931
-37.4625,2.3099997,0.26673569999999996  -0.625931
-37.4625,1.386,1.8671505        -0.625931
-20.23125,-1.8479997,0.5334717  4.409069
-20.23125,-1.386,1.3336791000000001     4.409069
-20.23125,-0.46199999999999997,-1.8671505       4.409069
-20.23125,0.46199999999999997,-1.8671505        4.409069
-20.23125,1.386,1.3336791000000001      4.409069
-20.23125,1.8479997,0.5334717   4.409069
14.746875,-1.8479997,-0.0       -5.030367
14.746875,-0.9239999999999999,-1.6004148        -5.030367
14.746875,-0.9239999999999999,1.6004148 -5.030367
14.746875,-1.8479997,0.0        5.039632
14.746875,-0.9239999999999999,-1.6004148        5.039632
14.746875,0.9239999999999999,-1.6004148 -5.030367
14.746875,0.9239999999999999,1.6004148  -5.030367
14.746875,1.8479997,-0.0        -5.030367
14.746875,-0.9239999999999999,1.6004148 5.039632
14.746875,0.9239999999999999,-1.6004148 5.039632
14.746875,1.8479997,0.0 5.039632
14.746875,0.9239999999999999,1.6004148  5.039632
54.225,-2.3099997,-0.26673569999999996  2.515516
54.225,-1.386,-1.8671505        2.515516
54.225,-0.9239999999999999,2.1338865    2.515516
54.225,1.386,-1.8671505 2.515516
54.225,2.3099997,-0.26673569999999996   2.515516
54.225,0.9239999999999999,2.1338865     2.515516
-7.003125,-2.3099997,-0.8002074 0.004632
-7.003125,-2.3099997,0.8002074  0.004632
-7.003125,-1.8479997,-1.6004148 0.004632
-7.003125,-1.8479997,1.6004148  0.004632
-7.003125,-0.46199999999999997,-2.4006222       0.004632
-7.003125,0.46199999999999997,-2.4006222        0.004632
-7.003125,-0.46199999999999997,2.4006222        0.004632
-7.003125,1.8479997,-1.6004148  0.004632
-7.003125,0.46199999999999997,2.4006222 0.004632
-7.003125,2.3099997,-0.8002074  0.004632
-7.003125,2.3099997,0.8002074   0.004632
-7.003125,1.8479997,1.6004148   0.004632
-42.9375,-2.3099997,0.26673569999999996 -2.519484
-42.9375,-1.386,1.8671505       -2.519484
-42.9375,-0.9239999999999999,-2.1338865 -2.519484
-42.9375,0.9239999999999999,-2.1338865  -2.519484
-42.9375,2.3099997,0.26673569999999996  -2.519484
-42.9375,1.386,1.8671505        -2.519484
909.6,-0.0,-0.0 -8.177907
-34.8,-0.9239999999999999,-0.5334717    7.550516
-34.8,0.0,1.0669431     7.550516
-34.8,0.9239999999999999,-0.5334717     7.550516
-181.04999999999998,-0.9239999999999999,0.5334717       -7.554483
-181.04999999999998,-0.0,-1.0669431     -7.554483
-181.04999999999998,0.9239999999999999,0.5334717        -7.554483
14.671875,-2.3099997,0.8002074  1.892092
14.671875,-2.3099997,-0.8002074 1.892092
14.671875,-1.8479997,-1.6004148 1.892092
14.671875,-1.8479997,1.6004148  1.892092
14.671875,-0.46199999999999997,-2.4006222       1.892092
14.671875,0.46199999999999997,-2.4006222        1.892092
14.671875,-0.46199999999999997,2.4006222        1.892092
14.671875,1.8479997,-1.6004148  1.892092
14.671875,0.46199999999999997,2.4006222 1.892092
14.671875,2.3099997,-0.8002074  1.892092
14.671875,2.3099997,0.8002074   1.892092
14.671875,1.8479997,1.6004148   1.892092
-151.5,-1.8479997,-1.0669431    4.409069
-151.5,1.8479997,-1.0669431     4.409069
-151.5,0.0,2.1338865    4.409069
7.74609375,-1.8479997,0.5334717 -5.660931
7.74609375,-0.46199999999999997,-1.8671505      -5.660931
7.74609375,-1.386,1.3336791000000001    -5.660931
7.74609375,0.46199999999999997,-1.8671505       -5.660931
7.74609375,1.386,1.3336791000000001     -5.660931
7.74609375,1.8479997,0.5334717  -5.660931
-17.45625,-1.8479997,-1.6004148 -3.142907
-17.45625,-2.3099997,0.8002074  -3.142907
-17.45625,-2.3099997,-0.8002074 -3.142907
-17.45625,-1.8479997,1.6004148  -3.142907
-17.45625,-0.46199999999999997,-2.4006222       -3.142907
-17.45625,0.46199999999999997,-2.4006222        -3.142907
-17.45625,-0.46199999999999997,2.4006222        -3.142907
-17.45625,2.3099997,-0.8002074  -3.142907
-17.45625,1.8479997,-1.6004148  -3.142907
-17.45625,0.46199999999999997,2.4006222 -3.142907
-17.45625,2.3099997,0.8002074   -3.142907
-17.45625,1.8479997,1.6004148   -3.142907
19.621875,-1.386,-0.8002074     6.927092
19.621875,-1.386,0.8002074      6.927092
19.621875,1.386,-0.8002074      6.927092
19.621875,1.386,0.8002074       6.927092
19.621875,-0.0,-1.6004148       6.927092
19.621875,0.0,1.6004148 6.927092
-24.974999999999998,-0.9239999999999999,-0.0    -8.177907
-24.974999999999998,-0.46199999999999997,0.8002074      -8.177907
-24.974999999999998,-0.46199999999999997,-0.8002074     -8.177907
-24.974999999999998,0.46199999999999997,-0.8002074      -8.177907
-24.974999999999998,0.9239999999999999,-0.0     -8.177907
-24.974999999999998,0.46199999999999997,0.8002074       -8.177907
-27.271874999999998,-0.9239999999999999,1.0669431       7.550516
-27.271874999999998,0.9239999999999999,1.0669431        7.550516
-27.271874999999998,-1.386,0.26673569999999996  7.550516
-27.271874999999998,1.386,0.26673569999999996   7.550516
-27.271874999999998,-0.46199999999999997,-1.3336791000000001    7.550516
-27.271874999999998,0.46199999999999997,-1.3336791000000001     7.550516
-13.706249999999999,-0.9239999999999999,-1.0669431      -7.554483
-13.706249999999999,0.9239999999999999,-1.0669431       -7.554483
-13.706249999999999,-1.386,-0.26673569999999996 -7.554483
-13.706249999999999,1.386,-0.26673569999999996  -7.554483
-13.706249999999999,-0.46199999999999997,1.3336791000000001     -7.554483
-13.706249999999999,0.46199999999999997,1.3336791000000001      -7.554483
-150.075,0.0,2.6673579  -0.625931
-150.075,-2.3099997,-1.3336791000000001 -0.625931
-150.075,2.3099997,-1.3336791000000001  -0.625931
-80.925,-2.3099997,-0.26673569999999996 4.409069
-80.925,-1.386,-1.8671505       4.409069
-80.925,-0.9239999999999999,2.1338865   4.409069
-80.925,1.386,-1.8671505        4.409069
-80.925,2.3099997,-0.26673569999999996  4.409069
-80.925,0.9239999999999999,2.1338865    4.409069
93.1125,-1.8479997,-1.0669431   -5.660931
93.1125,1.8479997,-1.0669431    -5.660931
93.1125,0.0,2.1338865   -5.660931
176.1,-0.0,-2.6673579   2.515516
176.1,-2.3099997,1.3336791000000001     2.515516
176.1,2.3099997,1.3336791000000001      2.515516
-28.162499999999998,-2.7719997,-0.0     0.004632
-28.162499999999998,1.386,-2.4006222    0.004632
-28.162499999999998,-1.386,2.4006222    0.004632
-28.162499999999998,2.7719997,-0.0      0.004632
-28.162499999999998,-1.386,-2.4006222   0.004632
-28.162499999999998,1.386,2.4006222     0.004632
-115.725,0.0,2.6673579  -2.519484
-115.725,-2.3099997,-1.3336791000000001 -2.519484
-115.725,2.3099997,-1.3336791000000001  -2.519484
68.39999999999999,-1.8479997,0.0        6.927092
68.39999999999999,-0.9239999999999999,-1.6004148        6.927092
68.39999999999999,-0.9239999999999999,1.6004148 6.927092
68.39999999999999,0.9239999999999999,-1.6004148 6.927092
68.39999999999999,1.8479997,0.0 6.927092
68.39999999999999,0.9239999999999999,1.6004148  6.927092
63.5625,-2.7719997,-0.5334717   -0.625931
63.5625,-0.9239999999999999,2.6673579   -0.625931
63.5625,-1.8479997,-2.1338865   -0.625931
63.5625,1.8479997,-2.1338865    -0.625931
63.5625,0.9239999999999999,2.6673579    -0.625931
63.5625,2.7719997,-0.5334717    -0.625931
33.58125,-2.7719997,0.0 1.892092
33.58125,-1.386,-2.4006222      1.892092
33.58125,-1.386,2.4006222       1.892092
33.58125,1.386,-2.4006222       1.892092
33.58125,2.7719997,0.0  1.892092
33.58125,1.386,2.4006222        1.892092
-1.29609375,-2.3099997,0.8002074        -5.030367
-1.29609375,-2.3099997,-0.8002074       -5.030367
-1.29609375,-1.8479997,-1.6004148       -5.030367
-1.29609375,-1.8479997,1.6004148        -5.030367
-1.29609375,-2.3099997,0.8002074        5.039632
-1.29609375,0.46199999999999997,-2.4006222      -5.030367
-1.29609375,-0.46199999999999997,-2.4006222     -5.030367
-1.29609375,-2.3099997,-0.8002074       5.039632
-1.29609375,-1.8479997,-1.6004148       5.039632
-1.29609375,-0.46199999999999997,2.4006222      -5.030367
-1.29609375,0.46199999999999997,-2.4006222      5.039632
-1.29609375,-1.8479997,1.6004148        5.039632
-1.29609375,-0.46199999999999997,-2.4006222     5.039632
-1.29609375,1.8479997,-1.6004148        -5.030367
-1.29609375,0.46199999999999997,2.4006222       -5.030367
-1.29609375,2.3099997,-0.8002074        -5.030367
-1.29609375,2.3099997,0.8002074 -5.030367
-1.29609375,1.8479997,1.6004148 -5.030367
-1.29609375,-0.46199999999999997,2.4006222      5.039632
-1.29609375,1.8479997,-1.6004148        5.039632
-1.29609375,2.3099997,-0.8002074        5.039632
-1.29609375,0.46199999999999997,2.4006222       5.039632
-1.29609375,2.3099997,0.8002074 5.039632
-1.29609375,1.8479997,1.6004148 5.039632
-0.20625,-2.3099997,-0.26673569999999996        -5.660931
-0.20625,-1.386,-1.8671505      -5.660931
-0.20625,-0.9239999999999999,2.1338865  -5.660931
-0.20625,1.386,-1.8671505       -5.660931
-0.20625,0.9239999999999999,2.1338865   -5.660931
-0.20625,2.3099997,-0.26673569999999996 -5.660931
34.8,-0.46199999999999997,0.26673569999999996   9.444068
34.8,0.0,-0.5334717     9.444068
34.8,0.46199999999999997,0.26673569999999996    9.444068
15.393749999999999,-2.7719997,0.5334717 2.515516
15.393749999999999,-0.9239999999999999,-2.6673579       2.515516
15.393749999999999,0.9239999999999999,-2.6673579        2.515516
15.393749999999999,-1.8479997,2.1338865 2.515516
15.393749999999999,2.7719997,0.5334717  2.515516
15.393749999999999,1.8479997,2.1338865  2.515516
47.0625,-2.7719997,-0.5334717   -2.519484
47.0625,-0.9239999999999999,2.6673579   -2.519484
47.0625,-1.8479997,-2.1338865   -2.519484
47.0625,1.8479997,-2.1338865    -2.519484
47.0625,2.7719997,-0.5334717    -2.519484
47.0625,0.9239999999999999,2.6673579    -2.519484
65.8875,-2.7719997,-0.0 -3.142907
65.8875,-1.386,-2.4006222       -3.142907
65.8875,-1.386,2.4006222        -3.142907
65.8875,1.386,-2.4006222        -3.142907
65.8875,2.7719997,-0.0  -3.142907
65.8875,1.386,2.4006222 -3.142907
2.593652343,-1.386,-0.8002074   -8.177907
2.593652343,-1.386,0.8002074    -8.177907
2.593652343,1.386,0.8002074     -8.177907
2.593652343,1.386,-0.8002074    -8.177907
2.593652343,-0.0,-1.6004148     -8.177907
2.593652343,0.0,1.6004148       -8.177907
75.5625,-1.386,-1.3336791000000001      7.550516
75.5625,-1.8479997,-0.5334717   7.550516
75.5625,-0.46199999999999997,1.8671505  7.550516
75.5625,1.386,-1.3336791000000001       7.550516
75.5625,0.46199999999999997,1.8671505   7.550516
75.5625,1.8479997,-0.5334717    7.550516
-104.39999999999999,-1.386,1.3336791000000001   -7.554483
-104.39999999999999,-1.8479997,0.5334717        -7.554483
-104.39999999999999,-0.46199999999999997,-1.8671505     -7.554483
-104.39999999999999,0.46199999999999997,-1.8671505      -7.554483
-104.39999999999999,1.8479997,0.5334717 -7.554483
-104.39999999999999,1.386,1.3336791000000001    -7.554483
21.3796875,-2.3099997,1.8671505 -0.625931
21.3796875,-2.7719997,1.0669431 -0.625931
21.3796875,-0.46199999999999997,-2.9340938999999997     -0.625931
21.3796875,0.46199999999999997,-2.9340938999999997      -0.625931
21.3796875,2.7719997,1.0669431  -0.625931
21.3796875,2.3099997,1.8671505  -0.625931
-145.125,-0.0,-2.6673579        4.409069
-145.125,-2.3099997,1.3336791000000001  4.409069
-145.125,2.3099997,1.3336791000000001   4.409069

End of input

&SCF
Occupied
9
Iterations
   50  100
End of Input

&RASSCF
LumOrb
Symmetry
1
Spin
2
Nactel
1 0 0
CIRoot
9 9 1
inactive
9
ras2
9
End of Input

>>> COPY rhenium_so_cf.JobIph $SLURM_SUBMIT_DIR/rhenium_so_cf.doublet.JobIph

>>> COPY $SLURM_SUBMIT_DIR/rhenium_so_cf.doublet.JobIph ./JOB002

&RASSI
NROFJobIph
1 All
SpinOrbit
End of Input

EOF

-- ----------------------------------

--- Start Module: seward at Tue Mar 25 16:52:46 2025 ---

()()()()()()()()()()()()()()()()()()()()()()()()()()()()()()()()()()()()()()()()()()()()()()()()()()

                                              &SEWARD

                                   only a single process is used
                       available to each process: 4.1 GB of memory, 1 thread?
                                            pid: 3144193
()()()()()()()()()()()()()()()()()()()()()()()()()()()()()()()()()()()()()()()()()()()()()()()()()()

 The speed of LIGHT in this CALCULATION =   137.03599917700001     
               SEWARD will generate:
                  Multipole Moment integrals up to order  2
                  Kinetic Energy integrals
                  Nuclear Attraction integrals (point charge)
                  One-Electron Hamiltonian integrals
                  Velocity integrals
                  Relativistic Douglas-Kroll-Hess integrals:
                    - Parametrization         : EXP
                    - DKH order of Hamiltonian: 2
                    - DKH order of Properties : 0
                         - multipole moment operators
                         - electric potential operators
                         - contact operators
                  External field from   414 point(s) added to the one-electron Hamiltonian
                  Orbital angular momentum around (-0.0000 -0.0000  0.0088 )
                  Velocity quadrupole around (-0.0000 -0.0000  0.0088 )
                  Atomic mean-field integrals
                  Two-Electron Repulsion integrals

                   Integrals are discarded if absolute value <: 0.10E-13
                   Integral cutoff threshold is set to       <: 0.10E-15

++    Symmetry information:
      ---------------------

                    Character Table for C1 

                             E  
                    a        1  x, y, xy, Rz, z, xz, Ry, yz, Rx, I
--


++    Basis set information:
      ----------------------


      Basis set label: RE.ANO-RCC.ROOS.24S21P15D11F4G2H.11S10P9D8F4G2H......

      Electronic valence basis set:
      ------------------
      Associated Effective Charge  75.000000 au
      Associated Actual Charge     75.000000 au
      Nuclear Model: Point charge

      Shell  nPrim  nBasis  Cartesian Spherical Contaminant
         s      24      11        X                  
         p      21      10        X                  
         d      15       9                 X         
         f      11       8                 X         
         g       4       4                 X         
         h       2       2                 X         
--


++    Molecular structure info:
      -------------------------

                    ************************************************ 
                    **** Cartesian Coordinates / Bohr, Angstrom **** 
                    ************************************************ 

     Center  Label                x              y              z                     x              y              z
        1      RE              -0.000000      -0.000000       0.008754             -0.000000      -0.000000       0.004632
--


++    Operator info:
      --------------


  Net charge from external field:   -39.268449999999902     
--


            Nuclear Potential Energy              0.00000000 au

                    Nuclear-External Field Potential Energy   -2287.23110740 au
                    External Field Potential Energy            5352.12300462 au 


            Total Nuclear Potential Energy          -2287.23110740 au


      Basis set specifications :
      Symmetry species         a  
      Basis functions          200

 Sorry, Molden does not know how to handle
 functions with angular momentum larger than g
Note: The following floating-point exceptions are signalling: IEEE_UNDERFLOW_FLAG IEEE_DENORMAL
--- Stop Module: seward at Tue Mar 25 16:53:06 2025 /rc=_RC_ALL_IS_WELL_ ---
*** files: rhenium_so_cf.GssOrb xmldump
    saved to directory /home4/s4752295/Internship/Initial_simulations/Point_charge_model/1_electron/Madelung_charges_9_active_space/Re
--- Module seward spent 20 seconds ---

*** symbolic link created: INPORB -> rhenium_so_cf.GssOrb
--- Start Module: scf at Tue Mar 25 16:53:06 2025 ---

()()()()()()()()()()()()()()()()()()()()()()()()()()()()()()()()()()()()()()()()()()()()()()()()()()

                                                &SCF

                                   only a single process is used
                       available to each process: 4.1 GB of memory, 1 thread?
                                            pid: 3144245
()()()()()()()()()()()()()()()()()()()()()()()()()()()()()()()()()()()()()()()()()()()()()()()()()()

++    Input section:
      --------------

      Header of the integral files:
      
       Integrals generated by seward 4.2.0  , Tue Mar 25 16:52:47 2025


      Cartesian coordinates in Angstrom:
      -----------------------------------------------------
      No.  Label        X            Y            Z        
      -----------------------------------------------------
       1   RE        -0.00000000  -0.00000000   0.00463220
      -----------------------------------------------------
      Nuclear repulsion energy =-2287.23110740
--

++    Orbital specifications:
      -----------------------

      Symmetry species               1
                                     a
      Frozen orbitals                0
      Occupied orbitals              9
      Secondary orbitals           191
      Deleted orbitals               0
      Total number of orbitals     200
      Number of basis functions    200
--

      Molecular charge                          57.000

++    Optimization specifications:
      ----------------------------

      SCF Algorithm: Conventional
      Minimized density differences are used
      Number of density matrices in core                5
      Maximum number of NDDO SCF iterations            50
      Maximum number of HF SCF iterations             100
      Threshold for SCF energy change            0.10E-08
      Threshold for density matrix               0.10E-03
      Threshold for Fock matrix                  0.15E-03
      Threshold for linear dependence            0.10E-08
      Threshold at which DIIS is turned on       0.15E+00
      Threshold at which QNR/C2DIIS is turned on 0.75E-01
      Threshold for Norm(delta) (QNR/C2DIIS)     0.20E-04
      DIIS extrapolation of the SCF procedure
      All orbitals punched on: SCFORB
--

      Detected guessorb starting orbitals                                             


++ Convergence information
                                   SCF        iterations: Energy and convergence statistics

Iter     Tot. SCF        One-elec.       Two-elec.     Energy      Max Dij or  Max Fij      DNorm      TNorm      AccCon     Time
         Energy          Energy          Energy        Change      Delta Norm                                                in Sec.

 The total and one-electron energies are shifted by a value of     15000. a.u.

   1   -48.208691247   947.830104488  1291.192311663   0.00E+00    0.21E+00*   0.93E+01*    0.60E+01   0.67E+03   None         1.
   2   -59.797490465   889.898286964  1337.535329969  -0.12E+02*   0.58E-02*   0.20E+00*    0.94E+00   0.68E+03   EDIIS        1.
   3   -59.802780579   890.534066722  1336.894260097  -0.53E-02*   0.66E-03*   0.12E-01*    0.20E-01   0.68E+03   EDIIS        1.
   4   -59.802793892   890.519285091  1336.909028416  -0.13E-04*   0.20E-04    0.10E-02*    0.92E-03   0.68E+03   c2DIIS       1.
   5   -59.802793984   890.519590092  1336.908723321  -0.93E-07*   0.34E-05    0.59E-04     0.53E-04   0.68E+03   QNRc2DIIS    1.
   6   -59.802793985   890.519597227  1336.908716186  -0.60E-09    0.11E-05    0.13E-04     0.29E-05   0.68E+03   QNRc2DIIS    1.

       Convergence after  6 Macro Iterations
--

 *****************************************************************************************************************************
 *                                                                                                                           *
 *                                             SCF/KS-DFT Program, Final results                                             *
 *                                                                                                                           *
 *                                                                                                                           *
 *                                                                                                                           *
 *                                                       Final Results                                                       *
 *                                                                                                                           *
 *****************************************************************************************************************************

::    Total SCF energy                             -15059.8027939850
      One-electron energy                          -14109.4804027732
      Two-electron energy                            1336.9087161863
      Nuclear repulsion energy                      -2287.2311073981
      Kinetic energy (interpolated)                 20165.1034685754
      Virial theorem                                    0.7468249701
      Total spin, S(S+1)                                0.0000000000
      Total spin, S                                     0.0000000000
      Max non-diagonal density matrix element           0.0000016944
      Max non-diagonal Fock matrix element              0.0000042511


      All orbitals with orbital energies smaller than  E(LUMO)+0.5 are printed

++    Molecular orbitals:
      -------------------

      Title: SCF orbitals

      Molecular orbitals for symmetry species 1: a  

          Some orbital energies have been scaled by powers of 10, the power is written right after the orbital index


          Orbital            1 (1)     2         3         4         5         6         7         8         9        10    
          Energy         -276.8234 -583.9515 -527.3127 -527.3127 -527.3005 -209.0562 -191.6001 -191.6001 -191.4639 -170.9839
          Occ. No.          2.0000    2.0000    2.0000    2.0000    2.0000    2.0000    2.0000    2.0000    2.0000    0.0000

        1 RE     1s         1.0000    0.0001    0.0000    0.0000   -0.0000   -0.0000   -0.0000   -0.0000    0.0000   -0.0000
        2 RE     2s        -0.0001    0.9999    0.0000    0.0000   -0.0043    0.0121    0.0000    0.0000   -0.0011    0.0000
        3 RE     3s         0.0000   -0.0117   -0.0000   -0.0000    0.0005    0.9937    0.0002    0.0000   -0.0554    0.0000
        4 RE     4s        -0.0000    0.0034    0.0000    0.0000   -0.0001   -0.0792   -0.0000   -0.0000    0.0078   -0.0000
        5 RE     5s         0.0000   -0.0012   -0.0000   -0.0000    0.0000    0.0233    0.0000    0.0000   -0.0023   -0.0000
        6 RE     6s        -0.0000    0.0003    0.0000    0.0000   -0.0000   -0.0065   -0.0000   -0.0000    0.0007   -0.0000
        7 RE     7s         0.0000   -0.0006   -0.0000   -0.0000    0.0000    0.0107    0.0000    0.0000   -0.0011   -0.0000
        8 RE     8s        -0.0000    0.0012    0.0000    0.0000   -0.0000   -0.0220   -0.0000   -0.0000    0.0022    0.0000
        9 RE     9s         0.0000   -0.0016   -0.0000   -0.0000    0.0001    0.0266    0.0000    0.0000   -0.0027   -0.0000
       10 RE    10s        -0.0000    0.0012    0.0000    0.0000   -0.0000   -0.0178   -0.0000   -0.0000    0.0018   -0.0000
       11 RE    11s         0.0000   -0.0023   -0.0000   -0.0000    0.0001    0.0289    0.0000    0.0000   -0.0029    0.0000
       12 RE     2px        0.0000    0.0043   -0.0089   -0.0000    0.9998    0.0003   -0.0001   -0.0000    0.0141   -0.0000
       13 RE     3px       -0.0000    0.0003    0.0001    0.0000   -0.0136    0.0562   -0.0072   -0.0000    0.9905   -0.0000
       14 RE     4px        0.0000   -0.0001   -0.0000   -0.0000    0.0038   -0.0028    0.0007    0.0000   -0.0909    0.0000
       15 RE     5px       -0.0000    0.0000    0.0000    0.0000   -0.0012    0.0007   -0.0002   -0.0000    0.0256   -0.0000
       16 RE     6px        0.0000   -0.0000   -0.0000   -0.0000    0.0006   -0.0003    0.0001    0.0000   -0.0117   -0.0000
       17 RE     7px       -0.0000    0.0000    0.0000    0.0000   -0.0017    0.0008   -0.0002   -0.0000    0.0323   -0.0000
       18 RE     8px        0.0000   -0.0000   -0.0000   -0.0000    0.0018   -0.0007    0.0002    0.0000   -0.0320    0.0000
       19 RE     9px       -0.0000    0.0000    0.0000    0.0000   -0.0017    0.0006   -0.0002   -0.0000    0.0274   -0.0000
       20 RE    10px        0.0000   -0.0000   -0.0000   -0.0000    0.0019   -0.0006    0.0002    0.0000   -0.0270    0.0000
       21 RE    11px       -0.0000    0.0001    0.0000    0.0000   -0.0026    0.0004   -0.0002   -0.0000    0.0273   -0.0000
       22 RE     2py       -0.0000   -0.0000   -0.0000    0.9999   -0.0000   -0.0000   -0.0000    0.0141   -0.0000    0.0000
       23 RE     3py        0.0000    0.0000    0.0000   -0.0136    0.0000   -0.0000   -0.0000    0.9925   -0.0000    0.0006
       24 RE     4py       -0.0000    0.0000   -0.0000    0.0038   -0.0000    0.0000    0.0000   -0.0906    0.0000   -0.0001
       25 RE     5py        0.0000    0.0000    0.0000   -0.0012    0.0000   -0.0000   -0.0000    0.0254   -0.0000    0.0000
       26 RE     6py       -0.0000    0.0000   -0.0000    0.0006   -0.0000    0.0000    0.0000   -0.0116    0.0000   -0.0000
       27 RE     7py        0.0000    0.0000    0.0000   -0.0017    0.0000   -0.0000   -0.0000    0.0321   -0.0000    0.0000
       28 RE     8py       -0.0000    0.0000   -0.0000    0.0018   -0.0000    0.0000    0.0000   -0.0318    0.0000   -0.0000
       29 RE     9py        0.0000    0.0000    0.0000   -0.0017    0.0000   -0.0000   -0.0000    0.0273   -0.0000    0.0000
       30 RE    10py       -0.0000   -0.0000   -0.0000    0.0019   -0.0000    0.0000    0.0000   -0.0269    0.0000   -0.0000
       31 RE    11py        0.0000    0.0000    0.0000   -0.0026    0.0000   -0.0000   -0.0000    0.0272   -0.0000    0.0000
       32 RE     2pz        0.0000    0.0000    0.9999    0.0000    0.0089    0.0000    0.0141    0.0000    0.0001   -0.0000
       33 RE     3pz       -0.0000    0.0000   -0.0136   -0.0000   -0.0001    0.0002    0.9925    0.0000    0.0072   -0.0000
       34 RE     4pz        0.0000   -0.0000    0.0038    0.0000    0.0000   -0.0000   -0.0906   -0.0000   -0.0007    0.0000
       35 RE     5pz       -0.0000    0.0000   -0.0012   -0.0000   -0.0000    0.0000    0.0254    0.0000    0.0002   -0.0000
       36 RE     6pz        0.0000   -0.0000    0.0006    0.0000    0.0000   -0.0000   -0.0116   -0.0000   -0.0001    0.0000
       37 RE     7pz       -0.0000    0.0000   -0.0017   -0.0000   -0.0000    0.0000    0.0321    0.0000    0.0002   -0.0000
       38 RE     8pz        0.0000   -0.0000    0.0018    0.0000    0.0000   -0.0000   -0.0318   -0.0000   -0.0002    0.0000
       39 RE     9pz       -0.0000    0.0000   -0.0017   -0.0000   -0.0000    0.0000    0.0273    0.0000    0.0002   -0.0000
       40 RE    10pz        0.0000   -0.0000    0.0019    0.0000    0.0000   -0.0000   -0.0269   -0.0000   -0.0002    0.0000
       41 RE    11pz       -0.0000    0.0000   -0.0026   -0.0000   -0.0000    0.0000    0.0272    0.0000    0.0002   -0.0000
       42 RE     3d2-       0.0000    0.0000   -0.0000    0.0005   -0.0000   -0.0000   -0.0000    0.0384   -0.0000   -0.0184
       43 RE     4d2-      -0.0000   -0.0000    0.0000   -0.0001    0.0000   -0.0000    0.0000   -0.0011    0.0000    0.0018
       44 RE     5d2-       0.0000    0.0000   -0.0000    0.0000   -0.0000    0.0000   -0.0000    0.0002   -0.0000   -0.0004
       45 RE     6d2-      -0.0000   -0.0000    0.0000   -0.0000    0.0000   -0.0000    0.0000   -0.0002    0.0000    0.0005
       46 RE     7d2-       0.0000    0.0000   -0.0000    0.0001   -0.0000    0.0000   -0.0000    0.0002   -0.0000   -0.0006
       47 RE     8d2-      -0.0000   -0.0000    0.0000   -0.0001    0.0000   -0.0000    0.0000   -0.0002    0.0000    0.0007
       48 RE     9d2-       0.0000    0.0000   -0.0000    0.0001   -0.0000    0.0000   -0.0000    0.0001   -0.0000   -0.0006
       49 RE    10d2-      -0.0000   -0.0000    0.0000   -0.0001    0.0000   -0.0000   -0.0000    0.0000   -0.0000    0.0007
       50 RE    11d2-       0.0000    0.0000   -0.0000    0.0001   -0.0000    0.0000    0.0000   -0.0002    0.0000   -0.0005
       51 RE     3d1-      -0.0000   -0.0000   -0.0000    0.0000    0.0000    0.0000   -0.0000    0.0001    0.0000    0.9917
       52 RE     4d1-       0.0000    0.0000    0.0000   -0.0000   -0.0000   -0.0000    0.0000   -0.0000   -0.0000   -0.0953
       53 RE     5d1-      -0.0000   -0.0000   -0.0000    0.0000   -0.0000    0.0000    0.0000   -0.0000   -0.0000    0.0196
       54 RE     6d1-       0.0000    0.0000    0.0000   -0.0000   -0.0000   -0.0000   -0.0000    0.0000   -0.0000   -0.0256
       55 RE     7d1-      -0.0000   -0.0000   -0.0000    0.0000    0.0000    0.0000   -0.0000    0.0000    0.0000    0.0344
       56 RE     8d1-       0.0000    0.0000    0.0000   -0.0000   -0.0000   -0.0000    0.0000   -0.0000   -0.0000   -0.0398
       57 RE     9d1-      -0.0000   -0.0000   -0.0000    0.0000    0.0000    0.0000    0.0000   -0.0000    0.0000    0.0324
       58 RE    10d1-       0.0000    0.0000    0.0000   -0.0000    0.0000   -0.0000   -0.0000    0.0000   -0.0000   -0.0383
       59 RE    11d1-      -0.0000   -0.0000   -0.0000    0.0000    0.0000   -0.0000   -0.0000    0.0000   -0.0000    0.0275
       60 RE     3d0        0.0000    0.0000    0.0000    0.0000   -0.0003    0.0002    0.0003    0.0000   -0.0230    0.0000
       61 RE     4d0       -0.0000   -0.0000   -0.0000   -0.0000    0.0001    0.0000   -0.0000   -0.0000    0.0006   -0.0000
       62 RE     5d0        0.0000    0.0000    0.0000    0.0000   -0.0000   -0.0000    0.0000    0.0000   -0.0001    0.0000
       63 RE     6d0       -0.0000   -0.0000   -0.0000   -0.0000    0.0000    0.0000   -0.0000   -0.0000    0.0001   -0.0000
       64 RE     7d0        0.0000    0.0000    0.0000    0.0000   -0.0000   -0.0000    0.0000    0.0000   -0.0001    0.0000
       65 RE     8d0       -0.0000   -0.0000   -0.0000   -0.0000    0.0000    0.0000    0.0000    0.0000    0.0001   -0.0000
       66 RE     9d0        0.0000    0.0000    0.0000    0.0000   -0.0000   -0.0000    0.0000    0.0000   -0.0000    0.0000
       67 RE    10d0       -0.0000   -0.0000   -0.0000   -0.0000    0.0000    0.0000   -0.0000   -0.0000   -0.0000   -0.0000
       68 RE    11d0        0.0000    0.0000    0.0000    0.0000   -0.0001   -0.0000   -0.0000   -0.0000    0.0001    0.0000
       69 RE     3d1+      -0.0000   -0.0000    0.0005    0.0000    0.0000   -0.0000    0.0384    0.0000    0.0004    0.0000
       70 RE     4d1+       0.0000    0.0000   -0.0001   -0.0000   -0.0000   -0.0000   -0.0011   -0.0000   -0.0000   -0.0000
       71 RE     5d1+      -0.0000   -0.0000    0.0000    0.0000    0.0000    0.0000    0.0002    0.0000    0.0000    0.0000
       72 RE     6d1+       0.0000    0.0000   -0.0000   -0.0000   -0.0000   -0.0000   -0.0002   -0.0000   -0.0000   -0.0000
       73 RE     7d1+      -0.0000   -0.0000    0.0001    0.0000    0.0000    0.0000    0.0002    0.0000    0.0000    0.0000
       74 RE     8d1+       0.0000    0.0000   -0.0001   -0.0000   -0.0000   -0.0000   -0.0002   -0.0000   -0.0000   -0.0000
       75 RE     9d1+      -0.0000   -0.0000    0.0001    0.0000    0.0000    0.0000    0.0001    0.0000    0.0000    0.0000
       76 RE    10d1+       0.0000    0.0000   -0.0001   -0.0000   -0.0000   -0.0000    0.0000    0.0000    0.0000   -0.0000
       77 RE    11d1+      -0.0000   -0.0000    0.0001    0.0000    0.0000    0.0000   -0.0002   -0.0000   -0.0000    0.0000
       78 RE     3d2+      -0.0000   -0.0000   -0.0000   -0.0000    0.0005   -0.0004   -0.0003   -0.0000    0.0398    0.0000
       79 RE     4d2+       0.0000    0.0000    0.0000    0.0000   -0.0001   -0.0001    0.0000    0.0000   -0.0011   -0.0000
       80 RE     5d2+      -0.0000   -0.0000   -0.0000   -0.0000    0.0000    0.0000   -0.0000   -0.0000    0.0002    0.0000
       81 RE     6d2+       0.0000    0.0000    0.0000    0.0000   -0.0000   -0.0000    0.0000    0.0000   -0.0002   -0.0000
       82 RE     7d2+      -0.0000   -0.0000   -0.0000   -0.0000    0.0001    0.0000   -0.0000   -0.0000    0.0002    0.0000
       83 RE     8d2+       0.0000    0.0000    0.0000    0.0000   -0.0001   -0.0000    0.0000    0.0000   -0.0002   -0.0000
       84 RE     9d2+      -0.0000   -0.0000   -0.0000   -0.0000    0.0001    0.0000   -0.0000   -0.0000    0.0001    0.0000
       85 RE    10d2+       0.0000    0.0000    0.0000    0.0000   -0.0001   -0.0000   -0.0000   -0.0000    0.0000   -0.0000
       86 RE    11d2+      -0.0000   -0.0000   -0.0000   -0.0000    0.0001    0.0000    0.0000    0.0000   -0.0002    0.0000
       87 RE     4f3-       0.0000    0.0000    0.0000   -0.0000    0.0000    0.0000    0.0000   -0.0001    0.0000   -0.0001
       88 RE     5f3-      -0.0000   -0.0000   -0.0000    0.0000   -0.0000   -0.0000   -0.0000    0.0001   -0.0000    0.0001
       89 RE     6f3-       0.0000    0.0000    0.0000   -0.0000    0.0000    0.0000    0.0000   -0.0001    0.0000   -0.0001
       90 RE     7f3-      -0.0000   -0.0000   -0.0000    0.0000   -0.0000    0.0000   -0.0000    0.0001   -0.0000    0.0000
       91 RE     8f3-       0.0000    0.0000    0.0000   -0.0000    0.0000   -0.0000    0.0000   -0.0001    0.0000   -0.0000
       92 RE     9f3-      -0.0000   -0.0000   -0.0000    0.0000   -0.0000    0.0000   -0.0000    0.0000   -0.0000    0.0000
       93 RE    10f3-       0.0000    0.0000    0.0000   -0.0000    0.0000   -0.0000    0.0000   -0.0000    0.0000   -0.0000
       94 RE    11f3-      -0.0000   -0.0000   -0.0000    0.0000   -0.0000    0.0000    0.0000   -0.0000   -0.0000    0.0000
       95 RE     4f2-      -0.0000    0.0000    0.0000   -0.0000    0.0000    0.0000    0.0000   -0.0000    0.0000    0.0034
       96 RE     5f2-       0.0000   -0.0000   -0.0000    0.0000   -0.0000   -0.0000   -0.0000    0.0000   -0.0000   -0.0022
       97 RE     6f2-       0.0000    0.0000    0.0000   -0.0000    0.0000    0.0000    0.0000   -0.0000    0.0000    0.0025
       98 RE     7f2-      -0.0000   -0.0000   -0.0000    0.0000   -0.0000   -0.0000   -0.0000    0.0000   -0.0000   -0.0020
       99 RE     8f2-       0.0000    0.0000    0.0000   -0.0000   -0.0000   -0.0000    0.0000   -0.0000    0.0000    0.0018
      100 RE     9f2-      -0.0000   -0.0000   -0.0000    0.0000   -0.0000    0.0000    0.0000   -0.0000   -0.0000   -0.0013
      101 RE    10f2-       0.0000    0.0000    0.0000   -0.0000    0.0000    0.0000   -0.0000    0.0000    0.0000    0.0010
      102 RE    11f2-      -0.0000   -0.0000   -0.0000    0.0000    0.0000   -0.0000    0.0000   -0.0000   -0.0000   -0.0006
      103 RE     4f1-       0.0000   -0.0000   -0.0000    0.0000   -0.0000    0.0000   -0.0000    0.0000   -0.0000    0.0000
      104 RE     5f1-       0.0000    0.0000    0.0000   -0.0000    0.0000   -0.0000    0.0000   -0.0000    0.0000   -0.0000
      105 RE     6f1-      -0.0000   -0.0000   -0.0000    0.0000   -0.0000    0.0000   -0.0000    0.0000   -0.0000    0.0000
      106 RE     7f1-      -0.0000    0.0000    0.0000   -0.0000    0.0000   -0.0000    0.0000   -0.0000    0.0000   -0.0000
      107 RE     8f1-       0.0000   -0.0000   -0.0000    0.0000   -0.0000    0.0000   -0.0000    0.0000   -0.0000    0.0000
      108 RE     9f1-      -0.0000    0.0000    0.0000   -0.0000    0.0000   -0.0000    0.0000   -0.0000    0.0000   -0.0000
      109 RE    10f1-       0.0000   -0.0000   -0.0000    0.0000   -0.0000    0.0000   -0.0000    0.0000   -0.0000    0.0000
      110 RE    11f1-      -0.0000    0.0000    0.0000   -0.0000    0.0000    0.0000   -0.0000    0.0000   -0.0000   -0.0000
      111 RE     4f0       -0.0000    0.0000    0.0000    0.0000    0.0000   -0.0000    0.0001    0.0000    0.0000   -0.0000
      112 RE     5f0        0.0000   -0.0000   -0.0000   -0.0000   -0.0000    0.0000   -0.0001   -0.0000   -0.0000    0.0000
      113 RE     6f0        0.0000   -0.0000    0.0000    0.0000    0.0000    0.0000    0.0001    0.0000    0.0000   -0.0000
      114 RE     7f0        0.0000   -0.0000   -0.0000   -0.0000   -0.0000    0.0000   -0.0000   -0.0000   -0.0000   -0.0000
      115 RE     8f0       -0.0000    0.0000    0.0000    0.0000    0.0000   -0.0000    0.0000    0.0000    0.0000    0.0000
      116 RE     9f0       -0.0000    0.0000   -0.0000   -0.0000   -0.0000   -0.0000   -0.0000   -0.0000   -0.0000    0.0000
      117 RE    10f0        0.0000   -0.0000    0.0000    0.0000    0.0000    0.0000    0.0000    0.0000   -0.0000    0.0000
      118 RE    11f0        0.0000   -0.0000   -0.0000   -0.0000   -0.0000    0.0000    0.0000    0.0000    0.0000    0.0000
      119 RE     4f1+       0.0000   -0.0000   -0.0000   -0.0000    0.0000   -0.0000    0.0000    0.0000    0.0001    0.0000
      120 RE     5f1+      -0.0000    0.0000   -0.0000   -0.0000   -0.0000    0.0000   -0.0000   -0.0000   -0.0001   -0.0000
      121 RE     6f1+       0.0000   -0.0000   -0.0000   -0.0000    0.0000   -0.0000    0.0000    0.0000    0.0001    0.0000
      122 RE     7f1+      -0.0000    0.0000    0.0000    0.0000   -0.0000    0.0000   -0.0000   -0.0000   -0.0001   -0.0000
      123 RE     8f1+       0.0000   -0.0000   -0.0000   -0.0000    0.0000   -0.0000   -0.0000   -0.0000    0.0000    0.0000
      124 RE     9f1+      -0.0000    0.0000    0.0000    0.0000   -0.0000    0.0000    0.0000    0.0000   -0.0000   -0.0000
      125 RE    10f1+       0.0000   -0.0000   -0.0000   -0.0000    0.0000   -0.0000   -0.0000   -0.0000    0.0000    0.0000
      126 RE    11f1+      -0.0000    0.0000    0.0000    0.0000   -0.0000   -0.0000    0.0000    0.0000    0.0000   -0.0000
      127 RE     4f2+      -0.0000    0.0000   -0.0000   -0.0000   -0.0000    0.0000   -0.0001   -0.0000    0.0000    0.0000
      128 RE     5f2+       0.0000   -0.0000    0.0000    0.0000    0.0000   -0.0000    0.0001    0.0000   -0.0000   -0.0000
      129 RE     6f2+       0.0000   -0.0000   -0.0000   -0.0000   -0.0000    0.0000   -0.0001   -0.0000    0.0000    0.0000
      130 RE     7f2+       0.0000   -0.0000    0.0000    0.0000    0.0000   -0.0000    0.0001    0.0000   -0.0000   -0.0000
      131 RE     8f2+      -0.0000    0.0000   -0.0000   -0.0000   -0.0000   -0.0000   -0.0000   -0.0000   -0.0000    0.0000
      132 RE     9f2+      -0.0000    0.0000    0.0000    0.0000    0.0000   -0.0000    0.0000    0.0000    0.0000   -0.0000
      133 RE    10f2+       0.0000   -0.0000   -0.0000   -0.0000   -0.0000    0.0000   -0.0000   -0.0000   -0.0000    0.0000
      134 RE    11f2+       0.0000   -0.0000    0.0000    0.0000    0.0000    0.0000   -0.0000   -0.0000    0.0000   -0.0000
      135 RE     4f3+      -0.0000    0.0000    0.0000    0.0000   -0.0000    0.0001    0.0000    0.0000   -0.0002    0.0000
      136 RE     5f3+       0.0000   -0.0000   -0.0000   -0.0000    0.0000   -0.0000   -0.0000   -0.0000    0.0001   -0.0000
      137 RE     6f3+      -0.0000    0.0000    0.0000    0.0000   -0.0000    0.0000    0.0000    0.0000   -0.0001    0.0000
      138 RE     7f3+       0.0000   -0.0000   -0.0000   -0.0000    0.0000   -0.0000   -0.0000   -0.0000    0.0001   -0.0000
      139 RE     8f3+      -0.0000    0.0000    0.0000    0.0000   -0.0000    0.0000    0.0000    0.0000   -0.0001    0.0000
      140 RE     9f3+       0.0000   -0.0000   -0.0000   -0.0000    0.0000   -0.0000    0.0000    0.0000    0.0000   -0.0000
      141 RE    10f3+      -0.0000    0.0000    0.0000    0.0000   -0.0000    0.0000   -0.0000   -0.0000   -0.0000    0.0000
      142 RE    11f3+       0.0000   -0.0000   -0.0000   -0.0000    0.0000    0.0000    0.0000    0.0000   -0.0000   -0.0000
      143 RE     5g4-      -0.0000    0.0000   -0.0000    0.0000   -0.0000   -0.0000   -0.0000    0.0000   -0.0000    0.0000
      144 RE     6g4-       0.0000   -0.0000    0.0000   -0.0000    0.0000    0.0000    0.0000   -0.0000    0.0000   -0.0000
      145 RE     7g4-      -0.0000    0.0000   -0.0000    0.0000   -0.0000   -0.0000   -0.0000    0.0000   -0.0000    0.0000
      146 RE     8g4-       0.0000   -0.0000   -0.0000    0.0000   -0.0000    0.0000    0.0000   -0.0000    0.0000   -0.0000
      147 RE     5g3-       0.0000    0.0000    0.0000   -0.0000   -0.0000   -0.0000    0.0000   -0.0000    0.0000   -0.0000
      148 RE     6g3-      -0.0000   -0.0000   -0.0000    0.0000   -0.0000   -0.0000   -0.0000    0.0000   -0.0000    0.0000
      149 RE     7g3-       0.0000    0.0000    0.0000   -0.0000    0.0000    0.0000    0.0000   -0.0000    0.0000   -0.0000
      150 RE     8g3-      -0.0000   -0.0000   -0.0000    0.0000   -0.0000   -0.0000    0.0000   -0.0000    0.0000    0.0000
      151 RE     5g2-       0.0000   -0.0000    0.0000   -0.0000    0.0000   -0.0000    0.0000   -0.0000    0.0000   -0.0000
      152 RE     6g2-       0.0000    0.0000   -0.0000    0.0000   -0.0000    0.0000   -0.0000    0.0000   -0.0000    0.0000
      153 RE     7g2-      -0.0000   -0.0000    0.0000   -0.0000    0.0000   -0.0000    0.0000   -0.0000    0.0000   -0.0000
      154 RE     8g2-       0.0000    0.0000    0.0000   -0.0000    0.0000    0.0000   -0.0000    0.0000   -0.0000    0.0000
      155 RE     5g1-       0.0000   -0.0000    0.0000   -0.0000    0.0000    0.0000   -0.0000    0.0000   -0.0000    0.0000
      156 RE     6g1-      -0.0000    0.0000    0.0000   -0.0000    0.0000   -0.0000   -0.0000    0.0000   -0.0000   -0.0000
      157 RE     7g1-       0.0000    0.0000    0.0000   -0.0000    0.0000    0.0000   -0.0000    0.0000    0.0000    0.0000
      158 RE     8g1-      -0.0000   -0.0000   -0.0000    0.0000   -0.0000    0.0000    0.0000   -0.0000    0.0000   -0.0000
      159 RE     5g0        0.0000   -0.0000   -0.0000   -0.0000    0.0000   -0.0000   -0.0000   -0.0000    0.0000    0.0000
      160 RE     6g0        0.0000   -0.0000   -0.0000   -0.0000    0.0000    0.0000    0.0000    0.0000   -0.0000   -0.0000
      161 RE     7g0       -0.0000    0.0000   -0.0000   -0.0000   -0.0000   -0.0000   -0.0000   -0.0000    0.0000    0.0000
      162 RE     8g0        0.0000   -0.0000    0.0000    0.0000    0.0000    0.0000   -0.0000   -0.0000   -0.0000   -0.0000
      163 RE     5g1+      -0.0000    0.0000   -0.0000   -0.0000   -0.0000    0.0000   -0.0000   -0.0000    0.0000   -0.0000
      164 RE     6g1+      -0.0000    0.0000    0.0000    0.0000   -0.0000   -0.0000    0.0000    0.0000   -0.0000   -0.0000
      165 RE     7g1+       0.0000   -0.0000   -0.0000   -0.0000    0.0000    0.0000   -0.0000   -0.0000    0.0000    0.0000
      166 RE     8g1+      -0.0000    0.0000   -0.0000   -0.0000    0.0000   -0.0000    0.0000    0.0000   -0.0000   -0.0000
      167 RE     5g2+      -0.0000    0.0000   -0.0000   -0.0000   -0.0000    0.0000    0.0000    0.0000   -0.0000   -0.0000
      168 RE     6g2+      -0.0000    0.0000   -0.0000   -0.0000   -0.0000   -0.0000   -0.0000   -0.0000    0.0000    0.0000
      169 RE     7g2+       0.0000   -0.0000    0.0000    0.0000    0.0000    0.0000    0.0000    0.0000   -0.0000   -0.0000
      170 RE     8g2+      -0.0000    0.0000    0.0000    0.0000   -0.0000   -0.0000   -0.0000   -0.0000    0.0000    0.0000
      171 RE     5g3+      -0.0000    0.0000    0.0000    0.0000   -0.0000    0.0000    0.0000    0.0000    0.0000   -0.0000
      172 RE     6g3+      -0.0000    0.0000   -0.0000   -0.0000   -0.0000   -0.0000   -0.0000   -0.0000   -0.0000    0.0000
      173 RE     7g3+       0.0000   -0.0000    0.0000    0.0000    0.0000    0.0000    0.0000    0.0000    0.0000   -0.0000
      174 RE     8g3+      -0.0000    0.0000    0.0000    0.0000    0.0000   -0.0000   -0.0000   -0.0000   -0.0000    0.0000
      175 RE     5g4+       0.0000   -0.0000    0.0000    0.0000    0.0000    0.0000    0.0000    0.0000    0.0000   -0.0000
      176 RE     6g4+       0.0000   -0.0000   -0.0000   -0.0000    0.0000    0.0000   -0.0000   -0.0000   -0.0000    0.0000
      177 RE     7g4+      -0.0000    0.0000    0.0000    0.0000   -0.0000   -0.0000    0.0000    0.0000    0.0000   -0.0000
      178 RE     8g4+       0.0000   -0.0000   -0.0000   -0.0000    0.0000    0.0000   -0.0000   -0.0000   -0.0000    0.0000
      179 RE     6h5-       0.0000   -0.0000   -0.0000    0.0000   -0.0000    0.0000    0.0000   -0.0000    0.0000    0.0000
      180 RE     7h5-      -0.0000    0.0000   -0.0000    0.0000   -0.0000   -0.0000    0.0000   -0.0000   -0.0000   -0.0000
      181 RE     6h4-      -0.0000   -0.0000   -0.0000    0.0000   -0.0000   -0.0000    0.0000   -0.0000    0.0000    0.0000
      182 RE     7h4-      -0.0000    0.0000    0.0000   -0.0000    0.0000    0.0000   -0.0000    0.0000   -0.0000   -0.0000
      183 RE     6h3-       0.0000    0.0000   -0.0000    0.0000   -0.0000    0.0000   -0.0000    0.0000    0.0000    0.0000
      184 RE     7h3-      -0.0000   -0.0000    0.0000   -0.0000    0.0000   -0.0000   -0.0000    0.0000   -0.0000    0.0000
      185 RE     6h2-       0.0000    0.0000    0.0000   -0.0000    0.0000    0.0000   -0.0000    0.0000   -0.0000   -0.0000
      186 RE     7h2-      -0.0000   -0.0000    0.0000   -0.0000    0.0000   -0.0000    0.0000   -0.0000    0.0000    0.0000
      187 RE     6h1-      -0.0000   -0.0000   -0.0000    0.0000   -0.0000   -0.0000    0.0000   -0.0000    0.0000    0.0000
      188 RE     7h1-       0.0000    0.0000   -0.0000    0.0000   -0.0000    0.0000    0.0000   -0.0000   -0.0000    0.0000
      189 RE     6h0        0.0000   -0.0000   -0.0000   -0.0000    0.0000    0.0000    0.0000    0.0000   -0.0000    0.0000
      190 RE     7h0       -0.0000    0.0000    0.0000    0.0000    0.0000   -0.0000   -0.0000   -0.0000    0.0000    0.0000
      191 RE     6h1+      -0.0000    0.0000    0.0000    0.0000   -0.0000   -0.0000    0.0000    0.0000   -0.0000   -0.0000
      192 RE     7h1+      -0.0000    0.0000   -0.0000   -0.0000    0.0000   -0.0000    0.0000    0.0000   -0.0000    0.0000
      193 RE     6h2+      -0.0000    0.0000   -0.0000   -0.0000   -0.0000   -0.0000    0.0000    0.0000    0.0000    0.0000
      194 RE     7h2+       0.0000   -0.0000   -0.0000   -0.0000   -0.0000    0.0000    0.0000    0.0000   -0.0000    0.0000
      195 RE     6h3+       0.0000   -0.0000   -0.0000   -0.0000    0.0000    0.0000    0.0000    0.0000    0.0000    0.0000
      196 RE     7h3+       0.0000   -0.0000   -0.0000   -0.0000   -0.0000    0.0000   -0.0000   -0.0000    0.0000    0.0000
      197 RE     6h4+      -0.0000    0.0000    0.0000    0.0000   -0.0000   -0.0000   -0.0000   -0.0000    0.0000   -0.0000
      198 RE     7h4+       0.0000   -0.0000    0.0000    0.0000   -0.0000    0.0000   -0.0000   -0.0000   -0.0000    0.0000
      199 RE     6h5+      -0.0000    0.0000   -0.0000   -0.0000   -0.0000   -0.0000    0.0000    0.0000   -0.0000    0.0000
      200 RE     7h5+      -0.0000    0.0000   -0.0000   -0.0000    0.0000   -0.0000   -0.0000   -0.0000   -0.0000    0.0000

          Orbital           11        12        13        14    
          Energy         -170.9838 -170.9137 -170.9136 -170.8847
          Occ. No.          0.0000    0.0000    0.0000    0.0000

        1 RE     1s        -0.0000    0.0000    0.0000   -0.0000
        2 RE     2s         0.0000   -0.0000   -0.0000    0.0001
        3 RE     3s         0.0000   -0.0000   -0.0000    0.0030
        4 RE     4s        -0.0000   -0.0000    0.0000   -0.0007
        5 RE     5s         0.0000    0.0000   -0.0000    0.0002
        6 RE     6s         0.0000   -0.0000    0.0000   -0.0001
        7 RE     7s        -0.0000    0.0000   -0.0000    0.0001
        8 RE     8s        -0.0000   -0.0000    0.0000   -0.0002
        9 RE     9s         0.0000    0.0000   -0.0000    0.0002
       10 RE    10s        -0.0000   -0.0000    0.0000   -0.0002
       11 RE    11s         0.0000   -0.0000   -0.0000    0.0002
       12 RE     2px       -0.0000    0.0000    0.0000   -0.0012
       13 RE     3px       -0.0000    0.0004    0.0000   -0.0449
       14 RE     4px        0.0000   -0.0001   -0.0000    0.0064
       15 RE     5px       -0.0000    0.0000    0.0000   -0.0018
       16 RE     6px        0.0000   -0.0000   -0.0000    0.0008
       17 RE     7px       -0.0000    0.0000    0.0000   -0.0023
       18 RE     8px        0.0000   -0.0000   -0.0000    0.0023
       19 RE     9px       -0.0000    0.0000    0.0000   -0.0020
       20 RE    10px        0.0000   -0.0000   -0.0000    0.0019
       21 RE    11px       -0.0000    0.0000    0.0000   -0.0019
       22 RE     2py        0.0000    0.0000   -0.0010   -0.0000
       23 RE     3py       -0.0000    0.0000   -0.0376   -0.0000
       24 RE     4py        0.0000   -0.0000    0.0052    0.0000
       25 RE     5py       -0.0000    0.0000   -0.0015   -0.0000
       26 RE     6py        0.0000   -0.0000    0.0007    0.0000
       27 RE     7py       -0.0000    0.0000   -0.0019   -0.0000
       28 RE     8py        0.0000   -0.0000    0.0019    0.0000
       29 RE     9py       -0.0000    0.0000   -0.0016   -0.0000
       30 RE    10py        0.0000   -0.0000    0.0016    0.0000
       31 RE    11py       -0.0000    0.0000   -0.0015   -0.0000
       32 RE     2pz       -0.0000   -0.0010   -0.0000   -0.0000
       33 RE     3pz       -0.0002   -0.0377   -0.0000   -0.0004
       34 RE     4pz        0.0000    0.0052    0.0000    0.0001
       35 RE     5pz       -0.0000   -0.0015   -0.0000   -0.0000
       36 RE     6pz        0.0000    0.0007    0.0000    0.0000
       37 RE     7pz       -0.0000   -0.0019   -0.0000   -0.0000
       38 RE     8pz        0.0000    0.0019    0.0000    0.0000
       39 RE     9pz       -0.0000   -0.0016   -0.0000   -0.0000
       40 RE    10pz        0.0000    0.0016    0.0000    0.0000
       41 RE    11pz       -0.0000   -0.0015   -0.0000   -0.0000
       42 RE     3d2-       0.0000   -0.0000    0.9909    0.0000
       43 RE     4d2-      -0.0000    0.0000   -0.0956   -0.0000
       44 RE     5d2-       0.0000   -0.0000    0.0197    0.0000
       45 RE     6d2-      -0.0000    0.0000   -0.0257   -0.0000
       46 RE     7d2-       0.0000   -0.0000    0.0345    0.0000
       47 RE     8d2-      -0.0000    0.0000   -0.0400   -0.0000
       48 RE     9d2-       0.0000   -0.0000    0.0326    0.0000
       49 RE    10d2-      -0.0000    0.0000   -0.0384   -0.0000
       50 RE    11d2-       0.0000   -0.0000    0.0276    0.0000
       51 RE     3d1-      -0.0000   -0.0000    0.0184   -0.0000
       52 RE     4d1-       0.0000    0.0000   -0.0018    0.0000
       53 RE     5d1-      -0.0000   -0.0000    0.0004   -0.0000
       54 RE     6d1-       0.0000    0.0000   -0.0005    0.0000
       55 RE     7d1-      -0.0000   -0.0000    0.0006   -0.0000
       56 RE     8d1-       0.0000    0.0000   -0.0007    0.0000
       57 RE     9d1-      -0.0000   -0.0000    0.0006   -0.0000
       58 RE    10d1-       0.0000    0.0000   -0.0007    0.0000
       59 RE    11d1-      -0.0000   -0.0000    0.0005   -0.0000
       60 RE     3d0        0.8588    0.0031    0.0000   -0.4956
       61 RE     4d0       -0.0826   -0.0003   -0.0000    0.0479
       62 RE     5d0        0.0170    0.0001    0.0000   -0.0099
       63 RE     6d0       -0.0221   -0.0001   -0.0000    0.0129
       64 RE     7d0        0.0298    0.0001    0.0000   -0.0173
       65 RE     8d0       -0.0345   -0.0001   -0.0000    0.0200
       66 RE     9d0        0.0281    0.0001    0.0000   -0.0163
       67 RE    10d0       -0.0331   -0.0001   -0.0000    0.0193
       68 RE    11d0        0.0238    0.0001    0.0000   -0.0138
       69 RE     3d1+       0.0034    0.9910    0.0000    0.0121
       70 RE     4d1+      -0.0003   -0.0956   -0.0000   -0.0012
       71 RE     5d1+       0.0001    0.0197    0.0000    0.0002
       72 RE     6d1+      -0.0001   -0.0257   -0.0000   -0.0003
       73 RE     7d1+       0.0001    0.0345    0.0000    0.0004
       74 RE     8d1+      -0.0001   -0.0400   -0.0000   -0.0005
       75 RE     9d1+       0.0001    0.0326    0.0000    0.0004
       76 RE    10d1+      -0.0001   -0.0384   -0.0000   -0.0005
       77 RE    11d1+       0.0001    0.0276    0.0000    0.0003
       78 RE     3d2+       0.4962   -0.0121   -0.0000    0.8577
       79 RE     4d2+      -0.0477    0.0012    0.0000   -0.0830
       80 RE     5d2+       0.0098   -0.0002   -0.0000    0.0171
       81 RE     6d2+      -0.0128    0.0003    0.0000   -0.0223
       82 RE     7d2+       0.0172   -0.0004   -0.0000    0.0300
       83 RE     8d2+      -0.0199    0.0005    0.0000   -0.0347
       84 RE     9d2+       0.0162   -0.0004   -0.0000    0.0283
       85 RE    10d2+      -0.0191    0.0005    0.0000   -0.0333
       86 RE    11d2+       0.0138   -0.0003   -0.0000    0.0240
       87 RE     4f3-       0.0000   -0.0000    0.0043    0.0000
       88 RE     5f3-      -0.0000    0.0000   -0.0028   -0.0000
       89 RE     6f3-       0.0000   -0.0000    0.0031    0.0000
       90 RE     7f3-      -0.0000    0.0000   -0.0026   -0.0000
       91 RE     8f3-       0.0000   -0.0000    0.0022    0.0000
       92 RE     9f3-      -0.0000    0.0000   -0.0016   -0.0000
       93 RE    10f3-       0.0000   -0.0000    0.0012    0.0000
       94 RE    11f3-      -0.0000    0.0000   -0.0007   -0.0000
       95 RE     4f2-      -0.0000   -0.0000    0.0001   -0.0000
       96 RE     5f2-       0.0000    0.0000   -0.0000    0.0000
       97 RE     6f2-      -0.0000   -0.0000    0.0001   -0.0000
       98 RE     7f2-       0.0000    0.0000   -0.0000    0.0000
       99 RE     8f2-      -0.0000   -0.0000    0.0000   -0.0000
      100 RE     9f2-       0.0000    0.0000   -0.0000    0.0000
      101 RE    10f2-      -0.0000   -0.0000    0.0000   -0.0000
      102 RE    11f2-       0.0000    0.0000   -0.0000    0.0000
      103 RE     4f1-      -0.0000    0.0000   -0.0011   -0.0000
      104 RE     5f1-       0.0000   -0.0000    0.0007    0.0000
      105 RE     6f1-      -0.0000    0.0000   -0.0008   -0.0000
      106 RE     7f1-       0.0000   -0.0000    0.0007    0.0000
      107 RE     8f1-      -0.0000    0.0000   -0.0006   -0.0000
      108 RE     9f1-       0.0000   -0.0000    0.0004    0.0000
      109 RE    10f1-      -0.0000    0.0000   -0.0003   -0.0000
      110 RE    11f1-       0.0000   -0.0000    0.0002    0.0000
      111 RE     4f0       -0.0000   -0.0027   -0.0000   -0.0000
      112 RE     5f0        0.0000    0.0018    0.0000    0.0000
      113 RE     6f0       -0.0000   -0.0020   -0.0000   -0.0000
      114 RE     7f0       -0.0000    0.0016    0.0000    0.0000
      115 RE     8f0        0.0000   -0.0014   -0.0000   -0.0000
      116 RE     9f0       -0.0000    0.0010    0.0000    0.0000
      117 RE    10f0        0.0000   -0.0008   -0.0000   -0.0000
      118 RE    11f0       -0.0000    0.0004    0.0000    0.0000
      119 RE     4f1+       0.0027    0.0000    0.0000   -0.0030
      120 RE     5f1+      -0.0017   -0.0000   -0.0000    0.0019
      121 RE     6f1+       0.0019    0.0000    0.0000   -0.0021
      122 RE     7f1+      -0.0016   -0.0000   -0.0000    0.0017
      123 RE     8f1+       0.0014    0.0000    0.0000   -0.0015
      124 RE     9f1+      -0.0010   -0.0000   -0.0000    0.0011
      125 RE    10f1+       0.0008    0.0000    0.0000   -0.0008
      126 RE    11f1+      -0.0004   -0.0000   -0.0000    0.0005
      127 RE     4f2+       0.0000    0.0035    0.0000    0.0001
      128 RE     5f2+      -0.0000   -0.0023   -0.0000   -0.0000
      129 RE     6f2+       0.0000    0.0025    0.0000    0.0000
      130 RE     7f2+      -0.0000   -0.0021   -0.0000   -0.0000
      131 RE     8f2+       0.0000    0.0018    0.0000    0.0000
      132 RE     9f2+      -0.0000   -0.0013   -0.0000   -0.0000
      133 RE    10f2+       0.0000    0.0010    0.0000    0.0000
      134 RE    11f2+      -0.0000   -0.0006   -0.0000   -0.0000
      135 RE     4f3+       0.0021   -0.0000   -0.0000    0.0038
      136 RE     5f3+      -0.0014    0.0000    0.0000   -0.0024
      137 RE     6f3+       0.0015   -0.0000   -0.0000    0.0027
      138 RE     7f3+      -0.0012    0.0000    0.0000   -0.0022
      139 RE     8f3+       0.0011   -0.0000   -0.0000    0.0019
      140 RE     9f3+      -0.0008    0.0000    0.0000   -0.0014
      141 RE    10f3+       0.0006   -0.0000   -0.0000    0.0011
      142 RE    11f3+      -0.0003    0.0000    0.0000   -0.0006
      143 RE     5g4-      -0.0000    0.0000   -0.0000   -0.0000
      144 RE     6g4-       0.0000   -0.0000    0.0000    0.0000
      145 RE     7g4-      -0.0000    0.0000   -0.0000   -0.0000
      146 RE     8g4-       0.0000   -0.0000    0.0000    0.0000
      147 RE     5g3-       0.0000    0.0000   -0.0000   -0.0000
      148 RE     6g3-      -0.0000   -0.0000    0.0000   -0.0000
      149 RE     7g3-       0.0000    0.0000   -0.0000   -0.0000
      150 RE     8g3-      -0.0000   -0.0000    0.0000    0.0000
      151 RE     5g2-       0.0000   -0.0000    0.0000    0.0000
      152 RE     6g2-      -0.0000    0.0000   -0.0000   -0.0000
      153 RE     7g2-       0.0000   -0.0000    0.0000    0.0000
      154 RE     8g2-      -0.0000    0.0000   -0.0000   -0.0000
      155 RE     5g1-      -0.0000   -0.0000    0.0000    0.0000
      156 RE     6g1-       0.0000    0.0000   -0.0000   -0.0000
      157 RE     7g1-      -0.0000   -0.0000    0.0000    0.0000
      158 RE     8g1-       0.0000    0.0000   -0.0000   -0.0000
      159 RE     5g0        0.0000   -0.0000    0.0000   -0.0000
      160 RE     6g0       -0.0000   -0.0000   -0.0000    0.0000
      161 RE     7g0        0.0000    0.0000    0.0000   -0.0000
      162 RE     8g0       -0.0000   -0.0000   -0.0000    0.0000
      163 RE     5g1+       0.0000    0.0000    0.0000    0.0000
      164 RE     6g1+      -0.0000   -0.0000   -0.0000   -0.0000
      165 RE     7g1+       0.0000    0.0000    0.0000    0.0000
      166 RE     8g1+      -0.0000   -0.0000   -0.0000    0.0000
      167 RE     5g2+      -0.0000    0.0000    0.0000    0.0000
      168 RE     6g2+       0.0000   -0.0000   -0.0000   -0.0000
      169 RE     7g2+      -0.0000    0.0000   -0.0000    0.0000
      170 RE     8g2+       0.0000   -0.0000    0.0000   -0.0000
      171 RE     5g3+      -0.0000   -0.0000   -0.0000   -0.0000
      172 RE     6g3+       0.0000    0.0000    0.0000    0.0000
      173 RE     7g3+      -0.0000   -0.0000   -0.0000   -0.0000
      174 RE     8g3+       0.0000    0.0000    0.0000    0.0000
      175 RE     5g4+      -0.0000    0.0000    0.0000   -0.0001
      176 RE     6g4+       0.0000   -0.0000   -0.0000    0.0000
      177 RE     7g4+      -0.0000    0.0000    0.0000   -0.0000
      178 RE     8g4+       0.0000   -0.0000   -0.0000    0.0000
      179 RE     6h5-      -0.0000   -0.0000    0.0000   -0.0000
      180 RE     7h5-       0.0000    0.0000   -0.0000    0.0000
      181 RE     6h4-      -0.0000    0.0000   -0.0000   -0.0000
      182 RE     7h4-       0.0000   -0.0000    0.0000    0.0000
      183 RE     6h3-      -0.0000    0.0000   -0.0000   -0.0000
      184 RE     7h3-      -0.0000   -0.0000    0.0000    0.0000
      185 RE     6h2-       0.0000   -0.0000    0.0000    0.0000
      186 RE     7h2-      -0.0000    0.0000   -0.0000    0.0000
      187 RE     6h1-      -0.0000    0.0000    0.0000    0.0000
      188 RE     7h1-      -0.0000    0.0000   -0.0000   -0.0000
      189 RE     6h0        0.0000    0.0000    0.0000   -0.0000
      190 RE     7h0        0.0000   -0.0000    0.0000    0.0000
      191 RE     6h1+      -0.0000   -0.0000   -0.0000    0.0000
      192 RE     7h1+       0.0000    0.0000    0.0000   -0.0000
      193 RE     6h2+       0.0000   -0.0000   -0.0000    0.0000
      194 RE     7h2+       0.0000    0.0000    0.0000    0.0000
      195 RE     6h3+       0.0000    0.0000    0.0000   -0.0000
      196 RE     7h3+       0.0000   -0.0000   -0.0000    0.0000
      197 RE     6h4+       0.0000    0.0000    0.0000    0.0000
      198 RE     7h4+       0.0000   -0.0000   -0.0000   -0.0000
      199 RE     6h5+       0.0000    0.0000    0.0000    0.0000
      200 RE     7h5+      -0.0000   -0.0000   -0.0000   -0.0000
--


++    Molecular charges:
      ------------------

      Mulliken charges per centre and basis function type
      ---------------------------------------------------

                RE    
      1s       2.0000
      2s       2.0000
      2px      2.0000
      2pz      2.0000
      2py      2.0000
      3s       1.9812
      3px      1.9690
      3pz      1.9705
      3py      1.9705
      4s       0.0127
      3d2+     0.0032
      3d1+     0.0029
      3d0      0.0011
      3d1-     0.0000
      3d2-     0.0029
      4px      0.0166
      4pz      0.0164
      4py      0.0164
      5s       0.0011
      4d2+     0.0000
      4d1+     0.0000
      4d0      0.0000
      4d1-     0.0000
      4d2-     0.0000
      5px      0.0013
      5pz      0.0013
      5py      0.0013
      6s       0.0001
      4f3+     0.0000
      4f2+     0.0000
      4f1+     0.0000
      4f0      0.0000
      4f1-     0.0000
      4f2-     0.0000
      4f3-     0.0000
      5d2+     0.0000
      5d1+     0.0000
      5d0      0.0000
      5d1-     0.0000
      5d2-     0.0000
      6px      0.0003
      6pz      0.0003
      6py      0.0003
      7s       0.0002
      5f3+     0.0000
      5f2+     0.0000
      5f1+     0.0000
      5f0      0.0000
      5f1-     0.0000
      5f2-     0.0000
      5f3-     0.0000
      6d2+     0.0000
      6d1+     0.0000
      6d0      0.0000
      6d1-     0.0000
      6d2-     0.0000
      7px      0.0021
      7pz      0.0021
      7py      0.0021
      5g4+     0.0000
      5g3+     0.0000
      5g2+     0.0000
      5g1+     0.0000
      5g0      0.0000
      5g1-     0.0000
      5g2-     0.0000
      5g3-     0.0000
      5g4-     0.0000
      6f3+     0.0000
      6f2+     0.0000
      6f1+     0.0000
      6f0      0.0000
      6f1-     0.0000
      6f2-     0.0000
      6f3-     0.0000
      6g4+     0.0000
      6g3+     0.0000
      6g2+     0.0000
      6g1+     0.0000
      6g0      0.0000
      6g1-     0.0000
      6g2-     0.0000
      6g3-     0.0000
      6g4-     0.0000
      6h5+     0.0000
      6h4+     0.0000
      6h3+     0.0000
      6h2+     0.0000
      6h1+     0.0000
      6h0      0.0000
      6h1-     0.0000
      6h2-     0.0000
      6h3-     0.0000
      6h4-     0.0000
      6h5-     0.0000
      7d2+     0.0000
      7d1+     0.0000
      7d0      0.0000
      7d1-     0.0000
      7d2-     0.0000
      7f3+     0.0000
      7f2+     0.0000
      7f1+     0.0000
      7f0      0.0000
      7f1-     0.0000
      7f2-     0.0000
      7f3-     0.0000
      7g4+     0.0000
      7g3+     0.0000
      7g2+     0.0000
      7g1+     0.0000
      7g0      0.0000
      7g1-     0.0000
      7g2-     0.0000
      7g3-     0.0000
      7g4-     0.0000
      7h5+     0.0000
      7h4+     0.0000
      7h3+     0.0000
      7h2+     0.0000
      7h1+     0.0000
      7h0      0.0000
      7h1-     0.0000
      7h2-     0.0000
      7h3-     0.0000
      7h4-     0.0000
      7h5-     0.0000
      8s       0.0010
      8px      0.0021
      8pz      0.0020
      8py      0.0020
      8d2+     0.0000
      8d1+     0.0000
      8d0      0.0000
      8d1-     0.0000
      8d2-     0.0000
      8f3+     0.0000
      8f2+     0.0000
      8f1+     0.0000
      8f0      0.0000
      8f1-     0.0000
      8f2-     0.0000
      8f3-     0.0000
      8g4+     0.0000
      8g3+     0.0000
      8g2+     0.0000
      8g1+     0.0000
      8g0      0.0000
      8g1-     0.0000
      8g2-     0.0000
      8g3-     0.0000
      8g4-     0.0000
      9s       0.0014
      9px      0.0015
      9pz      0.0015
      9py      0.0015
      9d2+     0.0000
      9d1+     0.0000
      9d0      0.0000
      9d1-     0.0000
      9d2-     0.0000
      9f3+     0.0000
      9f2+     0.0000
      9f1+     0.0000
      9f0      0.0000
      9f1-     0.0000
      9f2-     0.0000
      9f3-     0.0000
     10s       0.0006
     10px      0.0015
     10pz      0.0015
     10py      0.0015
     10d2+     0.0000
     10d1+     0.0000
     10d0      0.0000
     10d1-     0.0000
     10d2-     0.0000
     10f3+     0.0000
     10f2+     0.0000
     10f1+     0.0000
     10f0      0.0000
     10f1-     0.0000
     10f2-     0.0000
     10f3-     0.0000
     11s       0.0017
     11px      0.0015
     11pz      0.0015
     11py      0.0015
     11d2+     0.0000
     11d1+     0.0000
     11d0      0.0000
     11d1-     0.0000
     11d2-     0.0000
     11f3+     0.0000
     11f2+     0.0000
     11f1+     0.0000
     11f0      0.0000
     11f1-     0.0000
     11f2-     0.0000
     11f3-     0.0000
      Total   18.0000

      N-E     57.0000

      Total electronic charge=   18.000000

      Total            charge=   57.000000
--

 Sorry, Molden does not know how to handle
 functions with angular momentum larger than g

++    Static properties:
      ------------------


      LoProp Charges per center


                   RE    
      Nuclear     75.0000
      Electronic -18.0000

      Total       57.0000
--


++    Molecular properties:
      ---------------------

      Charge (e):
                      =   57.0000
      Dipole Moment (Debye):
      Origin of the operator (Ang)=    0.0000    0.0000    0.0000
                   X= -1.0284E-01               Y= -5.1835E-13               Z=  1.2679E+00           Total=  1.2721E+00
      Center of Charge (Ang)
                     X=   -0.00037564               Y=   -0.00000000               Z=    0.00463106
      Quadrupole Moment (Debye*Ang):
      Origin of the operator (Ang)=   -0.0000   -0.0000    0.0046
                  XX= -1.5879E-01              XY= -2.1010E-16              XZ=  3.1496E-06              YY= -1.5908E-01
                  YZ=  1.9512E-16              ZZ= -1.5908E-01
      In traceless form (Debye*Ang)
                  XX=  2.8353E-04              XY= -3.1515E-16              XZ=  4.7243E-06              YY= -1.4176E-04
[...]
    16            85.5544886479     2328.0562356748       18777039.8575         1.3
    17            86.3077040232     2348.5522701786       18942351.5243         1.2
    18            86.3077040232     2348.5522701786       18942351.5243         1.2


 Weights of the five most important spin-orbit-free states for each spin-orbit state.

 SO State  Total energy (au)           Spin-free states, spin, and weights
 -------------------------------------------------------------------------------------------------------
    1         0.000000       1 0.5  1.0000    9 0.5  0.0000    8 0.5  0.0000    7 0.5  0.0000    6 0.5  0.0000
    2         0.000000       1 0.5  1.0000    9 0.5  0.0000    8 0.5  0.0000    7 0.5  0.0000    6 0.5  0.0000
    3         0.000049       2 0.5  1.0000    9 0.5  0.0000    8 0.5  0.0000    7 0.5  0.0000    6 0.5  0.0000
    4         0.000049       2 0.5  1.0000    9 0.5  0.0000    8 0.5  0.0000    7 0.5  0.0000    6 0.5  0.0000
    5         0.070700       3 0.5  1.0000    9 0.5  0.0000    8 0.5  0.0000    7 0.5  0.0000    6 0.5  0.0000
    6         0.070700       3 0.5  1.0000    9 0.5  0.0000    8 0.5  0.0000    7 0.5  0.0000    6 0.5  0.0000
    7         0.070816       4 0.5  1.0000    9 0.5  0.0000    8 0.5  0.0000    7 0.5  0.0000    6 0.5  0.0000
    8         0.070816       4 0.5  1.0000    9 0.5  0.0000    8 0.5  0.0000    7 0.5  0.0000    6 0.5  0.0000
    9         0.099991       5 0.5  1.0000    9 0.5  0.0000    8 0.5  0.0000    7 0.5  0.0000    6 0.5  0.0000
   10         0.099991       5 0.5  1.0000    9 0.5  0.0000    8 0.5  0.0000    7 0.5  0.0000    6 0.5  0.0000
   11        78.876239       6 0.5  1.0000    9 0.5  0.0000    8 0.5  0.0000    7 0.5  0.0000    5 0.5  0.0000
   12        78.876239       6 0.5  1.0000    9 0.5  0.0000    8 0.5  0.0000    7 0.5  0.0000    5 0.5  0.0000
   13        85.553317       7 0.5  1.0000    9 0.5  0.0000    8 0.5  0.0000    6 0.5  0.0000    5 0.5  0.0000
   14        85.553317       7 0.5  1.0000    9 0.5  0.0000    8 0.5  0.0000    6 0.5  0.0000    5 0.5  0.0000
   15        85.554489       8 0.5  1.0000    9 0.5  0.0000    7 0.5  0.0000    6 0.5  0.0000    5 0.5  0.0000
   16        85.554489       8 0.5  1.0000    9 0.5  0.0000    7 0.5  0.0000    6 0.5  0.0000    5 0.5  0.0000
   17        86.307704       9 0.5  1.0000    8 0.5  0.0000    7 0.5  0.0000    6 0.5  0.0000    5 0.5  0.0000
   18        86.307704       9 0.5  1.0000    8 0.5  0.0000    7 0.5  0.0000    6 0.5  0.0000    5 0.5  0.0000
 -------------------------------------------------------------------------------------------------------


      ****************************************************************************************************
      *                                                                                                  *
      *                                    Special properties section                                    *
      *                                                                                                  *
      ****************************************************************************************************


++ Dipole transition strengths (SO states):
   ----------------------------------------
    for osc. strength at least    1.0000000000000001E-005

      From   To        Osc. strength     Einstein coefficients Ax, Ay, Az (sec-1)    Total A (sec-1)
     -----------------------------------------------------------------------------------------------
         1   13       1.23675791E-02  5.54031344E-07  2.90849134E+12  8.33287706E-03  2.90849134E+12
         1   15       1.23803866E-02  1.77890050E+09  8.34530948E-03  2.90980414E+12  2.91158304E+12
         2   14       1.23675791E-02  5.54031344E-07  2.90849134E+12  8.33287706E-03  2.90849134E+12
         2   16       1.23803866E-02  1.77890050E+09  8.34530948E-03  2.90980414E+12  2.91158304E+12
         3   13       1.23599662E-02  1.82264600E+08  8.33895411E-03  2.90651544E+12  2.90669770E+12
         3   15       1.23760032E-02  5.14676076E-06  2.91054885E+12  8.34279415E-03  2.91054885E+12
         4   14       1.23599662E-02  1.82264600E+08  8.33895411E-03  2.90651544E+12  2.90669770E+12
         4   16       1.23760032E-02  5.14676076E-06  2.91054885E+12  8.34279415E-03  2.91054885E+12
         5   11       6.27549716E-04  1.75074550E+07  4.92848471E-03  1.25201714E+11  1.25219222E+11
         5   13       1.45732614E-02  3.42152124E+12  1.04951762E-05  1.97474218E+07  3.42154099E+12
         5   17       1.05163919E-02  2.89259351E+08  9.92393630E-02  2.51254276E+12  2.51283201E+12
         6   12       6.27549716E-04  1.75074550E+07  4.92848471E-03  1.25201714E+11  1.25219222E+11
         6   14       1.45732614E-02  3.42152124E+12  1.04951762E-05  1.97474218E+07  3.42154099E+12
         6   18       1.05163919E-02  2.89259351E+08  9.92393630E-02  2.51254276E+12  2.51283201E+12
         7   11       6.24546617E-04  6.94527254E-07  1.24619626E+11  4.95151025E-03  1.24619626E+11
         7   15       1.45513584E-02  3.41592247E+12  3.18838963E-06  5.60485572E+08  3.41648296E+12
         7   17       1.05015726E-02  1.14167252E-05  2.50928429E+12  9.93675753E-02  2.50928429E+12
         8   12       6.24546617E-04  6.94527254E-07  1.24619626E+11  4.95151025E-03  1.24619626E+11
         8   16       1.45513584E-02  3.41592247E+12  3.18838963E-06  5.60485572E+08  3.41648296E+12
         8   18       1.05015726E-02  1.14167252E-05  2.50928429E+12  9.93675753E-02  2.50928429E+12
         9   11       9.44312211E-04  1.88269235E+11  5.42405993E-12  1.56956271E+07  1.88284930E+11
         9   13       3.56279468E-03  1.68505939E+08  2.80206769E-08  8.35738778E+11  8.35907284E+11
         9   15       3.56252739E-03  5.66459681E-12  8.35867494E+11  3.04718004E-08  8.35867494E+11
         9   17       1.85261238E-02  4.42348003E+12  1.00604508E-13  2.25218164E+08  4.42370525E+12
        10   12       9.44312211E-04  1.88269235E+11  5.42405993E-12  1.56956271E+07  1.88284930E+11
        10   14       3.56279468E-03  1.68505939E+08  2.80206769E-08  8.35738778E+11  8.35907284E+11
        10   16       3.56252739E-03  5.66459681E-12  8.35867494E+11  3.04718004E-08  8.35867494E+11
        10   18       1.85261238E-02  4.42348003E+12  1.00604508E-13  2.25218164E+08  4.42370525E+12
        11   13       1.76135985E-01  5.48635218E+06  8.82068143E-09  2.52302133E+11  2.52307619E+11
        11   15       1.76132938E-01  3.92232779E-12  2.52391809E+11  8.82602903E-09  2.52391809E+11
        11   17       1.62828949E-01  2.88921395E+11  4.51942426E-12  6.76580186E+06  2.88928161E+11
        12   14       1.76135985E-01  5.48635218E+06  8.82068143E-09  2.52302133E+11  2.52307619E+11
        12   16       1.76132938E-01  3.92232779E-12  2.52391809E+11  8.82602903E-09  2.52391809E+11
        12   18       1.62828949E-01  2.88921395E+11  4.51942426E-12  6.76580186E+06  2.88928161E+11
        13   17       1.29310507E-03  1.39304172E+03  8.36487541E-13  2.36431883E+07  2.36445814E+07
        14   18       1.29310507E-03  1.39304172E+03  8.36487541E-13  2.36431883E+07  2.36445814E+07
        15   17       1.29792299E-03  1.91078041E-15  2.36590145E+07  8.26926519E-13  2.36590145E+07
        16   18       1.29792299E-03  1.91078041E-15  2.36590145E+07  8.26926519E-13  2.36590145E+07
     -----------------------------------------------------------------------------------------------
--

++ Velocity transition strengths (SO states):
   ------------------------------------------
    for osc. strength at least    1.0000000000000001E-005

      From   To        Osc. strength     Einstein coefficients Ax, Ay, Az (sec-1)    Total A (sec-1)
     -----------------------------------------------------------------------------------------------
         1    3       3.06656925E-05  1.04143955E-20  2.32254186E-03  5.29132844E-24  2.32254186E-03
         1    5       2.60890245E-04  1.87539248E-14  4.18991973E+04  8.82632473E-10  4.18991973E+04
         1    7       2.60322790E-04  7.32315115E-01  8.83817516E-10  4.19446293E+04  4.19453617E+04
         1   13       1.20094330E-02  5.44641051E-07  2.82427572E+12  8.09160571E-03  2.82427572E+12
         1   15       1.20219612E-02  1.73572921E+09  8.10358067E-03  2.82556371E+12  2.82729944E+12
         2    4       3.06656925E-05  1.04143955E-20  2.32254186E-03  5.29132844E-24  2.32254186E-03
         2    6       2.60890245E-04  1.87539248E-14  4.18991973E+04  8.82632473E-10  4.18991973E+04
         2    8       2.60322790E-04  7.32315115E-01  8.83817516E-10  4.19446293E+04  4.19453617E+04
         2   14       1.20094330E-02  5.44641051E-07  2.82427572E+12  8.09160571E-03  2.82427572E+12
         2   16       1.20219612E-02  1.73572921E+09  8.10358067E-03  2.82556371E+12  2.82729944E+12
         3    5       2.60592676E-04  2.35495112E-01  8.82812896E-10  4.17937109E+04  4.17939464E+04
         3    7       2.60818450E-04  3.32877896E-15  4.19676214E+04  8.81445171E-10  4.19676214E+04
         3   13       1.20019948E-02  1.78951307E+08  8.09748440E-03  2.82234430E+12  2.82252326E+12
         3   15       1.20176227E-02  5.02416513E-06  2.82627591E+12  8.10126611E-03  2.82627591E+12
         4    6       2.60592676E-04  2.35495112E-01  8.82812896E-10  4.17937109E+04  4.17939464E+04
         4    8       2.60818450E-04  3.32877896E-15  4.19676214E+04  8.81445171E-10  4.19676214E+04
         4   14       1.20019948E-02  1.78951307E+08  8.09748440E-03  2.82234430E+12  2.82252326E+12
         4   16       1.20176227E-02  5.02416513E-06  2.82627591E+12  8.10126611E-03  2.82627591E+12
         5    9       1.83011367E-03  4.94577556E-01  1.99256857E-09  5.04499379E+04  5.04504325E+04
         5   11       6.26080690E-04  1.74368563E+07  4.91708115E-03  1.24909095E+11  1.24926532E+11
         5   13       1.41795948E-02  3.32910695E+12  1.01027157E-05  1.97692081E+07  3.32912671E+12
         5   17       1.01823035E-02  2.80824377E+08  9.60849631E-02  2.43273112E+12  2.43301195E+12
         6   10       1.83011367E-03  4.94577556E-01  1.99256857E-09  5.04499379E+04  5.04504325E+04
         6   12       6.26080690E-04  1.74368563E+07  4.91708115E-03  1.24909095E+11  1.24926532E+11
         6   14       1.41795948E-02  3.32910695E+12  1.01027157E-05  1.97692081E+07  3.32912671E+12
         6   18       1.01823035E-02  2.80824377E+08  9.60849631E-02  2.43273112E+12  2.43301195E+12
         7    9       1.83536328E-03  2.12808507E-14  5.01952237E+04  1.98680484E-09  5.01952237E+04
         7   11       6.23093029E-04  6.91232349E-07  1.24330015E+11  4.93996009E-03  1.24330015E+11
         7   15       1.41580841E-02  3.32361778E+12  3.03459360E-06  5.40683123E+08  3.32415846E+12
         7   17       1.01677987E-02  1.10918572E-05  2.42953957E+12  9.62110332E-02  2.42953957E+12
         8   10       1.83536328E-03  2.12808507E-14  5.01952237E+04  1.98680484E-09  5.01952237E+04
         8   12       6.23093029E-04  6.91232349E-07  1.24330015E+11  4.93996009E-03  1.24330015E+11
         8   16       1.41580841E-02  3.32361778E+12  3.03459360E-06  5.40683123E+08  3.32415846E+12
         8   18       1.01677987E-02  1.10918572E-05  2.42953957E+12  9.62110332E-02  2.42953957E+12
         9   11       9.43692233E-04  1.88146312E+11  6.03225542E-13  1.56566858E+07  1.88161968E+11
         9   13       3.44700982E-03  1.64009270E+08  2.71249446E-08  8.08580500E+11  8.08744509E+11
         9   15       3.44685892E-03  1.04083770E-12  8.08731281E+11  2.94698274E-08  8.08731281E+11
         9   17       1.80142718E-02  4.30128094E+12  4.85757949E-15  2.18226913E+08  4.30149917E+12
        10   12       9.43692233E-04  1.88146312E+11  6.03225542E-13  1.56566858E+07  1.88161968E+11
        10   14       3.44700982E-03  1.64009270E+08  2.71249446E-08  8.08580500E+11  8.08744509E+11
        10   16       3.44685892E-03  1.04083770E-12  8.08731281E+11  2.94698274E-08  8.08731281E+11
        10   18       1.80142718E-02  4.30128094E+12  4.85757949E-15  2.18226913E+08  4.30149917E+12
        11   13       1.48891858E-01  4.60459532E+06  7.43737693E-09  2.13277655E+11  2.13282259E+11
        11   15       1.48888244E-01  4.31260922E-12  2.13351939E+11  7.43787713E-09  2.13351939E+11
        11   17       1.37241035E-01  2.43519359E+11  2.94944929E-12  5.75062841E+06  2.43525109E+11
        12   14       1.48891858E-01  4.60459532E+06  7.43737693E-09  2.13277655E+11  2.13282259E+11
        12   16       1.48888244E-01  4.31260922E-12  2.13351939E+11  7.43787713E-09  2.13351939E+11
        12   18       1.37241035E-01  2.43519359E+11  2.94944929E-12  5.75062841E+06  2.43525109E+11
        13   17       4.50667737E-03  2.25247876E+03  2.73508134E-12  8.24031705E+07  8.24054230E+07
        14   18       4.50667737E-03  2.25247876E+03  2.73508134E-12  8.24031705E+07  8.24054230E+07
        15   17       4.51906531E-03  3.03140393E-14  8.23754604E+07  2.75454192E-12  8.23754604E+07
        16   18       4.51906531E-03  3.03140393E-14  8.23754604E+07  2.75454192E-12  8.23754604E+07
     -----------------------------------------------------------------------------------------------
--

++ Length and velocity gauge comparison (SO states):

 --------------------------------------------------
 A comparison between the dipole oscillator strengths in 
 length and velocity gauge will be performed

 All dipole oscillator differences above the tolerance of   0.10000000000000001       will be printed 

 Due to basis set deficiency these oscillator may be problematic 

 The tolerance is defined as ABS(1-O_l/O_v) 
 O_l : dipole oscillator strength in length gauge
 O_p : dipole oscillator strength in velocity gauge
 --------------------------------------------------

  Problematic transitions have been found

      From   To       Difference (%) Osc. st. (len.) Osc. st. (vel.)
     ---------------------------------------------------------------
         1    3      --------------- below threshold  3.06656925E-05
         1    5      --------------- below threshold  2.60890245E-04
         1    7      --------------- below threshold  2.60322790E-04
         2    4      --------------- below threshold  3.06656925E-05
         2    6      --------------- below threshold  2.60890245E-04
         2    8      --------------- below threshold  2.60322790E-04
         3    5      --------------- below threshold  2.60592676E-04
         3    7      --------------- below threshold  2.60818450E-04
         4    6      --------------- below threshold  2.60592676E-04
         4    8      --------------- below threshold  2.60818450E-04
         5    9      --------------- below threshold  1.83011367E-03
         6   10      --------------- below threshold  1.83011367E-03
         7    9      --------------- below threshold  1.83536328E-03
         8   10      --------------- below threshold  1.83536328E-03
        11   13            18.297929  1.76135985E-01  1.48891858E-01
        11   15            18.298754  1.76132938E-01  1.48888244E-01
        11   17            18.644507  1.62828949E-01  1.37241035E-01
        12   14            18.297929  1.76135985E-01  1.48891858E-01
        12   16            18.298754  1.76132938E-01  1.48888244E-01
        12   18            18.644507  1.62828949E-01  1.37241035E-01
        13   17            71.306908  1.29310507E-03  4.50667737E-03
        14   18            71.306908  1.29310507E-03  4.50667737E-03
        15   17            71.278950  1.29792299E-03  4.51906531E-03
        16   18            71.278950  1.29792299E-03  4.51906531E-03
     ---------------------------------------------------------------

 Number of problematic transitions =                    24

--

 Electric-dipole - electric-octupole not included
++ Total transition strengths for the second-order expansion of the wave vector (SO states):
   -----------------------------------------------------------------------------------------
    for osc. strength at least    1.0000000000000001E-005

      From   To        Osc. strength
     -------------------------------
         1   11       5.22299035E-05
         1   17       2.05161408E-05
         2   12       5.22299035E-05
         2   18       2.05161408E-05
         3   11       5.22259526E-05
         3   17       2.05189967E-05
         4   12       5.22259526E-05
         4   18       2.05189967E-05
         5   11       5.45669874E-05
         6   12       5.45669874E-05
         7   11       5.45526513E-05
         8   12       5.45526513E-05
         9   11       5.51791016E-05
        10   12       5.51791016E-05
     -------------------------------
--

++ I/O STATISTICS
 
  I. General I/O information
  - - - - - - - - - - - - - - - - - - - - - - - - - - - - - - - - - - - - - - - - - - -
  Unit  Name          Flsize      Write/Read            MBytes           Write/Read
                      (MBytes)       Calls              In/Out           Time, sec.
  - - - - - - - - - - - - - - - - - - - - - - - - - - - - - - - - - - - - - - - - - - -
   1  SCRATCH           0.00 .       9/      45 .      0.0/      0.0 .       0/       0
   2  ANNI              0.00 .       0/       0 .      0.0/      0.0 .       0/       0
   3  RUNFILE          15.31 .     322/   10733 .      2.3/     77.8 .       0/       0
   4  ONEINT            6.58 .       0/   28767 .      0.0/   3777.9 .       0/       0
   5  JOBIPH            7.70 .       0/      92 .      0.0/      0.9 .       0/       0
   6  ORDINT          771.03 .       1/    6169 .      0.0/   1542.0 .       0/       0
  - - - - - - - - - - - - - - - - - - - - - - - - - - - - - - - - - - - - - - - - - - -
   *  TOTAL           800.62 .     332/   45806 .      2.3/   5398.7 .       0/       0
  - - - - - - - - - - - - - - - - - - - - - - - - - - - - - - - - - - - - - - - - - - -
 
  II. I/O Access Patterns
  - - - - - - - - - - - - - - - - - - - -
  Unit  Name               % of random
                         Write/Read calls
  - - - - - - - - - - - - - - - - - - - -
   1  SCRATCH             88.9/ 100.0
   2  ANNI                 0.0/   0.0
   3  RUNFILE             28.6/  10.8
   4  ONEINT               0.0/  13.4
   5  JOBIPH               0.0/  76.1
   6  ORDINT             100.0/   0.0
  - - - - - - - - - - - - - - - - - - - -
--
--- Stop Module: rassi at Tue Mar 25 16:54:11 2025 /rc=_RC_ALL_IS_WELL_ ---
*** files: xmldump
    saved to directory /home4/s4752295/Internship/Initial_simulations/Point_charge_model/1_electron/Madelung_charges_9_active_space/Re
--- Module rassi spent 4 seconds ---

.##################.
.# Happy landing! #.
.##################.

    Timing: Wall=84.58 User=70.55 System=11.69

###############################################################################
Hbrk Cluster
Job 15899257 for user s4752295
Finished at: Tue Mar 25 16:54:15 CET 2025

Job details:
============

Job ID                         : 15899257
Name                           : Re_no_SO
User                           : s4752295
Partition                      : regularmedium
Nodes                          : node37
Number of Nodes                : 1
Cores                          : 1
Number of Tasks                : 1
State                          : COMPLETED  
Submit                         : 2025-03-25T16:51:23
Start                          : 2025-03-25T16:52:42
End                            : 2025-03-25T16:54:11
Reserved walltime              : 15:00:00
Used walltime                  : 00:01:29
Used CPU time                  : 00:01:24 (Efficiency: 93.84%)
% User (Computation)           : 85.69%
% System (I/O)                 : 14.31%
Total memory reserved          : 25000M
Maximum memory used            : 3.06G

Acknowledgements:
=================

Please see this page for information about acknowledging Hbrk in your publications:

https://wiki.hpc.rug.nl/habrok/introduction/scientific_output

################################################################################
