   This run of MOLCAS is using the pymolcas driver

                             OPE
                             OPE          NMOL  CASOP  ENMOLC A   SO
                 OPE        NMOLC        AS  OP EN  MO LC     AS  OP
                OPENM       OL CA        SO  PE NM  OL CA     SOP EN
                OP EN      MO   LC       AS  OP ENMOL  CASO   PENMOL
                OP  EN     MO   LC       AS  OP EN     MO     LC ASO
               OP   E  NMOL  C  AS       OP  EN MO     LC     AS  OP
               OP  E   NMO   LC AS        OPEN  MO     LCASOP EN   M
               O  PEN   MO  LCA  SO
            OPE   NMO   L   CAS    OP
        OPENMOL  CASOP     ENMOL   CASOPE
     OPENMOLCA   SOPENMOLCASOPEN   MOLCASOPE
    OPENMOLCAS   OP           EN   MOL    CAS
    OPENMOLCAS       OP  ENM        O     LCA
    OPENMOLCAS    OPEN  MOLCASO     P  E  NMO
    OPENMOLCAS     OP               E  N  MOL
    OPENMOLCA   SO           PENM   O  L  CAS    OPEN    MO    LCAS
    OPENMOLCA   SOP           ENM   O  L  CAS   OP  EN  MOLC  AS   O
    OPENMOLCA   SOPE           NM      O  LCA   S      OP  EN MO
    OPENMOLC                AS         O  PEN   M      OL  CA  SOPE
    OPENMO        LCASOPE  NMOL        C  ASO   P      ENMOLC     AS
    OPE     NMO      LCA  SO     P     E   NM   OL  CA SO  PE N   MO
          OPENMOLCA            SOPE   NMO        LCAS  O    P  ENMO
     OPENMOLCASOPENMOLCASOPENMOLCASOPENMOLCA
        OPENMOLCASOPENMOLCASOPENMOLCASOPE
            OPENMOLCASOPENMOLCASOPENM
               OPENMOLCASOPENMOLCA        version: o91e1abe7de707b ?
                   OPENMOLCASO
                       OPE                tag:

 OpenMolcas is free software; you can redistribute it and/or modify it
 under the terms of the GNU Lesser General Public License version 2.1.
 OpenMolcas is distributed in the hope that it will be useful, but it
 is provided "as is" and without any express or implied warranties.
 For more details see the full text of the license in the file
 LICENSE or in <http://www.gnu.org/licenses/>.

                 Copyright (C) The OpenMolcas Authors
           For the author list and the recommended citation,
                   consult the file CONTRIBUTORS.md

           *************************************************
           * pymolcas version py2.10                       *
           *   build 3068ae8b88c9345ec6cfef6fef7f1169      *
           *   (after the EMIL interpreter by V. Veryazov) *
           *************************************************

configuration info
------------------
Host name: login1 (Linux)
C Compiler ID: GNU
C flags: -std=gnu99
Fortran Compiler ID: GNU
Fortran flags: -fno-aggressive-loop-optimizations -cpp -fdefault-integer-8 -fmax-stack-var-size=1048576
Definitions: _MOLCAS_;_I8_;_LINUX_;_MKL_
Parallel: OFF (GA=OFF)


   ----------------------------------------------------------------------------------------------------------------------------------
  |
  |           Project: tungsten_so_cf
  |    Submitted from: /home4/s4752295/Internship/Initial_simulations/Point_charge_model/1_electron/Madelung_charges_9_active_space/W
  |      Scratch area: /tmp/tungsten_so_cf
  |   Save outputs to: /home4/s4752295/Internship/Initial_simulations/Point_charge_model/1_electron/Madelung_charges_9_active_space/W
  |            Molcas: /home4/s4752295/Internship/Molcas/recomp_try/OpenMolcas-master/build
  |
  | Scratch area is empty
  |
  |    MOLCAS_DRIVER = /home4/s4752295/Internship/Molcas/bin/pymolcas
  |    MOLCAS_NPROCS = 1
  |    MOLCAS_SOURCE = /home4/s4752295/Internship/Molcas/recomp_try/OpenMolcas-master
  | MOLCAS_STRUCTURE = 0
  |
   ----------------------------------------------------------------------------------------------------------------------------------

++ ---------   Input file   ---------

&SEWARD
AMFi

CLIG
$R

Basis Set
W.ANO-rcc.Roos.24s21p15d11f4g2h.11s10p9d8f4g2h.
Spherical d
W            -1.0658140267135469e-14    -3.5527134223784897e-15 0.008753588724385739
End of Basis

Xfield

414
-3.201760864,-1.2320000000000002,0.7112952      -0.625931
-3.201760864,-0.0,-1.4225912    -0.625931
-3.201760864,1.2320000000000002,0.7112952       -0.625931
-3.1962768560000003,0.0,0.0     1.892092
2.1273437520000003,-1.2320000000000002,-0.7112952       2.515516
2.1273437520000003,0.0,1.4225912        2.515516
2.1273437520000003,1.2320000000000002,-0.7112952        2.515516
2.850390624,-2.4640000000000004,0.0     0.004632
2.850390624,-1.2320000000000002,-2.1338864      0.004632
2.850390624,-1.2320000000000002,2.1338864       0.004632
2.850390624,1.2320000000000002,-2.1338864       0.004632
2.850390624,1.2320000000000002,2.1338864        0.004632
2.850390624,2.4640000000000004,0.0      0.004632
3.3033203120000003,-1.2320000000000002,0.7112952        -2.519484
3.3033203120000003,-0.0,-1.4225912      -2.519484
3.3033203120000003,1.2320000000000002,0.7112952 -2.519484
-2.3464843760000003,-0.0,-0.0   -3.142907
-3.9800781280000006,-2.4640000000000004,-1.4225912      -0.625931
-3.9800781280000006,0.0,2.8451816       -0.625931
-3.9800781280000006,2.4640000000000004,-1.4225912       -0.625931
-5.2875000000000005,-2.4640000000000004,0.0     1.892092
-5.2875000000000005,-1.2320000000000002,-2.1338864      1.892092
-5.2875000000000005,-1.2320000000000002,2.1338864       1.892092
-5.2875000000000005,1.2320000000000002,-2.1338864       1.892092
-5.2875000000000005,1.2320000000000002,2.1338864        1.892092
-5.2875000000000005,2.4640000000000004,0.0      1.892092
20.137500000000003,-2.4640000000000004,1.4225912        2.515516
20.137500000000003,-0.0,-2.8451816      2.515516
20.137500000000003,2.4640000000000004,1.4225912 2.515516
2.910937504,-2.4640000000000004,-1.4225912      -2.519484
2.910937504,0.0,2.8451816       -2.519484
2.910937504,2.4640000000000004,-1.4225912       -2.519484
-2.5859375040000003,-2.4640000000000004,-0.0    -3.142907
-2.5859375040000003,-1.2320000000000002,-2.1338864      -3.142907
-2.5859375040000003,-1.2320000000000002,2.1338864       -3.142907
-2.5859375040000003,1.2320000000000002,-2.1338864       -3.142907
-2.5859375040000003,1.2320000000000002,2.1338864        -3.142907
-2.5859375040000003,2.4640000000000004,-0.0     -3.142907
-7.61875,-2.4640000000000004,2.8451816  -0.625931
-7.61875,2.4640000000000004,2.8451816   -0.625931
-7.61875,-3.696,0.7112952       -0.625931
-7.61875,3.696,0.7112952        -0.625931
-7.61875,-1.2320000000000002,-3.5564776000000005        -0.625931
-7.61875,1.2320000000000002,-3.5564776000000005 -0.625931
4.80625,-1.2320000000000002,-0.7112952  4.409069
4.80625,1.2320000000000002,-0.7112952   4.409069
4.80625,0.0,1.4225912   4.409069
-140.20000000000002,-0.0,-0.0   -5.030367
-140.20000000000002,0.0,0.0     5.039632
10.814062496,-2.4640000000000004,-2.8451816     2.515516
10.814062496,2.4640000000000004,-2.8451816      2.515516
10.814062496,-3.696,-0.7112952  2.515516
10.814062496,3.696,-0.7112952   2.515516
10.814062496,-1.2320000000000002,3.5564776000000005     2.515516
10.814062496,1.2320000000000002,3.5564776000000005      2.515516
15.231250000000001,-3.696,-2.1338864    0.004632
15.231250000000001,-3.696,2.1338864     0.004632
15.231250000000001,3.696,-2.1338864     0.004632
15.231250000000001,3.696,2.1338864      0.004632
15.231250000000001,-0.0,-4.2677728      0.004632
15.231250000000001,0.0,4.2677728        0.004632
38.462500000000006,-2.4640000000000004,2.8451816        -2.519484
38.462500000000006,2.4640000000000004,2.8451816 -2.519484
38.462500000000006,-3.696,0.7112952     -2.519484
38.462500000000006,3.696,0.7112952      -2.519484
38.462500000000006,-1.2320000000000002,-3.5564776000000005      -2.519484
38.462500000000006,1.2320000000000002,-3.5564776000000005       -2.519484
-116.7,-3.696,-2.1338864        1.892092
-116.7,-3.696,2.1338864 1.892092
-116.7,3.696,-2.1338864 1.892092
-116.7,3.696,2.1338864  1.892092
-116.7,-0.0,-4.2677728  1.892092
-116.7,0.0,4.2677728    1.892092
-94.2,-2.4640000000000004,1.4225912     4.409069
-94.2,-0.0,-2.8451816   4.409069
-94.2,2.4640000000000004,1.4225912      4.409069
-71.2,-2.4640000000000004,-0.0  -5.030367
-71.2,-1.2320000000000002,-2.1338864    -5.030367
-71.2,-1.2320000000000002,2.1338864     -5.030367
-71.2,1.2320000000000002,-2.1338864     -5.030367
-71.2,-2.4640000000000004,0.0   5.039632
-71.2,2.4640000000000004,-0.0   -5.030367
-71.2,1.2320000000000002,2.1338864      -5.030367
-71.2,-1.2320000000000002,-2.1338864    5.039632
-71.2,-1.2320000000000002,2.1338864     5.039632
-71.2,1.2320000000000002,-2.1338864     5.039632
-71.2,2.4640000000000004,0.0    5.039632
-71.2,1.2320000000000002,2.1338864      5.039632
-37.300000000000004,-1.2320000000000002,-0.7112952      -5.660931
-37.300000000000004,0.0,1.4225912       -5.660931
-37.300000000000004,1.2320000000000002,-0.7112952       -5.660931
0.70625,-4.9279992,0.0  0.004632
0.70625,-2.4640000000000004,-4.2677728  0.004632
0.70625,-2.4640000000000004,4.2677728   0.004632
0.70625,2.4640000000000004,-4.2677728   0.004632
0.70625,4.9279992,0.0   0.004632
0.70625,2.4640000000000004,4.2677728    0.004632
54.35,-3.696,2.1338864  -3.142907
54.35,-3.696,-2.1338864 -3.142907
54.35,3.696,-2.1338864  -3.142907
54.35,3.696,2.1338864   -3.142907
54.35,-0.0,-4.2677728   -3.142907
54.35,0.0,4.2677728     -3.142907
69.10000000000001,-4.9279992,-1.4225912 -0.625931
69.10000000000001,-3.696,-3.5564776000000005    -0.625931
69.10000000000001,-1.2320000000000002,4.979068000000001 -0.625931
69.10000000000001,3.696,-3.5564776000000005     -0.625931
69.10000000000001,4.9279992,-1.4225912  -0.625931
69.10000000000001,1.2320000000000002,4.979068000000001  -0.625931
0.9578124960000001,-4.9279992,0.0       1.892092
0.9578124960000001,-2.4640000000000004,-4.2677728       1.892092
0.9578124960000001,-2.4640000000000004,4.2677728        1.892092
0.9578124960000001,2.4640000000000004,-4.2677728        1.892092
0.9578124960000001,4.9279992,0.0        1.892092
0.9578124960000001,2.4640000000000004,4.2677728 1.892092
27.075000000000003,-2.4640000000000004,-2.8451816       4.409069
27.075000000000003,2.4640000000000004,-2.8451816        4.409069
27.075000000000003,-3.696,-0.7112952    4.409069
27.075000000000003,3.696,-0.7112952     4.409069
27.075000000000003,-1.2320000000000002,3.5564776000000005       4.409069
27.075000000000003,1.2320000000000002,3.5564776000000005        4.409069
129.925,-2.4640000000000004,1.4225912   -5.660931
129.925,-0.0,-2.8451816 -5.660931
129.925,2.4640000000000004,1.4225912    -5.660931
0.275,-4.9279992,1.4225912      2.515516
0.275,-1.2320000000000002,-4.979068000000001    2.515516
0.275,-3.696,3.5564776000000005 2.515516
0.275,1.2320000000000002,-4.979068000000001     2.515516
0.275,4.9279992,1.4225912       2.515516
0.275,3.696,3.5564776000000005  2.515516
-75.35000000000001,-4.9279992,-1.4225912        -2.519484
-75.35000000000001,-3.696,-3.5564776000000005   -2.519484
-75.35000000000001,-1.2320000000000002,4.979068000000001        -2.519484
-75.35000000000001,3.696,-3.5564776000000005    -2.519484
-75.35000000000001,1.2320000000000002,4.979068000000001 -2.519484
-75.35000000000001,4.9279992,-1.4225912 -2.519484
-17.65625,-4.9279992,-0.0       -3.142907
-17.65625,-2.4640000000000004,-4.2677728        -3.142907
-17.65625,-2.4640000000000004,4.2677728 -3.142907
-17.65625,2.4640000000000004,-4.2677728 -3.142907
-17.65625,2.4640000000000004,4.2677728  -3.142907
-17.65625,4.9279992,-0.0        -3.142907
485.20000000000005,0.0,0.0      6.927092
258.6,-4.9279992,2.8451816      -0.625931
258.6,4.9279992,2.8451816       -0.625931
258.6,-0.0,-5.690364000000001   -0.625931
-4.3375,-3.696,2.1338864        -5.030367
-4.3375,-3.696,-2.1338864       -5.030367
-4.3375,-3.696,2.1338864        5.039632
-4.3375,-3.696,-2.1338864       5.039632
-4.3375,3.696,-2.1338864        -5.030367
-4.3375,3.696,2.1338864 -5.030367
-4.3375,3.696,-2.1338864        5.039632
-4.3375,3.696,2.1338864 5.039632
-4.3375,-0.0,-4.2677728 -5.030367
-4.3375,0.0,4.2677728   -5.030367
-4.3375,-0.0,-4.2677728 5.039632
-4.3375,0.0,4.2677728   5.039632
73.45,-2.4640000000000004,-2.8451816    -5.660931
73.45,2.4640000000000004,-2.8451816     -5.660931
73.45,-3.696,-0.7112952 -5.660931
73.45,3.696,-0.7112952  -5.660931
73.45,-1.2320000000000002,3.5564776000000005    -5.660931
73.45,1.2320000000000002,3.5564776000000005     -5.660931
240.4,-4.9279992,-2.8451816     2.515516
240.4,4.9279992,-2.8451816      2.515516
240.4,0.0,5.690364000000001     2.515516
-413.8,-4.9279992,2.8451816     -2.519484
-413.8,4.9279992,2.8451816      -2.519484
-413.8,-0.0,-5.690364000000001  -2.519484
42.85,-2.4640000000000004,0.0   6.927092
42.85,-1.2320000000000002,-2.1338864    6.927092
42.85,-1.2320000000000002,2.1338864     6.927092
42.85,1.2320000000000002,-2.1338864     6.927092
42.85,1.2320000000000002,2.1338864      6.927092
42.85,2.4640000000000004,0.0    6.927092
-44.2,-1.2320000000000002,0.7112952     7.550516
-44.2,0.0,-1.4225912    7.550516
-44.2,1.2320000000000002,0.7112952      7.550516
12.425,-1.2320000000000002,-0.7112952   -7.554483
12.425,1.2320000000000002,-0.7112952    -7.554483
12.425,-0.0,1.4225912   -7.554483
-99.9,-6.159999200000001,0.7112952      -0.625931
-99.9,-3.696,4.979068000000001  -0.625931
-99.9,-2.4640000000000004,-5.690364000000001    -0.625931
-99.9,2.4640000000000004,-5.690364000000001     -0.625931
-99.9,6.159999200000001,0.7112952       -0.625931
-99.9,3.696,4.979068000000001   -0.625931
-53.95,-4.9279992,1.4225912     4.409069
-53.95,-3.696,3.5564776000000005        4.409069
-53.95,-1.2320000000000002,-4.979068000000001   4.409069
-53.95,1.2320000000000002,-4.979068000000001    4.409069
-53.95,3.696,3.5564776000000005 4.409069
-53.95,4.9279992,1.4225912      4.409069
39.325,-4.9279992,-0.0  -5.030367
39.325,-2.4640000000000004,-4.2677728   -5.030367
39.325,-2.4640000000000004,4.2677728    -5.030367
39.325,-4.9279992,0.0   5.039632
39.325,-2.4640000000000004,-4.2677728   5.039632
39.325,2.4640000000000004,-4.2677728    -5.030367
39.325,2.4640000000000004,4.2677728     -5.030367
39.325,4.9279992,-0.0   -5.030367
39.325,-2.4640000000000004,4.2677728    5.039632
39.325,2.4640000000000004,-4.2677728    5.039632
39.325,4.9279992,0.0    5.039632
39.325,2.4640000000000004,4.2677728     5.039632
144.6,-6.159999200000001,-0.7112952     2.515516
144.6,-3.696,-4.979068000000001 2.515516
144.6,-2.4640000000000004,5.690364000000001     2.515516
144.6,3.696,-4.979068000000001  2.515516
144.6,6.159999200000001,-0.7112952      2.515516
144.6,2.4640000000000004,5.690364000000001      2.515516
-18.675,-6.159999200000001,-2.1338864   0.004632
-18.675,-6.159999200000001,2.1338864    0.004632
-18.675,-4.9279992,-4.2677728   0.004632
-18.675,-4.9279992,4.2677728    0.004632
-18.675,-1.2320000000000002,-6.401659200000001  0.004632
-18.675,1.2320000000000002,-6.401659200000001   0.004632
-18.675,-1.2320000000000002,6.401659200000001   0.004632
-18.675,4.9279992,-4.2677728    0.004632
-18.675,1.2320000000000002,6.401659200000001    0.004632
-18.675,6.159999200000001,-2.1338864    0.004632
-18.675,6.159999200000001,2.1338864     0.004632
-18.675,4.9279992,4.2677728     0.004632
-114.5,-6.159999200000001,0.7112952     -2.519484
-114.5,-3.696,4.979068000000001 -2.519484
-114.5,-2.4640000000000004,-5.690364000000001   -2.519484
-114.5,2.4640000000000004,-5.690364000000001    -2.519484
-114.5,6.159999200000001,0.7112952      -2.519484
-114.5,3.696,4.979068000000001  -2.519484
2425.6,-0.0,-0.0        -8.177907
-92.80000000000001,-2.4640000000000004,-1.4225912       7.550516
-92.80000000000001,0.0,2.8451816        7.550516
-92.80000000000001,2.4640000000000004,-1.4225912        7.550516
-482.8,-2.4640000000000004,1.4225912    -7.554483
-482.8,-0.0,-2.8451816  -7.554483
-482.8,2.4640000000000004,1.4225912     -7.554483
39.125,-6.159999200000001,2.1338864     1.892092
39.125,-6.159999200000001,-2.1338864    1.892092
39.125,-4.9279992,-4.2677728    1.892092
39.125,-4.9279992,4.2677728     1.892092
39.125,-1.2320000000000002,-6.401659200000001   1.892092
39.125,1.2320000000000002,-6.401659200000001    1.892092
39.125,-1.2320000000000002,6.401659200000001    1.892092
39.125,4.9279992,-4.2677728     1.892092
39.125,1.2320000000000002,6.401659200000001     1.892092
39.125,6.159999200000001,-2.1338864     1.892092
39.125,6.159999200000001,2.1338864      1.892092
39.125,4.9279992,4.2677728      1.892092
-404.0,-4.9279992,-2.8451816    4.409069
-404.0,4.9279992,-2.8451816     4.409069
-404.0,0.0,5.690364000000001    4.409069
20.65625,-4.9279992,1.4225912   -5.660931
20.65625,-1.2320000000000002,-4.979068000000001 -5.660931
20.65625,-3.696,3.5564776000000005      -5.660931
20.65625,1.2320000000000002,-4.979068000000001  -5.660931
20.65625,3.696,3.5564776000000005       -5.660931
20.65625,4.9279992,1.4225912    -5.660931
-46.550000000000004,-4.9279992,-4.2677728       -3.142907
-46.550000000000004,-6.159999200000001,2.1338864        -3.142907
-46.550000000000004,-6.159999200000001,-2.1338864       -3.142907
-46.550000000000004,-4.9279992,4.2677728        -3.142907
-46.550000000000004,-1.2320000000000002,-6.401659200000001      -3.142907
-46.550000000000004,1.2320000000000002,-6.401659200000001       -3.142907
-46.550000000000004,-1.2320000000000002,6.401659200000001       -3.142907
-46.550000000000004,6.159999200000001,-2.1338864        -3.142907
-46.550000000000004,4.9279992,-4.2677728        -3.142907
-46.550000000000004,1.2320000000000002,6.401659200000001        -3.142907
-46.550000000000004,6.159999200000001,2.1338864 -3.142907
-46.550000000000004,4.9279992,4.2677728 -3.142907
52.325,-3.696,-2.1338864        6.927092
52.325,-3.696,2.1338864 6.927092
52.325,3.696,-2.1338864 6.927092
52.325,3.696,2.1338864  6.927092
52.325,-0.0,-4.2677728  6.927092
52.325,0.0,4.2677728    6.927092
-66.60000000000001,-2.4640000000000004,-0.0     -8.177907
-66.60000000000001,-1.2320000000000002,2.1338864        -8.177907
-66.60000000000001,-1.2320000000000002,-2.1338864       -8.177907
-66.60000000000001,1.2320000000000002,-2.1338864        -8.177907
-66.60000000000001,2.4640000000000004,-0.0      -8.177907
-66.60000000000001,1.2320000000000002,2.1338864 -8.177907
-72.72500000000001,-2.4640000000000004,2.8451816        7.550516
-72.72500000000001,2.4640000000000004,2.8451816 7.550516
-72.72500000000001,-3.696,0.7112952     7.550516
-72.72500000000001,3.696,0.7112952      7.550516
-72.72500000000001,-1.2320000000000002,-3.5564776000000005      7.550516
-72.72500000000001,1.2320000000000002,-3.5564776000000005       7.550516
-36.550000000000004,-2.4640000000000004,-2.8451816      -7.554483
-36.550000000000004,2.4640000000000004,-2.8451816       -7.554483
-36.550000000000004,-3.696,-0.7112952   -7.554483
-36.550000000000004,3.696,-0.7112952    -7.554483
-36.550000000000004,-1.2320000000000002,3.5564776000000005      -7.554483
-36.550000000000004,1.2320000000000002,3.5564776000000005       -7.554483
-400.20000000000005,0.0,7.1129544       -0.625931
-400.20000000000005,-6.159999200000001,-3.5564776000000005      -0.625931
-400.20000000000005,6.159999200000001,-3.5564776000000005       -0.625931
-215.8,-6.159999200000001,-0.7112952    4.409069
-215.8,-3.696,-4.979068000000001        4.409069
-215.8,-2.4640000000000004,5.690364000000001    4.409069
-215.8,3.696,-4.979068000000001 4.409069
-215.8,6.159999200000001,-0.7112952     4.409069
-215.8,2.4640000000000004,5.690364000000001     4.409069
248.3,-4.9279992,-2.8451816     -5.660931
248.3,4.9279992,-2.8451816      -5.660931
248.3,0.0,5.690364000000001     -5.660931
469.6,-0.0,-7.1129544   2.515516
469.6,-6.159999200000001,3.5564776000000005     2.515516
469.6,6.159999200000001,3.5564776000000005      2.515516
-75.10000000000001,-7.3919992,-0.0      0.004632
-75.10000000000001,3.696,-6.401659200000001     0.004632
-75.10000000000001,-3.696,6.401659200000001     0.004632
-75.10000000000001,7.3919992,-0.0       0.004632
-75.10000000000001,-3.696,-6.401659200000001    0.004632
-75.10000000000001,3.696,6.401659200000001      0.004632
-308.6,0.0,7.1129544    -2.519484
-308.6,-6.159999200000001,-3.5564776000000005   -2.519484
-308.6,6.159999200000001,-3.5564776000000005    -2.519484
182.4,-4.9279992,0.0    6.927092
182.4,-2.4640000000000004,-4.2677728    6.927092
182.4,-2.4640000000000004,4.2677728     6.927092
182.4,2.4640000000000004,-4.2677728     6.927092
182.4,4.9279992,0.0     6.927092
182.4,2.4640000000000004,4.2677728      6.927092
169.5,-7.3919992,-1.4225912     -0.625931
169.5,-2.4640000000000004,7.1129544     -0.625931
169.5,-4.9279992,-5.690364000000001     -0.625931
169.5,4.9279992,-5.690364000000001      -0.625931
169.5,2.4640000000000004,7.1129544      -0.625931
169.5,7.3919992,-1.4225912      -0.625931
89.55000000000001,-7.3919992,0.0        1.892092
89.55000000000001,-3.696,-6.401659200000001     1.892092
89.55000000000001,-3.696,6.401659200000001      1.892092
89.55000000000001,3.696,-6.401659200000001      1.892092
89.55000000000001,7.3919992,0.0 1.892092
89.55000000000001,3.696,6.401659200000001       1.892092
-3.4562500000000003,-6.159999200000001,2.1338864        -5.030367
-3.4562500000000003,-6.159999200000001,-2.1338864       -5.030367
-3.4562500000000003,-4.9279992,-4.2677728       -5.030367
-3.4562500000000003,-4.9279992,4.2677728        -5.030367
-3.4562500000000003,-6.159999200000001,2.1338864        5.039632
-3.4562500000000003,1.2320000000000002,-6.401659200000001       -5.030367
-3.4562500000000003,-1.2320000000000002,-6.401659200000001      -5.030367
-3.4562500000000003,-6.159999200000001,-2.1338864       5.039632
-3.4562500000000003,-4.9279992,-4.2677728       5.039632
-3.4562500000000003,-1.2320000000000002,6.401659200000001       -5.030367
-3.4562500000000003,1.2320000000000002,-6.401659200000001       5.039632
-3.4562500000000003,-4.9279992,4.2677728        5.039632
-3.4562500000000003,-1.2320000000000002,-6.401659200000001      5.039632
-3.4562500000000003,4.9279992,-4.2677728        -5.030367
-3.4562500000000003,1.2320000000000002,6.401659200000001        -5.030367
-3.4562500000000003,6.159999200000001,-2.1338864        -5.030367
-3.4562500000000003,6.159999200000001,2.1338864 -5.030367
-3.4562500000000003,4.9279992,4.2677728 -5.030367
-3.4562500000000003,-1.2320000000000002,6.401659200000001       5.039632
-3.4562500000000003,4.9279992,-4.2677728        5.039632
-3.4562500000000003,6.159999200000001,-2.1338864        5.039632
-3.4562500000000003,1.2320000000000002,6.401659200000001        5.039632
-3.4562500000000003,6.159999200000001,2.1338864 5.039632
-3.4562500000000003,4.9279992,4.2677728 5.039632
-0.55,-6.159999200000001,-0.7112952     -5.660931
-0.55,-3.696,-4.979068000000001 -5.660931
-0.55,-2.4640000000000004,5.690364000000001     -5.660931
-0.55,3.696,-4.979068000000001  -5.660931
-0.55,2.4640000000000004,5.690364000000001      -5.660931
-0.55,6.159999200000001,-0.7112952      -5.660931
92.80000000000001,-1.2320000000000002,0.7112952 9.444068
92.80000000000001,0.0,-1.4225912        9.444068
92.80000000000001,1.2320000000000002,0.7112952  9.444068
41.050000000000004,-7.3919992,1.4225912 2.515516
41.050000000000004,-2.4640000000000004,-7.1129544       2.515516
41.050000000000004,2.4640000000000004,-7.1129544        2.515516
41.050000000000004,-4.9279992,5.690364000000001 2.515516
41.050000000000004,7.3919992,1.4225912  2.515516
41.050000000000004,4.9279992,5.690364000000001  2.515516
125.5,-7.3919992,-1.4225912     -2.519484
125.5,-2.4640000000000004,7.1129544     -2.519484
125.5,-4.9279992,-5.690364000000001     -2.519484
125.5,4.9279992,-5.690364000000001      -2.519484
125.5,7.3919992,-1.4225912      -2.519484
125.5,2.4640000000000004,7.1129544      -2.519484
175.70000000000002,-7.3919992,-0.0      -3.142907
175.70000000000002,-3.696,-6.401659200000001    -3.142907
175.70000000000002,-3.696,6.401659200000001     -3.142907
175.70000000000002,3.696,-6.401659200000001     -3.142907
175.70000000000002,7.3919992,-0.0       -3.142907
175.70000000000002,3.696,6.401659200000001      -3.142907
6.916406248,-3.696,-2.1338864   -8.177907
6.916406248,-3.696,2.1338864    -8.177907
6.916406248,3.696,2.1338864     -8.177907
6.916406248,3.696,-2.1338864    -8.177907
6.916406248,-0.0,-4.2677728     -8.177907
6.916406248,0.0,4.2677728       -8.177907
201.5,-3.696,-3.5564776000000005        7.550516
201.5,-4.9279992,-1.4225912     7.550516
201.5,-1.2320000000000002,4.979068000000001     7.550516
201.5,3.696,-3.5564776000000005 7.550516
201.5,1.2320000000000002,4.979068000000001      7.550516
201.5,4.9279992,-1.4225912      7.550516
-278.40000000000003,-3.696,3.5564776000000005   -7.554483
-278.40000000000003,-4.9279992,1.4225912        -7.554483
-278.40000000000003,-1.2320000000000002,-4.979068000000001      -7.554483
-278.40000000000003,1.2320000000000002,-4.979068000000001       -7.554483
-278.40000000000003,4.9279992,1.4225912 -7.554483
-278.40000000000003,3.696,3.5564776000000005    -7.554483
57.0125,-6.159999200000001,4.979068000000001    -0.625931
57.0125,-7.3919992,2.8451816    -0.625931
57.0125,-1.2320000000000002,-7.8242504  -0.625931
57.0125,1.2320000000000002,-7.8242504   -0.625931
57.0125,7.3919992,2.8451816     -0.625931
57.0125,6.159999200000001,4.979068000000001     -0.625931
-387.0,-0.0,-7.1129544  4.409069
-387.0,-6.159999200000001,3.5564776000000005    4.409069
-387.0,6.159999200000001,3.5564776000000005     4.409069

End of input

&SCF
Occupied
9
Iterations
   50  100
End of Input

&RASSCF
LumOrb
Symmetry
1
Spin
2
Nactel
1 0 0
CIRoot
9 9 1
inactive
9
ras2
9
End of Input

>>> COPY tungsten_so_cf.JobIph $SLURM_SUBMIT_DIR/tungsten_so_cf.doublet.JobIph

>>> COPY $SLURM_SUBMIT_DIR/tungsten_so_cf.doublet.JobIph ./JOB002

&RASSI
NROFJobIph
1 All
SpinOrbit
End of Input

EOF

-- ----------------------------------

--- Start Module: seward at Wed Mar 26 12:09:08 2025 ---

()()()()()()()()()()()()()()()()()()()()()()()()()()()()()()()()()()()()()()()()()()()()()()()()()()

                                              &SEWARD

                                   only a single process is used
                       available to each process: 4.1 GB of memory, 1 thread?
                                            pid: 3350451
()()()()()()()()()()()()()()()()()()()()()()()()()()()()()()()()()()()()()()()()()()()()()()()()()()

 The speed of LIGHT in this CALCULATION =   137.03599917700001     
               SEWARD will generate:
                  Multipole Moment integrals up to order  2
                  Kinetic Energy integrals
                  Nuclear Attraction integrals (point charge)
                  One-Electron Hamiltonian integrals
                  Velocity integrals
                  Relativistic Douglas-Kroll-Hess integrals:
                    - Parametrization         : EXP
                    - DKH order of Hamiltonian: 2
                    - DKH order of Properties : 0
                         - multipole moment operators
                         - electric potential operators
                         - contact operators
                  External field from   414 point(s) added to the one-electron Hamiltonian
                  Orbital angular momentum around (-0.0000 -0.0000  0.0088 )
                  Velocity quadrupole around (-0.0000 -0.0000  0.0088 )
                  Atomic mean-field integrals
                  Two-Electron Repulsion integrals

                   Integrals are discarded if absolute value <: 0.10E-13
                   Integral cutoff threshold is set to       <: 0.10E-15

++    Symmetry information:
      ---------------------

                    Character Table for C1 

                             E  
                    a        1  x, y, xy, Rz, z, xz, Ry, yz, Rx, I
--


++    Basis set information:
      ----------------------


      Basis set label: W.ANO-RCC.ROOS.24S21P15D11F4G2H.11S10P9D8F4G2H......

      Electronic valence basis set:
      ------------------
      Associated Effective Charge  74.000000 au
      Associated Actual Charge     74.000000 au
      Nuclear Model: Point charge

      Shell  nPrim  nBasis  Cartesian Spherical Contaminant
         s      24      11        X                  
         p      21      10        X                  
         d      15       9                 X         
         f      11       8                 X         
         g       4       4                 X         
         h       2       2                 X         
--


++    Molecular structure info:
      -------------------------

                    ************************************************ 
                    **** Cartesian Coordinates / Bohr, Angstrom **** 
                    ************************************************ 

     Center  Label                x              y              z                     x              y              z
        1      W               -0.000000      -0.000000       0.008754             -0.000000      -0.000000       0.004632
--


++    Operator info:
      --------------


  Net charge from external field:   -39.268449999999902     
--


            Nuclear Potential Energy              0.00000000 au

                    Nuclear-External Field Potential Energy    -846.27922241 au
                    External Field Potential Energy            2007.04612673 au 


            Total Nuclear Potential Energy           -846.27922241 au


      Basis set specifications :
      Symmetry species         a  
      Basis functions          200

 Sorry, Molden does not know how to handle
 functions with angular momentum larger than g
Note: The following floating-point exceptions are signalling: IEEE_UNDERFLOW_FLAG IEEE_DENORMAL
--- Stop Module: seward at Wed Mar 26 12:09:26 2025 /rc=_RC_ALL_IS_WELL_ ---
*** files: tungsten_so_cf.GssOrb xmldump
    saved to directory /home4/s4752295/Internship/Initial_simulations/Point_charge_model/1_electron/Madelung_charges_9_active_space/W
--- Module seward spent 18 seconds ---

*** symbolic link created: INPORB -> tungsten_so_cf.GssOrb
--- Start Module: scf at Wed Mar 26 12:09:26 2025 ---

()()()()()()()()()()()()()()()()()()()()()()()()()()()()()()()()()()()()()()()()()()()()()()()()()()

                                                &SCF

                                   only a single process is used
                       available to each process: 4.1 GB of memory, 1 thread?
                                            pid: 3350462
()()()()()()()()()()()()()()()()()()()()()()()()()()()()()()()()()()()()()()()()()()()()()()()()()()

++    Input section:
      --------------

      Header of the integral files:
      
       Integrals generated by seward 4.2.0  , Wed Mar 26 12:09:08 2025


      Cartesian coordinates in Angstrom:
      -----------------------------------------------------
      No.  Label        X            Y            Z        
      -----------------------------------------------------
       1   W         -0.00000000  -0.00000000   0.00463220
      -----------------------------------------------------
      Nuclear repulsion energy = -846.27922241
--

++    Orbital specifications:
      -----------------------

      Symmetry species               1
                                     a
      Frozen orbitals                0
      Occupied orbitals              9
      Secondary orbitals           191
      Deleted orbitals               0
      Total number of orbitals     200
      Number of basis functions    200
--

      Molecular charge                          56.000

++    Optimization specifications:
      ----------------------------

      SCF Algorithm: Conventional
      Minimized density differences are used
      Number of density matrices in core                5
      Maximum number of NDDO SCF iterations            50
      Maximum number of HF SCF iterations             100
      Threshold for SCF energy change            0.10E-08
      Threshold for density matrix               0.10E-03
      Threshold for Fock matrix                  0.15E-03
      Threshold for linear dependence            0.10E-08
      Threshold at which DIIS is turned on       0.15E+00
      Threshold at which QNR/C2DIIS is turned on 0.75E-01
      Threshold for Norm(delta) (QNR/C2DIIS)     0.20E-04
      DIIS extrapolation of the SCF procedure
      All orbitals punched on: SCFORB
--

      Detected guessorb starting orbitals                                             


++ Convergence information
                                   SCF        iterations: Energy and convergence statistics

Iter     Tot. SCF        One-elec.       Two-elec.     Energy      Max Dij or  Max Fij      DNorm      TNorm      AccCon     Time
         Energy          Energy          Energy        Change      Delta Norm                                                in Sec.

 The total and one-electron energies are shifted by a value of     13000. a.u.

   1  -554.429870833  -976.997615030  1268.846966605   0.00E+00    0.22E+00*   0.90E+01*    0.60E+01   0.65E+03   None         1.
   2  -565.502451547 -1033.100915303  1313.877686164  -0.11E+02*   0.16E-02*   0.20E+00*    0.90E+00   0.66E+03   EDIIS        1.
   3  -565.505570984 -1032.558367707  1313.332019131  -0.31E-02*   0.91E-04    0.38E-02*    0.99E-02   0.66E+03   EDIIS        1.
   4  -565.505572038 -1032.569106831  1313.342757202  -0.11E-05*   0.49E-05    0.16E-03*    0.28E-03   0.66E+03   c2DIIS       1.
   5  -565.505572040 -1032.568990820  1313.342641188  -0.22E-08*   0.39E-06    0.96E-05     0.56E-05   0.66E+03   QNRc2DIIS    1.
   6  -565.505572040 -1032.568991377  1313.342641745   0.18E-11    0.33E-07    0.89E-06     0.10E-02   0.66E+03   QNRc2DIIS    1.

       Convergence after  6 Macro Iterations
--

 *****************************************************************************************************************************
 *                                                                                                                           *
 *                                             SCF/KS-DFT Program, Final results                                             *
 *                                                                                                                           *
 *                                                                                                                           *
 *                                                                                                                           *
 *                                                       Final Results                                                       *
 *                                                                                                                           *
 *****************************************************************************************************************************

::    Total SCF energy                             -13565.5055720398
      One-electron energy                          -14032.5689913766
      Two-electron energy                            1313.3426417454
      Nuclear repulsion energy                       -846.2792224085
      Kinetic energy (interpolated)                 19280.3616361032
      Virial theorem                                    0.7035918635
      Total spin, S(S+1)                                0.0000000000
      Total spin, S                                     0.0000000000
      Max non-diagonal density matrix element           0.0000000445
      Max non-diagonal Fock matrix element              0.0000000607


      All orbitals with orbital energies smaller than  E(LUMO)+0.5 are printed

++    Molecular orbitals:
      -------------------

      Title: SCF orbitals

      Molecular orbitals for symmetry species 1: a  

          Some orbital energies have been scaled by powers of 10, the power is written right after the orbital index


          Orbital            1 (1)     2         3         4         5         6         7         8         9        10    
          Energy         -270.3599 -582.8671 -528.9179 -528.9179 -528.9172 -219.9398 -203.2631 -203.2631 -203.2571 -183.2885
          Occ. No.          2.0000    2.0000    2.0000    2.0000    2.0000    2.0000    2.0000    2.0000    2.0000    0.0000

        1 W      1s         1.0000    0.0001    0.0000    0.0000   -0.0000   -0.0000   -0.0000    0.0000    0.0000   -0.0000
        2 W      2s        -0.0001    0.9999    0.0000    0.0000   -0.0006    0.0122    0.0000   -0.0000   -0.0002    0.0000
        3 W      3s         0.0000   -0.0118   -0.0000   -0.0000    0.0001    0.9952    0.0000   -0.0000   -0.0084    0.0000
        4 W      4s        -0.0000    0.0034    0.0000    0.0000   -0.0000   -0.0799   -0.0000    0.0000    0.0012   -0.0000
        5 W      5s         0.0000   -0.0012   -0.0000   -0.0000    0.0000    0.0234    0.0000   -0.0000   -0.0003    0.0000
        6 W      6s        -0.0000    0.0003    0.0000    0.0000   -0.0000   -0.0062   -0.0000    0.0000    0.0001   -0.0000
        7 W      7s         0.0000   -0.0004   -0.0000   -0.0000    0.0000    0.0069    0.0000   -0.0000   -0.0001   -0.0000
        8 W      8s        -0.0000    0.0010    0.0000    0.0000   -0.0000   -0.0175   -0.0000    0.0000    0.0003    0.0000
        9 W      9s         0.0000   -0.0013   -0.0000   -0.0000    0.0000    0.0223    0.0000   -0.0000   -0.0003    0.0000
       10 W     10s        -0.0000    0.0016    0.0000    0.0000   -0.0000   -0.0252   -0.0000    0.0000    0.0004   -0.0000
       11 W     11s         0.0000   -0.0024   -0.0000   -0.0000    0.0000    0.0312    0.0000   -0.0000   -0.0005    0.0000
       12 W      2px        0.0000    0.0006   -0.0035   -0.0000    0.9999    0.0001   -0.0000    0.0000    0.0143    0.0000
       13 W      3px       -0.0000    0.0000    0.0000    0.0000   -0.0137    0.0085   -0.0031    0.0000    0.9931    0.0000
       14 W      4px        0.0000   -0.0000   -0.0000   -0.0000    0.0038   -0.0004    0.0003   -0.0000   -0.0913   -0.0000
       15 W      5px       -0.0000    0.0000    0.0000    0.0000   -0.0012    0.0001   -0.0001    0.0000    0.0253    0.0000
       16 W      6px        0.0000   -0.0000   -0.0000   -0.0000    0.0005   -0.0000    0.0000   -0.0000   -0.0102   -0.0000
       17 W      7px       -0.0000    0.0000    0.0000    0.0000   -0.0016    0.0001   -0.0001    0.0000    0.0303    0.0000
       18 W      8px        0.0000   -0.0000   -0.0000   -0.0000    0.0017   -0.0001    0.0001   -0.0000   -0.0301   -0.0000
       19 W      9px       -0.0000    0.0000    0.0000    0.0000   -0.0019    0.0001   -0.0001    0.0000    0.0310    0.0000
       20 W     10px        0.0000   -0.0000   -0.0000   -0.0000    0.0020   -0.0001    0.0001   -0.0000   -0.0284   -0.0000
       21 W     11px       -0.0000    0.0000    0.0000    0.0000   -0.0027    0.0001   -0.0001    0.0000    0.0287    0.0000
       22 W      2py        0.0000    0.0000   -0.0001    0.9999   -0.0000   -0.0000    0.0000    0.0143    0.0000    0.0000
       23 W      3py       -0.0000   -0.0000    0.0000   -0.0137    0.0000   -0.0000    0.0000    0.9931    0.0000    0.0000
       24 W      4py        0.0000    0.0000   -0.0000    0.0038   -0.0000    0.0000   -0.0000   -0.0913   -0.0000   -0.0000
       25 W      5py       -0.0000   -0.0000    0.0000   -0.0012    0.0000   -0.0000    0.0000    0.0253    0.0000    0.0000
       26 W      6py        0.0000    0.0000   -0.0000    0.0005   -0.0000    0.0000   -0.0000   -0.0102   -0.0000   -0.0000
       27 W      7py       -0.0000   -0.0000    0.0000   -0.0016    0.0000   -0.0000    0.0000    0.0303    0.0000    0.0000
       28 W      8py        0.0000    0.0000   -0.0000    0.0017   -0.0000    0.0000   -0.0000   -0.0301   -0.0000   -0.0000
       29 W      9py       -0.0000   -0.0000    0.0000   -0.0019    0.0000   -0.0000    0.0000    0.0310    0.0000    0.0000
       30 W     10py        0.0000    0.0000   -0.0000    0.0020   -0.0000    0.0000   -0.0000   -0.0284   -0.0000   -0.0000
       31 W     11py       -0.0000   -0.0000    0.0000   -0.0027    0.0000   -0.0000    0.0000    0.0287    0.0000    0.0000
       32 W      2pz        0.0000    0.0000    0.9999    0.0001    0.0035    0.0000    0.0143   -0.0000    0.0000   -0.0000
       33 W      3pz       -0.0000    0.0000   -0.0137   -0.0000   -0.0000    0.0000    0.9931   -0.0000    0.0031   -0.0000
       34 W      4pz        0.0000   -0.0000    0.0038    0.0000    0.0000   -0.0000   -0.0913    0.0000   -0.0003    0.0000
       35 W      5pz       -0.0000    0.0000   -0.0012   -0.0000   -0.0000    0.0000    0.0253   -0.0000    0.0001   -0.0000
       36 W      6pz        0.0000   -0.0000    0.0005    0.0000    0.0000   -0.0000   -0.0102    0.0000   -0.0000   -0.0000
       37 W      7pz       -0.0000    0.0000   -0.0016   -0.0000   -0.0000    0.0000    0.0303   -0.0000    0.0001   -0.0000
       38 W      8pz        0.0000   -0.0000    0.0017    0.0000    0.0000   -0.0000   -0.0301    0.0000   -0.0001    0.0000
       39 W      9pz       -0.0000    0.0000   -0.0019   -0.0000   -0.0000    0.0000    0.0310   -0.0000    0.0001    0.0000
       40 W     10pz        0.0000   -0.0000    0.0020    0.0000    0.0000   -0.0000   -0.0284    0.0000   -0.0001    0.0000
       41 W     11pz       -0.0000    0.0000   -0.0027   -0.0000   -0.0000    0.0000    0.0287   -0.0000    0.0001    0.0000
       42 W      3d2-      -0.0000   -0.0000   -0.0000    0.0001   -0.0000   -0.0000    0.0000    0.0057    0.0000   -0.0051
       43 W      4d2-       0.0000    0.0000    0.0000   -0.0000    0.0000    0.0000   -0.0000   -0.0002   -0.0000    0.0005
       44 W      5d2-      -0.0000   -0.0000   -0.0000    0.0000   -0.0000   -0.0000    0.0000    0.0000    0.0000   -0.0001
       45 W      6d2-       0.0000    0.0000    0.0000   -0.0000    0.0000    0.0000   -0.0000   -0.0000   -0.0000    0.0001
       46 W      7d2-      -0.0000   -0.0000   -0.0000    0.0000   -0.0000   -0.0000    0.0000    0.0000    0.0000   -0.0002
       47 W      8d2-       0.0000    0.0000    0.0000   -0.0000    0.0000    0.0000   -0.0000   -0.0000   -0.0000    0.0002
       48 W      9d2-      -0.0000   -0.0000   -0.0000    0.0000   -0.0000   -0.0000    0.0000    0.0000    0.0000   -0.0002
       49 W     10d2-       0.0000    0.0000    0.0000   -0.0000    0.0000    0.0000    0.0000    0.0000    0.0000    0.0002
       50 W     11d2-      -0.0000   -0.0000   -0.0000    0.0000   -0.0000   -0.0000   -0.0000   -0.0000   -0.0000   -0.0002
       51 W      3d1-       0.0000   -0.0000   -0.0000    0.0000   -0.0000   -0.0000    0.0000    0.0000    0.0000    0.9917
       52 W      4d1-      -0.0000    0.0000    0.0000   -0.0000    0.0000    0.0000   -0.0000   -0.0000   -0.0000   -0.0959
       53 W      5d1-       0.0000   -0.0000   -0.0000    0.0000   -0.0000   -0.0000   -0.0000   -0.0000   -0.0000    0.0186
       54 W      6d1-      -0.0000    0.0000   -0.0000    0.0000    0.0000    0.0000   -0.0000   -0.0000   -0.0000   -0.0254
       55 W      7d1-       0.0000   -0.0000   -0.0000    0.0000   -0.0000   -0.0000   -0.0000   -0.0000    0.0000    0.0328
       56 W      8d1-      -0.0000    0.0000    0.0000   -0.0000    0.0000    0.0000    0.0000    0.0000   -0.0000   -0.0372
       57 W      9d1-       0.0000    0.0000    0.0000   -0.0000   -0.0000    0.0000    0.0000    0.0000    0.0000    0.0370
       58 W     10d1-      -0.0000   -0.0000    0.0000   -0.0000    0.0000   -0.0000    0.0000    0.0000   -0.0000   -0.0397
       59 W     11d1-       0.0000    0.0000   -0.0000    0.0000   -0.0000    0.0000    0.0000    0.0000    0.0000    0.0299
       60 W      3d0        0.0000    0.0000    0.0000    0.0000   -0.0000    0.0000    0.0000   -0.0000   -0.0033   -0.0000
       61 W      4d0       -0.0000   -0.0000   -0.0000   -0.0000    0.0000    0.0000   -0.0000    0.0000    0.0001    0.0000
       62 W      5d0        0.0000    0.0000    0.0000    0.0000   -0.0000   -0.0000    0.0000   -0.0000   -0.0000   -0.0000
       63 W      6d0       -0.0000   -0.0000   -0.0000   -0.0000    0.0000    0.0000    0.0000   -0.0000    0.0000    0.0000
       64 W      7d0        0.0000    0.0000    0.0000    0.0000   -0.0000   -0.0000    0.0000   -0.0000   -0.0000   -0.0000
       65 W      8d0       -0.0000   -0.0000   -0.0000   -0.0000    0.0000    0.0000   -0.0000    0.0000    0.0000    0.0000
       66 W      9d0        0.0000    0.0000    0.0000    0.0000   -0.0000   -0.0000   -0.0000    0.0000   -0.0000   -0.0000
       67 W     10d0       -0.0000   -0.0000   -0.0000   -0.0000    0.0000    0.0000   -0.0000    0.0000   -0.0000    0.0000
       68 W     11d0        0.0000    0.0000    0.0000    0.0000   -0.0000   -0.0000   -0.0000    0.0000    0.0000   -0.0000
       69 W      3d1+      -0.0000   -0.0000    0.0001    0.0000    0.0000   -0.0000    0.0057   -0.0000    0.0000    0.0000
       70 W      4d1+       0.0000    0.0000   -0.0000   -0.0000   -0.0000   -0.0000   -0.0002    0.0000   -0.0000   -0.0000
       71 W      5d1+      -0.0000   -0.0000    0.0000    0.0000    0.0000    0.0000    0.0000   -0.0000    0.0000    0.0000
       72 W      6d1+       0.0000    0.0000   -0.0000   -0.0000   -0.0000   -0.0000   -0.0000    0.0000   -0.0000   -0.0000
       73 W      7d1+      -0.0000   -0.0000    0.0000    0.0000    0.0000    0.0000    0.0000   -0.0000    0.0000    0.0000
       74 W      8d1+       0.0000    0.0000   -0.0000   -0.0000   -0.0000   -0.0000   -0.0000    0.0000   -0.0000   -0.0000
       75 W      9d1+      -0.0000   -0.0000    0.0000    0.0000    0.0000    0.0000    0.0000   -0.0000    0.0000    0.0000
       76 W     10d1+       0.0000    0.0000   -0.0000   -0.0000   -0.0000   -0.0000    0.0000   -0.0000    0.0000   -0.0000
       77 W     11d1+      -0.0000   -0.0000    0.0000    0.0000    0.0000    0.0000   -0.0000    0.0000   -0.0000    0.0000
       78 W      3d2+      -0.0000   -0.0000   -0.0000   -0.0000    0.0001   -0.0001   -0.0000    0.0000    0.0058   -0.0000
       79 W      4d2+       0.0000    0.0000    0.0000    0.0000   -0.0000   -0.0000    0.0000   -0.0000   -0.0002    0.0000
       80 W      5d2+      -0.0000   -0.0000   -0.0000   -0.0000    0.0000    0.0000   -0.0000    0.0000    0.0000   -0.0000
       81 W      6d2+       0.0000    0.0000    0.0000    0.0000   -0.0000   -0.0000    0.0000   -0.0000   -0.0000    0.0000
       82 W      7d2+      -0.0000   -0.0000   -0.0000   -0.0000    0.0000    0.0000    0.0000   -0.0000    0.0000   -0.0000
       83 W      8d2+       0.0000    0.0000    0.0000    0.0000   -0.0000   -0.0000    0.0000   -0.0000   -0.0000    0.0000
       84 W      9d2+      -0.0000   -0.0000   -0.0000   -0.0000    0.0000    0.0000   -0.0000    0.0000    0.0000   -0.0000
       85 W     10d2+       0.0000    0.0000    0.0000    0.0000   -0.0000   -0.0000   -0.0000    0.0000    0.0000    0.0000
       86 W     11d2+      -0.0000   -0.0000   -0.0000   -0.0000    0.0000    0.0000    0.0000   -0.0000   -0.0000   -0.0000
       87 W      4f3-       0.0000   -0.0000    0.0000   -0.0000    0.0000   -0.0000   -0.0000   -0.0000   -0.0000   -0.0000
       88 W      5f3-      -0.0000    0.0000   -0.0000    0.0000   -0.0000   -0.0000    0.0000    0.0000    0.0000    0.0000
       89 W      6f3-       0.0000   -0.0000    0.0000   -0.0000    0.0000    0.0000   -0.0000   -0.0000   -0.0000   -0.0000
       90 W      7f3-      -0.0000   -0.0000   -0.0000    0.0000   -0.0000   -0.0000    0.0000    0.0000    0.0000    0.0000
       91 W      8f3-       0.0000    0.0000    0.0000   -0.0000    0.0000    0.0000   -0.0000   -0.0000   -0.0000   -0.0000
       92 W      9f3-      -0.0000   -0.0000   -0.0000    0.0000   -0.0000   -0.0000    0.0000    0.0000    0.0000    0.0000
       93 W     10f3-       0.0000    0.0000    0.0000   -0.0000    0.0000    0.0000   -0.0000   -0.0000   -0.0000   -0.0000
       94 W     11f3-      -0.0000   -0.0000   -0.0000    0.0000   -0.0000   -0.0000    0.0000    0.0000    0.0000    0.0000
       95 W      4f2-       0.0000    0.0000    0.0000   -0.0000    0.0000    0.0000   -0.0000   -0.0000   -0.0000    0.0005
       96 W      5f2-      -0.0000   -0.0000   -0.0000    0.0000   -0.0000   -0.0000    0.0000    0.0000    0.0000   -0.0004
       97 W      6f2-       0.0000    0.0000   -0.0000    0.0000    0.0000    0.0000   -0.0000   -0.0000   -0.0000    0.0003
       98 W      7f2-      -0.0000   -0.0000   -0.0000    0.0000   -0.0000    0.0000   -0.0000   -0.0000   -0.0000   -0.0003
       99 W      8f2-       0.0000    0.0000   -0.0000    0.0000   -0.0000    0.0000   -0.0000   -0.0000   -0.0000    0.0003
      100 W      9f2-      -0.0000   -0.0000    0.0000   -0.0000    0.0000   -0.0000    0.0000    0.0000   -0.0000   -0.0002
      101 W     10f2-       0.0000    0.0000    0.0000   -0.0000   -0.0000   -0.0000    0.0000    0.0000    0.0000    0.0002
      102 W     11f2-      -0.0000   -0.0000    0.0000   -0.0000    0.0000    0.0000    0.0000    0.0000   -0.0000   -0.0001
      103 W      4f1-       0.0000    0.0000   -0.0000    0.0000   -0.0000    0.0000    0.0000    0.0000    0.0000    0.0000
      104 W      5f1-      -0.0000   -0.0000    0.0000   -0.0000    0.0000   -0.0000   -0.0000   -0.0000   -0.0000   -0.0000
      105 W      6f1-       0.0000    0.0000   -0.0000    0.0000   -0.0000    0.0000    0.0000    0.0000    0.0000    0.0000
      106 W      7f1-      -0.0000   -0.0000    0.0000   -0.0000    0.0000   -0.0000   -0.0000   -0.0000   -0.0000   -0.0000
      107 W      8f1-       0.0000    0.0000   -0.0000    0.0000   -0.0000    0.0000    0.0000    0.0000    0.0000    0.0000
      108 W      9f1-      -0.0000    0.0000    0.0000   -0.0000    0.0000   -0.0000   -0.0000   -0.0000   -0.0000   -0.0000
      109 W     10f1-      -0.0000   -0.0000   -0.0000    0.0000   -0.0000   -0.0000    0.0000    0.0000    0.0000    0.0000
      110 W     11f1-       0.0000    0.0000    0.0000   -0.0000    0.0000    0.0000   -0.0000   -0.0000    0.0000   -0.0000
      111 W      4f0       -0.0000    0.0000    0.0000    0.0000    0.0000   -0.0000    0.0000   -0.0000    0.0000   -0.0000
      112 W      5f0       -0.0000    0.0000   -0.0000   -0.0000   -0.0000   -0.0000   -0.0000    0.0000   -0.0000    0.0000
      113 W      6f0       -0.0000    0.0000    0.0000    0.0000   -0.0000   -0.0000    0.0000   -0.0000    0.0000   -0.0000
      114 W      7f0       -0.0000    0.0000   -0.0000   -0.0000   -0.0000   -0.0000   -0.0000    0.0000    0.0000    0.0000
      115 W      8f0        0.0000   -0.0000    0.0000    0.0000   -0.0000    0.0000    0.0000   -0.0000    0.0000   -0.0000
      116 W      9f0        0.0000   -0.0000   -0.0000   -0.0000    0.0000    0.0000   -0.0000    0.0000   -0.0000    0.0000
      117 W     10f0        0.0000   -0.0000    0.0000    0.0000    0.0000    0.0000    0.0000   -0.0000   -0.0000   -0.0000
      118 W     11f0        0.0000   -0.0000   -0.0000   -0.0000   -0.0000    0.0000   -0.0000    0.0000   -0.0000    0.0000
      119 W      4f1+       0.0000   -0.0000   -0.0000   -0.0000    0.0000   -0.0000   -0.0000    0.0000    0.0000   -0.0000
      120 W      5f1+       0.0000   -0.0000   -0.0000   -0.0000   -0.0000    0.0000    0.0000   -0.0000   -0.0000    0.0000
      121 W      6f1+       0.0000   -0.0000   -0.0000   -0.0000    0.0000    0.0000    0.0000   -0.0000    0.0000   -0.0000
      122 W      7f1+       0.0000   -0.0000   -0.0000   -0.0000   -0.0000    0.0000    0.0000   -0.0000   -0.0000    0.0000
      123 W      8f1+      -0.0000    0.0000   -0.0000   -0.0000    0.0000   -0.0000    0.0000   -0.0000    0.0000   -0.0000
      124 W      9f1+      -0.0000    0.0000    0.0000    0.0000   -0.0000   -0.0000   -0.0000    0.0000   -0.0000    0.0000
      125 W     10f1+       0.0000   -0.0000    0.0000    0.0000    0.0000   -0.0000   -0.0000    0.0000    0.0000   -0.0000
      126 W     11f1+      -0.0000    0.0000    0.0000    0.0000   -0.0000    0.0000   -0.0000    0.0000   -0.0000    0.0000
      127 W      4f2+      -0.0000    0.0000   -0.0000   -0.0000   -0.0000    0.0000   -0.0000    0.0000   -0.0000    0.0000
      128 W      5f2+      -0.0000    0.0000    0.0000    0.0000    0.0000   -0.0000    0.0000   -0.0000    0.0000   -0.0000
      129 W      6f2+      -0.0000    0.0000   -0.0000   -0.0000   -0.0000   -0.0000   -0.0000    0.0000    0.0000    0.0000
      130 W      7f2+      -0.0000    0.0000    0.0000    0.0000   -0.0000   -0.0000    0.0000   -0.0000    0.0000   -0.0000
      131 W      8f2+       0.0000   -0.0000   -0.0000   -0.0000   -0.0000    0.0000   -0.0000    0.0000    0.0000    0.0000
      132 W      9f2+       0.0000   -0.0000    0.0000    0.0000    0.0000    0.0000    0.0000   -0.0000   -0.0000   -0.0000
      133 W     10f2+       0.0000   -0.0000   -0.0000   -0.0000    0.0000    0.0000   -0.0000    0.0000   -0.0000    0.0000
      134 W     11f2+       0.0000   -0.0000    0.0000    0.0000    0.0000    0.0000    0.0000   -0.0000   -0.0000   -0.0000
      135 W      4f3+      -0.0000    0.0000    0.0000    0.0000   -0.0000    0.0000    0.0000   -0.0000   -0.0000   -0.0000
      136 W      5f3+      -0.0000    0.0000   -0.0000   -0.0000    0.0000   -0.0000   -0.0000    0.0000    0.0000    0.0000
      137 W      6f3+      -0.0000    0.0000   -0.0000   -0.0000   -0.0000   -0.0000    0.0000   -0.0000   -0.0000   -0.0000
      138 W      7f3+      -0.0000    0.0000   -0.0000   -0.0000    0.0000   -0.0000    0.0000   -0.0000    0.0000    0.0000
      139 W      8f3+       0.0000   -0.0000   -0.0000   -0.0000   -0.0000    0.0000    0.0000   -0.0000   -0.0000   -0.0000
      140 W      9f3+       0.0000   -0.0000    0.0000    0.0000    0.0000    0.0000   -0.0000    0.0000    0.0000    0.0000
      141 W     10f3+      -0.0000    0.0000    0.0000    0.0000   -0.0000    0.0000   -0.0000    0.0000   -0.0000   -0.0000
      142 W     11f3+       0.0000   -0.0000    0.0000    0.0000    0.0000   -0.0000   -0.0000    0.0000    0.0000    0.0000
      143 W      5g4-      -0.0000    0.0000   -0.0000    0.0000    0.0000   -0.0000    0.0000    0.0000    0.0000    0.0000
      144 W      6g4-       0.0000   -0.0000    0.0000   -0.0000   -0.0000    0.0000   -0.0000   -0.0000   -0.0000   -0.0000
      145 W      7g4-      -0.0000    0.0000    0.0000   -0.0000    0.0000   -0.0000    0.0000    0.0000    0.0000   -0.0000
      146 W      8g4-       0.0000   -0.0000    0.0000   -0.0000    0.0000    0.0000    0.0000    0.0000    0.0000   -0.0000
      147 W      5g3-       0.0000    0.0000    0.0000   -0.0000    0.0000    0.0000   -0.0000   -0.0000    0.0000   -0.0000
      148 W      6g3-      -0.0000   -0.0000   -0.0000    0.0000   -0.0000   -0.0000   -0.0000   -0.0000   -0.0000    0.0000
      149 W      7g3-       0.0000    0.0000   -0.0000    0.0000   -0.0000    0.0000   -0.0000   -0.0000   -0.0000   -0.0000
      150 W      8g3-      -0.0000   -0.0000   -0.0000    0.0000   -0.0000   -0.0000   -0.0000   -0.0000   -0.0000    0.0000
      151 W      5g2-       0.0000   -0.0000    0.0000   -0.0000    0.0000   -0.0000   -0.0000   -0.0000   -0.0000   -0.0000
      152 W      6g2-      -0.0000    0.0000   -0.0000    0.0000   -0.0000    0.0000    0.0000    0.0000    0.0000    0.0000
      153 W      7g2-       0.0000   -0.0000   -0.0000    0.0000   -0.0000   -0.0000   -0.0000   -0.0000   -0.0000    0.0000
      154 W      8g2-      -0.0000    0.0000   -0.0000    0.0000   -0.0000    0.0000   -0.0000   -0.0000   -0.0000    0.0000
      155 W      5g1-       0.0000   -0.0000   -0.0000    0.0000    0.0000    0.0000    0.0000    0.0000   -0.0000    0.0000
      156 W      6g1-      -0.0000    0.0000    0.0000   -0.0000   -0.0000   -0.0000    0.0000    0.0000    0.0000   -0.0000
      157 W      7g1-       0.0000   -0.0000    0.0000   -0.0000    0.0000    0.0000    0.0000    0.0000   -0.0000    0.0000
      158 W      8g1-      -0.0000    0.0000    0.0000   -0.0000   -0.0000   -0.0000    0.0000    0.0000    0.0000   -0.0000
      159 W      5g0        0.0000   -0.0000   -0.0000   -0.0000    0.0000    0.0000   -0.0000    0.0000    0.0000   -0.0000
      160 W      6g0        0.0000   -0.0000    0.0000    0.0000    0.0000    0.0000   -0.0000    0.0000   -0.0000    0.0000
      161 W      7g0        0.0000   -0.0000    0.0000    0.0000    0.0000    0.0000   -0.0000    0.0000   -0.0000   -0.0000
      162 W      8g0        0.0000   -0.0000    0.0000    0.0000   -0.0000    0.0000   -0.0000    0.0000   -0.0000    0.0000
      163 W      5g1+      -0.0000    0.0000   -0.0000   -0.0000    0.0000   -0.0000   -0.0000    0.0000    0.0000    0.0000
      164 W      6g1+      -0.0000    0.0000    0.0000    0.0000   -0.0000   -0.0000    0.0000   -0.0000    0.0000    0.0000
      165 W      7g1+      -0.0000    0.0000    0.0000    0.0000   -0.0000   -0.0000   -0.0000    0.0000    0.0000    0.0000
      166 W      8g1+      -0.0000    0.0000    0.0000    0.0000   -0.0000   -0.0000   -0.0000    0.0000    0.0000    0.0000
      167 W      5g2+      -0.0000    0.0000    0.0000    0.0000   -0.0000   -0.0000    0.0000   -0.0000   -0.0000    0.0000
      168 W      6g2+      -0.0000    0.0000   -0.0000   -0.0000   -0.0000   -0.0000    0.0000   -0.0000    0.0000   -0.0000
      169 W      7g2+      -0.0000    0.0000   -0.0000   -0.0000   -0.0000   -0.0000    0.0000   -0.0000    0.0000    0.0000
      170 W      8g2+      -0.0000    0.0000   -0.0000   -0.0000    0.0000   -0.0000    0.0000   -0.0000    0.0000   -0.0000
      171 W      5g3+      -0.0000    0.0000    0.0000    0.0000    0.0000   -0.0000    0.0000   -0.0000    0.0000    0.0000
      172 W      6g3+      -0.0000    0.0000   -0.0000   -0.0000   -0.0000   -0.0000   -0.0000    0.0000    0.0000   -0.0000
      173 W      7g3+      -0.0000    0.0000   -0.0000   -0.0000   -0.0000   -0.0000    0.0000   -0.0000    0.0000   -0.0000
      174 W      8g3+      -0.0000    0.0000   -0.0000   -0.0000   -0.0000   -0.0000    0.0000   -0.0000    0.0000   -0.0000
      175 W      5g4+       0.0000   -0.0000    0.0000    0.0000    0.0000    0.0000    0.0000   -0.0000    0.0000    0.0000
      176 W      6g4+       0.0000   -0.0000   -0.0000   -0.0000    0.0000    0.0000    0.0000   -0.0000   -0.0000   -0.0000
      177 W      7g4+       0.0000   -0.0000   -0.0000   -0.0000    0.0000    0.0000    0.0000   -0.0000   -0.0000    0.0000
      178 W      8g4+       0.0000   -0.0000   -0.0000   -0.0000   -0.0000    0.0000    0.0000   -0.0000   -0.0000   -0.0000
      179 W      6h5-      -0.0000   -0.0000    0.0000   -0.0000   -0.0000   -0.0000   -0.0000   -0.0000    0.0000   -0.0000
      180 W      7h5-       0.0000    0.0000    0.0000   -0.0000   -0.0000    0.0000    0.0000    0.0000    0.0000   -0.0000
      181 W      6h4-       0.0000    0.0000    0.0000   -0.0000    0.0000    0.0000    0.0000    0.0000    0.0000    0.0000
      182 W      7h4-      -0.0000    0.0000   -0.0000    0.0000   -0.0000    0.0000   -0.0000   -0.0000   -0.0000   -0.0000
      183 W      6h3-       0.0000    0.0000   -0.0000    0.0000    0.0000    0.0000    0.0000    0.0000    0.0000    0.0000
      184 W      7h3-      -0.0000   -0.0000   -0.0000    0.0000   -0.0000   -0.0000   -0.0000   -0.0000    0.0000    0.0000
      185 W      6h2-      -0.0000    0.0000   -0.0000    0.0000   -0.0000    0.0000   -0.0000   -0.0000   -0.0000   -0.0000
      186 W      7h2-       0.0000    0.0000   -0.0000    0.0000   -0.0000    0.0000   -0.0000   -0.0000   -0.0000    0.0000
      187 W      6h1-       0.0000   -0.0000    0.0000   -0.0000   -0.0000    0.0000    0.0000    0.0000    0.0000    0.0000
      188 W      7h1-      -0.0000    0.0000    0.0000   -0.0000   -0.0000   -0.0000    0.0000    0.0000   -0.0000    0.0000
      189 W      6h0        0.0000   -0.0000   -0.0000   -0.0000   -0.0000    0.0000   -0.0000    0.0000    0.0000   -0.0000
      190 W      7h0        0.0000   -0.0000   -0.0000   -0.0000   -0.0000    0.0000    0.0000   -0.0000    0.0000   -0.0000
      191 W      6h1+      -0.0000    0.0000    0.0000    0.0000   -0.0000   -0.0000    0.0000   -0.0000    0.0000    0.0000
      192 W      7h1+      -0.0000    0.0000    0.0000    0.0000   -0.0000   -0.0000   -0.0000    0.0000    0.0000   -0.0000
      193 W      6h2+      -0.0000    0.0000    0.0000    0.0000    0.0000   -0.0000    0.0000   -0.0000   -0.0000    0.0000
      194 W      7h2+      -0.0000    0.0000    0.0000    0.0000    0.0000   -0.0000   -0.0000    0.0000   -0.0000    0.0000
      195 W      6h3+       0.0000   -0.0000    0.0000    0.0000    0.0000    0.0000   -0.0000    0.0000   -0.0000   -0.0000
      196 W      7h3+       0.0000   -0.0000    0.0000    0.0000    0.0000    0.0000   -0.0000    0.0000   -0.0000    0.0000
      197 W      6h4+      -0.0000    0.0000   -0.0000   -0.0000    0.0000   -0.0000   -0.0000    0.0000   -0.0000   -0.0000
      198 W      7h4+      -0.0000    0.0000   -0.0000   -0.0000    0.0000   -0.0000    0.0000   -0.0000   -0.0000   -0.0000
      199 W      6h5+      -0.0000    0.0000    0.0000    0.0000   -0.0000   -0.0000   -0.0000    0.0000    0.0000   -0.0000
      200 W      7h5+      -0.0000    0.0000    0.0000    0.0000   -0.0000   -0.0000   -0.0000    0.0000    0.0000    0.0000

          Orbital           11        12        13        14    
          Energy         -183.2885 -183.2853 -183.2853 -183.2842
          Occ. No.          0.0000    0.0000    0.0000    0.0000

        1 W      1s        -0.0000    0.0000    0.0000   -0.0000
        2 W      2s        -0.0000   -0.0000    0.0000    0.0000
        3 W      3s        -0.0000   -0.0000    0.0000    0.0001
        4 W      4s         0.0000   -0.0000   -0.0000   -0.0000
        5 W      5s        -0.0000    0.0000    0.0000    0.0000
        6 W      6s         0.0000   -0.0000    0.0000   -0.0000
        7 W      7s         0.0000    0.0000   -0.0000    0.0000
        8 W      8s        -0.0000    0.0000   -0.0000   -0.0000
        9 W      9s        -0.0000    0.0000    0.0000    0.0000
       10 W     10s         0.0000    0.0000   -0.0000   -0.0000
       11 W     11s        -0.0000   -0.0000    0.0000    0.0000
       12 W      2px       -0.0000    0.0000   -0.0000   -0.0002
       13 W      3px       -0.0000    0.0000   -0.0000   -0.0065
       14 W      4px        0.0000   -0.0000    0.0000    0.0009
       15 W      5px       -0.0000    0.0000   -0.0000   -0.0003
       16 W      6px        0.0000   -0.0000    0.0000    0.0001
       17 W      7px       -0.0000    0.0000   -0.0000   -0.0003
       18 W      8px        0.0000   -0.0000    0.0000    0.0003
       19 W      9px       -0.0000    0.0000   -0.0000   -0.0003
       20 W     10px        0.0000   -0.0000    0.0000    0.0003
       21 W     11px       -0.0000    0.0000   -0.0000   -0.0003
       22 W      2py        0.0000   -0.0000   -0.0002    0.0000
       23 W      3py        0.0000   -0.0000   -0.0056    0.0000
       24 W      4py       -0.0000    0.0000    0.0008   -0.0000
       25 W      5py        0.0000   -0.0000   -0.0002    0.0000
       26 W      6py       -0.0000    0.0000    0.0001   -0.0000
       27 W      7py        0.0000   -0.0000   -0.0003    0.0000
       28 W      8py       -0.0000    0.0000    0.0003   -0.0000
       29 W      9py        0.0000   -0.0000   -0.0003    0.0000
       30 W     10py       -0.0000    0.0000    0.0003   -0.0000
       31 W     11py        0.0000   -0.0000   -0.0002    0.0000
       32 W      2pz        0.0000   -0.0002    0.0000   -0.0000
       33 W      3pz        0.0000   -0.0056    0.0000   -0.0000
       34 W      4pz       -0.0000    0.0008   -0.0000    0.0000
       35 W      5pz        0.0000   -0.0002    0.0000   -0.0000
       36 W      6pz        0.0000    0.0001   -0.0000    0.0000
       37 W      7pz        0.0000   -0.0003    0.0000   -0.0000
       38 W      8pz       -0.0000    0.0003   -0.0000    0.0000
       39 W      9pz       -0.0000   -0.0003    0.0000   -0.0000
       40 W     10pz       -0.0000    0.0003   -0.0000    0.0000
       41 W     11pz       -0.0000   -0.0002    0.0000   -0.0000
       42 W      3d2-      -0.0000    0.0000    0.9917   -0.0000
       43 W      4d2-       0.0000   -0.0000   -0.0959    0.0000
       44 W      5d2-      -0.0000    0.0000    0.0186   -0.0000
       45 W      6d2-       0.0000   -0.0000   -0.0254    0.0000
       46 W      7d2-      -0.0000    0.0000    0.0328   -0.0000
       47 W      8d2-       0.0000   -0.0000   -0.0372    0.0000
       48 W      9d2-      -0.0000    0.0000    0.0370   -0.0000
       49 W     10d2-       0.0000   -0.0000   -0.0397    0.0000
       50 W     11d2-      -0.0000    0.0000    0.0299   -0.0000
       51 W      3d1-       0.0000    0.0000    0.0051   -0.0000
       52 W      4d1-      -0.0000   -0.0000   -0.0005    0.0000
       53 W      5d1-       0.0000    0.0000    0.0001   -0.0000
       54 W      6d1-      -0.0000   -0.0000   -0.0001    0.0000
       55 W      7d1-       0.0000    0.0000    0.0002   -0.0000
       56 W      8d1-      -0.0000   -0.0000   -0.0002    0.0000
       57 W      9d1-       0.0000    0.0000    0.0002   -0.0000
       58 W     10d1-      -0.0000   -0.0000   -0.0002    0.0000
       59 W     11d1-       0.0000    0.0000    0.0002   -0.0000
       60 W      3d0        0.8589    0.0039   -0.0000   -0.4958
       61 W      4d0       -0.0830   -0.0004    0.0000    0.0480
       62 W      5d0        0.0161    0.0001   -0.0000   -0.0093
       63 W      6d0       -0.0220   -0.0001    0.0000    0.0127
       64 W      7d0        0.0284    0.0001   -0.0000   -0.0164
       65 W      8d0       -0.0322   -0.0001    0.0000    0.0186
       66 W      9d0        0.0320    0.0001   -0.0000   -0.0185
       67 W     10d0       -0.0344   -0.0002    0.0000    0.0198
       68 W     11d0        0.0259    0.0001   -0.0000   -0.0150
       69 W      3d1+      -0.0013    0.9917   -0.0000    0.0055
       70 W      4d1+       0.0001   -0.0959    0.0000   -0.0005
       71 W      5d1+      -0.0000    0.0186   -0.0000    0.0001
       72 W      6d1+       0.0000   -0.0254    0.0000   -0.0001
       73 W      7d1+      -0.0000    0.0328   -0.0000    0.0002
       74 W      8d1+       0.0000   -0.0372    0.0000   -0.0002
       75 W      9d1+      -0.0000    0.0370   -0.0000    0.0002
       76 W     10d1+       0.0001   -0.0397    0.0000   -0.0002
       77 W     11d1+      -0.0000    0.0299   -0.0000    0.0002
       78 W      3d2+       0.4959   -0.0041    0.0000    0.8588
       79 W      4d2+      -0.0479    0.0004   -0.0000   -0.0831
       80 W      5d2+       0.0093   -0.0001    0.0000    0.0161
       81 W      6d2+      -0.0127    0.0001   -0.0000   -0.0220
       82 W      7d2+       0.0164   -0.0001    0.0000    0.0284
       83 W      8d2+      -0.0186    0.0002   -0.0000   -0.0322
       84 W      9d2+       0.0185   -0.0002    0.0000    0.0320
       85 W     10d2+      -0.0198    0.0002   -0.0000   -0.0344
       86 W     11d2+       0.0150   -0.0001    0.0000    0.0259
       87 W      4f3-      -0.0000    0.0000    0.0006   -0.0000
       88 W      5f3-       0.0000   -0.0000   -0.0004    0.0000
       89 W      6f3-      -0.0000    0.0000    0.0004   -0.0000
       90 W      7f3-       0.0000   -0.0000   -0.0004    0.0000
       91 W      8f3-      -0.0000    0.0000    0.0003   -0.0000
       92 W      9f3-       0.0000   -0.0000   -0.0002    0.0000
       93 W     10f3-      -0.0000    0.0000    0.0002   -0.0000
       94 W     11f3-       0.0000   -0.0000   -0.0001    0.0000
       95 W      4f2-       0.0000    0.0000    0.0000   -0.0000
       96 W      5f2-      -0.0000   -0.0000   -0.0000    0.0000
       97 W      6f2-       0.0000    0.0000    0.0000   -0.0000
       98 W      7f2-      -0.0000   -0.0000   -0.0000    0.0000
       99 W      8f2-       0.0000    0.0000    0.0000   -0.0000
      100 W      9f2-      -0.0000   -0.0000   -0.0000    0.0000
      101 W     10f2-       0.0000    0.0000    0.0000   -0.0000
      102 W     11f2-      -0.0000   -0.0000   -0.0000    0.0000
      103 W      4f1-       0.0000   -0.0000   -0.0002    0.0000
      104 W      5f1-      -0.0000    0.0000    0.0001   -0.0000
      105 W      6f1-       0.0000   -0.0000   -0.0001    0.0000
      106 W      7f1-      -0.0000    0.0000    0.0001   -0.0000
      107 W      8f1-       0.0000   -0.0000   -0.0001    0.0000
      108 W      9f1-      -0.0000    0.0000    0.0001   -0.0000
      109 W     10f1-       0.0000   -0.0000   -0.0000    0.0000
      110 W     11f1-      -0.0000    0.0000    0.0000   -0.0000
      111 W      4f0        0.0000   -0.0004    0.0000   -0.0000
      112 W      5f0       -0.0000    0.0003   -0.0000    0.0000
      113 W      6f0        0.0000   -0.0003    0.0000   -0.0000
      114 W      7f0       -0.0000    0.0002   -0.0000    0.0000
      115 W      8f0        0.0000   -0.0002    0.0000   -0.0000
      116 W      9f0       -0.0000    0.0002   -0.0000    0.0000
      117 W     10f0        0.0000   -0.0001    0.0000   -0.0000
      118 W     11f0       -0.0000    0.0001   -0.0000    0.0000
      119 W      4f1+       0.0004    0.0000   -0.0000   -0.0004
      120 W      5f1+      -0.0003   -0.0000    0.0000    0.0003
      121 W      6f1+       0.0003    0.0000   -0.0000   -0.0003
      122 W      7f1+      -0.0002   -0.0000    0.0000    0.0002
      123 W      8f1+       0.0002    0.0000   -0.0000   -0.0002
      124 W      9f1+      -0.0002   -0.0000    0.0000    0.0002
      125 W     10f1+       0.0001    0.0000   -0.0000   -0.0001
      126 W     11f1+      -0.0001   -0.0000    0.0000    0.0001
      127 W      4f2+      -0.0000    0.0005   -0.0000    0.0000
      128 W      5f2+       0.0000   -0.0004    0.0000   -0.0000
      129 W      6f2+      -0.0000    0.0003   -0.0000    0.0000
      130 W      7f2+       0.0000   -0.0003    0.0000   -0.0000
      131 W      8f2+      -0.0000    0.0003   -0.0000    0.0000
      132 W      9f2+       0.0000   -0.0002    0.0000   -0.0000
      133 W     10f2+      -0.0000    0.0002   -0.0000    0.0000
      134 W     11f2+       0.0000   -0.0001    0.0000   -0.0000
      135 W      4f3+       0.0003   -0.0000    0.0000    0.0005
      136 W      5f3+      -0.0002    0.0000   -0.0000   -0.0004
      137 W      6f3+       0.0002   -0.0000    0.0000    0.0004
      138 W      7f3+      -0.0002    0.0000   -0.0000   -0.0003
      139 W      8f3+       0.0002   -0.0000    0.0000    0.0003
      140 W      9f3+      -0.0001    0.0000   -0.0000   -0.0002
      141 W     10f3+       0.0001   -0.0000    0.0000    0.0002
      142 W     11f3+      -0.0001    0.0000   -0.0000   -0.0001
      143 W      5g4-       0.0000   -0.0000   -0.0000    0.0000
      144 W      6g4-      -0.0000    0.0000    0.0000   -0.0000
      145 W      7g4-      -0.0000   -0.0000   -0.0000    0.0000
      146 W      8g4-      -0.0000    0.0000    0.0000   -0.0000
      147 W      5g3-      -0.0000   -0.0000   -0.0000    0.0000
      148 W      6g3-       0.0000   -0.0000   -0.0000   -0.0000
      149 W      7g3-      -0.0000   -0.0000   -0.0000    0.0000
      150 W      8g3-       0.0000   -0.0000   -0.0000   -0.0000
      151 W      5g2-      -0.0000    0.0000    0.0000   -0.0000
      152 W      6g2-       0.0000   -0.0000   -0.0000    0.0000
      153 W      7g2-       0.0000    0.0000    0.0000   -0.0000
      154 W      8g2-       0.0000   -0.0000   -0.0000    0.0000
      155 W      5g1-       0.0000    0.0000    0.0000   -0.0000
      156 W      6g1-      -0.0000    0.0000    0.0000    0.0000
      157 W      7g1-       0.0000    0.0000    0.0000   -0.0000
      158 W      8g1-      -0.0000    0.0000    0.0000    0.0000
      159 W      5g0        0.0000    0.0000   -0.0000   -0.0000
      160 W      6g0       -0.0000   -0.0000    0.0000    0.0000
      161 W      7g0        0.0000   -0.0000    0.0000   -0.0000
      162 W      8g0       -0.0000   -0.0000    0.0000    0.0000
      163 W      5g1+      -0.0000    0.0000   -0.0000    0.0000
      164 W      6g1+      -0.0000   -0.0000    0.0000    0.0000
      165 W      7g1+      -0.0000    0.0000   -0.0000    0.0000
      166 W      8g1+      -0.0000   -0.0000    0.0000    0.0000
      167 W      5g2+      -0.0000    0.0000   -0.0000    0.0000
      168 W      6g2+       0.0000    0.0000   -0.0000   -0.0000
      169 W      7g2+      -0.0000    0.0000   -0.0000    0.0000
      170 W      8g2+       0.0000    0.0000   -0.0000   -0.0000
      171 W      5g3+      -0.0000   -0.0000    0.0000   -0.0000
      172 W      6g3+       0.0000    0.0000   -0.0000    0.0000
      173 W      7g3+       0.0000   -0.0000    0.0000    0.0000
      174 W      8g3+       0.0000    0.0000   -0.0000    0.0000
      175 W      5g4+      -0.0000    0.0000   -0.0000   -0.0000
      176 W      6g4+       0.0000    0.0000   -0.0000    0.0000
      177 W      7g4+      -0.0000    0.0000   -0.0000   -0.0000
      178 W      8g4+       0.0000    0.0000   -0.0000    0.0000
      179 W      6h5-      -0.0000    0.0000    0.0000   -0.0000
      180 W      7h5-      -0.0000   -0.0000   -0.0000    0.0000
      181 W      6h4-       0.0000   -0.0000   -0.0000   -0.0000
      182 W      7h4-      -0.0000   -0.0000   -0.0000   -0.0000
      183 W      6h3-       0.0000   -0.0000   -0.0000   -0.0000
      184 W      7h3-       0.0000    0.0000    0.0000    0.0000
      185 W      6h2-      -0.0000   -0.0000   -0.0000    0.0000
      186 W      7h2-       0.0000   -0.0000   -0.0000   -0.0000
      187 W      6h1-       0.0000    0.0000    0.0000   -0.0000
      188 W      7h1-       0.0000   -0.0000   -0.0000    0.0000
      189 W      6h0        0.0000    0.0000   -0.0000   -0.0000
      190 W      7h0        0.0000   -0.0000    0.0000   -0.0000
      191 W      6h1+      -0.0000   -0.0000    0.0000    0.0000
      192 W      7h1+       0.0000   -0.0000    0.0000   -0.0000
      193 W      6h2+      -0.0000   -0.0000    0.0000    0.0000
      194 W      7h2+      -0.0000    0.0000   -0.0000    0.0000
      195 W      6h3+       0.0000   -0.0000    0.0000   -0.0000
      196 W      7h3+      -0.0000   -0.0000    0.0000    0.0000
      197 W      6h4+       0.0000    0.0000   -0.0000    0.0000
      198 W      7h4+       0.0000   -0.0000    0.0000    0.0000
      199 W      6h5+       0.0000   -0.0000    0.0000    0.0000
      200 W      7h5+      -0.0000   -0.0000    0.0000   -0.0000
--


++    Molecular charges:
      ------------------

      Mulliken charges per centre and basis function type
      ---------------------------------------------------

                W     
      1s       2.0000
      2s       2.0000
      2px      2.0000
      2pz      2.0000
      2py      2.0000
      3s       1.9811
      3px      1.9729
      3pz      1.9729
      3py      1.9729
      4s       0.0128
      3d2+     0.0001
      3d1+     0.0001
      3d0      0.0000
      3d1-     0.0000
      3d2-     0.0001
      4px      0.0167
      4pz      0.0167
      4py      0.0167
      5s       0.0011
      4d2+     0.0000
      4d1+     0.0000
      4d0      0.0000
      4d1-     0.0000
      4d2-     0.0000
      5px      0.0013
      5pz      0.0013
      5py      0.0013
      6s       0.0001
      4f3+     0.0000
      4f2+     0.0000
      4f1+     0.0000
      4f0      0.0000
      4f1-     0.0000
      4f2-     0.0000
      4f3-     0.0000
      5d2+     0.0000
      5d1+     0.0000
      5d0      0.0000
      5d1-     0.0000
      5d2-     0.0000
      6px      0.0002
      6pz      0.0002
      6py      0.0002
      7s       0.0001
      5f3+     0.0000
      5f2+     0.0000
      5f1+     0.0000
      5f0      0.0000
      5f1-     0.0000
      5f2-     0.0000
      5f3-     0.0000
      6d2+     0.0000
      6d1+     0.0000
      6d0      0.0000
      6d1-     0.0000
      6d2-     0.0000
      7px      0.0018
      7pz      0.0018
      7py      0.0018
      5g4+     0.0000
      5g3+     0.0000
      5g2+     0.0000
      5g1+     0.0000
      5g0      0.0000
      5g1-     0.0000
      5g2-     0.0000
      5g3-     0.0000
      5g4-     0.0000
      6f3+     0.0000
      6f2+     0.0000
      6f1+     0.0000
      6f0      0.0000
      6f1-     0.0000
      6f2-     0.0000
      6f3-     0.0000
      6g4+     0.0000
      6g3+     0.0000
      6g2+     0.0000
      6g1+     0.0000
      6g0      0.0000
      6g1-     0.0000
      6g2-     0.0000
      6g3-     0.0000
      6g4-     0.0000
      6h5+     0.0000
      6h4+     0.0000
      6h3+     0.0000
      6h2+     0.0000
      6h1+     0.0000
      6h0      0.0000
      6h1-     0.0000
      6h2-     0.0000
      6h3-     0.0000
      6h4-     0.0000
      6h5-     0.0000
      7d2+     0.0000
      7d1+     0.0000
      7d0      0.0000
      7d1-     0.0000
      7d2-     0.0000
      7f3+     0.0000
      7f2+     0.0000
      7f1+     0.0000
      7f0      0.0000
      7f1-     0.0000
      7f2-     0.0000
      7f3-     0.0000
      7g4+     0.0000
      7g3+     0.0000
      7g2+     0.0000
      7g1+     0.0000
      7g0      0.0000
      7g1-     0.0000
      7g2-     0.0000
      7g3-     0.0000
      7g4-     0.0000
      7h5+     0.0000
      7h4+     0.0000
      7h3+     0.0000
      7h2+     0.0000
      7h1+     0.0000
      7h0      0.0000
      7h1-     0.0000
      7h2-     0.0000
      7h3-     0.0000
      7h4-     0.0000
      7h5-     0.0000
      8s       0.0006
      8px      0.0018
      8pz      0.0018
      8py      0.0018
      8d2+     0.0000
      8d1+     0.0000
      8d0      0.0000
      8d1-     0.0000
      8d2-     0.0000
      8f3+     0.0000
      8f2+     0.0000
      8f1+     0.0000
      8f0      0.0000
      8f1-     0.0000
      8f2-     0.0000
      8f3-     0.0000
      8g4+     0.0000
      8g3+     0.0000
      8g2+     0.0000
      8g1+     0.0000
      8g0      0.0000
      8g1-     0.0000
      8g2-     0.0000
      8g3-     0.0000
      8g4-     0.0000
      9s       0.0010
      9px      0.0019
      9pz      0.0019
      9py      0.0019
      9d2+     0.0000
      9d1+     0.0000
      9d0      0.0000
      9d1-     0.0000
      9d2-     0.0000
      9f3+     0.0000
      9f2+     0.0000
      9f1+     0.0000
      9f0      0.0000
      9f1-     0.0000
      9f2-     0.0000
      9f3-     0.0000
     10s       0.0013
     10px      0.0016
     10pz      0.0016
     10py      0.0016
     10d2+     0.0000
     10d1+     0.0000
     10d0      0.0000
     10d1-     0.0000
     10d2-     0.0000
     10f3+     0.0000
     10f2+     0.0000
     10f1+     0.0000
     10f0      0.0000
     10f1-     0.0000
     10f2-     0.0000
     10f3-     0.0000
     11s       0.0020
     11px      0.0017
     11pz      0.0017
     11py      0.0017
     11d2+     0.0000
     11d1+     0.0000
     11d0      0.0000
     11d1-     0.0000
     11d2-     0.0000
     11f3+     0.0000
     11f2+     0.0000
     11f1+     0.0000
     11f0      0.0000
     11f1-     0.0000
     11f2-     0.0000
     11f3-     0.0000
      Total   18.0000

      N-E     56.0000

      Total electronic charge=   18.000000

      Total            charge=   56.000000
--

 Sorry, Molden does not know how to handle
 functions with angular momentum larger than g

++    Static properties:
      ------------------


      LoProp Charges per center


                   W     
      Nuclear     74.0000
      Electronic -18.0000

      Total       56.0000
--


++    Molecular properties:
      ---------------------

      Charge (e):
                      =   56.0000
      Dipole Moment (Debye):
      Origin of the operator (Ang)=    0.0000    0.0000    0.0000
                   X= -1.5435E-02               Y= -4.9632E-13               Z=  1.2459E+00           Total=  1.2460E+00
      Center of Charge (Ang)
                     X=   -0.00005738               Y=   -0.00000000               Z=    0.00463213
      Quadrupole Moment (Debye*Ang):
      Origin of the operator (Ang)=   -0.0000   -0.0000    0.0046
[...]
    14            83.2338612816     2264.9087480796       18267721.0217         1.2
    15            83.2338637556     2264.9088153996       18267721.5647         1.2
    16            83.2338637556     2264.9088153996       18267721.5647         1.2
    17            83.2656518631     2265.7738138714       18274698.2479         1.2
    18            83.2656518631     2265.7738138714       18274698.2479         1.2


 Weights of the five most important spin-orbit-free states for each spin-orbit state.

 SO State  Total energy (au)           Spin-free states, spin, and weights
 -------------------------------------------------------------------------------------------------------
    1         0.000000       1 0.5  1.0000    9 0.5  0.0000    8 0.5  0.0000    7 0.5  0.0000    6 0.5  0.0000
    2         0.000000       1 0.5  1.0000    9 0.5  0.0000    8 0.5  0.0000    7 0.5  0.0000    6 0.5  0.0000
    3         0.000000       2 0.5  1.0000    9 0.5  0.0000    8 0.5  0.0000    7 0.5  0.0000    6 0.5  0.0000
    4         0.000000       2 0.5  1.0000    9 0.5  0.0000    8 0.5  0.0000    7 0.5  0.0000    6 0.5  0.0000
    5         0.003208       3 0.5  1.0000    9 0.5  0.0000    8 0.5  0.0000    7 0.5  0.0000    6 0.5  0.0000
    6         0.003208       3 0.5  1.0000    9 0.5  0.0000    8 0.5  0.0000    7 0.5  0.0000    6 0.5  0.0000
    7         0.003208       4 0.5  1.0000    9 0.5  0.0000    8 0.5  0.0000    7 0.5  0.0000    6 0.5  0.0000
    8         0.003208       4 0.5  1.0000    9 0.5  0.0000    8 0.5  0.0000    7 0.5  0.0000    6 0.5  0.0000
    9         0.004312       5 0.5  1.0000    9 0.5  0.0000    8 0.5  0.0000    7 0.5  0.0000    6 0.5  0.0000
   10         0.004312       5 0.5  1.0000    9 0.5  0.0000    8 0.5  0.0000    7 0.5  0.0000    6 0.5  0.0000
   11        77.107682       6 0.5  1.0000    9 0.5  0.0000    8 0.5  0.0000    7 0.5  0.0000    5 0.5  0.0000
   12        77.107682       6 0.5  1.0000    9 0.5  0.0000    8 0.5  0.0000    7 0.5  0.0000    5 0.5  0.0000
   13        83.233861       7 0.5  1.0000    9 0.5  0.0000    8 0.5  0.0000    6 0.5  0.0000    5 0.5  0.0000
   14        83.233861       7 0.5  1.0000    9 0.5  0.0000    8 0.5  0.0000    6 0.5  0.0000    5 0.5  0.0000
   15        83.233864       8 0.5  1.0000    9 0.5  0.0000    7 0.5  0.0000    6 0.5  0.0000    5 0.5  0.0000
   16        83.233864       8 0.5  1.0000    9 0.5  0.0000    7 0.5  0.0000    6 0.5  0.0000    5 0.5  0.0000
   17        83.265652       9 0.5  1.0000    8 0.5  0.0000    7 0.5  0.0000    6 0.5  0.0000    5 0.5  0.0000
   18        83.265652       9 0.5  1.0000    8 0.5  0.0000    7 0.5  0.0000    6 0.5  0.0000    5 0.5  0.0000
 -------------------------------------------------------------------------------------------------------


      ****************************************************************************************************
      *                                                                                                  *
      *                                    Special properties section                                    *
      *                                                                                                  *
      ****************************************************************************************************


++ Dipole transition strengths (SO states):
   ----------------------------------------
    for osc. strength at least    1.0000000000000001E-005

      From   To        Osc. strength     Einstein coefficients Ax, Ay, Az (sec-1)    Total A (sec-1)
     -----------------------------------------------------------------------------------------------
         1   13       1.33858219E-02  1.02040057E-04  2.97957622E+12  2.41785137E+01  2.97957622E+12
         1   15       1.33859331E-02  7.94751647E+07  2.41781706E+01  2.97952168E+12  2.97960115E+12
         2   14       1.33858219E-02  1.02040057E-04  2.97957622E+12  2.41785137E+01  2.97957622E+12
         2   16       1.33859331E-02  7.94751647E+07  2.41781706E+01  2.97952168E+12  2.97960115E+12
         3   13       1.33857465E-02  5.05146521E+06  2.41783615E+01  2.97955438E+12  2.97955943E+12
         3   15       1.33860371E-02  4.93250732E-04  2.97962429E+12  2.41778935E+01  2.97962429E+12
         4   14       1.33857465E-02  5.05146521E+06  2.41783615E+01  2.97955438E+12  2.97955943E+12
         4   16       1.33860371E-02  4.93250732E-04  2.97962429E+12  2.41778935E+01  2.97962429E+12
         5   11       2.16970981E-05  1.13239487E+05  1.36988235E-03  4.14436810E+09  4.14448134E+09
         5   13       1.33780860E-02  2.97761339E+12  1.87590423E-05  1.13745951E+07  2.97762476E+12
         5   17       1.33687870E-02  4.29845683E+07  9.84385227E-01  2.97778557E+12  2.97782855E+12
         6   12       2.16970981E-05  1.13239487E+05  1.36988235E-03  4.14436810E+09  4.14448134E+09
         6   14       1.33780860E-02  2.97761339E+12  1.87590423E-05  1.13745951E+07  2.97762476E+12
         6   18       1.33687870E-02  4.29845683E+07  9.84385227E-01  2.97778557E+12  2.97782855E+12
         7   11       2.16930494E-05  3.24051539E-08  4.14370793E+09  1.37005123E-03  4.14370793E+09
         7   15       1.33780646E-02  2.97754302E+12  1.55289371E-05  7.71319306E+07  2.97762015E+12
         7   17       1.33686637E-02  1.38419619E-05  2.97780105E+12  9.84378603E-01  2.97780105E+12
         8   12       2.16930494E-05  3.24051539E-08  4.14370793E+09  1.37005123E-03  4.14370793E+09
         8   16       1.33780646E-02  2.97754302E+12  1.55289371E-05  7.71319306E+07  2.97762015E+12
         8   18       1.33686637E-02  1.38419619E-05  2.97780105E+12  9.84378603E-01  2.97780105E+12
         9   11       2.94403405E-05  5.62330041E+09  1.55353814E-10  9.88235825E+04  5.62339924E+09
         9   13       4.46574310E-03  1.94329579E+07  2.85593063E-01  9.93916038E+11  9.93935471E+11
         9   15       4.46541577E-03  5.90245332E-06  9.93862679E+11  2.85781929E-01  9.93862679E+11
         9   17       1.78019480E-02  3.96513939E+12  2.59746092E-08  4.77338030E+07  3.96518713E+12
        10   12       2.94403405E-05  5.62330041E+09  1.55353814E-10  9.88235825E+04  5.62339924E+09
        10   14       4.46574310E-03  1.94329579E+07  2.85593063E-01  9.93916038E+11  9.93935471E+11
        10   16       4.46541577E-03  5.90245332E-06  9.93862679E+11  2.85781929E-01  9.93862679E+11
        10   18       1.78019480E-02  3.96513939E+12  2.59746092E-08  4.77338030E+07  3.96518713E+12
        11   13       1.77630292E-01  1.39826622E+06  6.15689474E-02  2.14191865E+11  2.14193263E+11
        11   15       1.77630289E-01  2.79860233E-07  2.14193431E+11  6.15687816E-02  2.14193431E+11
        11   17       1.77230488E-01  2.15933529E+11  1.12717181E-08  1.41330694E+06  2.15934942E+11
        12   14       1.77630292E-01  1.39826622E+06  6.15689474E-02  2.14191865E+11  2.14193263E+11
        12   16       1.77630289E-01  2.79860233E-07  2.14193431E+11  6.15687816E-02  2.14193431E+11
        12   18       1.77230488E-01  2.15933529E+11  1.12717181E-08  1.41330694E+06  2.15934942E+11
     -----------------------------------------------------------------------------------------------
--

++ Velocity transition strengths (SO states):
   ------------------------------------------
    for osc. strength at least    1.0000000000000001E-005

      From   To        Osc. strength     Einstein coefficients Ax, Ay, Az (sec-1)    Total A (sec-1)
     -----------------------------------------------------------------------------------------------
         1    3       3.60316162E-05  1.65506511E-22  2.73021660E-08  1.84406958E-22  2.73021660E-08
         1    5       9.90450216E-05  1.03156330E-15  3.27413829E+01  2.73120271E-10  3.27413829E+01
         1    7       9.90246497E-05  4.44816788E-05  2.72857163E-10  3.27456705E+01  3.27457150E+01
         1   13       1.32194257E-02  1.00835821E-04  2.94254800E+12  2.38780781E+01  2.94254800E+12
         1   15       1.32195355E-02  7.84880813E+07  2.38776894E+01  2.94249414E+12  2.94257263E+12
         2    4       3.60316162E-05  1.65506511E-22  2.73021660E-08  1.84406958E-22  2.73021660E-08
         2    6       9.90450216E-05  1.03156330E-15  3.27413829E+01  2.73120271E-10  3.27413829E+01
         2    8       9.90246497E-05  4.44816788E-05  2.72857163E-10  3.27456705E+01  3.27457150E+01
         2   14       1.32194257E-02  1.00835821E-04  2.94254800E+12  2.38780781E+01  2.94254800E+12
         2   16       1.32195355E-02  7.84880813E+07  2.38776894E+01  2.94249414E+12  2.94257263E+12
         3    5       9.90431121E-05  4.10514817E-05  2.72861163E-10  3.27375757E+01  3.27376167E+01
         3    7       9.90314074E-05  1.24107749E-15  3.27448146E+01  2.72830406E-10  3.27448146E+01
         3   13       1.32193512E-02  4.98868116E+06  2.38779087E+01  2.94252642E+12  2.94253141E+12
         3   15       1.32196383E-02  4.87001576E-04  2.94259550E+12  2.38774438E+01  2.94259550E+12
         4    6       9.90431121E-05  4.10514817E-05  2.72861163E-10  3.27375757E+01  3.27376167E+01
         4    8       9.90314074E-05  1.24107749E-15  3.27448146E+01  2.72830406E-10  3.27448146E+01
         4   14       1.32193512E-02  4.98868116E+06  2.38779087E+01  2.94252642E+12  2.94253141E+12
         4   16       1.32196383E-02  4.87001576E-04  2.94259550E+12  2.38774438E+01  2.94259550E+12
         5    9       8.62213608E-04  4.39483739E-05  1.11670210E-11  3.38206726E+01  3.38207166E+01
         5   11       2.19763770E-05  1.14688373E+05  1.38741209E-03  4.19772784E+09  4.19784253E+09
         5   13       1.32122136E-02  2.94070476E+12  1.85386301E-05  1.12338786E+07  2.94071599E+12
         5   17       1.32020420E-02  4.24483124E+07  9.72108103E-01  2.94065473E+12  2.94069718E+12
         6   10       8.62213608E-04  4.39483739E-05  1.11670210E-11  3.38206726E+01  3.38207166E+01
         6   12       2.19763770E-05  1.14688373E+05  1.38741209E-03  4.19772784E+09  4.19784253E+09
         6   14       1.32122136E-02  2.94070476E+12  1.85386301E-05  1.12338786E+07  2.94071599E+12
         6   18       1.32020420E-02  4.24483124E+07  9.72108103E-01  2.94065473E+12  2.94069718E+12
         7    9       8.62605072E-04  2.58649534E-17  3.38028758E+01  1.11574080E-11  3.38028758E+01
         7   11       2.19723279E-05  3.18398069E-08  4.19706902E+09  1.38764517E-03  4.19706902E+09
         7   15       1.32121926E-02  2.94063527E+12  1.53042485E-05  7.61751634E+07  2.94071145E+12
         7   17       1.32019202E-02  1.36038334E-05  2.94067002E+12  9.72102492E-01  2.94067002E+12
         8   10       8.62605072E-04  2.58649534E-17  3.38028758E+01  1.11574080E-11  3.38028758E+01
         8   12       2.19723279E-05  3.18398069E-08  4.19706902E+09  1.38764517E-03  4.19706902E+09
         8   16       1.32121926E-02  2.94063527E+12  1.53042485E-05  7.61751634E+07  2.94071145E+12
         8   18       1.32019202E-02  1.36038334E-05  2.94067002E+12  9.72102492E-01  2.94067002E+12
         9   11       2.98139161E-05  5.69467564E+09  1.74085725E-10  1.00072000E+05  5.69477571E+09
         9   13       4.40986041E-03  1.91916757E+07  2.82020696E-01  9.81481945E+11  9.81501137E+11
         9   15       4.40953719E-03  5.81810607E-06  9.81429256E+11  2.82207314E-01  9.81429256E+11
         9   17       1.75812262E-02  3.91599026E+12  2.57598829E-08  4.71405248E+07  3.91603740E+12
        10   12       2.98139161E-05  5.69467564E+09  1.74085725E-10  1.00072000E+05  5.69477571E+09
        10   14       4.40986041E-03  1.91916757E+07  2.82020696E-01  9.81481945E+11  9.81501137E+11
        10   16       4.40953719E-03  5.81810607E-06  9.81429256E+11  2.82207314E-01  9.81429256E+11
        10   18       1.75812262E-02  3.91599026E+12  2.57598829E-08  4.71405248E+07  3.91603740E+12
        11   13       1.46067850E-01  1.14949539E+06  5.06293443E-02  1.76133550E+11  1.76134700E+11
        11   15       1.46067849E-01  2.29658057E-07  1.76134840E+11  5.06291154E-02  1.76134840E+11
        11   17       1.45743749E-01  1.77571431E+11  9.21043171E-09  1.16255106E+06  1.77572594E+11
        12   14       1.46067850E-01  1.14949539E+06  5.06293443E-02  1.76133550E+11  1.76134700E+11
        12   16       1.46067849E-01  2.29658057E-07  1.76134840E+11  5.06291154E-02  1.76134840E+11
        12   18       1.45743749E-01  1.77571431E+11  9.21043171E-09  1.16255106E+06  1.77572594E+11
        13   15       2.82287848E-05  7.39755800E-21  5.55123688E-06  4.96891451E-19  5.55123688E-06
        13   17       1.15609666E-03  5.69721053E-02  1.07892616E-08  3.75406091E+04  3.75406660E+04
        14   16       2.82287848E-05  7.39755800E-21  5.55123688E-06  4.96891451E-19  5.55123688E-06
        14   18       1.15609666E-03  5.69721053E-02  1.07892616E-08  3.75406091E+04  3.75406660E+04
        15   17       1.15618638E-03  2.83929380E-14  3.75377364E+04  1.07884453E-08  3.75377364E+04
        16   18       1.15618638E-03  2.83929380E-14  3.75377364E+04  1.07884453E-08  3.75377364E+04
     -----------------------------------------------------------------------------------------------
--

++ Length and velocity gauge comparison (SO states):

 --------------------------------------------------
 A comparison between the dipole oscillator strengths in 
 length and velocity gauge will be performed

 All dipole oscillator differences above the tolerance of   0.10000000000000001       will be printed 

 Due to basis set deficiency these oscillator may be problematic 

 The tolerance is defined as ABS(1-O_l/O_v) 
 O_l : dipole oscillator strength in length gauge
 O_p : dipole oscillator strength in velocity gauge
 --------------------------------------------------

  Problematic transitions have been found

      From   To       Difference (%) Osc. st. (len.) Osc. st. (vel.)
     ---------------------------------------------------------------
         1    3      --------------- below threshold  3.60316162E-05
         1    5      --------------- below threshold  9.90450216E-05
         1    7      --------------- below threshold  9.90246497E-05
         2    4      --------------- below threshold  3.60316162E-05
         2    6      --------------- below threshold  9.90450216E-05
         2    8      --------------- below threshold  9.90246497E-05
         3    5      --------------- below threshold  9.90431121E-05
         3    7      --------------- below threshold  9.90314074E-05
         4    6      --------------- below threshold  9.90431121E-05
         4    8      --------------- below threshold  9.90314074E-05
         5    9      --------------- below threshold  8.62213608E-04
         6   10      --------------- below threshold  8.62213608E-04
         7    9      --------------- below threshold  8.62605072E-04
         8   10      --------------- below threshold  8.62605072E-04
        11   13            21.608069  1.77630292E-01  1.46067850E-01
        11   15            21.608068  1.77630289E-01  1.46067849E-01
        11   17            21.604178  1.77230488E-01  1.45743749E-01
        12   14            21.608069  1.77630292E-01  1.46067850E-01
        12   16            21.608068  1.77630289E-01  1.46067849E-01
        12   18            21.604178  1.77230488E-01  1.45743749E-01
        13   15      --------------- below threshold  2.82287848E-05
        13   17      --------------- below threshold  1.15609666E-03
        14   16      --------------- below threshold  2.82287848E-05
        14   18      --------------- below threshold  1.15609666E-03
        15   17      --------------- below threshold  1.15618638E-03
        16   18      --------------- below threshold  1.15618638E-03
     ---------------------------------------------------------------

 Number of problematic transitions =                    26

--

 Electric-dipole - electric-octupole not included
++ Total transition strengths for the second-order expansion of the wave vector (SO states):
   -----------------------------------------------------------------------------------------
    for osc. strength at least    1.0000000000000001E-005

      From   To        Osc. strength
     -------------------------------
         1   11       5.83148483E-05
         2   12       5.83148483E-05
         3   11       5.83148375E-05
         4   12       5.83148375E-05
         5   11       5.82861478E-05
         6   12       5.82861478E-05
         7   11       5.82861073E-05
         8   12       5.82861073E-05
         9   11       5.82751188E-05
        10   12       5.82751188E-05
     -------------------------------
--

++ I/O STATISTICS
 
  I. General I/O information
  - - - - - - - - - - - - - - - - - - - - - - - - - - - - - - - - - - - - - - - - - - -
  Unit  Name          Flsize      Write/Read            MBytes           Write/Read
                      (MBytes)       Calls              In/Out           Time, sec.
  - - - - - - - - - - - - - - - - - - - - - - - - - - - - - - - - - - - - - - - - - - -
   1  SCRATCH           0.00 .       9/      45 .      0.0/      0.0 .       0/       0
   2  ANNI              0.00 .       0/       0 .      0.0/      0.0 .       0/       0
   3  RUNFILE          15.31 .     322/   10733 .      2.3/     77.8 .       0/       0
   4  ONEINT            6.58 .       0/   28767 .      0.0/   3777.9 .       0/       0
   5  JOBIPH            7.70 .       0/      92 .      0.0/      0.9 .       0/       0
   6  ORDINT          771.03 .       1/    6169 .      0.0/   1542.0 .       0/       0
  - - - - - - - - - - - - - - - - - - - - - - - - - - - - - - - - - - - - - - - - - - -
   *  TOTAL           800.62 .     332/   45806 .      2.3/   5398.7 .       0/       0
  - - - - - - - - - - - - - - - - - - - - - - - - - - - - - - - - - - - - - - - - - - -
 
  II. I/O Access Patterns
  - - - - - - - - - - - - - - - - - - - -
  Unit  Name               % of random
                         Write/Read calls
  - - - - - - - - - - - - - - - - - - - -
   1  SCRATCH             88.9/ 100.0
   2  ANNI                 0.0/   0.0
   3  RUNFILE             28.6/  10.8
   4  ONEINT               0.0/  13.4
   5  JOBIPH               0.0/  76.1
   6  ORDINT             100.0/   0.0
  - - - - - - - - - - - - - - - - - - - -
--
--- Stop Module: rassi at Wed Mar 26 12:10:19 2025 /rc=_RC_ALL_IS_WELL_ ---
*** files: xmldump
    saved to directory /home4/s4752295/Internship/Initial_simulations/Point_charge_model/1_electron/Madelung_charges_9_active_space/W
--- Module rassi spent 3 seconds ---

.##################.
.# Happy landing! #.
.##################.

    Timing: Wall=71.47 User=60.73 System=9.91

###############################################################################
Hbrk Cluster
Job 15905669 for user s4752295
Finished at: Wed Mar 26 12:10:24 CET 2025

Job details:
============

Job ID                         : 15905669
Name                           : W_no_SO
User                           : s4752295
Partition                      : regularmedium
Nodes                          : node92
Number of Nodes                : 1
Cores                          : 1
Number of Tasks                : 1
State                          : COMPLETED  
Submit                         : 2025-03-26T12:07:30
Start                          : 2025-03-26T12:09:04
End                            : 2025-03-26T12:10:19
Reserved walltime              : 15:00:00
Used walltime                  : 00:01:15
Used CPU time                  : 00:01:12 (Efficiency: 95.71%)
% User (Computation)           : 85.88%
% System (I/O)                 : 14.12%
Total memory reserved          : 25000M
Maximum memory used            : 3.06G

Acknowledgements:
=================

Please see this page for information about acknowledging Hbrk in your publications:

https://wiki.hpc.rug.nl/habrok/introduction/scientific_output

################################################################################
