   This run of MOLCAS is using the pymolcas driver

                             OPE
                             OPE          NMOL  CASOP  ENMOLC A   SO
                 OPE        NMOLC        AS  OP EN  MO LC     AS  OP
                OPENM       OL CA        SO  PE NM  OL CA     SOP EN
                OP EN      MO   LC       AS  OP ENMOL  CASO   PENMOL
                OP  EN     MO   LC       AS  OP EN     MO     LC ASO
               OP   E  NMOL  C  AS       OP  EN MO     LC     AS  OP
               OP  E   NMO   LC AS        OPEN  MO     LCASOP EN   M
               O  PEN   MO  LCA  SO
            OPE   NMO   L   CAS    OP
        OPENMOL  CASOP     ENMOL   CASOPE
     OPENMOLCA   SOPENMOLCASOPEN   MOLCASOPE
    OPENMOLCAS   OP           EN   MOL    CAS
    OPENMOLCAS       OP  ENM        O     LCA
    OPENMOLCAS    OPEN  MOLCASO     P  E  NMO
    OPENMOLCAS     OP               E  N  MOL
    OPENMOLCA   SO           PENM   O  L  CAS    OPEN    MO    LCAS
    OPENMOLCA   SOP           ENM   O  L  CAS   OP  EN  MOLC  AS   O
    OPENMOLCA   SOPE           NM      O  LCA   S      OP  EN MO
    OPENMOLC                AS         O  PEN   M      OL  CA  SOPE
    OPENMO        LCASOPE  NMOL        C  ASO   P      ENMOLC     AS
    OPE     NMO      LCA  SO     P     E   NM   OL  CA SO  PE N   MO
          OPENMOLCA            SOPE   NMO        LCAS  O    P  ENMO
     OPENMOLCASOPENMOLCASOPENMOLCASOPENMOLCA
        OPENMOLCASOPENMOLCASOPENMOLCASOPE
            OPENMOLCASOPENMOLCASOPENM
               OPENMOLCASOPENMOLCA        version: o91e1abe7de707b ?
                   OPENMOLCASO
                       OPE                tag:

 OpenMolcas is free software; you can redistribute it and/or modify it
 under the terms of the GNU Lesser General Public License version 2.1.
 OpenMolcas is distributed in the hope that it will be useful, but it
 is provided "as is" and without any express or implied warranties.
 For more details see the full text of the license in the file
 LICENSE or in <http://www.gnu.org/licenses/>.

                 Copyright (C) The OpenMolcas Authors
           For the author list and the recommended citation,
                   consult the file CONTRIBUTORS.md

           *************************************************
           * pymolcas version py2.10                       *
           *   build 3068ae8b88c9345ec6cfef6fef7f1169      *
           *   (after the EMIL interpreter by V. Veryazov) *
           *************************************************

configuration info
------------------
Host name: login1 (Linux)
C Compiler ID: GNU
C flags: -std=gnu99
Fortran Compiler ID: GNU
Fortran flags: -fno-aggressive-loop-optimizations -cpp -fdefault-integer-8 -fmax-stack-var-size=1048576
Definitions: _MOLCAS_;_I8_;_LINUX_;_MKL_
Parallel: OFF (GA=OFF)


   ----------------------------------------------------------------------------------------------------------------------------------
  |
  |           Project: tungsten_so_cf
  |    Submitted from: /home4/s4752295/Internship/Initial_simulations/Point_charge_model/1_electron/Madelung_charges_9_active_space/W
  |      Scratch area: /tmp/tungsten_so_cf
  |   Save outputs to: /home4/s4752295/Internship/Initial_simulations/Point_charge_model/1_electron/Madelung_charges_9_active_space/W
  |            Molcas: /home4/s4752295/Internship/Molcas/recomp_try/OpenMolcas-master/build
  |
  | Scratch area is empty
  |
  |    MOLCAS_DRIVER = /home4/s4752295/Internship/Molcas/bin/pymolcas
  |    MOLCAS_NPROCS = 1
  |    MOLCAS_SOURCE = /home4/s4752295/Internship/Molcas/recomp_try/OpenMolcas-master
  | MOLCAS_STRUCTURE = 0
  |
   ----------------------------------------------------------------------------------------------------------------------------------

++ ---------   Input file   ---------

&SEWARD
AMFi

CLIG
$R

Basis Set
W.ANO-rcc.Roos.24s21p15d11f4g2h.11s10p9d8f4g2h.
Spherical d
W            -1.0658140267135469e-14    -3.5527134223784897e-15 0.008753588724385739
End of Basis

Xfield

414
-1.600880432,-0.6160000000000001,0.3556476      -0.625931
-1.600880432,-0.0,-0.7112956    -0.625931
-1.600880432,0.6160000000000001,0.3556476       -0.625931
-1.5981384280000002,0.0,0.0     1.892092
1.0636718760000001,-0.6160000000000001,-0.3556476       2.515516
1.0636718760000001,0.0,0.7112956        2.515516
1.0636718760000001,0.6160000000000001,-0.3556476        2.515516
1.425195312,-1.2320000000000002,0.0     0.004632
1.425195312,-0.6160000000000001,-1.0669432      0.004632
1.425195312,-0.6160000000000001,1.0669432       0.004632
1.425195312,0.6160000000000001,-1.0669432       0.004632
1.425195312,0.6160000000000001,1.0669432        0.004632
1.425195312,1.2320000000000002,0.0      0.004632
1.6516601560000002,-0.6160000000000001,0.3556476        -2.519484
1.6516601560000002,-0.0,-0.7112956      -2.519484
1.6516601560000002,0.6160000000000001,0.3556476 -2.519484
-1.1732421880000001,-0.0,-0.0   -3.142907
-1.9900390640000003,-1.2320000000000002,-0.7112956      -0.625931
-1.9900390640000003,0.0,1.4225908       -0.625931
-1.9900390640000003,1.2320000000000002,-0.7112956       -0.625931
-2.6437500000000003,-1.2320000000000002,0.0     1.892092
-2.6437500000000003,-0.6160000000000001,-1.0669432      1.892092
-2.6437500000000003,-0.6160000000000001,1.0669432       1.892092
-2.6437500000000003,0.6160000000000001,-1.0669432       1.892092
-2.6437500000000003,0.6160000000000001,1.0669432        1.892092
-2.6437500000000003,1.2320000000000002,0.0      1.892092
10.068750000000001,-1.2320000000000002,0.7112956        2.515516
10.068750000000001,-0.0,-1.4225908      2.515516
10.068750000000001,1.2320000000000002,0.7112956 2.515516
1.455468752,-1.2320000000000002,-0.7112956      -2.519484
1.455468752,0.0,1.4225908       -2.519484
1.455468752,1.2320000000000002,-0.7112956       -2.519484
-1.2929687520000002,-1.2320000000000002,-0.0    -3.142907
-1.2929687520000002,-0.6160000000000001,-1.0669432      -3.142907
-1.2929687520000002,-0.6160000000000001,1.0669432       -3.142907
-1.2929687520000002,0.6160000000000001,-1.0669432       -3.142907
-1.2929687520000002,0.6160000000000001,1.0669432        -3.142907
-1.2929687520000002,1.2320000000000002,-0.0     -3.142907
-3.809375,-1.2320000000000002,1.4225908 -0.625931
-3.809375,1.2320000000000002,1.4225908  -0.625931
-3.809375,-1.848,0.3556476      -0.625931
-3.809375,1.848,0.3556476       -0.625931
-3.809375,-0.6160000000000001,-1.7782388000000002       -0.625931
-3.809375,0.6160000000000001,-1.7782388000000002        -0.625931
2.403125,-0.6160000000000001,-0.3556476 4.409069
2.403125,0.6160000000000001,-0.3556476  4.409069
2.403125,0.0,0.7112956  4.409069
-70.10000000000001,-0.0,-0.0    -5.030367
-70.10000000000001,0.0,0.0      5.039632
5.407031248,-1.2320000000000002,-1.4225908      2.515516
5.407031248,1.2320000000000002,-1.4225908       2.515516
5.407031248,-1.848,-0.3556476   2.515516
5.407031248,1.848,-0.3556476    2.515516
5.407031248,-0.6160000000000001,1.7782388000000002      2.515516
5.407031248,0.6160000000000001,1.7782388000000002       2.515516
7.6156250000000005,-1.848,-1.0669432    0.004632
7.6156250000000005,-1.848,1.0669432     0.004632
7.6156250000000005,1.848,-1.0669432     0.004632
7.6156250000000005,1.848,1.0669432      0.004632
7.6156250000000005,-0.0,-2.1338864      0.004632
7.6156250000000005,0.0,2.1338864        0.004632
19.231250000000003,-1.2320000000000002,1.4225908        -2.519484
19.231250000000003,1.2320000000000002,1.4225908 -2.519484
19.231250000000003,-1.848,0.3556476     -2.519484
19.231250000000003,1.848,0.3556476      -2.519484
19.231250000000003,-0.6160000000000001,-1.7782388000000002      -2.519484
19.231250000000003,0.6160000000000001,-1.7782388000000002       -2.519484
-58.35,-1.848,-1.0669432        1.892092
-58.35,-1.848,1.0669432 1.892092
-58.35,1.848,-1.0669432 1.892092
-58.35,1.848,1.0669432  1.892092
-58.35,-0.0,-2.1338864  1.892092
-58.35,0.0,2.1338864    1.892092
-47.1,-1.2320000000000002,0.7112956     4.409069
-47.1,-0.0,-1.4225908   4.409069
-47.1,1.2320000000000002,0.7112956      4.409069
-35.6,-1.2320000000000002,-0.0  -5.030367
-35.6,-0.6160000000000001,-1.0669432    -5.030367
-35.6,-0.6160000000000001,1.0669432     -5.030367
-35.6,0.6160000000000001,-1.0669432     -5.030367
-35.6,-1.2320000000000002,0.0   5.039632
-35.6,1.2320000000000002,-0.0   -5.030367
-35.6,0.6160000000000001,1.0669432      -5.030367
-35.6,-0.6160000000000001,-1.0669432    5.039632
-35.6,-0.6160000000000001,1.0669432     5.039632
-35.6,0.6160000000000001,-1.0669432     5.039632
-35.6,1.2320000000000002,0.0    5.039632
-35.6,0.6160000000000001,1.0669432      5.039632
-18.650000000000002,-0.6160000000000001,-0.3556476      -5.660931
-18.650000000000002,0.0,0.7112956       -5.660931
-18.650000000000002,0.6160000000000001,-0.3556476       -5.660931
0.353125,-2.4639996,0.0 0.004632
0.353125,-1.2320000000000002,-2.1338864 0.004632
0.353125,-1.2320000000000002,2.1338864  0.004632
0.353125,1.2320000000000002,-2.1338864  0.004632
0.353125,2.4639996,0.0  0.004632
0.353125,1.2320000000000002,2.1338864   0.004632
27.175,-1.848,1.0669432 -3.142907
27.175,-1.848,-1.0669432        -3.142907
27.175,1.848,-1.0669432 -3.142907
27.175,1.848,1.0669432  -3.142907
27.175,-0.0,-2.1338864  -3.142907
27.175,0.0,2.1338864    -3.142907
34.550000000000004,-2.4639996,-0.7112956        -0.625931
34.550000000000004,-1.848,-1.7782388000000002   -0.625931
34.550000000000004,-0.6160000000000001,2.4895340000000004       -0.625931
34.550000000000004,1.848,-1.7782388000000002    -0.625931
34.550000000000004,2.4639996,-0.7112956 -0.625931
34.550000000000004,0.6160000000000001,2.4895340000000004        -0.625931
0.47890624800000003,-2.4639996,0.0      1.892092
0.47890624800000003,-1.2320000000000002,-2.1338864      1.892092
0.47890624800000003,-1.2320000000000002,2.1338864       1.892092
0.47890624800000003,1.2320000000000002,-2.1338864       1.892092
0.47890624800000003,2.4639996,0.0       1.892092
0.47890624800000003,1.2320000000000002,2.1338864        1.892092
13.537500000000001,-1.2320000000000002,-1.4225908       4.409069
13.537500000000001,1.2320000000000002,-1.4225908        4.409069
13.537500000000001,-1.848,-0.3556476    4.409069
13.537500000000001,1.848,-0.3556476     4.409069
13.537500000000001,-0.6160000000000001,1.7782388000000002       4.409069
13.537500000000001,0.6160000000000001,1.7782388000000002        4.409069
64.9625,-1.2320000000000002,0.7112956   -5.660931
64.9625,-0.0,-1.4225908 -5.660931
64.9625,1.2320000000000002,0.7112956    -5.660931
0.1375,-2.4639996,0.7112956     2.515516
0.1375,-0.6160000000000001,-2.4895340000000004  2.515516
0.1375,-1.848,1.7782388000000002        2.515516
0.1375,0.6160000000000001,-2.4895340000000004   2.515516
0.1375,2.4639996,0.7112956      2.515516
0.1375,1.848,1.7782388000000002 2.515516
-37.675000000000004,-2.4639996,-0.7112956       -2.519484
-37.675000000000004,-1.848,-1.7782388000000002  -2.519484
-37.675000000000004,-0.6160000000000001,2.4895340000000004      -2.519484
-37.675000000000004,1.848,-1.7782388000000002   -2.519484
-37.675000000000004,0.6160000000000001,2.4895340000000004       -2.519484
-37.675000000000004,2.4639996,-0.7112956        -2.519484
-8.828125,-2.4639996,-0.0       -3.142907
-8.828125,-1.2320000000000002,-2.1338864        -3.142907
-8.828125,-1.2320000000000002,2.1338864 -3.142907
-8.828125,1.2320000000000002,-2.1338864 -3.142907
-8.828125,1.2320000000000002,2.1338864  -3.142907
-8.828125,2.4639996,-0.0        -3.142907
242.60000000000002,0.0,0.0      6.927092
129.3,-2.4639996,1.4225908      -0.625931
129.3,2.4639996,1.4225908       -0.625931
129.3,-0.0,-2.8451820000000003  -0.625931
-2.16875,-1.848,1.0669432       -5.030367
-2.16875,-1.848,-1.0669432      -5.030367
-2.16875,-1.848,1.0669432       5.039632
-2.16875,-1.848,-1.0669432      5.039632
-2.16875,1.848,-1.0669432       -5.030367
-2.16875,1.848,1.0669432        -5.030367
-2.16875,1.848,-1.0669432       5.039632
-2.16875,1.848,1.0669432        5.039632
-2.16875,-0.0,-2.1338864        -5.030367
-2.16875,0.0,2.1338864  -5.030367
-2.16875,-0.0,-2.1338864        5.039632
-2.16875,0.0,2.1338864  5.039632
36.725,-1.2320000000000002,-1.4225908   -5.660931
36.725,1.2320000000000002,-1.4225908    -5.660931
36.725,-1.848,-0.3556476        -5.660931
36.725,1.848,-0.3556476 -5.660931
36.725,-0.6160000000000001,1.7782388000000002   -5.660931
36.725,0.6160000000000001,1.7782388000000002    -5.660931
120.2,-2.4639996,-1.4225908     2.515516
120.2,2.4639996,-1.4225908      2.515516
120.2,0.0,2.8451820000000003    2.515516
-206.9,-2.4639996,1.4225908     -2.519484
-206.9,2.4639996,1.4225908      -2.519484
-206.9,-0.0,-2.8451820000000003 -2.519484
21.425,-1.2320000000000002,0.0  6.927092
21.425,-0.6160000000000001,-1.0669432   6.927092
21.425,-0.6160000000000001,1.0669432    6.927092
21.425,0.6160000000000001,-1.0669432    6.927092
21.425,0.6160000000000001,1.0669432     6.927092
21.425,1.2320000000000002,0.0   6.927092
-22.1,-0.6160000000000001,0.3556476     7.550516
-22.1,0.0,-0.7112956    7.550516
-22.1,0.6160000000000001,0.3556476      7.550516
6.2125,-0.6160000000000001,-0.3556476   -7.554483
6.2125,0.6160000000000001,-0.3556476    -7.554483
6.2125,-0.0,0.7112956   -7.554483
-49.95,-3.0799996000000003,0.3556476    -0.625931
-49.95,-1.848,2.4895340000000004        -0.625931
-49.95,-1.2320000000000002,-2.8451820000000003  -0.625931
-49.95,1.2320000000000002,-2.8451820000000003   -0.625931
-49.95,3.0799996000000003,0.3556476     -0.625931
-49.95,1.848,2.4895340000000004 -0.625931
-26.975,-2.4639996,0.7112956    4.409069
-26.975,-1.848,1.7782388000000002       4.409069
-26.975,-0.6160000000000001,-2.4895340000000004 4.409069
-26.975,0.6160000000000001,-2.4895340000000004  4.409069
-26.975,1.848,1.7782388000000002        4.409069
-26.975,2.4639996,0.7112956     4.409069
19.6625,-2.4639996,-0.0 -5.030367
19.6625,-1.2320000000000002,-2.1338864  -5.030367
19.6625,-1.2320000000000002,2.1338864   -5.030367
19.6625,-2.4639996,0.0  5.039632
19.6625,-1.2320000000000002,-2.1338864  5.039632
19.6625,1.2320000000000002,-2.1338864   -5.030367
19.6625,1.2320000000000002,2.1338864    -5.030367
19.6625,2.4639996,-0.0  -5.030367
19.6625,-1.2320000000000002,2.1338864   5.039632
19.6625,1.2320000000000002,-2.1338864   5.039632
19.6625,2.4639996,0.0   5.039632
19.6625,1.2320000000000002,2.1338864    5.039632
72.3,-3.0799996000000003,-0.3556476     2.515516
72.3,-1.848,-2.4895340000000004 2.515516
72.3,-1.2320000000000002,2.8451820000000003     2.515516
72.3,1.848,-2.4895340000000004  2.515516
72.3,3.0799996000000003,-0.3556476      2.515516
72.3,1.2320000000000002,2.8451820000000003      2.515516
-9.3375,-3.0799996000000003,-1.0669432  0.004632
-9.3375,-3.0799996000000003,1.0669432   0.004632
-9.3375,-2.4639996,-2.1338864   0.004632
-9.3375,-2.4639996,2.1338864    0.004632
-9.3375,-0.6160000000000001,-3.2008296000000005 0.004632
-9.3375,0.6160000000000001,-3.2008296000000005  0.004632
-9.3375,-0.6160000000000001,3.2008296000000005  0.004632
-9.3375,2.4639996,-2.1338864    0.004632
-9.3375,0.6160000000000001,3.2008296000000005   0.004632
-9.3375,3.0799996000000003,-1.0669432   0.004632
-9.3375,3.0799996000000003,1.0669432    0.004632
-9.3375,2.4639996,2.1338864     0.004632
-57.25,-3.0799996000000003,0.3556476    -2.519484
-57.25,-1.848,2.4895340000000004        -2.519484
-57.25,-1.2320000000000002,-2.8451820000000003  -2.519484
-57.25,1.2320000000000002,-2.8451820000000003   -2.519484
-57.25,3.0799996000000003,0.3556476     -2.519484
-57.25,1.848,2.4895340000000004 -2.519484
1212.8,-0.0,-0.0        -8.177907
-46.400000000000006,-1.2320000000000002,-0.7112956      7.550516
-46.400000000000006,0.0,1.4225908       7.550516
-46.400000000000006,1.2320000000000002,-0.7112956       7.550516
-241.4,-1.2320000000000002,0.7112956    -7.554483
-241.4,-0.0,-1.4225908  -7.554483
-241.4,1.2320000000000002,0.7112956     -7.554483
19.5625,-3.0799996000000003,1.0669432   1.892092
19.5625,-3.0799996000000003,-1.0669432  1.892092
19.5625,-2.4639996,-2.1338864   1.892092
19.5625,-2.4639996,2.1338864    1.892092
19.5625,-0.6160000000000001,-3.2008296000000005 1.892092
19.5625,0.6160000000000001,-3.2008296000000005  1.892092
19.5625,-0.6160000000000001,3.2008296000000005  1.892092
19.5625,2.4639996,-2.1338864    1.892092
19.5625,0.6160000000000001,3.2008296000000005   1.892092
19.5625,3.0799996000000003,-1.0669432   1.892092
19.5625,3.0799996000000003,1.0669432    1.892092
19.5625,2.4639996,2.1338864     1.892092
-202.0,-2.4639996,-1.4225908    4.409069
-202.0,2.4639996,-1.4225908     4.409069
-202.0,0.0,2.8451820000000003   4.409069
10.328125,-2.4639996,0.7112956  -5.660931
10.328125,-0.6160000000000001,-2.4895340000000004       -5.660931
10.328125,-1.848,1.7782388000000002     -5.660931
10.328125,0.6160000000000001,-2.4895340000000004        -5.660931
10.328125,1.848,1.7782388000000002      -5.660931
10.328125,2.4639996,0.7112956   -5.660931
-23.275000000000002,-2.4639996,-2.1338864       -3.142907
-23.275000000000002,-3.0799996000000003,1.0669432       -3.142907
-23.275000000000002,-3.0799996000000003,-1.0669432      -3.142907
-23.275000000000002,-2.4639996,2.1338864        -3.142907
-23.275000000000002,-0.6160000000000001,-3.2008296000000005     -3.142907
-23.275000000000002,0.6160000000000001,-3.2008296000000005      -3.142907
-23.275000000000002,-0.6160000000000001,3.2008296000000005      -3.142907
-23.275000000000002,3.0799996000000003,-1.0669432       -3.142907
-23.275000000000002,2.4639996,-2.1338864        -3.142907
-23.275000000000002,0.6160000000000001,3.2008296000000005       -3.142907
-23.275000000000002,3.0799996000000003,1.0669432        -3.142907
-23.275000000000002,2.4639996,2.1338864 -3.142907
26.1625,-1.848,-1.0669432       6.927092
26.1625,-1.848,1.0669432        6.927092
26.1625,1.848,-1.0669432        6.927092
26.1625,1.848,1.0669432 6.927092
26.1625,-0.0,-2.1338864 6.927092
26.1625,0.0,2.1338864   6.927092
-33.300000000000004,-1.2320000000000002,-0.0    -8.177907
-33.300000000000004,-0.6160000000000001,1.0669432       -8.177907
-33.300000000000004,-0.6160000000000001,-1.0669432      -8.177907
-33.300000000000004,0.6160000000000001,-1.0669432       -8.177907
-33.300000000000004,1.2320000000000002,-0.0     -8.177907
-33.300000000000004,0.6160000000000001,1.0669432        -8.177907
-36.362500000000004,-1.2320000000000002,1.4225908       7.550516
-36.362500000000004,1.2320000000000002,1.4225908        7.550516
-36.362500000000004,-1.848,0.3556476    7.550516
-36.362500000000004,1.848,0.3556476     7.550516
-36.362500000000004,-0.6160000000000001,-1.7782388000000002     7.550516
-36.362500000000004,0.6160000000000001,-1.7782388000000002      7.550516
-18.275000000000002,-1.2320000000000002,-1.4225908      -7.554483
-18.275000000000002,1.2320000000000002,-1.4225908       -7.554483
-18.275000000000002,-1.848,-0.3556476   -7.554483
-18.275000000000002,1.848,-0.3556476    -7.554483
-18.275000000000002,-0.6160000000000001,1.7782388000000002      -7.554483
-18.275000000000002,0.6160000000000001,1.7782388000000002       -7.554483
-200.10000000000002,0.0,3.5564772       -0.625931
-200.10000000000002,-3.0799996000000003,-1.7782388000000002     -0.625931
-200.10000000000002,3.0799996000000003,-1.7782388000000002      -0.625931
-107.9,-3.0799996000000003,-0.3556476   4.409069
-107.9,-1.848,-2.4895340000000004       4.409069
-107.9,-1.2320000000000002,2.8451820000000003   4.409069
-107.9,1.848,-2.4895340000000004        4.409069
-107.9,3.0799996000000003,-0.3556476    4.409069
-107.9,1.2320000000000002,2.8451820000000003    4.409069
124.15,-2.4639996,-1.4225908    -5.660931
124.15,2.4639996,-1.4225908     -5.660931
124.15,0.0,2.8451820000000003   -5.660931
234.8,-0.0,-3.5564772   2.515516
234.8,-3.0799996000000003,1.7782388000000002    2.515516
234.8,3.0799996000000003,1.7782388000000002     2.515516
-37.550000000000004,-3.6959996,-0.0     0.004632
-37.550000000000004,1.848,-3.2008296000000005   0.004632
-37.550000000000004,-1.848,3.2008296000000005   0.004632
-37.550000000000004,3.6959996,-0.0      0.004632
-37.550000000000004,-1.848,-3.2008296000000005  0.004632
-37.550000000000004,1.848,3.2008296000000005    0.004632
-154.3,0.0,3.5564772    -2.519484
-154.3,-3.0799996000000003,-1.7782388000000002  -2.519484
-154.3,3.0799996000000003,-1.7782388000000002   -2.519484
91.2,-2.4639996,0.0     6.927092
91.2,-1.2320000000000002,-2.1338864     6.927092
91.2,-1.2320000000000002,2.1338864      6.927092
91.2,1.2320000000000002,-2.1338864      6.927092
91.2,2.4639996,0.0      6.927092
91.2,1.2320000000000002,2.1338864       6.927092
84.75,-3.6959996,-0.7112956     -0.625931
84.75,-1.2320000000000002,3.5564772     -0.625931
84.75,-2.4639996,-2.8451820000000003    -0.625931
84.75,2.4639996,-2.8451820000000003     -0.625931
84.75,1.2320000000000002,3.5564772      -0.625931
84.75,3.6959996,-0.7112956      -0.625931
44.775000000000006,-3.6959996,0.0       1.892092
44.775000000000006,-1.848,-3.2008296000000005   1.892092
44.775000000000006,-1.848,3.2008296000000005    1.892092
44.775000000000006,1.848,-3.2008296000000005    1.892092
44.775000000000006,3.6959996,0.0        1.892092
44.775000000000006,1.848,3.2008296000000005     1.892092
-1.7281250000000001,-3.0799996000000003,1.0669432       -5.030367
-1.7281250000000001,-3.0799996000000003,-1.0669432      -5.030367
-1.7281250000000001,-2.4639996,-2.1338864       -5.030367
-1.7281250000000001,-2.4639996,2.1338864        -5.030367
-1.7281250000000001,-3.0799996000000003,1.0669432       5.039632
-1.7281250000000001,0.6160000000000001,-3.2008296000000005      -5.030367
-1.7281250000000001,-0.6160000000000001,-3.2008296000000005     -5.030367
-1.7281250000000001,-3.0799996000000003,-1.0669432      5.039632
-1.7281250000000001,-2.4639996,-2.1338864       5.039632
-1.7281250000000001,-0.6160000000000001,3.2008296000000005      -5.030367
-1.7281250000000001,0.6160000000000001,-3.2008296000000005      5.039632
-1.7281250000000001,-2.4639996,2.1338864        5.039632
-1.7281250000000001,-0.6160000000000001,-3.2008296000000005     5.039632
-1.7281250000000001,2.4639996,-2.1338864        -5.030367
-1.7281250000000001,0.6160000000000001,3.2008296000000005       -5.030367
-1.7281250000000001,3.0799996000000003,-1.0669432       -5.030367
-1.7281250000000001,3.0799996000000003,1.0669432        -5.030367
-1.7281250000000001,2.4639996,2.1338864 -5.030367
-1.7281250000000001,-0.6160000000000001,3.2008296000000005      5.039632
-1.7281250000000001,2.4639996,-2.1338864        5.039632
-1.7281250000000001,3.0799996000000003,-1.0669432       5.039632
-1.7281250000000001,0.6160000000000001,3.2008296000000005       5.039632
-1.7281250000000001,3.0799996000000003,1.0669432        5.039632
-1.7281250000000001,2.4639996,2.1338864 5.039632
-0.275,-3.0799996000000003,-0.3556476   -5.660931
-0.275,-1.848,-2.4895340000000004       -5.660931
-0.275,-1.2320000000000002,2.8451820000000003   -5.660931
-0.275,1.848,-2.4895340000000004        -5.660931
-0.275,1.2320000000000002,2.8451820000000003    -5.660931
-0.275,3.0799996000000003,-0.3556476    -5.660931
46.400000000000006,-0.6160000000000001,0.3556476        9.444068
46.400000000000006,0.0,-0.7112956       9.444068
46.400000000000006,0.6160000000000001,0.3556476 9.444068
20.525000000000002,-3.6959996,0.7112956 2.515516
20.525000000000002,-1.2320000000000002,-3.5564772       2.515516
20.525000000000002,1.2320000000000002,-3.5564772        2.515516
20.525000000000002,-2.4639996,2.8451820000000003        2.515516
20.525000000000002,3.6959996,0.7112956  2.515516
20.525000000000002,2.4639996,2.8451820000000003 2.515516
62.75,-3.6959996,-0.7112956     -2.519484
62.75,-1.2320000000000002,3.5564772     -2.519484
62.75,-2.4639996,-2.8451820000000003    -2.519484
62.75,2.4639996,-2.8451820000000003     -2.519484
62.75,3.6959996,-0.7112956      -2.519484
62.75,1.2320000000000002,3.5564772      -2.519484
87.85000000000001,-3.6959996,-0.0       -3.142907
87.85000000000001,-1.848,-3.2008296000000005    -3.142907
87.85000000000001,-1.848,3.2008296000000005     -3.142907
87.85000000000001,1.848,-3.2008296000000005     -3.142907
87.85000000000001,3.6959996,-0.0        -3.142907
87.85000000000001,1.848,3.2008296000000005      -3.142907
3.458203124,-1.848,-1.0669432   -8.177907
3.458203124,-1.848,1.0669432    -8.177907
3.458203124,1.848,1.0669432     -8.177907
3.458203124,1.848,-1.0669432    -8.177907
3.458203124,-0.0,-2.1338864     -8.177907
3.458203124,0.0,2.1338864       -8.177907
100.75,-1.848,-1.7782388000000002       7.550516
100.75,-2.4639996,-0.7112956    7.550516
100.75,-0.6160000000000001,2.4895340000000004   7.550516
100.75,1.848,-1.7782388000000002        7.550516
100.75,0.6160000000000001,2.4895340000000004    7.550516
100.75,2.4639996,-0.7112956     7.550516
-139.20000000000002,-1.848,1.7782388000000002   -7.554483
-139.20000000000002,-2.4639996,0.7112956        -7.554483
-139.20000000000002,-0.6160000000000001,-2.4895340000000004     -7.554483
-139.20000000000002,0.6160000000000001,-2.4895340000000004      -7.554483
-139.20000000000002,2.4639996,0.7112956 -7.554483
-139.20000000000002,1.848,1.7782388000000002    -7.554483
28.50625,-3.0799996000000003,2.4895340000000004 -0.625931
28.50625,-3.6959996,1.4225908   -0.625931
28.50625,-0.6160000000000001,-3.9121252 -0.625931
28.50625,0.6160000000000001,-3.9121252  -0.625931
28.50625,3.6959996,1.4225908    -0.625931
28.50625,3.0799996000000003,2.4895340000000004  -0.625931
-193.5,-0.0,-3.5564772  4.409069
-193.5,-3.0799996000000003,1.7782388000000002   4.409069
-193.5,3.0799996000000003,1.7782388000000002    4.409069

End of input

&SCF
Occupied
9
Iterations
   50  100
End of Input

&RASSCF
LumOrb
Symmetry
1
Spin
2
Nactel
1 0 0
CIRoot
9 9 1
inactive
9
ras2
9
End of Input

>>> COPY tungsten_so_cf.JobIph $SLURM_SUBMIT_DIR/tungsten_so_cf.doublet.JobIph

>>> COPY $SLURM_SUBMIT_DIR/tungsten_so_cf.doublet.JobIph ./JOB002

&RASSI
NROFJobIph
1 All
SpinOrbit
End of Input

EOF

-- ----------------------------------

--- Start Module: seward at Tue Mar 25 17:57:07 2025 ---

()()()()()()()()()()()()()()()()()()()()()()()()()()()()()()()()()()()()()()()()()()()()()()()()()()

                                              &SEWARD

                                   only a single process is used
                       available to each process: 4.1 GB of memory, 1 thread?
                                            pid: 665539
()()()()()()()()()()()()()()()()()()()()()()()()()()()()()()()()()()()()()()()()()()()()()()()()()()

 The speed of LIGHT in this CALCULATION =   137.03599917700001     
               SEWARD will generate:
                  Multipole Moment integrals up to order  2
                  Kinetic Energy integrals
                  Nuclear Attraction integrals (point charge)
                  One-Electron Hamiltonian integrals
                  Velocity integrals
                  Relativistic Douglas-Kroll-Hess integrals:
                    - Parametrization         : EXP
                    - DKH order of Hamiltonian: 2
                    - DKH order of Properties : 0
                         - multipole moment operators
                         - electric potential operators
                         - contact operators
                  External field from   414 point(s) added to the one-electron Hamiltonian
                  Orbital angular momentum around (-0.0000 -0.0000  0.0088 )
                  Velocity quadrupole around (-0.0000 -0.0000  0.0088 )
                  Atomic mean-field integrals
                  Two-Electron Repulsion integrals

                   Integrals are discarded if absolute value <: 0.10E-13
                   Integral cutoff threshold is set to       <: 0.10E-15

++    Symmetry information:
      ---------------------

                    Character Table for C1 

                             E  
                    a        1  x, y, xy, Rz, z, xz, Ry, yz, Rx, I
--


++    Basis set information:
      ----------------------


      Basis set label: W.ANO-RCC.ROOS.24S21P15D11F4G2H.11S10P9D8F4G2H......

      Electronic valence basis set:
      ------------------
      Associated Effective Charge  74.000000 au
      Associated Actual Charge     74.000000 au
      Nuclear Model: Point charge

      Shell  nPrim  nBasis  Cartesian Spherical Contaminant
         s      24      11        X                  
         p      21      10        X                  
         d      15       9                 X         
         f      11       8                 X         
         g       4       4                 X         
         h       2       2                 X         
--


++    Molecular structure info:
      -------------------------

                    ************************************************ 
                    **** Cartesian Coordinates / Bohr, Angstrom **** 
                    ************************************************ 

     Center  Label                x              y              z                     x              y              z
        1      W               -0.000000      -0.000000       0.008754             -0.000000      -0.000000       0.004632
--


++    Operator info:
      --------------


  Net charge from external field:   -39.268449999999902     
--


            Nuclear Potential Energy              0.00000000 au

                    Nuclear-External Field Potential Energy   -1692.55479959 au
                    External Field Potential Energy            4014.09225346 au 


            Total Nuclear Potential Energy          -1692.55479959 au


      Basis set specifications :
      Symmetry species         a  
      Basis functions          200

 Sorry, Molden does not know how to handle
 functions with angular momentum larger than g
Note: The following floating-point exceptions are signalling: IEEE_UNDERFLOW_FLAG IEEE_DENORMAL
--- Stop Module: seward at Tue Mar 25 17:57:30 2025 /rc=_RC_ALL_IS_WELL_ ---
*** files: tungsten_so_cf.GssOrb xmldump
    saved to directory /home4/s4752295/Internship/Initial_simulations/Point_charge_model/1_electron/Madelung_charges_9_active_space/W
--- Module seward spent 23 seconds ---

*** symbolic link created: INPORB -> tungsten_so_cf.GssOrb
--- Start Module: scf at Tue Mar 25 17:57:30 2025 ---

()()()()()()()()()()()()()()()()()()()()()()()()()()()()()()()()()()()()()()()()()()()()()()()()()()

                                                &SCF

                                   only a single process is used
                       available to each process: 4.1 GB of memory, 1 thread?
                                            pid: 665551
()()()()()()()()()()()()()()()()()()()()()()()()()()()()()()()()()()()()()()()()()()()()()()()()()()

++    Input section:
      --------------

      Header of the integral files:
      
       Integrals generated by seward 4.2.0  , Tue Mar 25 17:57:08 2025


      Cartesian coordinates in Angstrom:
      -----------------------------------------------------
      No.  Label        X            Y            Z        
      -----------------------------------------------------
       1   W         -0.00000000  -0.00000000   0.00463220
      -----------------------------------------------------
      Nuclear repulsion energy =-1692.55479959
--

++    Orbital specifications:
      -----------------------

      Symmetry species               1
                                     a
      Frozen orbitals                0
      Occupied orbitals              9
      Secondary orbitals           191
      Deleted orbitals               0
      Total number of orbitals     200
      Number of basis functions    200
--

      Molecular charge                          56.000

++    Optimization specifications:
      ----------------------------

      SCF Algorithm: Conventional
      Minimized density differences are used
      Number of density matrices in core                5
      Maximum number of NDDO SCF iterations            50
      Maximum number of HF SCF iterations             100
      Threshold for SCF energy change            0.10E-08
      Threshold for density matrix               0.10E-03
      Threshold for Fock matrix                  0.15E-03
      Threshold for linear dependence            0.10E-08
      Threshold at which DIIS is turned on       0.15E+00
      Threshold at which QNR/C2DIIS is turned on 0.75E-01
      Threshold for Norm(delta) (QNR/C2DIIS)     0.20E-04
      DIIS extrapolation of the SCF procedure
      All orbitals punched on: SCFORB
--

      Detected guessorb starting orbitals                                             


++ Convergence information
                                   SCF        iterations: Energy and convergence statistics

Iter     Tot. SCF        One-elec.       Two-elec.     Energy      Max Dij or  Max Fij      DNorm      TNorm      AccCon     Time
         Energy          Energy          Energy        Change      Delta Norm                                                in Sec.

 The total and one-electron energies are shifted by a value of     14000. a.u.

   1  -194.854631970   228.853201014  1268.846966605   0.00E+00    0.22E+00*   0.90E+01*    0.60E+01   0.65E+03   None         1.
   2  -206.001819265   172.664433973  1313.888546351  -0.11E+02*   0.36E-02*   0.19E+00*    0.91E+00   0.66E+03   EDIIS        1.
   3  -206.005503910   173.213067239  1313.336228440  -0.37E-02*   0.38E-03*   0.69E-02*    0.14E-01   0.66E+03   EDIIS        1.
   4  -206.005508971   173.201663667  1313.347626950  -0.51E-05*   0.10E-04    0.62E-03*    0.74E-03   0.66E+03   c2DIIS       1.
   5  -206.005509003   173.201827401  1313.347463185  -0.32E-07*   0.13E-05    0.26E-04     0.20E-04   0.66E+03   QNRc2DIIS    1.
   6  -206.005509003   173.201829885  1313.347460701  -0.89E-10    0.36E-06    0.39E-05     0.77E-04   0.66E+03   QNRc2DIIS    1.

       Convergence after  6 Macro Iterations
--

 *****************************************************************************************************************************
 *                                                                                                                           *
 *                                             SCF/KS-DFT Program, Final results                                             *
 *                                                                                                                           *
 *                                                                                                                           *
 *                                                                                                                           *
 *                                                       Final Results                                                       *
 *                                                                                                                           *
 *****************************************************************************************************************************

::    Total SCF energy                             -14206.0055090031
      One-electron energy                          -13826.7981701147
      Two-electron energy                            1313.3474607006
      Nuclear repulsion energy                      -1692.5547995889
      Kinetic energy (interpolated)                 19280.0627935964
      Virial theorem                                    0.7368236121
      Total spin, S(S+1)                                0.0000000000
      Total spin, S                                     0.0000000000
      Max non-diagonal density matrix element           0.0000004784
      Max non-diagonal Fock matrix element              0.0000008577


      All orbitals with orbital energies smaller than  E(LUMO)+0.5 are printed

++    Molecular orbitals:
      -------------------

      Title: SCF orbitals

      Molecular orbitals for symmetry species 1: a  

          Some orbital energies have been scaled by powers of 10, the power is written right after the orbital index


          Orbital            1 (1)     2         3         4         5         6         7         8         9        10    
          Energy         -269.2166 -571.4319 -517.4839 -517.4839 -517.4787 -208.5212 -191.8472 -191.8472 -191.7915 -171.8661
          Occ. No.          2.0000    2.0000    2.0000    2.0000    2.0000    2.0000    2.0000    2.0000    2.0000    0.0000

        1 W      1s         1.0000    0.0001    0.0000    0.0000   -0.0000   -0.0000   -0.0000    0.0000    0.0000   -0.0000
        2 W      2s        -0.0001    0.9999    0.0000    0.0000   -0.0025    0.0122    0.0000   -0.0000   -0.0007   -0.0000
        3 W      3s         0.0000   -0.0118   -0.0000   -0.0000    0.0003    0.9946    0.0001   -0.0000   -0.0333   -0.0000
        4 W      4s        -0.0000    0.0034    0.0000    0.0000   -0.0001   -0.0798   -0.0000    0.0000    0.0046    0.0000
        5 W      5s         0.0000   -0.0012   -0.0000   -0.0000    0.0000    0.0234    0.0000   -0.0000   -0.0014   -0.0000
        6 W      6s        -0.0000    0.0003    0.0000    0.0000   -0.0000   -0.0062   -0.0000    0.0000    0.0004    0.0000
        7 W      7s         0.0000   -0.0004   -0.0000   -0.0000    0.0000    0.0069    0.0000   -0.0000   -0.0004   -0.0000
        8 W      8s        -0.0000    0.0010    0.0000    0.0000   -0.0000   -0.0175   -0.0000    0.0000    0.0010   -0.0000
        9 W      9s         0.0000   -0.0013   -0.0000   -0.0000    0.0000    0.0223    0.0000   -0.0000   -0.0014    0.0000
       10 W     10s        -0.0000    0.0016    0.0000    0.0000   -0.0000   -0.0251   -0.0000    0.0000    0.0015    0.0000
       11 W     11s         0.0000   -0.0024   -0.0000   -0.0000    0.0000    0.0311    0.0000   -0.0000   -0.0018   -0.0000
       12 W      2px        0.0000    0.0026   -0.0068   -0.0000    0.9999    0.0002   -0.0001    0.0000    0.0143    0.0000
       13 W      3px       -0.0000    0.0002    0.0001    0.0000   -0.0137    0.0338   -0.0057    0.0000    0.9922    0.0000
       14 W      4px        0.0000   -0.0001   -0.0000   -0.0000    0.0038   -0.0017    0.0005   -0.0000   -0.0913   -0.0000
       15 W      5px       -0.0000    0.0000    0.0000    0.0000   -0.0012    0.0004   -0.0001    0.0000    0.0253    0.0000
       16 W      6px        0.0000   -0.0000   -0.0000   -0.0000    0.0005   -0.0002    0.0001   -0.0000   -0.0102   -0.0000
       17 W      7px       -0.0000    0.0000    0.0000    0.0000   -0.0016    0.0004   -0.0002    0.0000    0.0303    0.0000
       18 W      8px        0.0000   -0.0000   -0.0000   -0.0000    0.0017   -0.0004    0.0002   -0.0000   -0.0301   -0.0000
       19 W      9px       -0.0000    0.0000    0.0000    0.0000   -0.0019    0.0004   -0.0002    0.0000    0.0310    0.0000
       20 W     10px        0.0000   -0.0000   -0.0000   -0.0000    0.0020   -0.0004    0.0002   -0.0000   -0.0284   -0.0000
       21 W     11px       -0.0000    0.0000    0.0000    0.0000   -0.0027    0.0002   -0.0002    0.0000    0.0287    0.0000
       22 W      2py        0.0000    0.0000   -0.0000    0.9999   -0.0000   -0.0000    0.0000    0.0142    0.0000    0.0000
       23 W      3py       -0.0000   -0.0000    0.0000   -0.0137    0.0000   -0.0000    0.0000    0.9929    0.0000    0.0002
       24 W      4py        0.0000    0.0000   -0.0000    0.0038   -0.0000    0.0000   -0.0000   -0.0911   -0.0000   -0.0000
       25 W      5py       -0.0000   -0.0000    0.0000   -0.0012    0.0000   -0.0000    0.0000    0.0252    0.0000    0.0000
       26 W      6py        0.0000    0.0000   -0.0000    0.0005   -0.0000    0.0000   -0.0000   -0.0102   -0.0000   -0.0000
       27 W      7py       -0.0000   -0.0000    0.0000   -0.0016    0.0000   -0.0000    0.0000    0.0302    0.0000    0.0000
       28 W      8py        0.0000    0.0000   -0.0000    0.0017   -0.0000    0.0000   -0.0000   -0.0300   -0.0000   -0.0000
       29 W      9py       -0.0000   -0.0000    0.0000   -0.0019    0.0000   -0.0000    0.0000    0.0309    0.0000    0.0000
       30 W     10py        0.0000    0.0000   -0.0000    0.0020   -0.0000    0.0000   -0.0000   -0.0283   -0.0000   -0.0000
       31 W     11py       -0.0000   -0.0000    0.0000   -0.0027    0.0000   -0.0000    0.0000    0.0287    0.0000    0.0000
       32 W      2pz        0.0000    0.0000    0.9999    0.0000    0.0068    0.0000    0.0142   -0.0000    0.0001    0.0000
       33 W      3pz       -0.0000    0.0000   -0.0137   -0.0000   -0.0001    0.0001    0.9929   -0.0000    0.0057    0.0000
       34 W      4pz        0.0000   -0.0000    0.0038    0.0000    0.0000   -0.0000   -0.0911    0.0000   -0.0005   -0.0000
       35 W      5pz       -0.0000    0.0000   -0.0012   -0.0000   -0.0000    0.0000    0.0252   -0.0000    0.0001    0.0000
       36 W      6pz        0.0000   -0.0000    0.0005    0.0000    0.0000   -0.0000   -0.0102    0.0000   -0.0001    0.0000
       37 W      7pz       -0.0000    0.0000   -0.0016   -0.0000   -0.0000    0.0000    0.0302   -0.0000    0.0002    0.0000
       38 W      8pz        0.0000   -0.0000    0.0017    0.0000    0.0000   -0.0000   -0.0300    0.0000   -0.0002   -0.0000
       39 W      9pz       -0.0000    0.0000   -0.0019   -0.0000   -0.0000    0.0000    0.0309   -0.0000    0.0002    0.0000
       40 W     10pz        0.0000   -0.0000    0.0020    0.0000    0.0000   -0.0000   -0.0283    0.0000   -0.0002   -0.0000
       41 W     11pz       -0.0000    0.0000   -0.0027   -0.0000   -0.0000    0.0000    0.0287   -0.0000    0.0002    0.0000
       42 W      3d2-      -0.0000   -0.0000   -0.0000    0.0003   -0.0000   -0.0000    0.0000    0.0228    0.0000   -0.0126
       43 W      4d2-       0.0000    0.0000    0.0000   -0.0001    0.0000    0.0000   -0.0000   -0.0007   -0.0000    0.0012
       44 W      5d2-      -0.0000   -0.0000   -0.0000    0.0000   -0.0000   -0.0000    0.0000    0.0001    0.0000   -0.0002
       45 W      6d2-       0.0000    0.0000    0.0000   -0.0000    0.0000    0.0000   -0.0000   -0.0001   -0.0000    0.0003
       46 W      7d2-      -0.0000   -0.0000   -0.0000    0.0000   -0.0000   -0.0000    0.0000    0.0001    0.0000   -0.0004
       47 W      8d2-       0.0000    0.0000    0.0000   -0.0000    0.0000    0.0000   -0.0000   -0.0001   -0.0000    0.0005
       48 W      9d2-      -0.0000   -0.0000   -0.0000    0.0000   -0.0000   -0.0000    0.0000    0.0001    0.0000   -0.0005
       49 W     10d2-       0.0000    0.0000    0.0000   -0.0000    0.0000    0.0000   -0.0000   -0.0000    0.0000    0.0005
       50 W     11d2-      -0.0000   -0.0000   -0.0000    0.0001   -0.0000   -0.0000   -0.0000   -0.0001   -0.0000   -0.0004
       51 W      3d1-       0.0000   -0.0000   -0.0000    0.0000   -0.0000   -0.0000    0.0000    0.0000    0.0000    0.9917
       52 W      4d1-      -0.0000    0.0000    0.0000   -0.0000    0.0000    0.0000   -0.0000   -0.0000   -0.0000   -0.0958
       53 W      5d1-       0.0000   -0.0000   -0.0000    0.0000   -0.0000   -0.0000    0.0000    0.0000   -0.0000    0.0186
       54 W      6d1-      -0.0000    0.0000    0.0000   -0.0000    0.0000   -0.0000    0.0000    0.0000   -0.0000   -0.0254
       55 W      7d1-       0.0000   -0.0000   -0.0000    0.0000   -0.0000   -0.0000   -0.0000   -0.0000    0.0000    0.0328
       56 W      8d1-      -0.0000    0.0000   -0.0000    0.0000    0.0000    0.0000   -0.0000   -0.0000   -0.0000   -0.0372
       57 W      9d1-       0.0000    0.0000   -0.0000    0.0000   -0.0000    0.0000    0.0000    0.0000    0.0000    0.0370
       58 W     10d1-      -0.0000   -0.0000    0.0000   -0.0000    0.0000   -0.0000    0.0000    0.0000   -0.0000   -0.0396
       59 W     11d1-       0.0000    0.0000   -0.0000    0.0000   -0.0000    0.0000    0.0000    0.0000    0.0000    0.0299
       60 W      3d0        0.0000    0.0000    0.0000    0.0000   -0.0002    0.0002    0.0001   -0.0000   -0.0134   -0.0000
       61 W      4d0       -0.0000   -0.0000   -0.0000   -0.0000    0.0000    0.0000   -0.0000    0.0000    0.0004    0.0000
       62 W      5d0        0.0000    0.0000    0.0000    0.0000   -0.0000   -0.0000    0.0000   -0.0000   -0.0001   -0.0000
       63 W      6d0       -0.0000   -0.0000   -0.0000   -0.0000    0.0000    0.0000   -0.0000    0.0000    0.0001    0.0000
       64 W      7d0        0.0000    0.0000    0.0000    0.0000   -0.0000   -0.0000    0.0000   -0.0000   -0.0001   -0.0000
       65 W      8d0       -0.0000   -0.0000   -0.0000   -0.0000    0.0000    0.0000    0.0000   -0.0000    0.0001    0.0000
       66 W      9d0        0.0000    0.0000    0.0000    0.0000   -0.0000   -0.0000    0.0000   -0.0000   -0.0000   -0.0000
       67 W     10d0       -0.0000   -0.0000   -0.0000   -0.0000    0.0000    0.0000   -0.0000    0.0000    0.0000    0.0000
       68 W     11d0        0.0000    0.0000    0.0000    0.0000   -0.0000   -0.0000   -0.0000    0.0000    0.0000   -0.0000
       69 W      3d1+      -0.0000   -0.0000    0.0003    0.0000    0.0000   -0.0000    0.0228   -0.0000    0.0002   -0.0000
       70 W      4d1+       0.0000    0.0000   -0.0001   -0.0000   -0.0000   -0.0000   -0.0007    0.0000   -0.0000    0.0000
       71 W      5d1+      -0.0000   -0.0000    0.0000    0.0000    0.0000    0.0000    0.0001   -0.0000    0.0000   -0.0000
       72 W      6d1+       0.0000    0.0000   -0.0000   -0.0000   -0.0000   -0.0000   -0.0001    0.0000   -0.0000    0.0000
       73 W      7d1+      -0.0000   -0.0000    0.0000    0.0000    0.0000    0.0000    0.0001   -0.0000    0.0000   -0.0000
       74 W      8d1+       0.0000    0.0000   -0.0000   -0.0000   -0.0000   -0.0000   -0.0001    0.0000   -0.0000    0.0000
       75 W      9d1+      -0.0000   -0.0000    0.0000    0.0000    0.0000    0.0000    0.0001   -0.0000    0.0000   -0.0000
       76 W     10d1+       0.0000    0.0000   -0.0000   -0.0000   -0.0000   -0.0000   -0.0000    0.0000   -0.0000    0.0000
       77 W     11d1+      -0.0000   -0.0000    0.0001    0.0000    0.0000    0.0000   -0.0001    0.0000   -0.0000   -0.0000
       78 W      3d2+      -0.0000   -0.0000   -0.0000   -0.0000    0.0003   -0.0003   -0.0001    0.0000    0.0232   -0.0000
       79 W      4d2+       0.0000    0.0000    0.0000    0.0000   -0.0001   -0.0000    0.0000   -0.0000   -0.0007    0.0000
       80 W      5d2+      -0.0000   -0.0000   -0.0000   -0.0000    0.0000    0.0000   -0.0000    0.0000    0.0001   -0.0000
       81 W      6d2+       0.0000    0.0000    0.0000    0.0000   -0.0000   -0.0000   -0.0000    0.0000   -0.0001    0.0000
       82 W      7d2+      -0.0000   -0.0000   -0.0000   -0.0000    0.0000    0.0000   -0.0000    0.0000    0.0001   -0.0000
       83 W      8d2+       0.0000    0.0000    0.0000    0.0000   -0.0000   -0.0000    0.0000   -0.0000   -0.0001    0.0000
       84 W      9d2+      -0.0000   -0.0000   -0.0000   -0.0000    0.0000    0.0000   -0.0000    0.0000    0.0001   -0.0000
       85 W     10d2+       0.0000    0.0000    0.0000    0.0000   -0.0000   -0.0000   -0.0000    0.0000   -0.0000    0.0000
       86 W     11d2+      -0.0000   -0.0000   -0.0000   -0.0000    0.0001    0.0000    0.0000   -0.0000   -0.0001   -0.0000
       87 W      4f3-       0.0000   -0.0000    0.0000   -0.0000    0.0000    0.0000   -0.0000   -0.0001   -0.0000   -0.0000
       88 W      5f3-      -0.0000    0.0000   -0.0000    0.0000   -0.0000   -0.0000    0.0000    0.0001    0.0000    0.0000
       89 W      6f3-       0.0000   -0.0000    0.0000   -0.0000    0.0000    0.0000   -0.0000   -0.0000   -0.0000   -0.0000
       90 W      7f3-      -0.0000   -0.0000   -0.0000    0.0000   -0.0000   -0.0000    0.0000    0.0000    0.0000    0.0000
       91 W      8f3-       0.0000    0.0000    0.0000   -0.0000    0.0000    0.0000   -0.0000   -0.0000   -0.0000   -0.0000
       92 W      9f3-      -0.0000   -0.0000   -0.0000    0.0000   -0.0000   -0.0000    0.0000    0.0000    0.0000    0.0000
       93 W     10f3-       0.0000    0.0000    0.0000   -0.0000    0.0000    0.0000   -0.0000   -0.0000    0.0000   -0.0000
       94 W     11f3-      -0.0000   -0.0000   -0.0000    0.0000   -0.0000   -0.0000    0.0000    0.0000    0.0000    0.0000
       95 W      4f2-       0.0000    0.0000    0.0000   -0.0000    0.0000    0.0000   -0.0000   -0.0000   -0.0000    0.0020
       96 W      5f2-      -0.0000   -0.0000   -0.0000    0.0000   -0.0000   -0.0000    0.0000    0.0000    0.0000   -0.0014
       97 W      6f2-       0.0000    0.0000    0.0000   -0.0000    0.0000    0.0000   -0.0000   -0.0000   -0.0000    0.0014
       98 W      7f2-      -0.0000   -0.0000    0.0000   -0.0000   -0.0000    0.0000    0.0000    0.0000    0.0000   -0.0012
       99 W      8f2-       0.0000    0.0000    0.0000   -0.0000    0.0000   -0.0000   -0.0000   -0.0000   -0.0000    0.0011
      100 W      9f2-      -0.0000   -0.0000   -0.0000    0.0000    0.0000   -0.0000    0.0000    0.0000   -0.0000   -0.0008
      101 W     10f2-       0.0000    0.0000    0.0000   -0.0000   -0.0000   -0.0000    0.0000    0.0000    0.0000    0.0006
      102 W     11f2-      -0.0000   -0.0000   -0.0000    0.0000    0.0000    0.0000    0.0000    0.0000   -0.0000   -0.0004
      103 W      4f1-       0.0000    0.0000   -0.0000    0.0000   -0.0000    0.0000    0.0000    0.0000    0.0000    0.0000
      104 W      5f1-      -0.0000   -0.0000    0.0000   -0.0000    0.0000   -0.0000   -0.0000   -0.0000   -0.0000   -0.0000
      105 W      6f1-       0.0000    0.0000   -0.0000    0.0000   -0.0000    0.0000    0.0000    0.0000    0.0000    0.0000
      106 W      7f1-      -0.0000   -0.0000    0.0000   -0.0000    0.0000   -0.0000   -0.0000   -0.0000   -0.0000   -0.0000
      107 W      8f1-       0.0000    0.0000   -0.0000    0.0000   -0.0000    0.0000    0.0000    0.0000    0.0000    0.0000
      108 W      9f1-      -0.0000    0.0000    0.0000   -0.0000    0.0000   -0.0000   -0.0000   -0.0000   -0.0000   -0.0000
      109 W     10f1-      -0.0000   -0.0000   -0.0000    0.0000   -0.0000   -0.0000    0.0000    0.0000    0.0000    0.0000
      110 W     11f1-       0.0000    0.0000    0.0000   -0.0000    0.0000    0.0000   -0.0000   -0.0000    0.0000   -0.0000
      111 W      4f0        0.0000   -0.0000    0.0000    0.0000    0.0000    0.0000    0.0001   -0.0000    0.0000   -0.0000
      112 W      5f0        0.0000   -0.0000   -0.0000   -0.0000   -0.0000    0.0000   -0.0000    0.0000   -0.0000    0.0000
      113 W      6f0        0.0000   -0.0000    0.0000    0.0000    0.0000    0.0000    0.0000   -0.0000    0.0000   -0.0000
      114 W      7f0       -0.0000    0.0000   -0.0000   -0.0000   -0.0000   -0.0000   -0.0000    0.0000   -0.0000    0.0000
      115 W      8f0       -0.0000    0.0000    0.0000    0.0000    0.0000   -0.0000    0.0000   -0.0000    0.0000   -0.0000
      116 W      9f0       -0.0000    0.0000   -0.0000   -0.0000   -0.0000   -0.0000   -0.0000    0.0000   -0.0000    0.0000
      117 W     10f0        0.0000   -0.0000    0.0000    0.0000    0.0000    0.0000    0.0000   -0.0000   -0.0000   -0.0000
      118 W     11f0        0.0000   -0.0000   -0.0000   -0.0000   -0.0000    0.0000   -0.0000    0.0000   -0.0000    0.0000
      119 W      4f1+       0.0000   -0.0000   -0.0000   -0.0000    0.0000   -0.0000    0.0000   -0.0000    0.0001   -0.0000
      120 W      5f1+      -0.0000    0.0000   -0.0000   -0.0000   -0.0000    0.0000    0.0000   -0.0000   -0.0000    0.0000
      121 W      6f1+       0.0000   -0.0000   -0.0000   -0.0000    0.0000   -0.0000    0.0000   -0.0000    0.0000   -0.0000
      122 W      7f1+      -0.0000    0.0000    0.0000    0.0000   -0.0000    0.0000   -0.0000    0.0000   -0.0000    0.0000
      123 W      8f1+       0.0000   -0.0000   -0.0000   -0.0000    0.0000   -0.0000   -0.0000    0.0000    0.0000   -0.0000
      124 W      9f1+      -0.0000    0.0000    0.0000    0.0000   -0.0000    0.0000    0.0000   -0.0000   -0.0000    0.0000
      125 W     10f1+       0.0000   -0.0000   -0.0000   -0.0000    0.0000   -0.0000   -0.0000    0.0000    0.0000   -0.0000
      126 W     11f1+      -0.0000    0.0000    0.0000    0.0000   -0.0000    0.0000    0.0000   -0.0000   -0.0000    0.0000
      127 W      4f2+      -0.0000    0.0000   -0.0000   -0.0000   -0.0000    0.0000   -0.0001    0.0000    0.0000   -0.0000
      128 W      5f2+       0.0000   -0.0000    0.0000    0.0000   -0.0000    0.0000    0.0000   -0.0000    0.0000    0.0000
      129 W      6f2+       0.0000   -0.0000   -0.0000   -0.0000   -0.0000    0.0000   -0.0000    0.0000   -0.0000   -0.0000
      130 W      7f2+      -0.0000    0.0000    0.0000    0.0000    0.0000   -0.0000    0.0000   -0.0000    0.0000    0.0000
      131 W      8f2+      -0.0000    0.0000   -0.0000   -0.0000   -0.0000   -0.0000   -0.0000    0.0000   -0.0000   -0.0000
      132 W      9f2+      -0.0000    0.0000    0.0000    0.0000    0.0000   -0.0000    0.0000   -0.0000    0.0000    0.0000
      133 W     10f2+       0.0000   -0.0000   -0.0000   -0.0000   -0.0000    0.0000   -0.0000    0.0000   -0.0000   -0.0000
      134 W     11f2+       0.0000   -0.0000    0.0000    0.0000    0.0000    0.0000    0.0000   -0.0000   -0.0000    0.0000
      135 W      4f3+      -0.0000    0.0000    0.0000    0.0000   -0.0000    0.0000    0.0000   -0.0000   -0.0001   -0.0000
      136 W      5f3+       0.0000   -0.0000   -0.0000   -0.0000    0.0000   -0.0000   -0.0000    0.0000    0.0001    0.0000
      137 W      6f3+      -0.0000    0.0000    0.0000    0.0000   -0.0000    0.0000    0.0000   -0.0000   -0.0001   -0.0000
      138 W      7f3+       0.0000   -0.0000    0.0000    0.0000    0.0000   -0.0000   -0.0000    0.0000    0.0000    0.0000
      139 W      8f3+      -0.0000    0.0000    0.0000    0.0000   -0.0000    0.0000    0.0000   -0.0000   -0.0000   -0.0000
      140 W      9f3+       0.0000   -0.0000   -0.0000   -0.0000    0.0000   -0.0000    0.0000   -0.0000    0.0000    0.0000
      141 W     10f3+      -0.0000    0.0000    0.0000    0.0000   -0.0000    0.0000   -0.0000    0.0000   -0.0000   -0.0000
      142 W     11f3+       0.0000   -0.0000   -0.0000   -0.0000    0.0000   -0.0000   -0.0000    0.0000    0.0000    0.0000
      143 W      5g4-      -0.0000    0.0000    0.0000   -0.0000    0.0000   -0.0000    0.0000    0.0000    0.0000    0.0000
      144 W      6g4-       0.0000   -0.0000    0.0000   -0.0000    0.0000    0.0000   -0.0000   -0.0000   -0.0000   -0.0000
      145 W      7g4-      -0.0000    0.0000   -0.0000    0.0000   -0.0000   -0.0000    0.0000    0.0000    0.0000    0.0000
      146 W      8g4-       0.0000    0.0000   -0.0000    0.0000   -0.0000    0.0000   -0.0000   -0.0000   -0.0000   -0.0000
      147 W      5g3-       0.0000    0.0000   -0.0000    0.0000    0.0000   -0.0000   -0.0000   -0.0000   -0.0000   -0.0000
      148 W      6g3-      -0.0000   -0.0000   -0.0000    0.0000   -0.0000   -0.0000   -0.0000   -0.0000   -0.0000    0.0000
      149 W      7g3-       0.0000    0.0000   -0.0000    0.0000    0.0000    0.0000   -0.0000   -0.0000   -0.0000   -0.0000
      150 W      8g3-      -0.0000   -0.0000   -0.0000    0.0000   -0.0000    0.0000   -0.0000   -0.0000   -0.0000    0.0000
      151 W      5g2-       0.0000   -0.0000   -0.0000    0.0000   -0.0000   -0.0000   -0.0000   -0.0000   -0.0000   -0.0000
      152 W      6g2-      -0.0000    0.0000   -0.0000    0.0000   -0.0000    0.0000    0.0000    0.0000    0.0000    0.0000
      153 W      7g2-       0.0000   -0.0000    0.0000   -0.0000    0.0000   -0.0000   -0.0000   -0.0000   -0.0000   -0.0000
      154 W      8g2-      -0.0000    0.0000    0.0000   -0.0000    0.0000    0.0000    0.0000    0.0000    0.0000    0.0000
      155 W      5g1-       0.0000   -0.0000    0.0000   -0.0000    0.0000    0.0000    0.0000    0.0000   -0.0000    0.0000
      156 W      6g1-      -0.0000    0.0000    0.0000   -0.0000   -0.0000   -0.0000    0.0000    0.0000    0.0000   -0.0000
      157 W      7g1-       0.0000   -0.0000   -0.0000    0.0000    0.0000   -0.0000   -0.0000   -0.0000   -0.0000    0.0000
      158 W      8g1-      -0.0000    0.0000   -0.0000    0.0000   -0.0000    0.0000   -0.0000   -0.0000   -0.0000   -0.0000
      159 W      5g0        0.0000   -0.0000    0.0000    0.0000   -0.0000   -0.0000   -0.0000    0.0000    0.0000   -0.0000
      160 W      6g0       -0.0000    0.0000    0.0000    0.0000   -0.0000   -0.0000   -0.0000    0.0000   -0.0000    0.0000
      161 W      7g0       -0.0000    0.0000    0.0000    0.0000    0.0000   -0.0000   -0.0000    0.0000    0.0000   -0.0000
      162 W      8g0        0.0000   -0.0000    0.0000    0.0000    0.0000    0.0000   -0.0000    0.0000   -0.0000    0.0000
      163 W      5g1+       0.0000   -0.0000    0.0000    0.0000   -0.0000    0.0000   -0.0000    0.0000    0.0000   -0.0000
      164 W      6g1+       0.0000   -0.0000    0.0000    0.0000   -0.0000    0.0000    0.0000   -0.0000    0.0000    0.0000
      165 W      7g1+       0.0000   -0.0000   -0.0000   -0.0000    0.0000    0.0000   -0.0000    0.0000   -0.0000   -0.0000
      166 W      8g1+      -0.0000    0.0000   -0.0000   -0.0000    0.0000   -0.0000    0.0000   -0.0000   -0.0000    0.0000
      167 W      5g2+      -0.0000    0.0000   -0.0000   -0.0000    0.0000    0.0000    0.0000   -0.0000   -0.0000    0.0000
      168 W      6g2+       0.0000   -0.0000   -0.0000   -0.0000    0.0000    0.0000    0.0000   -0.0000    0.0000   -0.0000
      169 W      7g2+       0.0000   -0.0000    0.0000    0.0000   -0.0000    0.0000   -0.0000    0.0000   -0.0000    0.0000
      170 W      8g2+       0.0000    0.0000    0.0000    0.0000   -0.0000   -0.0000   -0.0000    0.0000    0.0000   -0.0000
      171 W      5g3+       0.0000   -0.0000   -0.0000   -0.0000   -0.0000    0.0000    0.0000   -0.0000    0.0000    0.0000
      172 W      6g3+       0.0000   -0.0000   -0.0000   -0.0000   -0.0000    0.0000   -0.0000    0.0000    0.0000   -0.0000
      173 W      7g3+       0.0000   -0.0000    0.0000    0.0000    0.0000    0.0000    0.0000   -0.0000   -0.0000    0.0000
      174 W      8g3+      -0.0000    0.0000    0.0000    0.0000    0.0000   -0.0000   -0.0000    0.0000   -0.0000   -0.0000
      175 W      5g4+       0.0000   -0.0000   -0.0000   -0.0000   -0.0000   -0.0000    0.0000   -0.0000    0.0000    0.0000
      176 W      6g4+      -0.0000    0.0000   -0.0000   -0.0000   -0.0000   -0.0000    0.0000   -0.0000   -0.0000   -0.0000
      177 W      7g4+      -0.0000    0.0000    0.0000    0.0000    0.0000   -0.0000   -0.0000   -0.0000    0.0000    0.0000
      178 W      8g4+      -0.0000   -0.0000   -0.0000   -0.0000    0.0000    0.0000    0.0000   -0.0000   -0.0000   -0.0000
      179 W      6h5-      -0.0000   -0.0000   -0.0000    0.0000   -0.0000    0.0000   -0.0000   -0.0000    0.0000    0.0000
      180 W      7h5-       0.0000    0.0000   -0.0000    0.0000   -0.0000    0.0000   -0.0000   -0.0000   -0.0000    0.0000
      181 W      6h4-       0.0000    0.0000   -0.0000    0.0000   -0.0000   -0.0000   -0.0000   -0.0000   -0.0000    0.0000
      182 W      7h4-      -0.0000   -0.0000    0.0000   -0.0000    0.0000   -0.0000    0.0000    0.0000    0.0000   -0.0000
      183 W      6h3-       0.0000    0.0000    0.0000   -0.0000    0.0000    0.0000    0.0000    0.0000    0.0000    0.0000
      184 W      7h3-      -0.0000   -0.0000    0.0000   -0.0000   -0.0000   -0.0000    0.0000    0.0000    0.0000    0.0000
      185 W      6h2-      -0.0000   -0.0000    0.0000   -0.0000    0.0000    0.0000    0.0000    0.0000    0.0000   -0.0000
      186 W      7h2-      -0.0000   -0.0000    0.0000   -0.0000    0.0000    0.0000   -0.0000   -0.0000   -0.0000    0.0000
      187 W      6h1-       0.0000   -0.0000   -0.0000    0.0000   -0.0000    0.0000   -0.0000   -0.0000    0.0000    0.0000
      188 W      7h1-      -0.0000    0.0000   -0.0000    0.0000   -0.0000   -0.0000    0.0000    0.0000   -0.0000    0.0000
      189 W      6h0       -0.0000    0.0000    0.0000    0.0000    0.0000   -0.0000   -0.0000    0.0000   -0.0000   -0.0000
      190 W      7h0       -0.0000    0.0000    0.0000    0.0000    0.0000   -0.0000   -0.0000    0.0000    0.0000   -0.0000
      191 W      6h1+      -0.0000    0.0000    0.0000    0.0000    0.0000   -0.0000   -0.0000    0.0000   -0.0000    0.0000
      192 W      7h1+      -0.0000    0.0000   -0.0000   -0.0000    0.0000   -0.0000    0.0000   -0.0000   -0.0000   -0.0000
      193 W      6h2+       0.0000   -0.0000   -0.0000   -0.0000   -0.0000    0.0000    0.0000   -0.0000    0.0000   -0.0000
      194 W      7h2+       0.0000   -0.0000   -0.0000   -0.0000   -0.0000    0.0000    0.0000   -0.0000   -0.0000   -0.0000
      195 W      6h3+       0.0000   -0.0000   -0.0000   -0.0000   -0.0000    0.0000    0.0000   -0.0000    0.0000   -0.0000
      196 W      7h3+       0.0000   -0.0000   -0.0000   -0.0000   -0.0000    0.0000   -0.0000    0.0000    0.0000    0.0000
      197 W      6h4+       0.0000   -0.0000    0.0000    0.0000   -0.0000    0.0000   -0.0000    0.0000    0.0000    0.0000
      198 W      7h4+       0.0000   -0.0000    0.0000    0.0000   -0.0000    0.0000   -0.0000    0.0000   -0.0000   -0.0000
      199 W      6h5+      -0.0000    0.0000   -0.0000   -0.0000    0.0000   -0.0000    0.0000   -0.0000   -0.0000   -0.0000
      200 W      7h5+      -0.0000    0.0000    0.0000    0.0000    0.0000   -0.0000   -0.0000    0.0000   -0.0000    0.0000

          Orbital           11        12        13        14    
          Energy         -171.8661 -171.8373 -171.8372 -171.8263
          Occ. No.          0.0000    0.0000    0.0000    0.0000

        1 W      1s        -0.0000    0.0000    0.0000   -0.0000
        2 W      2s         0.0000   -0.0000   -0.0000    0.0000
        3 W      3s         0.0000   -0.0000   -0.0000    0.0012
        4 W      4s        -0.0000   -0.0000    0.0000   -0.0003
        5 W      5s         0.0000    0.0000    0.0000    0.0001
        6 W      6s        -0.0000   -0.0000    0.0000   -0.0000
        7 W      7s         0.0000    0.0000   -0.0000    0.0000
        8 W      8s         0.0000   -0.0000   -0.0000   -0.0001
        9 W      9s        -0.0000    0.0000   -0.0000    0.0001
       10 W     10s        -0.0000   -0.0000    0.0000   -0.0001
       11 W     11s         0.0000   -0.0000    0.0000    0.0001
       12 W      2px       -0.0000    0.0000   -0.0000   -0.0007
       13 W      3px       -0.0000    0.0002   -0.0000   -0.0263
       14 W      4px        0.0000   -0.0000    0.0000    0.0037
       15 W      5px       -0.0000    0.0000   -0.0000   -0.0010
       16 W      6px        0.0000   -0.0000    0.0000    0.0004
       17 W      7px       -0.0000    0.0000   -0.0000   -0.0013
       18 W      8px        0.0000   -0.0000    0.0000    0.0013
       19 W      9px       -0.0000    0.0000   -0.0000   -0.0013
       20 W     10px        0.0000   -0.0000    0.0000    0.0012
       21 W     11px       -0.0000    0.0000   -0.0000   -0.0011
       22 W      2py        0.0000   -0.0000   -0.0006   -0.0000
       23 W      3py        0.0000   -0.0000   -0.0224   -0.0000
       24 W      4py       -0.0000    0.0000    0.0031    0.0000
       25 W      5py        0.0000   -0.0000   -0.0009   -0.0000
       26 W      6py       -0.0000    0.0000    0.0004    0.0000
       27 W      7py        0.0000   -0.0000   -0.0011   -0.0000
       28 W      8py       -0.0000    0.0000    0.0011    0.0000
       29 W      9py        0.0000   -0.0000   -0.0011   -0.0000
       30 W     10py       -0.0000    0.0000    0.0010    0.0000
       31 W     11py        0.0000   -0.0000   -0.0010   -0.0000
       32 W      2pz       -0.0000   -0.0006    0.0000   -0.0000
       33 W      3pz       -0.0001   -0.0224    0.0000   -0.0002
       34 W      4pz        0.0000    0.0031   -0.0000    0.0000
       35 W      5pz       -0.0000   -0.0009    0.0000   -0.0000
       36 W      6pz       -0.0000    0.0004   -0.0000    0.0000
       37 W      7pz       -0.0000   -0.0011    0.0000   -0.0000
       38 W      8pz        0.0000    0.0011   -0.0000    0.0000
       39 W      9pz       -0.0000   -0.0011    0.0000   -0.0000
       40 W     10pz        0.0000    0.0010   -0.0000    0.0000
       41 W     11pz       -0.0000   -0.0010    0.0000   -0.0000
       42 W      3d2-      -0.0000    0.0000    0.9914    0.0000
       43 W      4d2-       0.0000   -0.0000   -0.0959   -0.0000
       44 W      5d2-      -0.0000    0.0000    0.0186    0.0000
       45 W      6d2-       0.0000   -0.0000   -0.0254   -0.0000
       46 W      7d2-      -0.0000    0.0000    0.0329    0.0000
       47 W      8d2-       0.0000   -0.0000   -0.0372   -0.0000
       48 W      9d2-      -0.0000    0.0000    0.0370    0.0000
       49 W     10d2-       0.0000   -0.0000   -0.0397   -0.0000
       50 W     11d2-      -0.0000    0.0000    0.0299    0.0000
       51 W      3d1-       0.0000    0.0000    0.0126   -0.0000
       52 W      4d1-      -0.0000   -0.0000   -0.0012    0.0000
       53 W      5d1-       0.0000    0.0000    0.0002   -0.0000
       54 W      6d1-      -0.0000   -0.0000   -0.0003    0.0000
       55 W      7d1-       0.0000    0.0000    0.0004   -0.0000
       56 W      8d1-      -0.0000   -0.0000   -0.0005    0.0000
       57 W      9d1-       0.0000    0.0000    0.0005   -0.0000
       58 W     10d1-      -0.0000   -0.0000   -0.0005    0.0000
       59 W     11d1-       0.0000    0.0000    0.0004   -0.0000
       60 W      3d0        0.8588    0.0041   -0.0000   -0.4958
       61 W      4d0       -0.0829   -0.0004    0.0000    0.0480
       62 W      5d0        0.0161    0.0001   -0.0000   -0.0093
       63 W      6d0       -0.0220   -0.0001    0.0000    0.0127
       64 W      7d0        0.0284    0.0001   -0.0000   -0.0164
       65 W      8d0       -0.0322   -0.0002    0.0000    0.0186
       66 W      9d0        0.0320    0.0002   -0.0000   -0.0185
       67 W     10d0       -0.0343   -0.0002    0.0000    0.0199
       68 W     11d0        0.0259    0.0001   -0.0000   -0.0150
       69 W      3d1+       0.0008    0.9914   -0.0000    0.0097
       70 W      4d1+      -0.0001   -0.0959    0.0000   -0.0009
       71 W      5d1+       0.0000    0.0186   -0.0000    0.0002
       72 W      6d1+      -0.0000   -0.0254    0.0000   -0.0002
       73 W      7d1+       0.0000    0.0329   -0.0000    0.0003
       74 W      8d1+      -0.0000   -0.0372    0.0000   -0.0004
       75 W      9d1+       0.0000    0.0370   -0.0000    0.0004
       76 W     10d1+      -0.0000   -0.0397    0.0000   -0.0004
       77 W     11d1+       0.0000    0.0299   -0.0000    0.0003
       78 W      3d2+       0.4960   -0.0088    0.0000    0.8584
       79 W      4d2+      -0.0479    0.0009   -0.0000   -0.0831
       80 W      5d2+       0.0093   -0.0002    0.0000    0.0161
       81 W      6d2+      -0.0127    0.0002   -0.0000   -0.0220
       82 W      7d2+       0.0164   -0.0003    0.0000    0.0285
       83 W      8d2+      -0.0186    0.0003   -0.0000   -0.0323
       84 W      9d2+       0.0185   -0.0003    0.0000    0.0321
       85 W     10d2+      -0.0198    0.0004   -0.0000   -0.0344
       86 W     11d2+       0.0149   -0.0003    0.0000    0.0259
       87 W      4f3-      -0.0000    0.0000    0.0025    0.0000
       88 W      5f3-       0.0000   -0.0000   -0.0018   -0.0000
       89 W      6f3-      -0.0000    0.0000    0.0017    0.0000
       90 W      7f3-       0.0000   -0.0000   -0.0015   -0.0000
       91 W      8f3-      -0.0000    0.0000    0.0013    0.0000
       92 W      9f3-       0.0000   -0.0000   -0.0010   -0.0000
       93 W     10f3-      -0.0000    0.0000    0.0008    0.0000
       94 W     11f3-       0.0000   -0.0000   -0.0005   -0.0000
       95 W      4f2-       0.0000    0.0000    0.0000   -0.0000
       96 W      5f2-      -0.0000   -0.0000   -0.0000    0.0000
       97 W      6f2-       0.0000    0.0000    0.0000   -0.0000
       98 W      7f2-      -0.0000   -0.0000   -0.0000    0.0000
       99 W      8f2-       0.0000    0.0000    0.0000   -0.0000
      100 W      9f2-      -0.0000   -0.0000   -0.0000    0.0000
      101 W     10f2-       0.0000    0.0000    0.0000   -0.0000
      102 W     11f2-      -0.0000   -0.0000   -0.0000    0.0000
      103 W      4f1-       0.0000   -0.0000   -0.0006   -0.0000
      104 W      5f1-      -0.0000    0.0000    0.0005    0.0000
      105 W      6f1-       0.0000   -0.0000   -0.0004   -0.0000
      106 W      7f1-      -0.0000    0.0000    0.0004    0.0000
      107 W      8f1-       0.0000   -0.0000   -0.0003   -0.0000
      108 W      9f1-      -0.0000    0.0000    0.0002    0.0000
      109 W     10f1-       0.0000   -0.0000   -0.0002   -0.0000
      110 W     11f1-      -0.0000    0.0000    0.0001    0.0000
      111 W      4f0        0.0000   -0.0016    0.0000   -0.0000
      112 W      5f0       -0.0000    0.0011   -0.0000    0.0000
      113 W      6f0        0.0000   -0.0011    0.0000   -0.0000
      114 W      7f0       -0.0000    0.0009   -0.0000    0.0000
      115 W      8f0        0.0000   -0.0008    0.0000   -0.0000
      116 W      9f0       -0.0000    0.0006   -0.0000    0.0000
      117 W     10f0        0.0000   -0.0005    0.0000   -0.0000
      118 W     11f0       -0.0000    0.0003   -0.0000    0.0000
      119 W      4f1+       0.0016    0.0000   -0.0000   -0.0017
      120 W      5f1+      -0.0011   -0.0000    0.0000    0.0012
      121 W      6f1+       0.0011    0.0000   -0.0000   -0.0011
      122 W      7f1+      -0.0010   -0.0000    0.0000    0.0010
      123 W      8f1+       0.0008    0.0000   -0.0000   -0.0009
      124 W      9f1+      -0.0006   -0.0000    0.0000    0.0006
      125 W     10f1+       0.0005    0.0000   -0.0000   -0.0005
      126 W     11f1+      -0.0003   -0.0000    0.0000    0.0003
      127 W      4f2+       0.0000    0.0020   -0.0000    0.0000
      128 W      5f2+      -0.0000   -0.0014    0.0000   -0.0000
      129 W      6f2+       0.0000    0.0014   -0.0000    0.0000
      130 W      7f2+      -0.0000   -0.0012    0.0000   -0.0000
      131 W      8f2+       0.0000    0.0011   -0.0000    0.0000
      132 W      9f2+      -0.0000   -0.0008    0.0000   -0.0000
      133 W     10f2+       0.0000    0.0006   -0.0000    0.0000
      134 W     11f2+      -0.0000   -0.0004    0.0000   -0.0000
      135 W      4f3+       0.0012   -0.0000    0.0000    0.0022
      136 W      5f3+      -0.0009    0.0000   -0.0000   -0.0015
      137 W      6f3+       0.0008   -0.0000    0.0000    0.0015
      138 W      7f3+      -0.0007    0.0000   -0.0000   -0.0013
      139 W      8f3+       0.0006   -0.0000    0.0000    0.0011
      140 W      9f3+      -0.0005    0.0000   -0.0000   -0.0008
      141 W     10f3+       0.0004   -0.0000    0.0000    0.0007
      142 W     11f3+      -0.0002    0.0000   -0.0000   -0.0004
      143 W      5g4-       0.0000   -0.0000   -0.0000   -0.0000
      144 W      6g4-      -0.0000    0.0000    0.0000    0.0000
      145 W      7g4-       0.0000   -0.0000   -0.0000   -0.0000
      146 W      8g4-      -0.0000    0.0000    0.0000    0.0000
      147 W      5g3-      -0.0000   -0.0000   -0.0000    0.0000
      148 W      6g3-       0.0000    0.0000    0.0000   -0.0000
      149 W      7g3-      -0.0000    0.0000    0.0000    0.0000
      150 W      8g3-       0.0000   -0.0000   -0.0000   -0.0000
      151 W      5g2-      -0.0000    0.0000    0.0000   -0.0000
      152 W      6g2-       0.0000   -0.0000   -0.0000   -0.0000
      153 W      7g2-      -0.0000    0.0000    0.0000    0.0000
      154 W      8g2-       0.0000   -0.0000   -0.0000   -0.0000
      155 W      5g1-       0.0000    0.0000    0.0000   -0.0000
      156 W      6g1-      -0.0000   -0.0000   -0.0000    0.0000
      157 W      7g1-       0.0000    0.0000    0.0000   -0.0000
      158 W      8g1-      -0.0000    0.0000    0.0000    0.0000
      159 W      5g0        0.0000   -0.0000   -0.0000   -0.0000
      160 W      6g0       -0.0000   -0.0000    0.0000    0.0000
      161 W      7g0        0.0000    0.0000   -0.0000   -0.0000
      162 W      8g0       -0.0000   -0.0000    0.0000    0.0000
      163 W      5g1+       0.0000    0.0000   -0.0000    0.0000
      164 W      6g1+      -0.0000   -0.0000    0.0000   -0.0000
      165 W      7g1+       0.0000    0.0000   -0.0000   -0.0000
      166 W      8g1+      -0.0000   -0.0000    0.0000    0.0000
      167 W      5g2+      -0.0000    0.0000   -0.0000    0.0000
      168 W      6g2+       0.0000   -0.0000    0.0000   -0.0000
      169 W      7g2+      -0.0000   -0.0000    0.0000    0.0000
      170 W      8g2+       0.0000    0.0000   -0.0000   -0.0000
      171 W      5g3+      -0.0000   -0.0000    0.0000   -0.0000
      172 W      6g3+       0.0000    0.0000   -0.0000    0.0000
      173 W      7g3+      -0.0000   -0.0000    0.0000   -0.0000
      174 W      8g3+       0.0000    0.0000   -0.0000    0.0000
      175 W      5g4+      -0.0000    0.0000   -0.0000   -0.0000
      176 W      6g4+       0.0000   -0.0000    0.0000    0.0000
      177 W      7g4+      -0.0000   -0.0000   -0.0000   -0.0000
      178 W      8g4+       0.0000    0.0000   -0.0000    0.0000
      179 W      6h5-       0.0000    0.0000    0.0000   -0.0000
      180 W      7h5-       0.0000   -0.0000   -0.0000    0.0000
      181 W      6h4-       0.0000   -0.0000   -0.0000    0.0000
      182 W      7h4-      -0.0000    0.0000    0.0000    0.0000
      183 W      6h3-       0.0000   -0.0000   -0.0000   -0.0000
      184 W      7h3-       0.0000   -0.0000   -0.0000    0.0000
      185 W      6h2-      -0.0000    0.0000    0.0000    0.0000
      186 W      7h2-       0.0000   -0.0000   -0.0000   -0.0000
      187 W      6h1-       0.0000    0.0000    0.0000   -0.0000
      188 W      7h1-       0.0000   -0.0000   -0.0000    0.0000
      189 W      6h0        0.0000    0.0000   -0.0000   -0.0000
      190 W      7h0        0.0000    0.0000   -0.0000    0.0000
      191 W      6h1+      -0.0000   -0.0000    0.0000    0.0000
      192 W      7h1+       0.0000    0.0000   -0.0000    0.0000
      193 W      6h2+       0.0000   -0.0000    0.0000    0.0000
      194 W      7h2+       0.0000    0.0000   -0.0000   -0.0000
      195 W      6h3+       0.0000    0.0000   -0.0000   -0.0000
      196 W      7h3+      -0.0000   -0.0000    0.0000   -0.0000
      197 W      6h4+      -0.0000    0.0000   -0.0000    0.0000
      198 W      7h4+       0.0000    0.0000   -0.0000   -0.0000
      199 W      6h5+       0.0000    0.0000   -0.0000    0.0000
      200 W      7h5+      -0.0000   -0.0000    0.0000    0.0000
--


++    Molecular charges:
      ------------------

      Mulliken charges per centre and basis function type
      ---------------------------------------------------

                W     
      1s       2.0000
      2s       2.0000
      2px      2.0000
      2pz      2.0000
      2py      2.0000
      3s       1.9811
      3px      1.9715
      3pz      1.9720
      3py      1.9720
      4s       0.0128
      3d2+     0.0011
      3d1+     0.0010
      3d0      0.0004
      3d1-     0.0000
      3d2-     0.0010
      4px      0.0167
      4pz      0.0166
      4py      0.0166
      5s       0.0011
      4d2+     0.0000
      4d1+     0.0000
      4d0      0.0000
      4d1-     0.0000
      4d2-     0.0000
      5px      0.0013
      5pz      0.0013
      5py      0.0013
      6s       0.0001
      4f3+     0.0000
      4f2+     0.0000
      4f1+     0.0000
      4f0      0.0000
      4f1-     0.0000
      4f2-     0.0000
      4f3-     0.0000
      5d2+     0.0000
      5d1+     0.0000
      5d0      0.0000
      5d1-     0.0000
      5d2-     0.0000
      6px      0.0002
      6pz      0.0002
      6py      0.0002
      7s       0.0001
      5f3+     0.0000
      5f2+     0.0000
      5f1+     0.0000
      5f0      0.0000
      5f1-     0.0000
      5f2-     0.0000
      5f3-     0.0000
      6d2+     0.0000
      6d1+     0.0000
      6d0      0.0000
      6d1-     0.0000
      6d2-     0.0000
      7px      0.0018
      7pz      0.0018
      7py      0.0018
      5g4+     0.0000
      5g3+     0.0000
      5g2+     0.0000
      5g1+     0.0000
      5g0      0.0000
      5g1-     0.0000
      5g2-     0.0000
      5g3-     0.0000
      5g4-     0.0000
      6f3+     0.0000
      6f2+     0.0000
      6f1+     0.0000
      6f0      0.0000
      6f1-     0.0000
      6f2-     0.0000
      6f3-     0.0000
      6g4+     0.0000
      6g3+     0.0000
      6g2+     0.0000
      6g1+     0.0000
      6g0      0.0000
      6g1-     0.0000
      6g2-     0.0000
      6g3-     0.0000
      6g4-     0.0000
      6h5+     0.0000
      6h4+     0.0000
      6h3+     0.0000
      6h2+     0.0000
      6h1+     0.0000
      6h0      0.0000
      6h1-     0.0000
      6h2-     0.0000
      6h3-     0.0000
      6h4-     0.0000
      6h5-     0.0000
      7d2+     0.0000
      7d1+     0.0000
      7d0      0.0000
      7d1-     0.0000
      7d2-     0.0000
      7f3+     0.0000
      7f2+     0.0000
      7f1+     0.0000
      7f0      0.0000
      7f1-     0.0000
      7f2-     0.0000
      7f3-     0.0000
      7g4+     0.0000
      7g3+     0.0000
      7g2+     0.0000
      7g1+     0.0000
      7g0      0.0000
      7g1-     0.0000
      7g2-     0.0000
      7g3-     0.0000
      7g4-     0.0000
      7h5+     0.0000
      7h4+     0.0000
      7h3+     0.0000
      7h2+     0.0000
      7h1+     0.0000
      7h0      0.0000
      7h1-     0.0000
      7h2-     0.0000
      7h3-     0.0000
      7h4-     0.0000
      7h5-     0.0000
      8s       0.0006
      8px      0.0018
      8pz      0.0018
      8py      0.0018
      8d2+     0.0000
      8d1+     0.0000
      8d0      0.0000
      8d1-     0.0000
      8d2-     0.0000
      8f3+     0.0000
      8f2+     0.0000
      8f1+     0.0000
      8f0      0.0000
      8f1-     0.0000
      8f2-     0.0000
      8f3-     0.0000
      8g4+     0.0000
      8g3+     0.0000
      8g2+     0.0000
      8g1+     0.0000
      8g0      0.0000
      8g1-     0.0000
      8g2-     0.0000
      8g3-     0.0000
      8g4-     0.0000
      9s       0.0010
      9px      0.0019
      9pz      0.0019
      9py      0.0019
      9d2+     0.0000
      9d1+     0.0000
      9d0      0.0000
      9d1-     0.0000
      9d2-     0.0000
      9f3+     0.0000
      9f2+     0.0000
      9f1+     0.0000
      9f0      0.0000
      9f1-     0.0000
      9f2-     0.0000
      9f3-     0.0000
     10s       0.0013
     10px      0.0016
     10pz      0.0016
     10py      0.0016
     10d2+     0.0000
     10d1+     0.0000
     10d0      0.0000
     10d1-     0.0000
     10d2-     0.0000
     10f3+     0.0000
     10f2+     0.0000
     10f1+     0.0000
     10f0      0.0000
     10f1-     0.0000
     10f2-     0.0000
     10f3-     0.0000
     11s       0.0020
     11px      0.0017
     11pz      0.0017
     11py      0.0017
     11d2+     0.0000
     11d1+     0.0000
     11d0      0.0000
     11d1-     0.0000
     11d2-     0.0000
     11f3+     0.0000
     11f2+     0.0000
     11f1+     0.0000
     11f0      0.0000
     11f1-     0.0000
     11f2-     0.0000
     11f3-     0.0000
      Total   18.0000

      N-E     56.0000

      Total electronic charge=   18.000000

      Total            charge=   56.000000
--

 Sorry, Molden does not know how to handle
 functions with angular momentum larger than g

++    Static properties:
      ------------------


      LoProp Charges per center


                   W     
      Nuclear     74.0000
      Electronic -18.0000

      Total       56.0000
--


++    Molecular properties:
      ---------------------

      Charge (e):
                      =   56.0000
      Dipole Moment (Debye):
      Origin of the operator (Ang)=    0.0000    0.0000    0.0000
                   X= -6.1697E-02               Y= -4.9670E-13               Z=  1.2458E+00           Total=  1.2474E+00
      Center of Charge (Ang)
[...]
    18            83.4044999497     2269.5520627838       18305171.8805         1.2


 Weights of the five most important spin-orbit-free states for each spin-orbit state.

 SO State  Total energy (au)           Spin-free states, spin, and weights
 -------------------------------------------------------------------------------------------------------
    1         0.000000       1 0.5  1.0000    9 0.5  0.0000    8 0.5  0.0000    7 0.5  0.0000    6 0.5  0.0000
    2         0.000000       1 0.5  1.0000    9 0.5  0.0000    8 0.5  0.0000    7 0.5  0.0000    6 0.5  0.0000
    3         0.000009       2 0.5  1.0000    9 0.5  0.0000    8 0.5  0.0000    7 0.5  0.0000    6 0.5  0.0000
    4         0.000009       2 0.5  1.0000    9 0.5  0.0000    8 0.5  0.0000    7 0.5  0.0000    6 0.5  0.0000
    5         0.029042       3 0.5  1.0000    9 0.5  0.0000    8 0.5  0.0000    7 0.5  0.0000    6 0.5  0.0000
    6         0.029042       3 0.5  1.0000    9 0.5  0.0000    8 0.5  0.0000    7 0.5  0.0000    6 0.5  0.0000
    7         0.029066       4 0.5  1.0000    9 0.5  0.0000    8 0.5  0.0000    7 0.5  0.0000    6 0.5  0.0000
    8         0.029066       4 0.5  1.0000    9 0.5  0.0000    8 0.5  0.0000    7 0.5  0.0000    6 0.5  0.0000
    9         0.040055       5 0.5  1.0000    9 0.5  0.0000    8 0.5  0.0000    7 0.5  0.0000    6 0.5  0.0000
   10         0.040055       5 0.5  1.0000    9 0.5  0.0000    8 0.5  0.0000    7 0.5  0.0000    6 0.5  0.0000
   11        76.882507       6 0.5  1.0000    9 0.5  0.0000    8 0.5  0.0000    7 0.5  0.0000    5 0.5  0.0000
   12        76.882507       6 0.5  1.0000    9 0.5  0.0000    8 0.5  0.0000    7 0.5  0.0000    5 0.5  0.0000
   13        83.076380       7 0.5  1.0000    9 0.5  0.0000    8 0.5  0.0000    6 0.5  0.0000    5 0.5  0.0000
   14        83.076380       7 0.5  1.0000    9 0.5  0.0000    8 0.5  0.0000    6 0.5  0.0000    5 0.5  0.0000
   15        83.076560       8 0.5  1.0000    9 0.5  0.0000    7 0.5  0.0000    6 0.5  0.0000    5 0.5  0.0000
   16        83.076560       8 0.5  1.0000    9 0.5  0.0000    7 0.5  0.0000    6 0.5  0.0000    5 0.5  0.0000
   17        83.404500       9 0.5  1.0000    8 0.5  0.0000    7 0.5  0.0000    6 0.5  0.0000    5 0.5  0.0000
   18        83.404500       9 0.5  1.0000    8 0.5  0.0000    7 0.5  0.0000    6 0.5  0.0000    5 0.5  0.0000
 -------------------------------------------------------------------------------------------------------


      ****************************************************************************************************
      *                                                                                                  *
      *                                    Special properties section                                    *
      *                                                                                                  *
      ****************************************************************************************************


++ Dipole transition strengths (SO states):
   ----------------------------------------
    for osc. strength at least    1.0000000000000001E-005

      From   To        Osc. strength     Einstein coefficients Ax, Ay, Az (sec-1)    Total A (sec-1)
     -----------------------------------------------------------------------------------------------
         1   13       1.29760925E-02  7.41302026E-07  2.87745434E+12  3.59822135E-02  2.87745434E+12
         1   15       1.29787398E-02  5.70268834E+08  3.60019766E-02  2.87748354E+12  2.87805381E+12
         2   14       1.29760925E-02  7.41302026E-07  2.87745434E+12  3.59822135E-02  2.87745434E+12
         2   16       1.29787398E-02  5.70268834E+08  3.60019766E-02  2.87748354E+12  2.87805381E+12
         3   13       1.29734380E-02  8.81322978E+06  3.59893156E-02  2.87685623E+12  2.87686504E+12
         3   15       1.29794646E-02  9.99130423E-06  2.87821390E+12  3.59930862E-02  2.87821390E+12
         4   14       1.29734380E-02  8.81322978E+06  3.59893156E-02  2.87685623E+12  2.87686504E+12
         4   16       1.29794646E-02  9.99130423E-06  2.87821390E+12  3.59930862E-02  2.87821390E+12
         5   11       2.94605557E-04  4.80233373E+06  8.60833090E-05  5.59036177E+10  5.59084200E+10
         5   13       1.36418534E-02  3.02296552E+12  4.06283161E-07  6.94795185E+06  3.02297246E+12
         5   17       1.23597960E-02  1.56662571E+08  4.25721779E-03  2.76040303E+12  2.76055969E+12
         6   12       2.94605557E-04  4.80233373E+06  8.60833090E-05  5.59036177E+10  5.59084200E+10
         6   14       1.36418534E-02  3.02296552E+12  4.06283161E-07  6.94795185E+06  3.02297246E+12
         6   18       1.23597960E-02  1.56662571E+08  4.25721779E-03  2.76040303E+12  2.76055969E+12
         7   11       2.94105487E-04  7.97628568E-09  5.58134849E+10  8.62430350E-05  5.58134849E+10
         7   15       1.36381433E-02  3.02178036E+12  3.09218207E-07  3.81285872E+08  3.02216165E+12
         7   17       1.23564818E-02  2.76315737E-07  2.75981787E+12  4.25834871E-03  2.75981787E+12
         8   12       2.94105487E-04  7.97628568E-09  5.58134849E+10  8.62430350E-05  5.58134849E+10
         8   16       1.36381433E-02  3.02178036E+12  3.09218207E-07  3.81285872E+08  3.02216165E+12
         8   18       1.23564818E-02  2.76315737E-07  2.75981787E+12  4.25834871E-03  2.75981787E+12
         9   11       4.18519046E-04  7.93969095E+10  5.85816227E-12  4.28500728E+06  7.94011945E+10
         9   13       4.15032171E-03  8.02924680E+07  4.45743079E-04  9.19368154E+11  9.19448447E+11
         9   15       4.14687950E-03  5.33476848E-08  9.18689847E+11  4.45822966E-04  9.18689847E+11
         9   17       1.77286087E-02  3.95849157E+12  5.68789866E-10  1.46130990E+08  3.95863770E+12
        10   12       4.18519046E-04  7.93969095E+10  5.85816227E-12  4.28500728E+06  7.94011945E+10
        10   14       4.15032171E-03  8.02924680E+07  4.45743079E-04  9.19368154E+11  9.19448447E+11
        10   16       4.14687950E-03  5.33476848E-08  9.18689847E+11  4.45822966E-04  9.18689847E+11
        10   18       1.77286087E-02  3.95849157E+12  5.68789866E-10  1.46130990E+08  3.95863770E+12
        11   13       1.75846524E-01  3.56848835E+06  1.05136554E-04  2.16750760E+11  2.16754329E+11
        11   15       1.75845944E-01  1.44836847E-09  2.16766188E+11  1.05147799E-04  2.16766188E+11
        11   17       1.70159419E-01  2.32551203E+11  1.59793773E-11  3.95914335E+06  2.32555162E+11
        12   14       1.75846524E-01  3.56848835E+06  1.05136554E-04  2.16750760E+11  2.16754329E+11
        12   16       1.75845944E-01  1.44836847E-09  2.16766188E+11  1.05147799E-04  2.16766188E+11
        12   18       1.70159419E-01  2.32551203E+11  1.59793773E-11  3.95914335E+06  2.32555162E+11
        13   17       2.48807017E-04  3.38628918E+01  4.18270232E-10  8.60635074E+05  8.60668937E+05
        14   18       2.48807017E-04  3.38628918E+01  4.18270232E-10  8.60635074E+05  8.60668937E+05
        15   17       2.49115815E-04  1.29389106E-14  8.60793722E+05  4.16796961E-10  8.60793722E+05
        16   18       2.49115815E-04  1.29389106E-14  8.60793722E+05  4.16796961E-10  8.60793722E+05
     -----------------------------------------------------------------------------------------------
--

++ Velocity transition strengths (SO states):
   ------------------------------------------
    for osc. strength at least    1.0000000000000001E-005

      From   To        Osc. strength     Einstein coefficients Ax, Ay, Az (sec-1)    Total A (sec-1)
     -----------------------------------------------------------------------------------------------
         1    3       2.84128000E-05  3.45323621E-20  8.04811174E-05  3.11284573E-21  8.04811174E-05
         1    5       1.73650824E-04  4.84848529E-17  4.70579046E+03  4.22926493E-11  4.70579046E+03
         1    7       1.73463597E-04  3.35332919E-02  4.20400889E-11  4.70849796E+03  4.70853150E+03
         1   13       1.28102743E-02  7.31383487E-07  2.84069394E+12  3.55229860E-02  2.84069394E+12
         1   15       1.28128899E-02  5.63073550E+08  3.55421831E-02  2.84072317E+12  2.84128624E+12
         2    4       2.84128000E-05  3.45323621E-20  8.04811174E-05  3.11284573E-21  8.04811174E-05
         2    6       1.73650824E-04  4.84848529E-17  4.70579046E+03  4.22926493E-11  4.70579046E+03
         2    8       1.73463597E-04  3.35332919E-02  4.20400889E-11  4.70849796E+03  4.70853150E+03
         2   14       1.28102743E-02  7.31383487E-07  2.84069394E+12  3.55229860E-02  2.84069394E+12
         2   16       1.28128899E-02  5.63073550E+08  3.55421831E-02  2.84072317E+12  2.84128624E+12
         3    5       1.73561713E-04  1.98663509E-02  4.23023372E-11  4.70031499E+03  4.70033486E+03
         3    7       1.73614273E-04  3.62470366E-16  4.70957730E+03  4.20104431E-11  4.70957730E+03
         3   13       1.28076525E-02  8.70752336E+06  3.55297963E-02  2.84010321E+12  2.84011191E+12
         3   15       1.28136063E-02  9.87940927E-06  2.84144446E+12  3.55336430E-02  2.84144446E+12
         4    6       1.73561713E-04  1.98663509E-02  4.23023372E-11  4.70031499E+03  4.70033486E+03
         4    8       1.73614273E-04  3.62470366E-16  4.70957730E+03  4.20104431E-11  4.70957730E+03
         4   14       1.28076525E-02  8.70752336E+06  3.55297963E-02  2.84010321E+12  2.84011191E+12
         4   16       1.28136063E-02  9.87940927E-06  2.84144446E+12  3.55336430E-02  2.84144446E+12
         5    9       1.35372294E-03  2.80699012E-02  8.04206301E-12  5.27534768E+03  5.27537575E+03
         5   11       2.98867589E-04  4.86787474E+06  8.73453326E-05  5.67125715E+10  5.67174394E+10
         5   13       1.34719743E-02  2.98533154E+12  4.02557538E-07  6.87326571E+06  2.98533842E+12
         5   17       1.21914561E-02  1.54531067E+08  4.19920137E-03  2.72281594E+12  2.72297047E+12
         6   10       1.35372294E-03  2.80699012E-02  8.04206301E-12  5.27534768E+03  5.27537575E+03
         6   12       2.98867589E-04  4.86787474E+06  8.73453326E-05  5.67125715E+10  5.67174394E+10
         6   14       1.34719743E-02  2.98533154E+12  4.02557538E-07  6.87326571E+06  2.98533842E+12
         6   18       1.21914561E-02  1.54531067E+08  4.19920137E-03  2.72281594E+12  2.72297047E+12
         7    9       1.35602035E-03  1.69048409E-16  5.26119728E+03  8.09190459E-12  5.26119728E+03
         7   11       2.98366676E-04  8.02077894E-09  5.66223433E+10  8.74781488E-05  5.66223433E+10
         7   15       1.34683120E-02  2.98416160E+12  3.02528156E-07  3.76425755E+08  2.98453803E+12
         7   17       1.21881844E-02  2.71973710E-07  2.72223816E+12  4.20003965E-03  2.72223816E+12
         8   10       1.35602035E-03  1.69048409E-16  5.26119728E+03  8.09190459E-12  5.26119728E+03
         8   12       2.98366676E-04  8.02077894E-09  5.66223433E+10  8.74781488E-05  5.66223433E+10
         8   16       1.34683120E-02  2.98416160E+12  3.02528156E-07  3.76425755E+08  2.98453803E+12
         8   18       1.21881844E-02  2.71973710E-07  2.72223816E+12  4.20003965E-03  2.72223816E+12
         9   11       4.24567538E-04  8.05446471E+10  6.09903121E-12  4.34380754E+06  8.05489909E+10
         9   13       4.09334178E-03  7.92822673E+07  4.39633438E-04  9.06749173E+11  9.06828456E+11
         9   15       4.08994822E-03  5.19436536E-08  9.06080574E+11  4.39707854E-04  9.06080574E+11
         9   17       1.75019319E-02  3.90789222E+12  5.60814619E-10  1.44191393E+08  3.90803641E+12
        10   12       4.24567538E-04  8.05446471E+10  6.09903121E-12  4.34380754E+06  8.05489909E+10
        10   14       4.09334178E-03  7.92822673E+07  4.39633438E-04  9.06749173E+11  9.06828456E+11
        10   16       4.08994822E-03  5.19436536E-08  9.06080574E+11  4.39707854E-04  9.06080574E+11
        10   18       1.75019319E-02  3.90789222E+12  5.60814619E-10  1.44191393E+08  3.90803641E+12
        11   13       1.45574127E-01  2.94355074E+06  8.70393931E-05  1.79437236E+11  1.79440180E+11
        11   15       1.45573538E-01  1.19046837E-09  1.79449863E+11  8.70390450E-05  1.79449863E+11
        11   17       1.40670717E-01  1.92250633E+11  1.27295576E-11  3.28572112E+06  1.92253919E+11
        12   14       1.45574127E-01  2.94355074E+06  8.70393931E-05  1.79437236E+11  1.79440180E+11
        12   16       1.45573538E-01  1.19046837E-09  1.79449863E+11  8.70390450E-05  1.79449863E+11
        12   18       1.40670717E-01  1.92250633E+11  1.27295576E-11  3.28572112E+06  1.92253919E+11
        13   15       1.07080450E-05  1.13676301E-19  1.11047144E-02  9.56234099E-19  1.11047144E-02
        13   17       2.87521596E-03  1.08788640E+02  4.82514260E-09  9.94582317E+06  9.94593196E+06
        14   16       1.07080450E-05  1.13676301E-19  1.11047144E-02  9.56234099E-19  1.11047144E-02
        14   18       2.87521596E-03  1.08788640E+02  4.82514260E-09  9.94582317E+06  9.94593196E+06
        15   17       2.87741642E-03  6.77937965E-14  9.94264697E+06  4.82417682E-09  9.94264697E+06
        16   18       2.87741642E-03  6.77937965E-14  9.94264697E+06  4.82417682E-09  9.94264697E+06
     -----------------------------------------------------------------------------------------------
--

++ Length and velocity gauge comparison (SO states):

 --------------------------------------------------
 A comparison between the dipole oscillator strengths in 
 length and velocity gauge will be performed

 All dipole oscillator differences above the tolerance of   0.10000000000000001       will be printed 

 Due to basis set deficiency these oscillator may be problematic 

 The tolerance is defined as ABS(1-O_l/O_v) 
 O_l : dipole oscillator strength in length gauge
 O_p : dipole oscillator strength in velocity gauge
 --------------------------------------------------

  Problematic transitions have been found

      From   To       Difference (%) Osc. st. (len.) Osc. st. (vel.)
     ---------------------------------------------------------------
         1    3      --------------- below threshold  2.84128000E-05
         1    5      --------------- below threshold  1.73650824E-04
         1    7      --------------- below threshold  1.73463597E-04
         2    4      --------------- below threshold  2.84128000E-05
         2    6      --------------- below threshold  1.73650824E-04
         2    8      --------------- below threshold  1.73463597E-04
         3    5      --------------- below threshold  1.73561713E-04
         3    7      --------------- below threshold  1.73614273E-04
         4    6      --------------- below threshold  1.73561713E-04
         4    8      --------------- below threshold  1.73614273E-04
         5    9      --------------- below threshold  1.35372294E-03
         6   10      --------------- below threshold  1.35372294E-03
         7    9      --------------- below threshold  1.35602035E-03
         8   10      --------------- below threshold  1.35602035E-03
        11   13            20.795177  1.75846524E-01  1.45574127E-01
        11   15            20.795267  1.75845944E-01  1.45573538E-01
        11   17            20.962929  1.70159419E-01  1.40670717E-01
        12   14            20.795177  1.75846524E-01  1.45574127E-01
        12   16            20.795267  1.75845944E-01  1.45573538E-01
        12   18            20.962929  1.70159419E-01  1.40670717E-01
        13   15      --------------- below threshold  1.07080450E-05
        13   17            91.346493  2.48807017E-04  2.87521596E-03
        14   16      --------------- below threshold  1.07080450E-05
        14   18            91.346493  2.48807017E-04  2.87521596E-03
        15   17            91.342379  2.49115815E-04  2.87741642E-03
        16   18            91.342379  2.49115815E-04  2.87741642E-03
     ---------------------------------------------------------------

 Number of problematic transitions =                    26

--

 Electric-dipole - electric-octupole not included
++ Total transition strengths for the second-order expansion of the wave vector (SO states):
   -----------------------------------------------------------------------------------------
    for osc. strength at least    1.0000000000000001E-005

      From   To        Osc. strength
     -------------------------------
         1   11       5.51118971E-05
         2   12       5.51118971E-05
         3   11       5.51111562E-05
         4   12       5.51111562E-05
         5   11       5.58584302E-05
         6   12       5.58584302E-05
         7   11       5.58558501E-05
         8   12       5.58558501E-05
         9   11       5.60647877E-05
        10   12       5.60647877E-05
     -------------------------------
--

++ I/O STATISTICS
 
  I. General I/O information
  - - - - - - - - - - - - - - - - - - - - - - - - - - - - - - - - - - - - - - - - - - -
  Unit  Name          Flsize      Write/Read            MBytes           Write/Read
                      (MBytes)       Calls              In/Out           Time, sec.
  - - - - - - - - - - - - - - - - - - - - - - - - - - - - - - - - - - - - - - - - - - -
   1  SCRATCH           0.00 .       9/      45 .      0.0/      0.0 .       0/       0
   2  ANNI              0.00 .       0/       0 .      0.0/      0.0 .       0/       0
   3  RUNFILE          15.31 .     322/   10733 .      2.3/     77.8 .       0/       0
   4  ONEINT            6.58 .       0/   28767 .      0.0/   3777.9 .       0/       0
   5  JOBIPH            7.70 .       0/      92 .      0.0/      0.9 .       0/       0
   6  ORDINT          771.03 .       1/    6169 .      0.0/   1542.0 .       0/       0
  - - - - - - - - - - - - - - - - - - - - - - - - - - - - - - - - - - - - - - - - - - -
   *  TOTAL           800.62 .     332/   45806 .      2.3/   5398.7 .       0/       0
  - - - - - - - - - - - - - - - - - - - - - - - - - - - - - - - - - - - - - - - - - - -
 
  II. I/O Access Patterns
  - - - - - - - - - - - - - - - - - - - -
  Unit  Name               % of random
                         Write/Read calls
  - - - - - - - - - - - - - - - - - - - -
   1  SCRATCH             88.9/ 100.0
   2  ANNI                 0.0/   0.0
   3  RUNFILE             28.6/  10.8
   4  ONEINT               0.0/  13.4
   5  JOBIPH               0.0/  76.1
   6  ORDINT             100.0/   0.0
  - - - - - - - - - - - - - - - - - - - -
--
--- Stop Module: rassi at Tue Mar 25 17:58:53 2025 /rc=_RC_ALL_IS_WELL_ ---
*** files: xmldump
    saved to directory /home4/s4752295/Internship/Initial_simulations/Point_charge_model/1_electron/Madelung_charges_9_active_space/W
--- Module rassi spent 5 seconds ---

.##################.
.# Happy landing! #.
.##################.

    Timing: Wall=105.64 User=91.31 System=12.84

###############################################################################
Hbrk Cluster
Job 15900843 for user s4752295
Finished at: Tue Mar 25 17:58:57 CET 2025

Job details:
============

Job ID                         : 15900843
Name                           : W_no_SO
User                           : s4752295
Partition                      : regularmedium
Nodes                          : node95
Number of Nodes                : 1
Cores                          : 1
Number of Tasks                : 1
State                          : COMPLETED  
Submit                         : 2025-03-25T17:56:55
Start                          : 2025-03-25T17:57:03
End                            : 2025-03-25T17:58:53
Reserved walltime              : 15:00:00
Used walltime                  : 00:01:50
Used CPU time                  : 00:01:46 (Efficiency: 95.95%)
% User (Computation)           : 87.60%
% System (I/O)                 : 12.40%
Total memory reserved          : 25000M
Maximum memory used            : 3.06G

Acknowledgements:
=================

Please see this page for information about acknowledging Hbrk in your publications:

https://wiki.hpc.rug.nl/habrok/introduction/scientific_output

################################################################################
