   This run of MOLCAS is using the pymolcas driver

                             OPE
                             OPE          NMOL  CASOP  ENMOLC A   SO
                 OPE        NMOLC        AS  OP EN  MO LC     AS  OP
                OPENM       OL CA        SO  PE NM  OL CA     SOP EN
                OP EN      MO   LC       AS  OP ENMOL  CASO   PENMOL
                OP  EN     MO   LC       AS  OP EN     MO     LC ASO
               OP   E  NMOL  C  AS       OP  EN MO     LC     AS  OP
               OP  E   NMO   LC AS        OPEN  MO     LCASOP EN   M
               O  PEN   MO  LCA  SO
            OPE   NMO   L   CAS    OP
        OPENMOL  CASOP     ENMOL   CASOPE
     OPENMOLCA   SOPENMOLCASOPEN   MOLCASOPE
    OPENMOLCAS   OP           EN   MOL    CAS
    OPENMOLCAS       OP  ENM        O     LCA
    OPENMOLCAS    OPEN  MOLCASO     P  E  NMO
    OPENMOLCAS     OP               E  N  MOL
    OPENMOLCA   SO           PENM   O  L  CAS    OPEN    MO    LCAS
    OPENMOLCA   SOP           ENM   O  L  CAS   OP  EN  MOLC  AS   O
    OPENMOLCA   SOPE           NM      O  LCA   S      OP  EN MO
    OPENMOLC                AS         O  PEN   M      OL  CA  SOPE
    OPENMO        LCASOPE  NMOL        C  ASO   P      ENMOLC     AS
    OPE     NMO      LCA  SO     P     E   NM   OL  CA SO  PE N   MO
          OPENMOLCA            SOPE   NMO        LCAS  O    P  ENMO
     OPENMOLCASOPENMOLCASOPENMOLCASOPENMOLCA
        OPENMOLCASOPENMOLCASOPENMOLCASOPE
            OPENMOLCASOPENMOLCASOPENM
               OPENMOLCASOPENMOLCA        version: o91e1abe7de707b ?
                   OPENMOLCASO
                       OPE                tag:

 OpenMolcas is free software; you can redistribute it and/or modify it
 under the terms of the GNU Lesser General Public License version 2.1.
 OpenMolcas is distributed in the hope that it will be useful, but it
 is provided "as is" and without any express or implied warranties.
 For more details see the full text of the license in the file
 LICENSE or in <http://www.gnu.org/licenses/>.

                 Copyright (C) The OpenMolcas Authors
           For the author list and the recommended citation,
                   consult the file CONTRIBUTORS.md

           *************************************************
           * pymolcas version py2.10                       *
           *   build 3068ae8b88c9345ec6cfef6fef7f1169      *
           *   (after the EMIL interpreter by V. Veryazov) *
           *************************************************

configuration info
------------------
Host name: login1 (Linux)
C Compiler ID: GNU
C flags: -std=gnu99
Fortran Compiler ID: GNU
Fortran flags: -fno-aggressive-loop-optimizations -cpp -fdefault-integer-8 -fmax-stack-var-size=1048576
Definitions: _MOLCAS_;_I8_;_LINUX_;_MKL_
Parallel: OFF (GA=OFF)


   ----------------------------------------------------------------------------------------------------------------------------------
  |
  |           Project: tungsten_so_cf
  |    Submitted from: /home4/s4752295/Internship/Initial_simulations/Point_charge_model/1_electron/Madelung_charges_9_active_space/W
  |      Scratch area: /tmp/tungsten_so_cf
  |   Save outputs to: /home4/s4752295/Internship/Initial_simulations/Point_charge_model/1_electron/Madelung_charges_9_active_space/W
  |            Molcas: /home4/s4752295/Internship/Molcas/recomp_try/OpenMolcas-master/build
  |
  | Scratch area is empty
  |
  |    MOLCAS_DRIVER = /home4/s4752295/Internship/Molcas/bin/pymolcas
  |    MOLCAS_NPROCS = 1
  |    MOLCAS_SOURCE = /home4/s4752295/Internship/Molcas/recomp_try/OpenMolcas-master
  | MOLCAS_STRUCTURE = 0
  |
   ----------------------------------------------------------------------------------------------------------------------------------

++ ---------   Input file   ---------

&SEWARD
AMFi

CLIG
$R

Basis Set
W.ANO-rcc.Roos.24s21p15d11f4g2h.11s10p9d8f4g2h.
Spherical d
W            -1.0658140267135469e-14    -3.5527134223784897e-15 0.008753588724385739
End of Basis

Xfield

414
-5.202861404,-2.0020000000000002,1.1558547000000001     -0.625931
-5.202861404,-0.0,-2.3117107    -0.625931
-5.202861404,2.0020000000000002,1.1558547000000001      -0.625931
-5.193949891,0.0,0.0    1.892092
3.4569335970000004,-2.0020000000000002,-1.1558547000000001      2.515516
3.4569335970000004,0.0,2.3117107        2.515516
3.4569335970000004,2.0020000000000002,-1.1558547000000001       2.515516
4.631884764,-4.0040000000000004,0.0     0.004632
4.631884764,-2.0020000000000002,-3.4675654000000002     0.004632
4.631884764,-2.0020000000000002,3.4675654000000002      0.004632
4.631884764,2.0020000000000002,-3.4675654000000002      0.004632
4.631884764,2.0020000000000002,3.4675654000000002       0.004632
4.631884764,4.0040000000000004,0.0      0.004632
5.367895507000001,-2.0020000000000002,1.1558547000000001        -2.519484
5.367895507000001,-0.0,-2.3117107       -2.519484
5.367895507000001,2.0020000000000002,1.1558547000000001 -2.519484
-3.8130371110000003,-0.0,-0.0   -3.142907
-6.467626958,-4.0040000000000004,-2.3117107     -0.625931
-6.467626958,0.0,4.623420100000001      -0.625931
-6.467626958,4.0040000000000004,-2.3117107      -0.625931
-8.5921875,-4.0040000000000004,0.0      1.892092
-8.5921875,-2.0020000000000002,-3.4675654000000002      1.892092
-8.5921875,-2.0020000000000002,3.4675654000000002       1.892092
-8.5921875,2.0020000000000002,-3.4675654000000002       1.892092
-8.5921875,2.0020000000000002,3.4675654000000002        1.892092
-8.5921875,4.0040000000000004,0.0       1.892092
32.7234375,-4.0040000000000004,2.3117107        2.515516
32.7234375,-0.0,-4.623420100000001      2.515516
32.7234375,4.0040000000000004,2.3117107 2.515516
4.730273444,-4.0040000000000004,-2.3117107      -2.519484
4.730273444,0.0,4.623420100000001       -2.519484
4.730273444,4.0040000000000004,-2.3117107       -2.519484
-4.2021484440000005,-4.0040000000000004,-0.0    -3.142907
-4.2021484440000005,-2.0020000000000002,-3.4675654000000002     -3.142907
-4.2021484440000005,-2.0020000000000002,3.4675654000000002      -3.142907
-4.2021484440000005,2.0020000000000002,-3.4675654000000002      -3.142907
-4.2021484440000005,2.0020000000000002,3.4675654000000002       -3.142907
-4.2021484440000005,4.0040000000000004,-0.0     -3.142907
-12.38046875,-4.0040000000000004,4.623420100000001      -0.625931
-12.38046875,4.0040000000000004,4.623420100000001       -0.625931
-12.38046875,-6.006,1.1558547000000001  -0.625931
-12.38046875,6.006,1.1558547000000001   -0.625931
-12.38046875,-2.0020000000000002,-5.779276100000001     -0.625931
-12.38046875,2.0020000000000002,-5.779276100000001      -0.625931
7.81015625,-2.0020000000000002,-1.1558547000000001      4.409069
7.81015625,2.0020000000000002,-1.1558547000000001       4.409069
7.81015625,0.0,2.3117107        4.409069
-227.82500000000002,-0.0,-0.0   -5.030367
-227.82500000000002,0.0,0.0     5.039632
17.572851556,-4.0040000000000004,-4.623420100000001     2.515516
17.572851556,4.0040000000000004,-4.623420100000001      2.515516
17.572851556,-6.006,-1.1558547000000001 2.515516
17.572851556,6.006,-1.1558547000000001  2.515516
17.572851556,-2.0020000000000002,5.779276100000001      2.515516
17.572851556,2.0020000000000002,5.779276100000001       2.515516
24.75078125,-6.006,-3.4675654000000002  0.004632
24.75078125,-6.006,3.4675654000000002   0.004632
24.75078125,6.006,-3.4675654000000002   0.004632
24.75078125,6.006,3.4675654000000002    0.004632
24.75078125,-0.0,-6.9351308000000005    0.004632
24.75078125,0.0,6.9351308000000005      0.004632
62.501562500000006,-4.0040000000000004,4.623420100000001        -2.519484
62.501562500000006,4.0040000000000004,4.623420100000001 -2.519484
62.501562500000006,-6.006,1.1558547000000001    -2.519484
62.501562500000006,6.006,1.1558547000000001     -2.519484
62.501562500000006,-2.0020000000000002,-5.779276100000001       -2.519484
62.501562500000006,2.0020000000000002,-5.779276100000001        -2.519484
-189.63750000000002,-6.006,-3.4675654000000002  1.892092
-189.63750000000002,-6.006,3.4675654000000002   1.892092
-189.63750000000002,6.006,-3.4675654000000002   1.892092
-189.63750000000002,6.006,3.4675654000000002    1.892092
-189.63750000000002,-0.0,-6.9351308000000005    1.892092
-189.63750000000002,0.0,6.9351308000000005      1.892092
-153.07500000000002,-4.0040000000000004,2.3117107       4.409069
-153.07500000000002,-0.0,-4.623420100000001     4.409069
-153.07500000000002,4.0040000000000004,2.3117107        4.409069
-115.7,-4.0040000000000004,-0.0 -5.030367
-115.7,-2.0020000000000002,-3.4675654000000002  -5.030367
-115.7,-2.0020000000000002,3.4675654000000002   -5.030367
-115.7,2.0020000000000002,-3.4675654000000002   -5.030367
-115.7,-4.0040000000000004,0.0  5.039632
-115.7,4.0040000000000004,-0.0  -5.030367
-115.7,2.0020000000000002,3.4675654000000002    -5.030367
-115.7,-2.0020000000000002,-3.4675654000000002  5.039632
-115.7,-2.0020000000000002,3.4675654000000002   5.039632
-115.7,2.0020000000000002,-3.4675654000000002   5.039632
-115.7,4.0040000000000004,0.0   5.039632
-115.7,2.0020000000000002,3.4675654000000002    5.039632
-60.612500000000004,-2.0020000000000002,-1.1558547000000001     -5.660931
-60.612500000000004,0.0,2.3117107       -5.660931
-60.612500000000004,2.0020000000000002,-1.1558547000000001      -5.660931
1.14765625,-8.0079987,0.0       0.004632
1.14765625,-4.0040000000000004,-6.9351308000000005      0.004632
1.14765625,-4.0040000000000004,6.9351308000000005       0.004632
1.14765625,4.0040000000000004,-6.9351308000000005       0.004632
1.14765625,8.0079987,0.0        0.004632
1.14765625,4.0040000000000004,6.9351308000000005        0.004632
88.31875000000001,-6.006,3.4675654000000002     -3.142907
88.31875000000001,-6.006,-3.4675654000000002    -3.142907
88.31875000000001,6.006,-3.4675654000000002     -3.142907
88.31875000000001,6.006,3.4675654000000002      -3.142907
88.31875000000001,-0.0,-6.9351308000000005      -3.142907
88.31875000000001,0.0,6.9351308000000005        -3.142907
112.28750000000001,-8.0079987,-2.3117107        -0.625931
112.28750000000001,-6.006,-5.779276100000001    -0.625931
112.28750000000001,-2.0020000000000002,8.0909855        -0.625931
112.28750000000001,6.006,-5.779276100000001     -0.625931
112.28750000000001,8.0079987,-2.3117107 -0.625931
112.28750000000001,2.0020000000000002,8.0909855 -0.625931
1.556445306,-8.0079987,0.0      1.892092
1.556445306,-4.0040000000000004,-6.9351308000000005     1.892092
1.556445306,-4.0040000000000004,6.9351308000000005      1.892092
1.556445306,4.0040000000000004,-6.9351308000000005      1.892092
1.556445306,8.0079987,0.0       1.892092
1.556445306,4.0040000000000004,6.9351308000000005       1.892092
43.996875,-4.0040000000000004,-4.623420100000001        4.409069
43.996875,4.0040000000000004,-4.623420100000001 4.409069
43.996875,-6.006,-1.1558547000000001    4.409069
43.996875,6.006,-1.1558547000000001     4.409069
43.996875,-2.0020000000000002,5.779276100000001 4.409069
43.996875,2.0020000000000002,5.779276100000001  4.409069
211.128125,-4.0040000000000004,2.3117107        -5.660931
211.128125,-0.0,-4.623420100000001      -5.660931
211.128125,4.0040000000000004,2.3117107 -5.660931
0.446875,-8.0079987,2.3117107   2.515516
0.446875,-2.0020000000000002,-8.0909855 2.515516
0.446875,-6.006,5.779276100000001       2.515516
0.446875,2.0020000000000002,-8.0909855  2.515516
0.446875,8.0079987,2.3117107    2.515516
0.446875,6.006,5.779276100000001        2.515516
-122.44375000000001,-8.0079987,-2.3117107       -2.519484
-122.44375000000001,-6.006,-5.779276100000001   -2.519484
-122.44375000000001,-2.0020000000000002,8.0909855       -2.519484
-122.44375000000001,6.006,-5.779276100000001    -2.519484
-122.44375000000001,2.0020000000000002,8.0909855        -2.519484
-122.44375000000001,8.0079987,-2.3117107        -2.519484
-28.69140625,-8.0079987,-0.0    -3.142907
-28.69140625,-4.0040000000000004,-6.9351308000000005    -3.142907
-28.69140625,-4.0040000000000004,6.9351308000000005     -3.142907
-28.69140625,4.0040000000000004,-6.9351308000000005     -3.142907
-28.69140625,4.0040000000000004,6.9351308000000005      -3.142907
-28.69140625,8.0079987,-0.0     -3.142907
788.45,0.0,0.0  6.927092
420.225,-8.0079987,4.623420100000001    -0.625931
420.225,8.0079987,4.623420100000001     -0.625931
420.225,-0.0,-9.2468415 -0.625931
-7.0484375,-6.006,3.4675654000000002    -5.030367
-7.0484375,-6.006,-3.4675654000000002   -5.030367
-7.0484375,-6.006,3.4675654000000002    5.039632
-7.0484375,-6.006,-3.4675654000000002   5.039632
-7.0484375,6.006,-3.4675654000000002    -5.030367
-7.0484375,6.006,3.4675654000000002     -5.030367
-7.0484375,6.006,-3.4675654000000002    5.039632
-7.0484375,6.006,3.4675654000000002     5.039632
-7.0484375,-0.0,-6.9351308000000005     -5.030367
-7.0484375,0.0,6.9351308000000005       -5.030367
-7.0484375,-0.0,-6.9351308000000005     5.039632
-7.0484375,0.0,6.9351308000000005       5.039632
119.35625,-4.0040000000000004,-4.623420100000001        -5.660931
119.35625,4.0040000000000004,-4.623420100000001 -5.660931
119.35625,-6.006,-1.1558547000000001    -5.660931
119.35625,6.006,-1.1558547000000001     -5.660931
119.35625,-2.0020000000000002,5.779276100000001 -5.660931
119.35625,2.0020000000000002,5.779276100000001  -5.660931
390.65000000000003,-8.0079987,-4.623420100000001        2.515516
390.65000000000003,8.0079987,-4.623420100000001 2.515516
390.65000000000003,0.0,9.2468415        2.515516
-672.4250000000001,-8.0079987,4.623420100000001 -2.519484
-672.4250000000001,8.0079987,4.623420100000001  -2.519484
-672.4250000000001,-0.0,-9.2468415      -2.519484
69.63125000000001,-4.0040000000000004,0.0       6.927092
69.63125000000001,-2.0020000000000002,-3.4675654000000002       6.927092
69.63125000000001,-2.0020000000000002,3.4675654000000002        6.927092
69.63125000000001,2.0020000000000002,-3.4675654000000002        6.927092
69.63125000000001,2.0020000000000002,3.4675654000000002 6.927092
69.63125000000001,4.0040000000000004,0.0        6.927092
-71.825,-2.0020000000000002,1.1558547000000001  7.550516
-71.825,0.0,-2.3117107  7.550516
-71.825,2.0020000000000002,1.1558547000000001   7.550516
20.190625,-2.0020000000000002,-1.1558547000000001       -7.554483
20.190625,2.0020000000000002,-1.1558547000000001        -7.554483
20.190625,-0.0,2.3117107        -7.554483
-162.3375,-10.0099987,1.1558547000000001        -0.625931
-162.3375,-6.006,8.0909855      -0.625931
-162.3375,-4.0040000000000004,-9.2468415        -0.625931
-162.3375,4.0040000000000004,-9.2468415 -0.625931
-162.3375,10.0099987,1.1558547000000001 -0.625931
-162.3375,6.006,8.0909855       -0.625931
-87.66875,-8.0079987,2.3117107  4.409069
-87.66875,-6.006,5.779276100000001      4.409069
-87.66875,-2.0020000000000002,-8.0909855        4.409069
-87.66875,2.0020000000000002,-8.0909855 4.409069
-87.66875,6.006,5.779276100000001       4.409069
-87.66875,8.0079987,2.3117107   4.409069
63.903125,-8.0079987,-0.0       -5.030367
63.903125,-4.0040000000000004,-6.9351308000000005       -5.030367
63.903125,-4.0040000000000004,6.9351308000000005        -5.030367
63.903125,-8.0079987,0.0        5.039632
63.903125,-4.0040000000000004,-6.9351308000000005       5.039632
63.903125,4.0040000000000004,-6.9351308000000005        -5.030367
63.903125,4.0040000000000004,6.9351308000000005 -5.030367
63.903125,8.0079987,-0.0        -5.030367
63.903125,-4.0040000000000004,6.9351308000000005        5.039632
63.903125,4.0040000000000004,-6.9351308000000005        5.039632
63.903125,8.0079987,0.0 5.039632
63.903125,4.0040000000000004,6.9351308000000005 5.039632
234.975,-10.0099987,-1.1558547000000001 2.515516
234.975,-6.006,-8.0909855       2.515516
234.975,-4.0040000000000004,9.2468415   2.515516
234.975,6.006,-8.0909855        2.515516
234.975,10.0099987,-1.1558547000000001  2.515516
234.975,4.0040000000000004,9.2468415    2.515516
-30.346875,-10.0099987,-3.4675654000000002      0.004632
-30.346875,-10.0099987,3.4675654000000002       0.004632
-30.346875,-8.0079987,-6.9351308000000005       0.004632
-30.346875,-8.0079987,6.9351308000000005        0.004632
-30.346875,-2.0020000000000002,-10.402696200000001      0.004632
-30.346875,2.0020000000000002,-10.402696200000001       0.004632
-30.346875,-2.0020000000000002,10.402696200000001       0.004632
-30.346875,8.0079987,-6.9351308000000005        0.004632
-30.346875,2.0020000000000002,10.402696200000001        0.004632
-30.346875,10.0099987,-3.4675654000000002       0.004632
-30.346875,10.0099987,3.4675654000000002        0.004632
-30.346875,8.0079987,6.9351308000000005 0.004632
-186.0625,-10.0099987,1.1558547000000001        -2.519484
-186.0625,-6.006,8.0909855      -2.519484
-186.0625,-4.0040000000000004,-9.2468415        -2.519484
-186.0625,4.0040000000000004,-9.2468415 -2.519484
-186.0625,10.0099987,1.1558547000000001 -2.519484
-186.0625,6.006,8.0909855       -2.519484
3941.6,-0.0,-0.0        -8.177907
-150.8,-4.0040000000000004,-2.3117107   7.550516
-150.8,0.0,4.623420100000001    7.550516
-150.8,4.0040000000000004,-2.3117107    7.550516
-784.5500000000001,-4.0040000000000004,2.3117107        -7.554483
-784.5500000000001,-0.0,-4.623420100000001      -7.554483
-784.5500000000001,4.0040000000000004,2.3117107 -7.554483
63.578125,-10.0099987,3.4675654000000002        1.892092
63.578125,-10.0099987,-3.4675654000000002       1.892092
63.578125,-8.0079987,-6.9351308000000005        1.892092
63.578125,-8.0079987,6.9351308000000005 1.892092
63.578125,-2.0020000000000002,-10.402696200000001       1.892092
63.578125,2.0020000000000002,-10.402696200000001        1.892092
63.578125,-2.0020000000000002,10.402696200000001        1.892092
63.578125,8.0079987,-6.9351308000000005 1.892092
63.578125,2.0020000000000002,10.402696200000001 1.892092
63.578125,10.0099987,-3.4675654000000002        1.892092
63.578125,10.0099987,3.4675654000000002 1.892092
63.578125,8.0079987,6.9351308000000005  1.892092
-656.5,-8.0079987,-4.623420100000001    4.409069
-656.5,8.0079987,-4.623420100000001     4.409069
-656.5,0.0,9.2468415    4.409069
33.56640625,-8.0079987,2.3117107        -5.660931
33.56640625,-2.0020000000000002,-8.0909855      -5.660931
33.56640625,-6.006,5.779276100000001    -5.660931
33.56640625,2.0020000000000002,-8.0909855       -5.660931
33.56640625,6.006,5.779276100000001     -5.660931
33.56640625,8.0079987,2.3117107 -5.660931
-75.64375,-8.0079987,-6.9351308000000005        -3.142907
-75.64375,-10.0099987,3.4675654000000002        -3.142907
-75.64375,-10.0099987,-3.4675654000000002       -3.142907
-75.64375,-8.0079987,6.9351308000000005 -3.142907
-75.64375,-2.0020000000000002,-10.402696200000001       -3.142907
-75.64375,2.0020000000000002,-10.402696200000001        -3.142907
-75.64375,-2.0020000000000002,10.402696200000001        -3.142907
-75.64375,10.0099987,-3.4675654000000002        -3.142907
-75.64375,8.0079987,-6.9351308000000005 -3.142907
-75.64375,2.0020000000000002,10.402696200000001 -3.142907
-75.64375,10.0099987,3.4675654000000002 -3.142907
-75.64375,8.0079987,6.9351308000000005  -3.142907
85.028125,-6.006,-3.4675654000000002    6.927092
85.028125,-6.006,3.4675654000000002     6.927092
85.028125,6.006,-3.4675654000000002     6.927092
85.028125,6.006,3.4675654000000002      6.927092
85.028125,-0.0,-6.9351308000000005      6.927092
85.028125,0.0,6.9351308000000005        6.927092
-108.22500000000001,-4.0040000000000004,-0.0    -8.177907
-108.22500000000001,-2.0020000000000002,3.4675654000000002      -8.177907
-108.22500000000001,-2.0020000000000002,-3.4675654000000002     -8.177907
-108.22500000000001,2.0020000000000002,-3.4675654000000002      -8.177907
-108.22500000000001,4.0040000000000004,-0.0     -8.177907
-108.22500000000001,2.0020000000000002,3.4675654000000002       -8.177907
-118.17812500000001,-4.0040000000000004,4.623420100000001       7.550516
-118.17812500000001,4.0040000000000004,4.623420100000001        7.550516
-118.17812500000001,-6.006,1.1558547000000001   7.550516
-118.17812500000001,6.006,1.1558547000000001    7.550516
-118.17812500000001,-2.0020000000000002,-5.779276100000001      7.550516
-118.17812500000001,2.0020000000000002,-5.779276100000001       7.550516
-59.393750000000004,-4.0040000000000004,-4.623420100000001      -7.554483
-59.393750000000004,4.0040000000000004,-4.623420100000001       -7.554483
-59.393750000000004,-6.006,-1.1558547000000001  -7.554483
-59.393750000000004,6.006,-1.1558547000000001   -7.554483
-59.393750000000004,-2.0020000000000002,5.779276100000001       -7.554483
-59.393750000000004,2.0020000000000002,5.779276100000001        -7.554483
-650.325,0.0,11.5585509 -0.625931
-650.325,-10.0099987,-5.779276100000001 -0.625931
-650.325,10.0099987,-5.779276100000001  -0.625931
-350.675,-10.0099987,-1.1558547000000001        4.409069
-350.675,-6.006,-8.0909855      4.409069
-350.675,-4.0040000000000004,9.2468415  4.409069
-350.675,6.006,-8.0909855       4.409069
-350.675,10.0099987,-1.1558547000000001 4.409069
-350.675,4.0040000000000004,9.2468415   4.409069
403.4875,-8.0079987,-4.623420100000001  -5.660931
403.4875,8.0079987,-4.623420100000001   -5.660931
403.4875,0.0,9.2468415  -5.660931
763.1,-0.0,-11.5585509  2.515516
763.1,-10.0099987,5.779276100000001     2.515516
763.1,10.0099987,5.779276100000001      2.515516
-122.03750000000001,-12.0119987,-0.0    0.004632
-122.03750000000001,6.006,-10.402696200000001   0.004632
-122.03750000000001,-6.006,10.402696200000001   0.004632
-122.03750000000001,12.0119987,-0.0     0.004632
-122.03750000000001,-6.006,-10.402696200000001  0.004632
-122.03750000000001,6.006,10.402696200000001    0.004632
-501.475,0.0,11.5585509 -2.519484
-501.475,-10.0099987,-5.779276100000001 -2.519484
-501.475,10.0099987,-5.779276100000001  -2.519484
296.40000000000003,-8.0079987,0.0       6.927092
296.40000000000003,-4.0040000000000004,-6.9351308000000005      6.927092
296.40000000000003,-4.0040000000000004,6.9351308000000005       6.927092
296.40000000000003,4.0040000000000004,-6.9351308000000005       6.927092
296.40000000000003,8.0079987,0.0        6.927092
296.40000000000003,4.0040000000000004,6.9351308000000005        6.927092
275.4375,-12.0119987,-2.3117107 -0.625931
275.4375,-4.0040000000000004,11.5585509 -0.625931
275.4375,-8.0079987,-9.2468415  -0.625931
275.4375,8.0079987,-9.2468415   -0.625931
275.4375,4.0040000000000004,11.5585509  -0.625931
275.4375,12.0119987,-2.3117107  -0.625931
145.51875,-12.0119987,0.0       1.892092
145.51875,-6.006,-10.402696200000001    1.892092
145.51875,-6.006,10.402696200000001     1.892092
145.51875,6.006,-10.402696200000001     1.892092
145.51875,12.0119987,0.0        1.892092
145.51875,6.006,10.402696200000001      1.892092
-5.61640625,-10.0099987,3.4675654000000002      -5.030367
-5.61640625,-10.0099987,-3.4675654000000002     -5.030367
-5.61640625,-8.0079987,-6.9351308000000005      -5.030367
-5.61640625,-8.0079987,6.9351308000000005       -5.030367
-5.61640625,-10.0099987,3.4675654000000002      5.039632
-5.61640625,2.0020000000000002,-10.402696200000001      -5.030367
-5.61640625,-2.0020000000000002,-10.402696200000001     -5.030367
-5.61640625,-10.0099987,-3.4675654000000002     5.039632
-5.61640625,-8.0079987,-6.9351308000000005      5.039632
-5.61640625,-2.0020000000000002,10.402696200000001      -5.030367
-5.61640625,2.0020000000000002,-10.402696200000001      5.039632
-5.61640625,-8.0079987,6.9351308000000005       5.039632
-5.61640625,-2.0020000000000002,-10.402696200000001     5.039632
-5.61640625,8.0079987,-6.9351308000000005       -5.030367
-5.61640625,2.0020000000000002,10.402696200000001       -5.030367
-5.61640625,10.0099987,-3.4675654000000002      -5.030367
-5.61640625,10.0099987,3.4675654000000002       -5.030367
-5.61640625,8.0079987,6.9351308000000005        -5.030367
-5.61640625,-2.0020000000000002,10.402696200000001      5.039632
-5.61640625,8.0079987,-6.9351308000000005       5.039632
-5.61640625,10.0099987,-3.4675654000000002      5.039632
-5.61640625,2.0020000000000002,10.402696200000001       5.039632
-5.61640625,10.0099987,3.4675654000000002       5.039632
-5.61640625,8.0079987,6.9351308000000005        5.039632
-0.89375,-10.0099987,-1.1558547000000001        -5.660931
-0.89375,-6.006,-8.0909855      -5.660931
-0.89375,-4.0040000000000004,9.2468415  -5.660931
-0.89375,6.006,-8.0909855       -5.660931
-0.89375,4.0040000000000004,9.2468415   -5.660931
-0.89375,10.0099987,-1.1558547000000001 -5.660931
150.8,-2.0020000000000002,1.1558547000000001    9.444068
150.8,0.0,-2.3117107    9.444068
150.8,2.0020000000000002,1.1558547000000001     9.444068
66.70625,-12.0119987,2.3117107  2.515516
66.70625,-4.0040000000000004,-11.5585509        2.515516
66.70625,4.0040000000000004,-11.5585509 2.515516
66.70625,-8.0079987,9.2468415   2.515516
66.70625,12.0119987,2.3117107   2.515516
66.70625,8.0079987,9.2468415    2.515516
203.9375,-12.0119987,-2.3117107 -2.519484
203.9375,-4.0040000000000004,11.5585509 -2.519484
203.9375,-8.0079987,-9.2468415  -2.519484
203.9375,8.0079987,-9.2468415   -2.519484
203.9375,12.0119987,-2.3117107  -2.519484
203.9375,4.0040000000000004,11.5585509  -2.519484
285.5125,-12.0119987,-0.0       -3.142907
285.5125,-6.006,-10.402696200000001     -3.142907
285.5125,-6.006,10.402696200000001      -3.142907
285.5125,6.006,-10.402696200000001      -3.142907
285.5125,12.0119987,-0.0        -3.142907
285.5125,6.006,10.402696200000001       -3.142907
11.239160153,-6.006,-3.4675654000000002 -8.177907
11.239160153,-6.006,3.4675654000000002  -8.177907
11.239160153,6.006,3.4675654000000002   -8.177907
11.239160153,6.006,-3.4675654000000002  -8.177907
11.239160153,-0.0,-6.9351308000000005   -8.177907
11.239160153,0.0,6.9351308000000005     -8.177907
327.4375,-6.006,-5.779276100000001      7.550516
327.4375,-8.0079987,-2.3117107  7.550516
327.4375,-2.0020000000000002,8.0909855  7.550516
327.4375,6.006,-5.779276100000001       7.550516
327.4375,2.0020000000000002,8.0909855   7.550516
327.4375,8.0079987,-2.3117107   7.550516
-452.40000000000003,-6.006,5.779276100000001    -7.554483
-452.40000000000003,-8.0079987,2.3117107        -7.554483
-452.40000000000003,-2.0020000000000002,-8.0909855      -7.554483
-452.40000000000003,2.0020000000000002,-8.0909855       -7.554483
-452.40000000000003,8.0079987,2.3117107 -7.554483
-452.40000000000003,6.006,5.779276100000001     -7.554483
92.6453125,-10.0099987,8.0909855        -0.625931
92.6453125,-12.0119987,4.623420100000001        -0.625931
92.6453125,-2.0020000000000002,-12.7144069      -0.625931
92.6453125,2.0020000000000002,-12.7144069       -0.625931
92.6453125,12.0119987,4.623420100000001 -0.625931
92.6453125,10.0099987,8.0909855 -0.625931
-628.875,-0.0,-11.5585509       4.409069
-628.875,-10.0099987,5.779276100000001  4.409069
-628.875,10.0099987,5.779276100000001   4.409069

End of input

&SCF
Occupied
9
Iterations
   50  100
End of Input

&RASSCF
LumOrb
Symmetry
1
Spin
2
Nactel
1 0 0
CIRoot
9 9 1
inactive
9
ras2
9
End of Input

>>> COPY tungsten_so_cf.JobIph $SLURM_SUBMIT_DIR/tungsten_so_cf.doublet.JobIph

>>> COPY $SLURM_SUBMIT_DIR/tungsten_so_cf.doublet.JobIph ./JOB002

&RASSI
NROFJobIph
1 All
SpinOrbit
End of Input

EOF

-- ----------------------------------

--- Start Module: seward at Wed Mar 26 15:43:53 2025 ---

()()()()()()()()()()()()()()()()()()()()()()()()()()()()()()()()()()()()()()()()()()()()()()()()()()

                                              &SEWARD

                                   only a single process is used
                       available to each process: 4.1 GB of memory, 1 thread?
                                             pid: 81823
()()()()()()()()()()()()()()()()()()()()()()()()()()()()()()()()()()()()()()()()()()()()()()()()()()

 The speed of LIGHT in this CALCULATION =   137.03599917700001     
               SEWARD will generate:
                  Multipole Moment integrals up to order  2
                  Kinetic Energy integrals
                  Nuclear Attraction integrals (point charge)
                  One-Electron Hamiltonian integrals
                  Velocity integrals
                  Relativistic Douglas-Kroll-Hess integrals:
                    - Parametrization         : EXP
                    - DKH order of Hamiltonian: 2
                    - DKH order of Properties : 0
                         - multipole moment operators
                         - electric potential operators
                         - contact operators
                  External field from   414 point(s) added to the one-electron Hamiltonian
                  Orbital angular momentum around (-0.0000 -0.0000  0.0088 )
                  Velocity quadrupole around (-0.0000 -0.0000  0.0088 )
                  Atomic mean-field integrals
                  Two-Electron Repulsion integrals

                   Integrals are discarded if absolute value <: 0.10E-13
                   Integral cutoff threshold is set to       <: 0.10E-15

++    Symmetry information:
      ---------------------

                    Character Table for C1 

                             E  
                    a        1  x, y, xy, Rz, z, xz, Ry, yz, Rx, I
--


++    Basis set information:
      ----------------------


      Basis set label: W.ANO-RCC.ROOS.24S21P15D11F4G2H.11S10P9D8F4G2H......

      Electronic valence basis set:
      ------------------
      Associated Effective Charge  74.000000 au
      Associated Actual Charge     74.000000 au
      Nuclear Model: Point charge

      Shell  nPrim  nBasis  Cartesian Spherical Contaminant
         s      24      11        X                  
         p      21      10        X                  
         d      15       9                 X         
         f      11       8                 X         
         g       4       4                 X         
         h       2       2                 X         
--


++    Molecular structure info:
      -------------------------

                    ************************************************ 
                    **** Cartesian Coordinates / Bohr, Angstrom **** 
                    ************************************************ 

     Center  Label                x              y              z                     x              y              z
        1      W               -0.000000      -0.000000       0.008754             -0.000000      -0.000000       0.004632
--


++    Operator info:
      --------------


  Net charge from external field:   -39.268449999999902     
--


            Nuclear Potential Energy              0.00000000 au

                    Nuclear-External Field Potential Energy    -520.78744608 au
                    External Field Potential Energy            1235.10530876 au 


            Total Nuclear Potential Energy           -520.78744608 au


      Basis set specifications :
      Symmetry species         a  
      Basis functions          200

 Sorry, Molden does not know how to handle
 functions with angular momentum larger than g
Note: The following floating-point exceptions are signalling: IEEE_UNDERFLOW_FLAG IEEE_DENORMAL
--- Stop Module: seward at Wed Mar 26 15:44:13 2025 /rc=_RC_ALL_IS_WELL_ ---
*** files: tungsten_so_cf.GssOrb xmldump
    saved to directory /home4/s4752295/Internship/Initial_simulations/Point_charge_model/1_electron/Madelung_charges_9_active_space/W
--- Module seward spent 19 seconds ---

*** symbolic link created: INPORB -> tungsten_so_cf.GssOrb
--- Start Module: scf at Wed Mar 26 15:44:13 2025 ---

()()()()()()()()()()()()()()()()()()()()()()()()()()()()()()()()()()()()()()()()()()()()()()()()()()

                                                &SCF

                                   only a single process is used
                       available to each process: 4.1 GB of memory, 1 thread?
                                             pid: 90127
()()()()()()()()()()()()()()()()()()()()()()()()()()()()()()()()()()()()()()()()()()()()()()()()()()

++    Input section:
      --------------

      Header of the integral files:
      
       Integrals generated by seward 4.2.0  , Wed Mar 26 15:43:54 2025


      Cartesian coordinates in Angstrom:
      -----------------------------------------------------
      No.  Label        X            Y            Z        
      -----------------------------------------------------
       1   W         -0.00000000  -0.00000000   0.00463220
      -----------------------------------------------------
      Nuclear repulsion energy = -520.78744608
--

++    Orbital specifications:
      -----------------------

      Symmetry species               1
                                     a
      Frozen orbitals                0
      Occupied orbitals              9
      Secondary orbitals           191
      Deleted orbitals               0
      Total number of orbitals     200
      Number of basis functions    200
--

      Molecular charge                          56.000

++    Optimization specifications:
      ----------------------------

      SCF Algorithm: Conventional
      Minimized density differences are used
      Number of density matrices in core                5
      Maximum number of NDDO SCF iterations            50
      Maximum number of HF SCF iterations             100
      Threshold for SCF energy change            0.10E-08
      Threshold for density matrix               0.10E-03
      Threshold for Fock matrix                  0.15E-03
      Threshold for linear dependence            0.10E-08
      Threshold at which DIIS is turned on       0.15E+00
      Threshold at which QNR/C2DIIS is turned on 0.75E-01
      Threshold for Norm(delta) (QNR/C2DIIS)     0.20E-04
      DIIS extrapolation of the SCF procedure
      All orbitals punched on: SCFORB
--

      Detected guessorb starting orbitals                                             


++ Convergence information
                                   SCF        iterations: Energy and convergence statistics

Iter     Tot. SCF        One-elec.       Two-elec.     Energy      Max Dij or  Max Fij      DNorm      TNorm      AccCon     Time
         Energy          Energy          Energy        Change      Delta Norm                                                in Sec.

 The total and one-electron energies are shifted by a value of     13000. a.u.

   1  -308.111769829 -1056.171290350  1268.846966605   0.00E+00    0.22E+00*   0.90E+01*    0.60E+01   0.65E+03   None         1.
   2  -319.180091099 -1112.269697442  1313.877052427  -0.11E+02*   0.16E-02*   0.20E+00*    0.90E+00   0.66E+03   EDIIS        1.
   3  -319.183178164 -1111.727499068  1313.331766988  -0.31E-02*   0.66E-04    0.38E-02*    0.96E-02   0.66E+03   EDIIS        1.
   4  -319.183178988 -1111.738200095  1313.342467192  -0.82E-06*   0.21E-05    0.62E-04     0.12E-03   0.66E+03   c2DIIS       1.
   5  -319.183178988 -1111.738086665  1313.342353761  -0.52E-09    0.16E-06    0.40E-05     0.49E-05   0.66E+03   QNRc2DIIS    1.

       Convergence after  5 Macro Iterations
--

 *****************************************************************************************************************************
 *                                                                                                                           *
 *                                             SCF/KS-DFT Program, Final results                                             *
 *                                                                                                                           *
 *                                                                                                                           *
 *                                                                                                                           *
 *                                                       Final Results                                                       *
 *                                                                                                                           *
 *****************************************************************************************************************************

::    Total SCF energy                             -13319.1831789880
      One-electron energy                          -14111.7380866648
      Two-electron energy                            1313.3423537611
      Nuclear repulsion energy                       -520.7874460843
      Kinetic energy (interpolated)                 19280.3785340036
      Virial theorem                                    0.6908154399
      Total spin, S(S+1)                                0.0000000000
      Total spin, S                                     0.0000000000
      Max non-diagonal density matrix element           0.0000002089
      Max non-diagonal Fock matrix element              0.0000000000


      All orbitals with orbital energies smaller than  E(LUMO)+0.5 are printed

++    Molecular orbitals:
      -------------------

      Title: SCF orbitals

      Molecular orbitals for symmetry species 1: a  

          Some orbital energies have been scaled by powers of 10, the power is written right after the orbital index


          Orbital            1 (1)     2         3         4         5         6         7         8         9        10    
          Energy         -270.7997 -587.2655 -533.3162 -533.3162 -533.3160 -224.3373 -207.6599 -207.6599 -207.6586 -187.6856
          Occ. No.          2.0000    2.0000    2.0000    2.0000    2.0000    2.0000    2.0000    2.0000    2.0000    0.0000

        1 W      1s         1.0000    0.0001    0.0000    0.0000   -0.0000   -0.0000   -0.0000    0.0000    0.0000   -0.0000
        2 W      2s        -0.0001    0.9999    0.0000    0.0000   -0.0002    0.0122    0.0000   -0.0000   -0.0001    0.0000
        3 W      3s         0.0000   -0.0118   -0.0000   -0.0000    0.0000    0.9952    0.0000   -0.0000   -0.0032    0.0000
        4 W      4s        -0.0000    0.0034    0.0000    0.0000   -0.0000   -0.0799   -0.0000    0.0000    0.0004   -0.0000
        5 W      5s         0.0000   -0.0012   -0.0000   -0.0000    0.0000    0.0234    0.0000   -0.0000   -0.0001    0.0000
        6 W      6s        -0.0000    0.0003    0.0000    0.0000   -0.0000   -0.0062   -0.0000    0.0000    0.0000    0.0000
        7 W      7s         0.0000   -0.0004   -0.0000   -0.0000    0.0000    0.0069    0.0000   -0.0000   -0.0000    0.0000
        8 W      8s        -0.0000    0.0010    0.0000    0.0000   -0.0000   -0.0175   -0.0000    0.0000    0.0001    0.0000
        9 W      9s         0.0000   -0.0013   -0.0000   -0.0000    0.0000    0.0223    0.0000   -0.0000   -0.0001    0.0000
       10 W     10s        -0.0000    0.0016    0.0000    0.0000   -0.0000   -0.0252   -0.0000    0.0000    0.0001   -0.0000
       11 W     11s         0.0000   -0.0024   -0.0000   -0.0000    0.0000    0.0312    0.0000   -0.0000   -0.0002    0.0000
       12 W      2px        0.0000    0.0002   -0.0022   -0.0000    0.9999    0.0000   -0.0000    0.0000    0.0143   -0.0000
       13 W      3px       -0.0000    0.0000    0.0000    0.0000   -0.0137    0.0032   -0.0020    0.0000    0.9931   -0.0000
       14 W      4px        0.0000   -0.0000   -0.0000   -0.0000    0.0038   -0.0002    0.0002   -0.0000   -0.0913    0.0000
       15 W      5px       -0.0000    0.0000    0.0000    0.0000   -0.0012    0.0000   -0.0001    0.0000    0.0253   -0.0000
       16 W      6px        0.0000   -0.0000   -0.0000   -0.0000    0.0005   -0.0000    0.0000   -0.0000   -0.0102    0.0000
       17 W      7px       -0.0000    0.0000    0.0000    0.0000   -0.0016    0.0000   -0.0001    0.0000    0.0303   -0.0000
       18 W      8px        0.0000   -0.0000   -0.0000   -0.0000    0.0017   -0.0000    0.0001   -0.0000   -0.0301    0.0000
       19 W      9px       -0.0000    0.0000    0.0000    0.0000   -0.0019    0.0000   -0.0001    0.0000    0.0310   -0.0000
       20 W     10px        0.0000   -0.0000   -0.0000   -0.0000    0.0020   -0.0000    0.0001   -0.0000   -0.0284    0.0000
       21 W     11px       -0.0000    0.0000    0.0000    0.0000   -0.0027    0.0000   -0.0001    0.0000    0.0287   -0.0000
       22 W      2py        0.0000    0.0000   -0.0005    0.9999   -0.0000   -0.0000    0.0000    0.0143    0.0000    0.0000
       23 W      3py       -0.0000   -0.0000    0.0000   -0.0137    0.0000   -0.0000    0.0000    0.9931    0.0000    0.0000
       24 W      4py        0.0000    0.0000   -0.0000    0.0038   -0.0000    0.0000   -0.0000   -0.0913   -0.0000   -0.0000
       25 W      5py       -0.0000   -0.0000    0.0000   -0.0012    0.0000   -0.0000    0.0000    0.0253    0.0000    0.0000
       26 W      6py        0.0000    0.0000   -0.0000    0.0005   -0.0000    0.0000   -0.0000   -0.0102   -0.0000   -0.0000
       27 W      7py       -0.0000   -0.0000    0.0000   -0.0016    0.0000   -0.0000    0.0000    0.0303    0.0000    0.0000
       28 W      8py        0.0000    0.0000   -0.0000    0.0017   -0.0000    0.0000   -0.0000   -0.0301   -0.0000   -0.0000
       29 W      9py       -0.0000   -0.0000    0.0000   -0.0019    0.0000   -0.0000    0.0000    0.0310    0.0000    0.0000
       30 W     10py        0.0000    0.0000   -0.0000    0.0020   -0.0000    0.0000   -0.0000   -0.0284   -0.0000   -0.0000
       31 W     11py       -0.0000   -0.0000    0.0000   -0.0027    0.0000   -0.0000    0.0000    0.0287    0.0000    0.0000
       32 W      2pz        0.0000    0.0000    0.9999    0.0005    0.0022    0.0000    0.0143   -0.0000    0.0000   -0.0000
       33 W      3pz       -0.0000    0.0000   -0.0137   -0.0000   -0.0000    0.0000    0.9931   -0.0000    0.0020   -0.0000
       34 W      4pz        0.0000   -0.0000    0.0038    0.0000    0.0000   -0.0000   -0.0913    0.0000   -0.0002    0.0000
       35 W      5pz       -0.0000    0.0000   -0.0012   -0.0000   -0.0000    0.0000    0.0253   -0.0000    0.0001   -0.0000
       36 W      6pz        0.0000   -0.0000    0.0005    0.0000    0.0000   -0.0000   -0.0102    0.0000   -0.0000    0.0000
       37 W      7pz       -0.0000    0.0000   -0.0016   -0.0000   -0.0000    0.0000    0.0303   -0.0000    0.0001    0.0000
       38 W      8pz        0.0000   -0.0000    0.0017    0.0000    0.0000   -0.0000   -0.0301    0.0000   -0.0001    0.0000
       39 W      9pz       -0.0000    0.0000   -0.0019   -0.0000   -0.0000    0.0000    0.0310   -0.0000    0.0001    0.0000
       40 W     10pz        0.0000   -0.0000    0.0020    0.0000    0.0000   -0.0000   -0.0284    0.0000   -0.0001    0.0000
       41 W     11pz       -0.0000    0.0000   -0.0027   -0.0000   -0.0000    0.0000    0.0287   -0.0000    0.0001   -0.0000
       42 W      3d2-      -0.0000   -0.0000   -0.0000    0.0000   -0.0000   -0.0000    0.0000    0.0022    0.0000   -0.0028
       43 W      4d2-       0.0000    0.0000    0.0000   -0.0000    0.0000    0.0000   -0.0000   -0.0001   -0.0000    0.0003
       44 W      5d2-      -0.0000   -0.0000   -0.0000    0.0000   -0.0000   -0.0000    0.0000    0.0000    0.0000   -0.0001
       45 W      6d2-       0.0000    0.0000    0.0000   -0.0000    0.0000    0.0000   -0.0000   -0.0000   -0.0000    0.0001
       46 W      7d2-      -0.0000   -0.0000   -0.0000    0.0000   -0.0000   -0.0000    0.0000    0.0000    0.0000   -0.0001
       47 W      8d2-       0.0000    0.0000    0.0000   -0.0000    0.0000    0.0000   -0.0000   -0.0000   -0.0000    0.0001
       48 W      9d2-      -0.0000   -0.0000   -0.0000    0.0000   -0.0000   -0.0000    0.0000    0.0000    0.0000   -0.0001
       49 W     10d2-       0.0000    0.0000    0.0000   -0.0000    0.0000    0.0000    0.0000    0.0000    0.0000    0.0001
       50 W     11d2-      -0.0000   -0.0000   -0.0000    0.0000   -0.0000   -0.0000   -0.0000   -0.0000   -0.0000   -0.0001
       51 W      3d1-       0.0000   -0.0000   -0.0000    0.0000   -0.0000   -0.0000    0.0000    0.0000    0.0000    0.9917
       52 W      4d1-      -0.0000    0.0000    0.0000   -0.0000    0.0000    0.0000   -0.0000   -0.0000   -0.0000   -0.0959
       53 W      5d1-       0.0000   -0.0000   -0.0000    0.0000   -0.0000   -0.0000    0.0000    0.0000   -0.0000    0.0186
       54 W      6d1-      -0.0000    0.0000    0.0000   -0.0000    0.0000    0.0000    0.0000    0.0000   -0.0000   -0.0254
       55 W      7d1-       0.0000   -0.0000    0.0000   -0.0000   -0.0000   -0.0000    0.0000    0.0000    0.0000    0.0328
       56 W      8d1-      -0.0000    0.0000    0.0000   -0.0000    0.0000    0.0000    0.0000    0.0000    0.0000   -0.0372
       57 W      9d1-       0.0000    0.0000    0.0000   -0.0000   -0.0000    0.0000    0.0000    0.0000    0.0000    0.0370
       58 W     10d1-      -0.0000   -0.0000    0.0000   -0.0000    0.0000   -0.0000    0.0000    0.0000   -0.0000   -0.0397
       59 W     11d1-       0.0000    0.0000   -0.0000    0.0000   -0.0000    0.0000    0.0000    0.0000    0.0000    0.0299
       60 W      3d0        0.0000    0.0000    0.0000    0.0000   -0.0000    0.0000    0.0000   -0.0000   -0.0013   -0.0000
       61 W      4d0       -0.0000   -0.0000   -0.0000   -0.0000    0.0000    0.0000   -0.0000    0.0000    0.0000    0.0000
       62 W      5d0        0.0000    0.0000    0.0000    0.0000   -0.0000   -0.0000    0.0000   -0.0000   -0.0000   -0.0000
       63 W      6d0       -0.0000   -0.0000   -0.0000   -0.0000    0.0000    0.0000   -0.0000    0.0000    0.0000    0.0000
       64 W      7d0        0.0000    0.0000    0.0000    0.0000   -0.0000   -0.0000   -0.0000    0.0000   -0.0000   -0.0000
       65 W      8d0       -0.0000   -0.0000    0.0000    0.0000    0.0000   -0.0000   -0.0000    0.0000    0.0000    0.0000
       66 W      9d0        0.0000    0.0000    0.0000    0.0000   -0.0000   -0.0000   -0.0000    0.0000   -0.0000   -0.0000
       67 W     10d0       -0.0000   -0.0000   -0.0000   -0.0000    0.0000    0.0000   -0.0000    0.0000   -0.0000    0.0000
       68 W     11d0        0.0000    0.0000    0.0000    0.0000   -0.0000   -0.0000   -0.0000    0.0000    0.0000   -0.0000
       69 W      3d1+      -0.0000   -0.0000    0.0000    0.0000    0.0000   -0.0000    0.0022   -0.0000    0.0000    0.0000
       70 W      4d1+       0.0000    0.0000   -0.0000   -0.0000   -0.0000   -0.0000   -0.0001    0.0000   -0.0000   -0.0000
       71 W      5d1+      -0.0000   -0.0000    0.0000    0.0000    0.0000    0.0000    0.0000   -0.0000    0.0000    0.0000
       72 W      6d1+       0.0000    0.0000   -0.0000   -0.0000   -0.0000   -0.0000   -0.0000    0.0000   -0.0000   -0.0000
       73 W      7d1+      -0.0000   -0.0000    0.0000    0.0000    0.0000    0.0000    0.0000   -0.0000    0.0000    0.0000
       74 W      8d1+       0.0000    0.0000   -0.0000   -0.0000   -0.0000   -0.0000   -0.0000    0.0000   -0.0000   -0.0000
       75 W      9d1+      -0.0000   -0.0000    0.0000    0.0000    0.0000    0.0000    0.0000   -0.0000    0.0000    0.0000
       76 W     10d1+       0.0000    0.0000   -0.0000   -0.0000   -0.0000   -0.0000    0.0000   -0.0000    0.0000   -0.0000
       77 W     11d1+      -0.0000   -0.0000    0.0000    0.0000    0.0000    0.0000   -0.0000    0.0000   -0.0000    0.0000
       78 W      3d2+      -0.0000   -0.0000   -0.0000   -0.0000    0.0000   -0.0000   -0.0000    0.0000    0.0022   -0.0000
       79 W      4d2+       0.0000    0.0000    0.0000    0.0000   -0.0000   -0.0000    0.0000   -0.0000   -0.0001    0.0000
       80 W      5d2+      -0.0000   -0.0000   -0.0000   -0.0000    0.0000    0.0000   -0.0000    0.0000    0.0000   -0.0000
       81 W      6d2+       0.0000    0.0000    0.0000    0.0000   -0.0000   -0.0000   -0.0000    0.0000   -0.0000    0.0000
       82 W      7d2+      -0.0000   -0.0000   -0.0000   -0.0000    0.0000    0.0000   -0.0000    0.0000    0.0000   -0.0000
       83 W      8d2+       0.0000    0.0000    0.0000    0.0000   -0.0000    0.0000   -0.0000    0.0000   -0.0000    0.0000
       84 W      9d2+      -0.0000   -0.0000   -0.0000   -0.0000    0.0000    0.0000   -0.0000    0.0000    0.0000   -0.0000
       85 W     10d2+       0.0000    0.0000    0.0000    0.0000   -0.0000   -0.0000   -0.0000    0.0000    0.0000    0.0000
       86 W     11d2+      -0.0000   -0.0000   -0.0000   -0.0000    0.0000    0.0000    0.0000   -0.0000   -0.0000   -0.0000
       87 W      4f3-       0.0000   -0.0000    0.0000   -0.0000    0.0000   -0.0000   -0.0000   -0.0000   -0.0000   -0.0000
       88 W      5f3-      -0.0000    0.0000   -0.0000    0.0000   -0.0000   -0.0000    0.0000    0.0000    0.0000    0.0000
       89 W      6f3-       0.0000   -0.0000    0.0000   -0.0000    0.0000    0.0000   -0.0000   -0.0000   -0.0000   -0.0000
       90 W      7f3-      -0.0000   -0.0000   -0.0000    0.0000   -0.0000   -0.0000    0.0000    0.0000    0.0000    0.0000
       91 W      8f3-       0.0000    0.0000    0.0000   -0.0000    0.0000    0.0000   -0.0000   -0.0000   -0.0000   -0.0000
       92 W      9f3-      -0.0000   -0.0000   -0.0000    0.0000   -0.0000   -0.0000    0.0000    0.0000    0.0000    0.0000
       93 W     10f3-       0.0000    0.0000    0.0000   -0.0000    0.0000    0.0000   -0.0000   -0.0000   -0.0000   -0.0000
       94 W     11f3-      -0.0000   -0.0000   -0.0000    0.0000   -0.0000   -0.0000    0.0000    0.0000    0.0000    0.0000
       95 W      4f2-       0.0000    0.0000    0.0000   -0.0000    0.0000    0.0000   -0.0000   -0.0000   -0.0000    0.0002
       96 W      5f2-      -0.0000   -0.0000   -0.0000    0.0000   -0.0000   -0.0000    0.0000    0.0000    0.0000   -0.0001
       97 W      6f2-       0.0000    0.0000    0.0000   -0.0000    0.0000    0.0000   -0.0000   -0.0000   -0.0000    0.0001
       98 W      7f2-      -0.0000   -0.0000    0.0000   -0.0000    0.0000   -0.0000    0.0000    0.0000    0.0000   -0.0001
       99 W      8f2-       0.0000    0.0000    0.0000   -0.0000    0.0000    0.0000    0.0000    0.0000    0.0000    0.0001
      100 W      9f2-      -0.0000   -0.0000    0.0000   -0.0000    0.0000   -0.0000    0.0000    0.0000    0.0000   -0.0001
      101 W     10f2-       0.0000    0.0000    0.0000   -0.0000    0.0000   -0.0000    0.0000    0.0000    0.0000    0.0001
      102 W     11f2-      -0.0000   -0.0000    0.0000   -0.0000    0.0000    0.0000    0.0000    0.0000   -0.0000   -0.0000
      103 W      4f1-       0.0000    0.0000   -0.0000    0.0000   -0.0000    0.0000    0.0000    0.0000    0.0000    0.0000
      104 W      5f1-      -0.0000   -0.0000    0.0000   -0.0000    0.0000   -0.0000   -0.0000   -0.0000   -0.0000   -0.0000
      105 W      6f1-       0.0000    0.0000   -0.0000    0.0000   -0.0000    0.0000    0.0000    0.0000    0.0000    0.0000
      106 W      7f1-      -0.0000   -0.0000    0.0000   -0.0000    0.0000   -0.0000   -0.0000   -0.0000   -0.0000   -0.0000
      107 W      8f1-       0.0000    0.0000   -0.0000    0.0000   -0.0000    0.0000    0.0000    0.0000    0.0000    0.0000
      108 W      9f1-      -0.0000    0.0000    0.0000   -0.0000    0.0000   -0.0000   -0.0000   -0.0000   -0.0000   -0.0000
      109 W     10f1-      -0.0000   -0.0000   -0.0000    0.0000   -0.0000   -0.0000    0.0000    0.0000    0.0000    0.0000
      110 W     11f1-       0.0000    0.0000    0.0000   -0.0000    0.0000    0.0000   -0.0000   -0.0000    0.0000   -0.0000
      111 W      4f0        0.0000   -0.0000    0.0000    0.0000    0.0000    0.0000    0.0000   -0.0000    0.0000   -0.0000
      112 W      5f0        0.0000   -0.0000   -0.0000   -0.0000   -0.0000    0.0000   -0.0000    0.0000   -0.0000    0.0000
      113 W      6f0        0.0000   -0.0000    0.0000    0.0000    0.0000    0.0000    0.0000   -0.0000    0.0000   -0.0000
      114 W      7f0        0.0000   -0.0000   -0.0000   -0.0000    0.0000    0.0000   -0.0000    0.0000   -0.0000    0.0000
      115 W      8f0        0.0000   -0.0000    0.0000    0.0000    0.0000    0.0000    0.0000   -0.0000   -0.0000   -0.0000
      116 W      9f0        0.0000   -0.0000   -0.0000   -0.0000    0.0000    0.0000   -0.0000    0.0000   -0.0000    0.0000
      117 W     10f0        0.0000   -0.0000    0.0000    0.0000    0.0000    0.0000    0.0000   -0.0000   -0.0000   -0.0000
      118 W     11f0        0.0000   -0.0000   -0.0000   -0.0000    0.0000    0.0000   -0.0000    0.0000   -0.0000    0.0000
      119 W      4f1+       0.0000   -0.0000   -0.0000   -0.0000    0.0000   -0.0000   -0.0000    0.0000    0.0000   -0.0000
      120 W      5f1+      -0.0000    0.0000    0.0000    0.0000   -0.0000    0.0000    0.0000   -0.0000   -0.0000    0.0000
      121 W      6f1+      -0.0000    0.0000    0.0000    0.0000    0.0000   -0.0000   -0.0000    0.0000    0.0000   -0.0000
      122 W      7f1+      -0.0000    0.0000    0.0000    0.0000   -0.0000   -0.0000   -0.0000    0.0000   -0.0000    0.0000
      123 W      8f1+      -0.0000    0.0000    0.0000    0.0000    0.0000   -0.0000   -0.0000    0.0000    0.0000   -0.0000
      124 W      9f1+      -0.0000    0.0000    0.0000    0.0000   -0.0000   -0.0000   -0.0000    0.0000   -0.0000    0.0000
      125 W     10f1+       0.0000   -0.0000    0.0000    0.0000    0.0000    0.0000   -0.0000    0.0000    0.0000   -0.0000
      126 W     11f1+      -0.0000   -0.0000    0.0000    0.0000   -0.0000    0.0000   -0.0000    0.0000   -0.0000    0.0000
      127 W      4f2+      -0.0000    0.0000   -0.0000   -0.0000   -0.0000    0.0000   -0.0000    0.0000   -0.0000    0.0000
      128 W      5f2+       0.0000   -0.0000    0.0000    0.0000    0.0000    0.0000    0.0000   -0.0000    0.0000   -0.0000
      129 W      6f2+       0.0000   -0.0000   -0.0000   -0.0000    0.0000    0.0000   -0.0000    0.0000   -0.0000    0.0000
      130 W      7f2+       0.0000   -0.0000    0.0000    0.0000    0.0000    0.0000    0.0000   -0.0000   -0.0000   -0.0000
      131 W      8f2+       0.0000   -0.0000   -0.0000   -0.0000    0.0000    0.0000   -0.0000    0.0000   -0.0000    0.0000
      132 W      9f2+       0.0000   -0.0000    0.0000    0.0000    0.0000    0.0000    0.0000   -0.0000   -0.0000   -0.0000
      133 W     10f2+       0.0000   -0.0000   -0.0000   -0.0000    0.0000    0.0000   -0.0000    0.0000   -0.0000    0.0000
      134 W     11f2+       0.0000   -0.0000    0.0000    0.0000    0.0000    0.0000    0.0000   -0.0000   -0.0000   -0.0000
      135 W      4f3+      -0.0000    0.0000    0.0000    0.0000   -0.0000    0.0000    0.0000   -0.0000   -0.0000   -0.0000
      136 W      5f3+       0.0000   -0.0000   -0.0000   -0.0000    0.0000   -0.0000   -0.0000    0.0000    0.0000    0.0000
      137 W      6f3+       0.0000   -0.0000    0.0000    0.0000   -0.0000    0.0000    0.0000   -0.0000   -0.0000   -0.0000
      138 W      7f3+       0.0000   -0.0000    0.0000    0.0000    0.0000    0.0000   -0.0000    0.0000    0.0000    0.0000
      139 W      8f3+       0.0000   -0.0000    0.0000    0.0000   -0.0000    0.0000   -0.0000    0.0000   -0.0000   -0.0000
      140 W      9f3+       0.0000   -0.0000    0.0000    0.0000    0.0000    0.0000   -0.0000    0.0000    0.0000    0.0000
      141 W     10f3+      -0.0000    0.0000    0.0000    0.0000   -0.0000   -0.0000   -0.0000    0.0000   -0.0000   -0.0000
      142 W     11f3+       0.0000    0.0000    0.0000    0.0000    0.0000   -0.0000   -0.0000    0.0000    0.0000    0.0000
      143 W      5g4-      -0.0000    0.0000   -0.0000    0.0000    0.0000   -0.0000    0.0000    0.0000    0.0000    0.0000
      144 W      6g4-       0.0000    0.0000    0.0000   -0.0000    0.0000    0.0000   -0.0000   -0.0000   -0.0000   -0.0000
      145 W      7g4-      -0.0000   -0.0000    0.0000   -0.0000    0.0000   -0.0000    0.0000    0.0000    0.0000    0.0000
      146 W      8g4-       0.0000   -0.0000    0.0000   -0.0000    0.0000    0.0000    0.0000    0.0000    0.0000    0.0000
      147 W      5g3-       0.0000    0.0000   -0.0000    0.0000    0.0000    0.0000   -0.0000   -0.0000    0.0000   -0.0000
      148 W      6g3-      -0.0000   -0.0000   -0.0000    0.0000   -0.0000   -0.0000   -0.0000   -0.0000   -0.0000    0.0000
      149 W      7g3-       0.0000    0.0000   -0.0000    0.0000    0.0000    0.0000   -0.0000   -0.0000    0.0000   -0.0000
      150 W      8g3-       0.0000   -0.0000   -0.0000    0.0000   -0.0000   -0.0000   -0.0000   -0.0000   -0.0000    0.0000
      151 W      5g2-       0.0000   -0.0000    0.0000   -0.0000    0.0000   -0.0000   -0.0000   -0.0000   -0.0000   -0.0000
      152 W      6g2-      -0.0000    0.0000   -0.0000    0.0000   -0.0000    0.0000    0.0000    0.0000    0.0000    0.0000
      153 W      7g2-       0.0000   -0.0000   -0.0000    0.0000   -0.0000   -0.0000   -0.0000   -0.0000   -0.0000   -0.0000
      154 W      8g2-      -0.0000    0.0000   -0.0000    0.0000   -0.0000    0.0000   -0.0000   -0.0000   -0.0000   -0.0000
      155 W      5g1-       0.0000   -0.0000    0.0000   -0.0000    0.0000    0.0000    0.0000    0.0000   -0.0000    0.0000
      156 W      6g1-      -0.0000    0.0000    0.0000   -0.0000   -0.0000   -0.0000    0.0000    0.0000    0.0000   -0.0000
      157 W      7g1-       0.0000   -0.0000    0.0000   -0.0000    0.0000    0.0000    0.0000    0.0000   -0.0000    0.0000
      158 W      8g1-      -0.0000    0.0000    0.0000   -0.0000   -0.0000    0.0000    0.0000    0.0000    0.0000   -0.0000
      159 W      5g0        0.0000   -0.0000   -0.0000   -0.0000    0.0000   -0.0000   -0.0000    0.0000    0.0000   -0.0000
      160 W      6g0       -0.0000    0.0000    0.0000    0.0000   -0.0000   -0.0000   -0.0000    0.0000   -0.0000    0.0000
      161 W      7g0       -0.0000    0.0000    0.0000    0.0000   -0.0000   -0.0000   -0.0000    0.0000    0.0000   -0.0000
      162 W      8g0       -0.0000    0.0000    0.0000    0.0000   -0.0000   -0.0000   -0.0000    0.0000    0.0000    0.0000
      163 W      5g1+      -0.0000    0.0000   -0.0000   -0.0000   -0.0000    0.0000   -0.0000    0.0000    0.0000    0.0000
      164 W      6g1+       0.0000   -0.0000    0.0000    0.0000   -0.0000    0.0000    0.0000   -0.0000    0.0000   -0.0000
      165 W      7g1+       0.0000   -0.0000    0.0000    0.0000   -0.0000    0.0000   -0.0000    0.0000    0.0000   -0.0000
      166 W      8g1+       0.0000   -0.0000    0.0000    0.0000   -0.0000    0.0000   -0.0000    0.0000    0.0000   -0.0000
      167 W      5g2+      -0.0000    0.0000    0.0000    0.0000   -0.0000    0.0000    0.0000   -0.0000   -0.0000    0.0000
      168 W      6g2+       0.0000   -0.0000   -0.0000   -0.0000    0.0000    0.0000    0.0000   -0.0000    0.0000   -0.0000
      169 W      7g2+       0.0000   -0.0000   -0.0000   -0.0000    0.0000    0.0000    0.0000   -0.0000   -0.0000    0.0000
      170 W      8g2+       0.0000   -0.0000   -0.0000   -0.0000    0.0000    0.0000    0.0000   -0.0000   -0.0000   -0.0000
      171 W      5g3+      -0.0000    0.0000    0.0000    0.0000   -0.0000    0.0000    0.0000   -0.0000    0.0000    0.0000
      172 W      6g3+       0.0000   -0.0000   -0.0000   -0.0000   -0.0000    0.0000   -0.0000    0.0000    0.0000    0.0000
      173 W      7g3+       0.0000   -0.0000   -0.0000   -0.0000   -0.0000    0.0000    0.0000   -0.0000    0.0000    0.0000
      174 W      8g3+       0.0000   -0.0000   -0.0000   -0.0000   -0.0000    0.0000    0.0000   -0.0000    0.0000    0.0000
      175 W      5g4+       0.0000   -0.0000   -0.0000   -0.0000    0.0000   -0.0000    0.0000   -0.0000    0.0000    0.0000
      176 W      6g4+      -0.0000    0.0000   -0.0000   -0.0000   -0.0000   -0.0000    0.0000   -0.0000   -0.0000   -0.0000
      177 W      7g4+      -0.0000    0.0000   -0.0000   -0.0000   -0.0000   -0.0000    0.0000   -0.0000    0.0000    0.0000
      178 W      8g4+      -0.0000    0.0000   -0.0000   -0.0000   -0.0000   -0.0000    0.0000   -0.0000    0.0000   -0.0000
      179 W      6h5-      -0.0000   -0.0000    0.0000   -0.0000   -0.0000   -0.0000    0.0000    0.0000    0.0000   -0.0000
      180 W      7h5-       0.0000    0.0000    0.0000   -0.0000   -0.0000    0.0000    0.0000    0.0000    0.0000   -0.0000
      181 W      6h4-       0.0000   -0.0000   -0.0000    0.0000   -0.0000    0.0000   -0.0000   -0.0000   -0.0000    0.0000
      182 W      7h4-       0.0000    0.0000   -0.0000    0.0000   -0.0000   -0.0000   -0.0000   -0.0000   -0.0000   -0.0000
      183 W      6h3-       0.0000    0.0000   -0.0000    0.0000    0.0000    0.0000   -0.0000   -0.0000    0.0000    0.0000
      184 W      7h3-      -0.0000   -0.0000   -0.0000    0.0000   -0.0000   -0.0000   -0.0000   -0.0000    0.0000    0.0000
      185 W      6h2-      -0.0000   -0.0000   -0.0000    0.0000   -0.0000    0.0000   -0.0000   -0.0000   -0.0000   -0.0000
      186 W      7h2-       0.0000   -0.0000   -0.0000    0.0000   -0.0000    0.0000   -0.0000   -0.0000   -0.0000    0.0000
      187 W      6h1-       0.0000   -0.0000    0.0000   -0.0000   -0.0000    0.0000    0.0000    0.0000    0.0000    0.0000
      188 W      7h1-      -0.0000    0.0000    0.0000   -0.0000   -0.0000   -0.0000    0.0000    0.0000   -0.0000    0.0000
      189 W      6h0        0.0000   -0.0000   -0.0000   -0.0000   -0.0000    0.0000    0.0000   -0.0000    0.0000   -0.0000
      190 W      7h0        0.0000   -0.0000   -0.0000   -0.0000   -0.0000    0.0000    0.0000   -0.0000    0.0000   -0.0000
      191 W      6h1+      -0.0000    0.0000    0.0000    0.0000   -0.0000   -0.0000   -0.0000    0.0000    0.0000    0.0000
      192 W      7h1+      -0.0000    0.0000    0.0000    0.0000   -0.0000   -0.0000   -0.0000    0.0000    0.0000   -0.0000
      193 W      6h2+      -0.0000    0.0000    0.0000    0.0000    0.0000   -0.0000   -0.0000    0.0000   -0.0000    0.0000
      194 W      7h2+      -0.0000    0.0000    0.0000    0.0000    0.0000   -0.0000   -0.0000    0.0000   -0.0000    0.0000
      195 W      6h3+       0.0000   -0.0000    0.0000    0.0000    0.0000    0.0000   -0.0000    0.0000   -0.0000   -0.0000
      196 W      7h3+       0.0000   -0.0000    0.0000    0.0000    0.0000    0.0000   -0.0000    0.0000   -0.0000    0.0000
      197 W      6h4+      -0.0000    0.0000   -0.0000   -0.0000    0.0000   -0.0000    0.0000   -0.0000   -0.0000   -0.0000
      198 W      7h4+      -0.0000    0.0000   -0.0000   -0.0000    0.0000   -0.0000    0.0000   -0.0000   -0.0000   -0.0000
      199 W      6h5+      -0.0000    0.0000    0.0000    0.0000   -0.0000   -0.0000   -0.0000    0.0000    0.0000   -0.0000
      200 W      7h5+      -0.0000    0.0000    0.0000    0.0000   -0.0000   -0.0000   -0.0000    0.0000    0.0000    0.0000

          Orbital           11        12        13        14    
          Energy         -187.6856 -187.6849 -187.6849 -187.6847
          Occ. No.          0.0000    0.0000    0.0000    0.0000

        1 W      1s        -0.0000    0.0000    0.0000   -0.0000
        2 W      2s        -0.0000   -0.0000   -0.0000    0.0000
        3 W      3s        -0.0000   -0.0000    0.0000    0.0000
        4 W      4s         0.0000   -0.0000   -0.0000   -0.0000
        5 W      5s        -0.0000   -0.0000    0.0000    0.0000
        6 W      6s        -0.0000    0.0000   -0.0000   -0.0000
        7 W      7s        -0.0000    0.0000   -0.0000    0.0000
        8 W      8s        -0.0000   -0.0000   -0.0000   -0.0000
        9 W      9s        -0.0000   -0.0000    0.0000    0.0000
       10 W     10s         0.0000   -0.0000   -0.0000   -0.0000
       11 W     11s        -0.0000   -0.0000    0.0000    0.0000
       12 W      2px        0.0000    0.0000   -0.0000   -0.0001
       13 W      3px        0.0000    0.0000   -0.0000   -0.0025
       14 W      4px       -0.0000   -0.0000    0.0000    0.0003
       15 W      5px        0.0000    0.0000   -0.0000   -0.0001
       16 W      6px       -0.0000   -0.0000    0.0000    0.0000
       17 W      7px        0.0000    0.0000   -0.0000   -0.0001
       18 W      8px       -0.0000   -0.0000    0.0000    0.0001
       19 W      9px        0.0000    0.0000   -0.0000   -0.0001
       20 W     10px        0.0000   -0.0000    0.0000    0.0001
       21 W     11px        0.0000    0.0000   -0.0000   -0.0001
       22 W      2py        0.0000   -0.0000   -0.0001    0.0000
       23 W      3py        0.0000   -0.0000   -0.0021    0.0000
       24 W      4py       -0.0000    0.0000    0.0003   -0.0000
       25 W      5py        0.0000   -0.0000   -0.0001    0.0000
       26 W      6py       -0.0000    0.0000    0.0000   -0.0000
       27 W      7py        0.0000   -0.0000   -0.0001    0.0000
       28 W      8py       -0.0000    0.0000    0.0001   -0.0000
       29 W      9py        0.0000   -0.0000   -0.0001    0.0000
       30 W     10py       -0.0000    0.0000    0.0001   -0.0000
       31 W     11py        0.0000   -0.0000   -0.0001    0.0000
       32 W      2pz        0.0000   -0.0001    0.0000   -0.0000
       33 W      3pz        0.0000   -0.0021    0.0000   -0.0000
       34 W      4pz       -0.0000    0.0003   -0.0000    0.0000
       35 W      5pz        0.0000   -0.0001    0.0000   -0.0000
       36 W      6pz       -0.0000    0.0000   -0.0000    0.0000
       37 W      7pz       -0.0000   -0.0001    0.0000   -0.0000
       38 W      8pz       -0.0000    0.0001   -0.0000    0.0000
       39 W      9pz       -0.0000   -0.0001    0.0000   -0.0000
       40 W     10pz       -0.0000    0.0001   -0.0000    0.0000
       41 W     11pz        0.0000   -0.0001    0.0000   -0.0000
       42 W      3d2-      -0.0000    0.0000    0.9917   -0.0000
       43 W      4d2-       0.0000   -0.0000   -0.0959    0.0000
       44 W      5d2-      -0.0000    0.0000    0.0186   -0.0000
       45 W      6d2-       0.0000   -0.0000   -0.0254    0.0000
       46 W      7d2-      -0.0000    0.0000    0.0328   -0.0000
       47 W      8d2-       0.0000   -0.0000   -0.0372    0.0000
       48 W      9d2-      -0.0000    0.0000    0.0370   -0.0000
       49 W     10d2-       0.0000   -0.0000   -0.0397    0.0000
       50 W     11d2-      -0.0000    0.0000    0.0299   -0.0000
       51 W      3d1-       0.0001    0.0000    0.0028   -0.0000
       52 W      4d1-      -0.0000   -0.0000   -0.0003    0.0000
       53 W      5d1-       0.0000    0.0000    0.0001   -0.0000
       54 W      6d1-      -0.0000   -0.0000   -0.0001    0.0000
       55 W      7d1-       0.0000    0.0000    0.0001   -0.0000
       56 W      8d1-      -0.0000   -0.0000   -0.0001    0.0000
       57 W      9d1-       0.0000    0.0000    0.0001   -0.0000
       58 W     10d1-      -0.0000   -0.0000   -0.0001    0.0000
       59 W     11d1-       0.0000    0.0000    0.0001   -0.0000
       60 W      3d0        0.8589    0.0029   -0.0000   -0.4958
       61 W      4d0       -0.0830   -0.0003    0.0000    0.0479
       62 W      5d0        0.0161    0.0001   -0.0000   -0.0093
       63 W      6d0       -0.0220   -0.0001    0.0000    0.0127
       64 W      7d0        0.0284    0.0001   -0.0000   -0.0164
       65 W      8d0       -0.0322   -0.0001    0.0000    0.0186
       66 W      9d0        0.0320    0.0001   -0.0000   -0.0185
       67 W     10d0       -0.0344   -0.0001    0.0000    0.0198
       68 W     11d0        0.0259    0.0001   -0.0000   -0.0150
       69 W      3d1+      -0.0013    0.9917   -0.0000    0.0035
       70 W      4d1+       0.0001   -0.0959    0.0000   -0.0003
       71 W      5d1+      -0.0000    0.0186   -0.0000    0.0001
       72 W      6d1+       0.0000   -0.0254    0.0000   -0.0001
       73 W      7d1+      -0.0000    0.0328   -0.0000    0.0001
       74 W      8d1+       0.0000   -0.0372    0.0000   -0.0001
       75 W      9d1+      -0.0000    0.0370   -0.0000    0.0001
       76 W     10d1+       0.0001   -0.0397    0.0000   -0.0001
       77 W     11d1+      -0.0000    0.0299   -0.0000    0.0001
       78 W      3d2+       0.4959   -0.0024    0.0000    0.8589
       79 W      4d2+      -0.0479    0.0002   -0.0000   -0.0830
       80 W      5d2+       0.0093   -0.0000    0.0000    0.0161
       81 W      6d2+      -0.0127    0.0001   -0.0000   -0.0220
       82 W      7d2+       0.0164   -0.0001    0.0000    0.0284
       83 W      8d2+      -0.0186    0.0001   -0.0000   -0.0322
       84 W      9d2+       0.0185   -0.0001    0.0000    0.0320
       85 W     10d2+      -0.0198    0.0001   -0.0000   -0.0344
       86 W     11d2+       0.0150   -0.0001    0.0000    0.0259
       87 W      4f3-      -0.0000    0.0000    0.0002   -0.0000
       88 W      5f3-       0.0000   -0.0000   -0.0002    0.0000
       89 W      6f3-      -0.0000    0.0000    0.0002   -0.0000
       90 W      7f3-       0.0000   -0.0000   -0.0001    0.0000
       91 W      8f3-      -0.0000    0.0000    0.0001   -0.0000
       92 W      9f3-       0.0000   -0.0000   -0.0001    0.0000
       93 W     10f3-      -0.0000    0.0000    0.0001   -0.0000
       94 W     11f3-       0.0000   -0.0000   -0.0000    0.0000
       95 W      4f2-       0.0000    0.0000    0.0000   -0.0000
       96 W      5f2-      -0.0000   -0.0000   -0.0000    0.0000
       97 W      6f2-       0.0000    0.0000    0.0000   -0.0000
       98 W      7f2-      -0.0000   -0.0000   -0.0000    0.0000
       99 W      8f2-       0.0000    0.0000    0.0000   -0.0000
      100 W      9f2-      -0.0000   -0.0000   -0.0000    0.0000
      101 W     10f2-       0.0000    0.0000    0.0000   -0.0000
      102 W     11f2-      -0.0000   -0.0000   -0.0000    0.0000
      103 W      4f1-       0.0000   -0.0000   -0.0001    0.0000
      104 W      5f1-      -0.0000    0.0000    0.0000   -0.0000
      105 W      6f1-       0.0000   -0.0000   -0.0000    0.0000
      106 W      7f1-      -0.0000    0.0000    0.0000   -0.0000
      107 W      8f1-       0.0000   -0.0000   -0.0000    0.0000
      108 W      9f1-      -0.0000    0.0000    0.0000   -0.0000
      109 W     10f1-       0.0000   -0.0000   -0.0000    0.0000
      110 W     11f1-      -0.0000    0.0000    0.0000   -0.0000
      111 W      4f0        0.0000   -0.0001    0.0000   -0.0000
      112 W      5f0       -0.0000    0.0001   -0.0000    0.0000
      113 W      6f0        0.0000   -0.0001    0.0000   -0.0000
      114 W      7f0       -0.0000    0.0001   -0.0000    0.0000
      115 W      8f0        0.0000   -0.0001    0.0000   -0.0000
      116 W      9f0       -0.0000    0.0001   -0.0000    0.0000
      117 W     10f0        0.0000   -0.0000    0.0000   -0.0000
      118 W     11f0       -0.0000    0.0000   -0.0000    0.0000
      119 W      4f1+       0.0002    0.0000   -0.0000   -0.0002
      120 W      5f1+      -0.0001   -0.0000    0.0000    0.0001
      121 W      6f1+       0.0001    0.0000   -0.0000   -0.0001
      122 W      7f1+      -0.0001   -0.0000    0.0000    0.0001
      123 W      8f1+       0.0001    0.0000   -0.0000   -0.0001
      124 W      9f1+      -0.0001   -0.0000    0.0000    0.0001
      125 W     10f1+       0.0000    0.0000   -0.0000   -0.0000
      126 W     11f1+      -0.0000   -0.0000    0.0000    0.0000
      127 W      4f2+      -0.0000    0.0002   -0.0000    0.0000
      128 W      5f2+       0.0000   -0.0001    0.0000   -0.0000
      129 W      6f2+      -0.0000    0.0001   -0.0000    0.0000
      130 W      7f2+       0.0000   -0.0001    0.0000   -0.0000
      131 W      8f2+      -0.0000    0.0001   -0.0000    0.0000
      132 W      9f2+       0.0000   -0.0001    0.0000   -0.0000
      133 W     10f2+      -0.0000    0.0001   -0.0000    0.0000
      134 W     11f2+       0.0000   -0.0000    0.0000   -0.0000
      135 W      4f3+       0.0001   -0.0000    0.0000    0.0002
      136 W      5f3+      -0.0001    0.0000   -0.0000   -0.0001
      137 W      6f3+       0.0001   -0.0000    0.0000    0.0001
      138 W      7f3+      -0.0001    0.0000   -0.0000   -0.0001
      139 W      8f3+       0.0001   -0.0000    0.0000    0.0001
      140 W      9f3+      -0.0000    0.0000   -0.0000   -0.0001
      141 W     10f3+       0.0000   -0.0000    0.0000    0.0001
      142 W     11f3+      -0.0000    0.0000   -0.0000   -0.0000
      143 W      5g4-       0.0000   -0.0000   -0.0000    0.0000
      144 W      6g4-      -0.0000    0.0000    0.0000   -0.0000
      145 W      7g4-       0.0000   -0.0000   -0.0000    0.0000
      146 W      8g4-       0.0000    0.0000    0.0000    0.0000
      147 W      5g3-      -0.0000   -0.0000   -0.0000    0.0000
      148 W      6g3-       0.0000    0.0000    0.0000   -0.0000
      149 W      7g3-      -0.0000    0.0000    0.0000    0.0000
      150 W      8g3-       0.0000    0.0000    0.0000   -0.0000
      151 W      5g2-      -0.0000    0.0000    0.0000   -0.0000
      152 W      6g2-       0.0000   -0.0000   -0.0000    0.0000
      153 W      7g2-      -0.0000    0.0000    0.0000   -0.0000
      154 W      8g2-      -0.0000   -0.0000   -0.0000   -0.0000
      155 W      5g1-       0.0000    0.0000    0.0000   -0.0000
      156 W      6g1-      -0.0000   -0.0000   -0.0000    0.0000
      157 W      7g1-       0.0000    0.0000    0.0000   -0.0000
      158 W      8g1-      -0.0000   -0.0000   -0.0000    0.0000
      159 W      5g0        0.0000    0.0000   -0.0000   -0.0000
      160 W      6g0       -0.0000   -0.0000    0.0000    0.0000
      161 W      7g0        0.0000    0.0000   -0.0000   -0.0000
      162 W      8g0       -0.0000    0.0000   -0.0000    0.0000
      163 W      5g1+      -0.0000    0.0000   -0.0000    0.0000
      164 W      6g1+       0.0000   -0.0000    0.0000   -0.0000
      165 W      7g1+       0.0000    0.0000   -0.0000   -0.0000
      166 W      8g1+       0.0000   -0.0000    0.0000   -0.0000
      167 W      5g2+      -0.0000   -0.0000    0.0000    0.0000
      168 W      6g2+       0.0000    0.0000   -0.0000   -0.0000
      169 W      7g2+      -0.0000   -0.0000    0.0000    0.0000
      170 W      8g2+       0.0000   -0.0000    0.0000   -0.0000
      171 W      5g3+      -0.0000   -0.0000    0.0000   -0.0000
      172 W      6g3+      -0.0000    0.0000   -0.0000    0.0000
      173 W      7g3+      -0.0000   -0.0000    0.0000   -0.0000
      174 W      8g3+      -0.0000    0.0000   -0.0000   -0.0000
      175 W      5g4+      -0.0000    0.0000   -0.0000   -0.0000
      176 W      6g4+       0.0000   -0.0000    0.0000    0.0000
      177 W      7g4+      -0.0000   -0.0000    0.0000   -0.0000
      178 W      8g4+       0.0000   -0.0000    0.0000    0.0000
      179 W      6h5-      -0.0000    0.0000    0.0000   -0.0000
      180 W      7h5-      -0.0000   -0.0000   -0.0000    0.0000
      181 W      6h4-       0.0000   -0.0000   -0.0000    0.0000
      182 W      7h4-      -0.0000   -0.0000   -0.0000   -0.0000
      183 W      6h3-       0.0000   -0.0000   -0.0000   -0.0000
      184 W      7h3-       0.0000    0.0000    0.0000    0.0000
      185 W      6h2-      -0.0000   -0.0000   -0.0000    0.0000
      186 W      7h2-       0.0000   -0.0000   -0.0000   -0.0000
      187 W      6h1-       0.0000    0.0000    0.0000   -0.0000
      188 W      7h1-       0.0000   -0.0000   -0.0000    0.0000
      189 W      6h0        0.0000    0.0000   -0.0000   -0.0000
      190 W      7h0        0.0000   -0.0000    0.0000   -0.0000
      191 W      6h1+      -0.0000   -0.0000    0.0000    0.0000
      192 W      7h1+       0.0000   -0.0000    0.0000   -0.0000
      193 W      6h2+      -0.0000   -0.0000    0.0000    0.0000
      194 W      7h2+      -0.0000    0.0000   -0.0000    0.0000
      195 W      6h3+       0.0000   -0.0000    0.0000   -0.0000
      196 W      7h3+      -0.0000   -0.0000    0.0000    0.0000
      197 W      6h4+       0.0000    0.0000   -0.0000    0.0000
      198 W      7h4+       0.0000   -0.0000    0.0000   -0.0000
      199 W      6h5+       0.0000   -0.0000   -0.0000    0.0000
      200 W      7h5+      -0.0000   -0.0000    0.0000   -0.0000
--


++    Molecular charges:
      ------------------

      Mulliken charges per centre and basis function type
      ---------------------------------------------------

                W     
      1s       2.0000
      2s       2.0000
      2px      2.0000
      2pz      2.0000
      2py      2.0000
      3s       1.9811
      3px      1.9730
      3pz      1.9730
      3py      1.9730
      4s       0.0128
      3d2+     0.0000
      3d1+     0.0000
      3d0      0.0000
      3d1-     0.0000
      3d2-     0.0000
      4px      0.0167
      4pz      0.0167
      4py      0.0167
      5s       0.0011
      4d2+     0.0000
      4d1+     0.0000
      4d0      0.0000
      4d1-     0.0000
      4d2-     0.0000
      5px      0.0013
      5pz      0.0013
      5py      0.0013
      6s       0.0001
      4f3+     0.0000
      4f2+     0.0000
      4f1+     0.0000
      4f0      0.0000
      4f1-     0.0000
      4f2-     0.0000
      4f3-     0.0000
      5d2+     0.0000
      5d1+     0.0000
      5d0      0.0000
      5d1-     0.0000
      5d2-     0.0000
      6px      0.0002
      6pz      0.0002
      6py      0.0002
      7s       0.0001
      5f3+     0.0000
      5f2+     0.0000
      5f1+     0.0000
      5f0      0.0000
      5f1-     0.0000
      5f2-     0.0000
      5f3-     0.0000
      6d2+     0.0000
      6d1+     0.0000
      6d0      0.0000
      6d1-     0.0000
      6d2-     0.0000
      7px      0.0018
      7pz      0.0018
      7py      0.0018
      5g4+     0.0000
      5g3+     0.0000
      5g2+     0.0000
      5g1+     0.0000
      5g0      0.0000
      5g1-     0.0000
      5g2-     0.0000
      5g3-     0.0000
      5g4-     0.0000
      6f3+     0.0000
      6f2+     0.0000
      6f1+     0.0000
      6f0      0.0000
      6f1-     0.0000
      6f2-     0.0000
      6f3-     0.0000
      6g4+     0.0000
      6g3+     0.0000
      6g2+     0.0000
      6g1+     0.0000
      6g0      0.0000
      6g1-     0.0000
      6g2-     0.0000
      6g3-     0.0000
      6g4-     0.0000
      6h5+     0.0000
      6h4+     0.0000
      6h3+     0.0000
      6h2+     0.0000
      6h1+     0.0000
      6h0      0.0000
      6h1-     0.0000
      6h2-     0.0000
      6h3-     0.0000
      6h4-     0.0000
      6h5-     0.0000
      7d2+     0.0000
      7d1+     0.0000
      7d0      0.0000
      7d1-     0.0000
      7d2-     0.0000
      7f3+     0.0000
      7f2+     0.0000
      7f1+     0.0000
      7f0      0.0000
      7f1-     0.0000
      7f2-     0.0000
      7f3-     0.0000
      7g4+     0.0000
      7g3+     0.0000
      7g2+     0.0000
      7g1+     0.0000
      7g0      0.0000
      7g1-     0.0000
      7g2-     0.0000
      7g3-     0.0000
      7g4-     0.0000
      7h5+     0.0000
      7h4+     0.0000
      7h3+     0.0000
      7h2+     0.0000
      7h1+     0.0000
      7h0      0.0000
      7h1-     0.0000
      7h2-     0.0000
      7h3-     0.0000
      7h4-     0.0000
      7h5-     0.0000
      8s       0.0006
      8px      0.0018
      8pz      0.0018
      8py      0.0018
      8d2+     0.0000
      8d1+     0.0000
      8d0      0.0000
      8d1-     0.0000
      8d2-     0.0000
      8f3+     0.0000
      8f2+     0.0000
      8f1+     0.0000
      8f0      0.0000
      8f1-     0.0000
      8f2-     0.0000
      8f3-     0.0000
      8g4+     0.0000
      8g3+     0.0000
      8g2+     0.0000
      8g1+     0.0000
      8g0      0.0000
      8g1-     0.0000
      8g2-     0.0000
      8g3-     0.0000
      8g4-     0.0000
      9s       0.0010
      9px      0.0019
      9pz      0.0019
      9py      0.0019
      9d2+     0.0000
      9d1+     0.0000
      9d0      0.0000
      9d1-     0.0000
      9d2-     0.0000
      9f3+     0.0000
      9f2+     0.0000
      9f1+     0.0000
      9f0      0.0000
      9f1-     0.0000
      9f2-     0.0000
      9f3-     0.0000
     10s       0.0013
     10px      0.0016
     10pz      0.0016
     10py      0.0016
     10d2+     0.0000
     10d1+     0.0000
     10d0      0.0000
     10d1-     0.0000
     10d2-     0.0000
     10f3+     0.0000
     10f2+     0.0000
     10f1+     0.0000
     10f0      0.0000
     10f1-     0.0000
     10f2-     0.0000
     10f3-     0.0000
     11s       0.0020
     11px      0.0017
     11pz      0.0017
     11py      0.0017
     11d2+     0.0000
[...]
::    SO-RASSI State   14     Total energy: -13423.67120811
::    SO-RASSI State   15     Total energy: -13423.67120788
::    SO-RASSI State   16     Total energy: -13423.67120788
::    SO-RASSI State   17     Total energy: -13423.66492138
::    SO-RASSI State   18     Total energy: -13423.66492138


   Eigenvalues of complex Hamiltonian:
   -----------------------------------
  (Shifted by EMIN (a.u.) =     -13506.9161024974)

 SO State       Relative EMIN(au)   Rel lowest level(eV)    D:o, cm**(-1)     J-value

     1             0.0000000000        0.0000000000              0.0000         2.1
     2             0.0000000000        0.0000000000              0.0000         2.1
     3             0.0000000086        0.0000002338              0.0019         2.1
     4             0.0000000086        0.0000002338              0.0019         2.1
     5             0.0007069462        0.0192369862            155.1568         2.1
     6             0.0007069462        0.0192369862            155.1568         2.1
     7             0.0007069928        0.0192382544            155.1670         2.1
     8             0.0007069928        0.0192382544            155.1670         2.1
     9             0.0009455707        0.0257302895            207.5288         2.1
    10             0.0009455707        0.0257302895            207.5288         2.1
    11            77.1205552433     2098.5572162299       16926005.4325         0.5
    12            77.1205552433     2098.5572162299       16926005.4325         0.5
    13            83.2448943919     2265.2089743047       18270142.5095         1.2
    14            83.2448943919     2265.2089743047       18270142.5095         1.2
    15            83.2448946127     2265.2089803133       18270142.5580         1.2
    16            83.2448946127     2265.2089803133       18270142.5580         1.2
    17            83.2511811214     2265.3800449291       18271522.2872         1.2
    18            83.2511811214     2265.3800449291       18271522.2872         1.2


 Weights of the five most important spin-orbit-free states for each spin-orbit state.

 SO State  Total energy (au)           Spin-free states, spin, and weights
 -------------------------------------------------------------------------------------------------------
    1         0.000000       1 0.5  1.0000    9 0.5  0.0000    8 0.5  0.0000    7 0.5  0.0000    6 0.5  0.0000
    2         0.000000       1 0.5  1.0000    9 0.5  0.0000    8 0.5  0.0000    7 0.5  0.0000    6 0.5  0.0000
    3         0.000000       2 0.5  1.0000    9 0.5  0.0000    8 0.5  0.0000    7 0.5  0.0000    6 0.5  0.0000
    4         0.000000       2 0.5  1.0000    9 0.5  0.0000    8 0.5  0.0000    7 0.5  0.0000    6 0.5  0.0000
    5         0.000707       3 0.5  1.0000    9 0.5  0.0000    8 0.5  0.0000    7 0.5  0.0000    6 0.5  0.0000
    6         0.000707       3 0.5  1.0000    9 0.5  0.0000    8 0.5  0.0000    7 0.5  0.0000    6 0.5  0.0000
    7         0.000707       4 0.5  1.0000    9 0.5  0.0000    8 0.5  0.0000    7 0.5  0.0000    6 0.5  0.0000
    8         0.000707       4 0.5  1.0000    9 0.5  0.0000    8 0.5  0.0000    7 0.5  0.0000    6 0.5  0.0000
    9         0.000946       5 0.5  1.0000    9 0.5  0.0000    8 0.5  0.0000    7 0.5  0.0000    6 0.5  0.0000
   10         0.000946       5 0.5  1.0000    9 0.5  0.0000    8 0.5  0.0000    7 0.5  0.0000    6 0.5  0.0000
   11        77.120555       6 0.5  1.0000    9 0.5  0.0000    8 0.5  0.0000    7 0.5  0.0000    5 0.5  0.0000
   12        77.120555       6 0.5  1.0000    9 0.5  0.0000    8 0.5  0.0000    7 0.5  0.0000    5 0.5  0.0000
   13        83.244894       7 0.5  1.0000    9 0.5  0.0000    8 0.5  0.0000    6 0.5  0.0000    5 0.5  0.0000
   14        83.244894       7 0.5  1.0000    9 0.5  0.0000    8 0.5  0.0000    6 0.5  0.0000    5 0.5  0.0000
   15        83.244895       8 0.5  1.0000    9 0.5  0.0000    7 0.5  0.0000    6 0.5  0.0000    5 0.5  0.0000
   16        83.244895       8 0.5  1.0000    9 0.5  0.0000    7 0.5  0.0000    6 0.5  0.0000    5 0.5  0.0000
   17        83.251181       9 0.5  1.0000    8 0.5  0.0000    7 0.5  0.0000    6 0.5  0.0000    5 0.5  0.0000
   18        83.251181       9 0.5  1.0000    8 0.5  0.0000    7 0.5  0.0000    6 0.5  0.0000    5 0.5  0.0000
 -------------------------------------------------------------------------------------------------------


      ****************************************************************************************************
      *                                                                                                  *
      *                                    Special properties section                                    *
      *                                                                                                  *
      ****************************************************************************************************


++ Dipole transition strengths (SO states):
   ----------------------------------------
    for osc. strength at least    1.0000000000000001E-005

      From   To        Osc. strength     Einstein coefficients Ax, Ay, Az (sec-1)    Total A (sec-1)
     -----------------------------------------------------------------------------------------------
         1   13       1.34039544E-02  2.09389188E-04  2.98440342E+12  3.53544456E+01  2.98440342E+12
         1   15       1.34039720E-02  2.39689937E+07  3.53590001E+01  2.98438339E+12  2.98440736E+12
         2   14       1.34039544E-02  2.09389188E-04  2.98440342E+12  3.53544456E+01  2.98440342E+12
         2   16       1.34039720E-02  2.39689937E+07  3.53590001E+01  2.98438339E+12  2.98440736E+12
         3   13       1.34040810E-02  4.97945599E+06  3.53566436E+01  2.98442664E+12  2.98443162E+12
         3   15       1.34038562E-02  4.33756027E-05  2.98438157E+12  3.53570991E+01  2.98438157E+12
         4   14       1.34040810E-02  4.97945599E+06  3.53566436E+01  2.98442664E+12  2.98443162E+12
         4   16       1.34038562E-02  4.33756027E-05  2.98438157E+12  3.53570991E+01  2.98438157E+12
         5   13       1.33934140E-02  2.98199837E+12  2.44666071E-06  7.58564779E+06  2.98200595E+12
         5   17       1.34053535E-02  1.64820994E+07  1.70730295E+00  2.98509858E+12  2.98511506E+12
         6   14       1.33934140E-02  2.98199837E+12  2.44666071E-06  7.58564779E+06  2.98200595E+12
         6   18       1.34053535E-02  1.64820994E+07  1.70730295E+00  2.98509858E+12  2.98511506E+12
         7   15       1.33934177E-02  2.98198293E+12  5.45074463E-05  2.38461011E+07  2.98200678E+12
         7   17       1.34053359E-02  1.11943198E-05  2.98511113E+12  1.70730231E+00  2.98511113E+12
         8   16       1.33934177E-02  2.98198293E+12  5.45074463E-05  2.38461011E+07  2.98200678E+12
         8   18       1.34053359E-02  1.11943198E-05  2.98511113E+12  1.70730231E+00  2.98511113E+12
         9   13       4.47125947E-03  6.99472635E+06  7.77275813E+00  9.95500637E+11  9.95507631E+11
         9   15       4.47147158E-03  5.50065297E-05  9.95554862E+11  7.76871161E+00  9.95554862E+11
         9   17       1.78523933E-02  3.97534354E+12  2.54812961E-07  1.92003267E+07  3.97536274E+12
        10   14       4.47125947E-03  6.99472635E+06  7.77275813E+00  9.95500637E+11  9.95507631E+11
        10   16       4.47147158E-03  5.50065297E-05  9.95554862E+11  7.76871161E+00  9.95554862E+11
        10   18       1.78523933E-02  3.97534354E+12  2.54812961E-07  1.92003267E+07  3.97536274E+12
        11   13       1.77748972E-01  6.54240013E+05  1.67202987E+00  2.14206976E+11  2.14207630E+11
        11   15       1.77748972E-01  4.05255798E-06  2.14207645E+11  1.67202613E+00  2.14207645E+11
        11   17       1.77691551E-01  2.14577635E+11  6.11473984E-08  6.55636137E+05  2.14578290E+11
        12   14       1.77748972E-01  6.54240013E+05  1.67202987E+00  2.14206976E+11  2.14207630E+11
        12   16       1.77748972E-01  4.05255798E-06  2.14207645E+11  1.67202613E+00  2.14207645E+11
        12   18       1.77691551E-01  2.14577635E+11  6.11473984E-08  6.55636137E+05  2.14578290E+11
     -----------------------------------------------------------------------------------------------
--

++ Velocity transition strengths (SO states):
   ------------------------------------------
    for osc. strength at least    1.0000000000000001E-005

      From   To        Osc. strength     Einstein coefficients Ax, Ay, Az (sec-1)    Total A (sec-1)
     -----------------------------------------------------------------------------------------------
         1    5       6.39919825E-05  1.13603075E-18  1.02756471E+00  1.20913964E-14  1.02756471E+00
         1    7       6.39871943E-05  4.96284654E-07  1.20076114E-14  1.02762281E+00  1.02762331E+00
         1   13       1.32374843E-02  2.06845378E-04  2.94734895E+12  3.49154927E+01  2.94734895E+12
         1   15       1.32375017E-02  2.36713730E+07  3.49199805E+01  2.94732916E+12  2.94735283E+12
         2    6       6.39919825E-05  1.13603075E-18  1.02756471E+00  1.20913964E-14  1.02756471E+00
         2    8       6.39871943E-05  4.96284654E-07  1.20076114E-14  1.02762281E+00  1.02762331E+00
         2   14       1.32374843E-02  2.06845378E-04  2.94734895E+12  3.49154927E+01  2.94734895E+12
         2   16       1.32375017E-02  2.36713730E+07  3.49199805E+01  2.94732916E+12  2.94735283E+12
         3    5       6.39938496E-05  5.13034447E-07  1.20036220E-14  1.02756920E+00  1.02756971E+00
         3    7       6.39860826E-05  7.86934560E-18  1.02758048E+00  1.20529614E-14  1.02758048E+00
         3   13       1.32376094E-02  4.91765169E+06  3.49176585E+01  2.94737187E+12  2.94737679E+12
         3   15       1.32373874E-02  4.28115771E-05  2.94732737E+12  3.49181057E+01  2.94732737E+12
         4    6       6.39938496E-05  5.13034447E-07  1.20036220E-14  1.02756920E+00  1.02756971E+00
         4    8       6.39860826E-05  7.86934560E-18  1.02758048E+00  1.20529614E-14  1.02758048E+00
         4   14       1.32376094E-02  4.91765169E+06  3.49176585E+01  2.94737187E+12  2.94737679E+12
         4   16       1.32373874E-02  4.28115771E-05  2.94732737E+12  3.49181057E+01  2.94732737E+12
         5    9       5.68900545E-04  5.10772072E-07  5.94469952E-13  1.04082343E+00  1.04082395E+00
         5   13       1.32271563E-02  2.94499188E+12  2.41683752E-06  7.49151010E+06  2.94499937E+12
         5   17       1.32388050E-02  1.62773589E+07  1.68609340E+00  2.94802187E+12  2.94803815E+12
         6   10       5.68900545E-04  5.10772072E-07  5.94469952E-13  1.04082343E+00  1.04082395E+00
         6   14       1.32271563E-02  2.94499188E+12  2.41683752E-06  7.49151010E+06  2.94499937E+12
         6   18       1.32388050E-02  1.62773589E+07  1.68609340E+00  2.94802187E+12  2.94803815E+12
         7    9       5.69018732E-04  4.78891479E-19  1.04063354E+00  5.94909512E-13  1.04063354E+00
         7   15       1.32271599E-02  2.94497664E+12  5.38265462E-05  2.35501868E+07  2.94500019E+12
         7   17       1.32387876E-02  1.10421120E-05  2.94803427E+12  1.68609329E+00  2.94803427E+12
         8   10       5.69018732E-04  4.78891479E-19  1.04063354E+00  5.94909512E-13  1.04063354E+00
         8   16       1.32271599E-02  2.94497664E+12  5.38265462E-05  2.35501868E+07  2.94500019E+12
         8   18       1.32387876E-02  1.10421120E-05  2.94803427E+12  1.68609329E+00  2.94803427E+12
         9   13       4.41565519E-03  6.90787274E+06  7.67612523E+00  9.83124077E+11  9.83130985E+11
         9   15       4.41586467E-03  5.43279528E-05  9.83177630E+11  7.67212578E+00  9.83177630E+11
         9   17       1.76308515E-02  3.92602459E+12  2.49941662E-07  1.89620238E+07  3.92604355E+12
        10   14       4.41565519E-03  6.90787274E+06  7.67612523E+00  9.83124077E+11  9.83130985E+11
        10   16       4.41586467E-03  5.43279528E-05  9.83177630E+11  7.67212578E+00  9.83177630E+11
        10   18       1.76308515E-02  3.92602459E+12  2.49941662E-07  1.89620238E+07  3.92604355E+12
        11   13       1.46110914E-01  5.37768447E+05  1.37442533E+00  1.76080264E+11  1.76080802E+11
        11   15       1.46110914E-01  3.33091996E-06  1.76080815E+11  1.37442202E+00  1.76080815E+11
        11   17       1.46068435E-01  1.76390650E+11  5.02698805E-08  5.38980272E+05  1.76391189E+11
        12   14       1.46110914E-01  5.37768447E+05  1.37442533E+00  1.76080264E+11  1.76080802E+11
        12   16       1.46110914E-01  3.33091996E-06  1.76080815E+11  1.37442202E+00  1.76080815E+11
        12   18       1.46068435E-01  1.76390650E+11  5.02698805E-08  5.38980272E+05  1.76391189E+11
        13   15       2.41086083E-05  9.04914696E-22  3.77679572E-08  2.92952279E-20  3.77679572E-08
        13   17       7.80808950E-04  5.06137257E-04  7.73900835E-09  9.91528022E+02  9.91528528E+02
        14   16       2.41086083E-05  9.04914696E-22  3.77679572E-08  2.92952279E-20  3.77679572E-08
        14   18       7.80808950E-04  5.06137257E-04  7.73900835E-09  9.91528022E+02  9.91528528E+02
        15   17       7.80835395E-04  6.65037576E-15  9.91492458E+02  7.73884539E-09  9.91492458E+02
        16   18       7.80835395E-04  6.65037576E-15  9.91492458E+02  7.73884539E-09  9.91492458E+02
     -----------------------------------------------------------------------------------------------
--

++ Length and velocity gauge comparison (SO states):

 --------------------------------------------------
 A comparison between the dipole oscillator strengths in 
 length and velocity gauge will be performed

 All dipole oscillator differences above the tolerance of   0.10000000000000001       will be printed 

 Due to basis set deficiency these oscillator may be problematic 

 The tolerance is defined as ABS(1-O_l/O_v) 
 O_l : dipole oscillator strength in length gauge
 O_p : dipole oscillator strength in velocity gauge
 --------------------------------------------------

  Problematic transitions have been found

      From   To       Difference (%) Osc. st. (len.) Osc. st. (vel.)
     ---------------------------------------------------------------
         1    5      --------------- below threshold  6.39919825E-05
         1    7      --------------- below threshold  6.39871943E-05
         2    6      --------------- below threshold  6.39919825E-05
         2    8      --------------- below threshold  6.39871943E-05
         3    5      --------------- below threshold  6.39938496E-05
         3    7      --------------- below threshold  6.39860826E-05
         4    6      --------------- below threshold  6.39938496E-05
         4    8      --------------- below threshold  6.39860826E-05
         5    9      --------------- below threshold  5.68900545E-04
         6   10      --------------- below threshold  5.68900545E-04
         7    9      --------------- below threshold  5.69018732E-04
         8   10      --------------- below threshold  5.69018732E-04
        11   13            21.653453  1.77748972E-01  1.46110914E-01
        11   15            21.653453  1.77748972E-01  1.46110914E-01
        11   17            21.649521  1.77691551E-01  1.46068435E-01
        12   14            21.653453  1.77748972E-01  1.46110914E-01
        12   16            21.653453  1.77748972E-01  1.46110914E-01
        12   18            21.649521  1.77691551E-01  1.46068435E-01
        13   15      --------------- below threshold  2.41086083E-05
        13   17      --------------- below threshold  7.80808950E-04
        14   16      --------------- below threshold  2.41086083E-05
        14   18      --------------- below threshold  7.80808950E-04
        15   17      --------------- below threshold  7.80835395E-04
        16   18      --------------- below threshold  7.80835395E-04
     ---------------------------------------------------------------

 Number of problematic transitions =                    24

--

 Electric-dipole - electric-octupole not included
++ Total transition strengths for the second-order expansion of the wave vector (SO states):
   -----------------------------------------------------------------------------------------
    for osc. strength at least    1.0000000000000001E-005

      From   To        Osc. strength
     -------------------------------
         1   11       5.84821934E-05
         2   12       5.84821934E-05
         3   11       5.84821928E-05
         4   12       5.84821928E-05
         5   11       5.84631781E-05
         6   12       5.84631781E-05
         7   11       5.84631754E-05
         8   12       5.84631754E-05
         9   11       5.84567761E-05
        10   12       5.84567761E-05
     -------------------------------
--

++ I/O STATISTICS
 
  I. General I/O information
  - - - - - - - - - - - - - - - - - - - - - - - - - - - - - - - - - - - - - - - - - - -
  Unit  Name          Flsize      Write/Read            MBytes           Write/Read
                      (MBytes)       Calls              In/Out           Time, sec.
  - - - - - - - - - - - - - - - - - - - - - - - - - - - - - - - - - - - - - - - - - - -
   1  SCRATCH           0.00 .       9/      45 .      0.0/      0.0 .       0/       0
   2  ANNI              0.00 .       0/       0 .      0.0/      0.0 .       0/       0
   3  RUNFILE          15.31 .     322/   10517 .      2.3/     76.3 .       0/       0
   4  ONEINT            6.58 .       0/   28767 .      0.0/   3777.9 .       0/       0
   5  JOBIPH            7.70 .       0/      92 .      0.0/      0.9 .       0/       0
   6  ORDINT          771.03 .       1/    6169 .      0.0/   1542.0 .       0/       0
  - - - - - - - - - - - - - - - - - - - - - - - - - - - - - - - - - - - - - - - - - - -
   *  TOTAL           800.62 .     332/   45590 .      2.3/   5397.1 .       0/       0
  - - - - - - - - - - - - - - - - - - - - - - - - - - - - - - - - - - - - - - - - - - -
 
  II. I/O Access Patterns
  - - - - - - - - - - - - - - - - - - - -
  Unit  Name               % of random
                         Write/Read calls
  - - - - - - - - - - - - - - - - - - - -
   1  SCRATCH             88.9/ 100.0
   2  ANNI                 0.0/   0.0
   3  RUNFILE             28.6/  10.8
   4  ONEINT               0.0/  13.4
   5  JOBIPH               0.0/  76.1
   6  ORDINT             100.0/   0.0
  - - - - - - - - - - - - - - - - - - - -
--
--- Stop Module: rassi at Wed Mar 26 15:45:07 2025 /rc=_RC_ALL_IS_WELL_ ---
*** files: xmldump
    saved to directory /home4/s4752295/Internship/Initial_simulations/Point_charge_model/1_electron/Madelung_charges_9_active_space/W
--- Module rassi spent 3 seconds ---

.##################.
.# Happy landing! #.
.##################.

    Timing: Wall=73.31 User=60.22 System=11.99

###############################################################################
Hbrk Cluster
Job 15909321 for user s4752295
Finished at: Wed Mar 26 15:45:11 CET 2025

Job details:
============

Job ID                         : 15909321
Name                           : W_no_SO
User                           : s4752295
Partition                      : regularmedium
Nodes                          : node70
Number of Nodes                : 1
Cores                          : 1
Number of Tasks                : 1
State                          : COMPLETED  
Submit                         : 2025-03-26T15:42:39
Start                          : 2025-03-26T15:43:50
End                            : 2025-03-26T15:45:07
Reserved walltime              : 15:00:00
Used walltime                  : 00:01:17
Used CPU time                  : 00:01:13 (Efficiency: 95.41%)
% User (Computation)           : 83.31%
% System (I/O)                 : 16.69%
Total memory reserved          : 25000M
Maximum memory used            : 3.04G

Acknowledgements:
=================

Please see this page for information about acknowledging Hbrk in your publications:

https://wiki.hpc.rug.nl/habrok/introduction/scientific_output

################################################################################
