   This run of MOLCAS is using the pymolcas driver

                             OPE
                             OPE          NMOL  CASOP  ENMOLC A   SO
                 OPE        NMOLC        AS  OP EN  MO LC     AS  OP
                OPENM       OL CA        SO  PE NM  OL CA     SOP EN
                OP EN      MO   LC       AS  OP ENMOL  CASO   PENMOL
                OP  EN     MO   LC       AS  OP EN     MO     LC ASO
               OP   E  NMOL  C  AS       OP  EN MO     LC     AS  OP
               OP  E   NMO   LC AS        OPEN  MO     LCASOP EN   M
               O  PEN   MO  LCA  SO
            OPE   NMO   L   CAS    OP
        OPENMOL  CASOP     ENMOL   CASOPE
     OPENMOLCA   SOPENMOLCASOPEN   MOLCASOPE
    OPENMOLCAS   OP           EN   MOL    CAS
    OPENMOLCAS       OP  ENM        O     LCA
    OPENMOLCAS    OPEN  MOLCASO     P  E  NMO
    OPENMOLCAS     OP               E  N  MOL
    OPENMOLCA   SO           PENM   O  L  CAS    OPEN    MO    LCAS
    OPENMOLCA   SOP           ENM   O  L  CAS   OP  EN  MOLC  AS   O
    OPENMOLCA   SOPE           NM      O  LCA   S      OP  EN MO
    OPENMOLC                AS         O  PEN   M      OL  CA  SOPE
    OPENMO        LCASOPE  NMOL        C  ASO   P      ENMOLC     AS
    OPE     NMO      LCA  SO     P     E   NM   OL  CA SO  PE N   MO
          OPENMOLCA            SOPE   NMO        LCAS  O    P  ENMO
     OPENMOLCASOPENMOLCASOPENMOLCASOPENMOLCA
        OPENMOLCASOPENMOLCASOPENMOLCASOPE
            OPENMOLCASOPENMOLCASOPENM
               OPENMOLCASOPENMOLCA        version: o91e1abe7de707b ?
                   OPENMOLCASO
                       OPE                tag:

 OpenMolcas is free software; you can redistribute it and/or modify it
 under the terms of the GNU Lesser General Public License version 2.1.
 OpenMolcas is distributed in the hope that it will be useful, but it
 is provided "as is" and without any express or implied warranties.
 For more details see the full text of the license in the file
 LICENSE or in <http://www.gnu.org/licenses/>.

                 Copyright (C) The OpenMolcas Authors
           For the author list and the recommended citation,
                   consult the file CONTRIBUTORS.md

           *************************************************
           * pymolcas version py2.10                       *
           *   build 3068ae8b88c9345ec6cfef6fef7f1169      *
           *   (after the EMIL interpreter by V. Veryazov) *
           *************************************************

configuration info
------------------
Host name: login1 (Linux)
C Compiler ID: GNU
C flags: -std=gnu99
Fortran Compiler ID: GNU
Fortran flags: -fno-aggressive-loop-optimizations -cpp -fdefault-integer-8 -fmax-stack-var-size=1048576
Definitions: _MOLCAS_;_I8_;_LINUX_;_MKL_
Parallel: OFF (GA=OFF)


   ----------------------------------------------------------------------------------------------------------------------------------
  |
  |           Project: tungsten_so_cf
  |    Submitted from: /home4/s4752295/Internship/Initial_simulations/Point_charge_model/1_electron/Madelung_charges_9_active_space/W
  |      Scratch area: /tmp/tungsten_so_cf
  |   Save outputs to: /home4/s4752295/Internship/Initial_simulations/Point_charge_model/1_electron/Madelung_charges_9_active_space/W
  |            Molcas: /home4/s4752295/Internship/Molcas/recomp_try/OpenMolcas-master/build
  |
  | Scratch area is empty
  |
  |    MOLCAS_DRIVER = /home4/s4752295/Internship/Molcas/bin/pymolcas
  |    MOLCAS_NPROCS = 1
  |    MOLCAS_SOURCE = /home4/s4752295/Internship/Molcas/recomp_try/OpenMolcas-master
  | MOLCAS_STRUCTURE = 0
  |
   ----------------------------------------------------------------------------------------------------------------------------------

++ ---------   Input file   ---------

&SEWARD
AMFi

CLIG
$R

Basis Set
W.ANO-rcc.Roos.24s21p15d11f4g2h.11s10p9d8f4g2h.
Spherical d
W            -1.0658140267135469e-14    -3.5527134223784897e-15 0.008753588724385739
End of Basis

Xfield

414
-2.00110054,-0.77,0.4445595     -0.625931
-2.00110054,-0.0,-0.8891195     -0.625931
-2.00110054,0.77,0.4445595      -0.625931
-1.997673035,0.0,0.0    1.892092
1.329589845,-0.77,-0.4445595    2.515516
1.329589845,0.0,0.8891195       2.515516
1.329589845,0.77,-0.4445595     2.515516
1.78149414,-1.54,0.0    0.004632
1.78149414,-0.77,-1.333679      0.004632
1.78149414,-0.77,1.333679       0.004632
1.78149414,0.77,-1.333679       0.004632
1.78149414,0.77,1.333679        0.004632
1.78149414,1.54,0.0     0.004632
2.064575195,-0.77,0.4445595     -2.519484
2.064575195,-0.0,-0.8891195     -2.519484
2.064575195,0.77,0.4445595      -2.519484
-1.466552735,-0.0,-0.0  -3.142907
-2.48754883,-1.54,-0.8891195    -0.625931
-2.48754883,0.0,1.7782385       -0.625931
-2.48754883,1.54,-0.8891195     -0.625931
-3.3046875,-1.54,0.0    1.892092
-3.3046875,-0.77,-1.333679      1.892092
-3.3046875,-0.77,1.333679       1.892092
-3.3046875,0.77,-1.333679       1.892092
-3.3046875,0.77,1.333679        1.892092
-3.3046875,1.54,0.0     1.892092
12.5859375,-1.54,0.8891195      2.515516
12.5859375,-0.0,-1.7782385      2.515516
12.5859375,1.54,0.8891195       2.515516
1.81933594,-1.54,-0.8891195     -2.519484
1.81933594,0.0,1.7782385        -2.519484
1.81933594,1.54,-0.8891195      -2.519484
-1.61621094,-1.54,-0.0  -3.142907
-1.61621094,-0.77,-1.333679     -3.142907
-1.61621094,-0.77,1.333679      -3.142907
-1.61621094,0.77,-1.333679      -3.142907
-1.61621094,0.77,1.333679       -3.142907
-1.61621094,1.54,-0.0   -3.142907
-4.76171875,-1.54,1.7782385     -0.625931
-4.76171875,1.54,1.7782385      -0.625931
-4.76171875,-2.31,0.4445595     -0.625931
-4.76171875,2.31,0.4445595      -0.625931
-4.76171875,-0.77,-2.2227985    -0.625931
-4.76171875,0.77,-2.2227985     -0.625931
3.00390625,-0.77,-0.4445595     4.409069
3.00390625,0.77,-0.4445595      4.409069
3.00390625,0.0,0.8891195        4.409069
-87.625,-0.0,-0.0       -5.030367
-87.625,0.0,0.0 5.039632
6.75878906,-1.54,-1.7782385     2.515516
6.75878906,1.54,-1.7782385      2.515516
6.75878906,-2.31,-0.4445595     2.515516
6.75878906,2.31,-0.4445595      2.515516
6.75878906,-0.77,2.2227985      2.515516
6.75878906,0.77,2.2227985       2.515516
9.51953125,-2.31,-1.333679      0.004632
9.51953125,-2.31,1.333679       0.004632
9.51953125,2.31,-1.333679       0.004632
9.51953125,2.31,1.333679        0.004632
9.51953125,-0.0,-2.667358       0.004632
9.51953125,0.0,2.667358 0.004632
24.0390625,-1.54,1.7782385      -2.519484
24.0390625,1.54,1.7782385       -2.519484
24.0390625,-2.31,0.4445595      -2.519484
24.0390625,2.31,0.4445595       -2.519484
24.0390625,-0.77,-2.2227985     -2.519484
24.0390625,0.77,-2.2227985      -2.519484
-72.9375,-2.31,-1.333679        1.892092
-72.9375,-2.31,1.333679 1.892092
-72.9375,2.31,-1.333679 1.892092
-72.9375,2.31,1.333679  1.892092
-72.9375,-0.0,-2.667358 1.892092
-72.9375,0.0,2.667358   1.892092
-58.875,-1.54,0.8891195 4.409069
-58.875,-0.0,-1.7782385 4.409069
-58.875,1.54,0.8891195  4.409069
-44.5,-1.54,-0.0        -5.030367
-44.5,-0.77,-1.333679   -5.030367
-44.5,-0.77,1.333679    -5.030367
-44.5,0.77,-1.333679    -5.030367
-44.5,-1.54,0.0 5.039632
-44.5,1.54,-0.0 -5.030367
-44.5,0.77,1.333679     -5.030367
-44.5,-0.77,-1.333679   5.039632
-44.5,-0.77,1.333679    5.039632
-44.5,0.77,-1.333679    5.039632
-44.5,1.54,0.0  5.039632
-44.5,0.77,1.333679     5.039632
-23.3125,-0.77,-0.4445595       -5.660931
-23.3125,0.0,0.8891195  -5.660931
-23.3125,0.77,-0.4445595        -5.660931
0.44140625,-3.0799995,0.0       0.004632
0.44140625,-1.54,-2.667358      0.004632
0.44140625,-1.54,2.667358       0.004632
0.44140625,1.54,-2.667358       0.004632
0.44140625,3.0799995,0.0        0.004632
0.44140625,1.54,2.667358        0.004632
33.96875,-2.31,1.333679 -3.142907
33.96875,-2.31,-1.333679        -3.142907
33.96875,2.31,-1.333679 -3.142907
33.96875,2.31,1.333679  -3.142907
33.96875,-0.0,-2.667358 -3.142907
33.96875,0.0,2.667358   -3.142907
43.1875,-3.0799995,-0.8891195   -0.625931
43.1875,-2.31,-2.2227985        -0.625931
43.1875,-0.77,3.1119175 -0.625931
43.1875,2.31,-2.2227985 -0.625931
43.1875,3.0799995,-0.8891195    -0.625931
43.1875,0.77,3.1119175  -0.625931
0.59863281,-3.0799995,0.0       1.892092
0.59863281,-1.54,-2.667358      1.892092
0.59863281,-1.54,2.667358       1.892092
0.59863281,1.54,-2.667358       1.892092
0.59863281,3.0799995,0.0        1.892092
0.59863281,1.54,2.667358        1.892092
16.921875,-1.54,-1.7782385      4.409069
16.921875,1.54,-1.7782385       4.409069
16.921875,-2.31,-0.4445595      4.409069
16.921875,2.31,-0.4445595       4.409069
16.921875,-0.77,2.2227985       4.409069
16.921875,0.77,2.2227985        4.409069
81.203125,-1.54,0.8891195       -5.660931
81.203125,-0.0,-1.7782385       -5.660931
81.203125,1.54,0.8891195        -5.660931
0.171875,-3.0799995,0.8891195   2.515516
0.171875,-0.77,-3.1119175       2.515516
0.171875,-2.31,2.2227985        2.515516
0.171875,0.77,-3.1119175        2.515516
0.171875,3.0799995,0.8891195    2.515516
0.171875,2.31,2.2227985 2.515516
-47.09375,-3.0799995,-0.8891195 -2.519484
-47.09375,-2.31,-2.2227985      -2.519484
-47.09375,-0.77,3.1119175       -2.519484
-47.09375,2.31,-2.2227985       -2.519484
-47.09375,0.77,3.1119175        -2.519484
-47.09375,3.0799995,-0.8891195  -2.519484
-11.03515625,-3.0799995,-0.0    -3.142907
-11.03515625,-1.54,-2.667358    -3.142907
-11.03515625,-1.54,2.667358     -3.142907
-11.03515625,1.54,-2.667358     -3.142907
-11.03515625,1.54,2.667358      -3.142907
-11.03515625,3.0799995,-0.0     -3.142907
303.25,0.0,0.0  6.927092
161.625,-3.0799995,1.7782385    -0.625931
161.625,3.0799995,1.7782385     -0.625931
161.625,-0.0,-3.5564775 -0.625931
-2.7109375,-2.31,1.333679       -5.030367
-2.7109375,-2.31,-1.333679      -5.030367
-2.7109375,-2.31,1.333679       5.039632
-2.7109375,-2.31,-1.333679      5.039632
-2.7109375,2.31,-1.333679       -5.030367
-2.7109375,2.31,1.333679        -5.030367
-2.7109375,2.31,-1.333679       5.039632
-2.7109375,2.31,1.333679        5.039632
-2.7109375,-0.0,-2.667358       -5.030367
-2.7109375,0.0,2.667358 -5.030367
-2.7109375,-0.0,-2.667358       5.039632
-2.7109375,0.0,2.667358 5.039632
45.90625,-1.54,-1.7782385       -5.660931
45.90625,1.54,-1.7782385        -5.660931
45.90625,-2.31,-0.4445595       -5.660931
45.90625,2.31,-0.4445595        -5.660931
45.90625,-0.77,2.2227985        -5.660931
45.90625,0.77,2.2227985 -5.660931
150.25,-3.0799995,-1.7782385    2.515516
150.25,3.0799995,-1.7782385     2.515516
150.25,0.0,3.5564775    2.515516
-258.625,-3.0799995,1.7782385   -2.519484
-258.625,3.0799995,1.7782385    -2.519484
-258.625,-0.0,-3.5564775        -2.519484
26.78125,-1.54,0.0      6.927092
26.78125,-0.77,-1.333679        6.927092
26.78125,-0.77,1.333679 6.927092
26.78125,0.77,-1.333679 6.927092
26.78125,0.77,1.333679  6.927092
26.78125,1.54,0.0       6.927092
-27.625,-0.77,0.4445595 7.550516
-27.625,0.0,-0.8891195  7.550516
-27.625,0.77,0.4445595  7.550516
7.765625,-0.77,-0.4445595       -7.554483
7.765625,0.77,-0.4445595        -7.554483
7.765625,-0.0,0.8891195 -7.554483
-62.4375,-3.8499995,0.4445595   -0.625931
-62.4375,-2.31,3.1119175        -0.625931
-62.4375,-1.54,-3.5564775       -0.625931
-62.4375,1.54,-3.5564775        -0.625931
-62.4375,3.8499995,0.4445595    -0.625931
-62.4375,2.31,3.1119175 -0.625931
-33.71875,-3.0799995,0.8891195  4.409069
-33.71875,-2.31,2.2227985       4.409069
-33.71875,-0.77,-3.1119175      4.409069
-33.71875,0.77,-3.1119175       4.409069
-33.71875,2.31,2.2227985        4.409069
-33.71875,3.0799995,0.8891195   4.409069
24.578125,-3.0799995,-0.0       -5.030367
24.578125,-1.54,-2.667358       -5.030367
24.578125,-1.54,2.667358        -5.030367
24.578125,-3.0799995,0.0        5.039632
24.578125,-1.54,-2.667358       5.039632
24.578125,1.54,-2.667358        -5.030367
24.578125,1.54,2.667358 -5.030367
24.578125,3.0799995,-0.0        -5.030367
24.578125,-1.54,2.667358        5.039632
24.578125,1.54,-2.667358        5.039632
24.578125,3.0799995,0.0 5.039632
24.578125,1.54,2.667358 5.039632
90.375,-3.8499995,-0.4445595    2.515516
90.375,-2.31,-3.1119175 2.515516
90.375,-1.54,3.5564775  2.515516
90.375,2.31,-3.1119175  2.515516
90.375,3.8499995,-0.4445595     2.515516
90.375,1.54,3.5564775   2.515516
-11.671875,-3.8499995,-1.333679 0.004632
-11.671875,-3.8499995,1.333679  0.004632
-11.671875,-3.0799995,-2.667358 0.004632
-11.671875,-3.0799995,2.667358  0.004632
-11.671875,-0.77,-4.001037      0.004632
-11.671875,0.77,-4.001037       0.004632
-11.671875,-0.77,4.001037       0.004632
-11.671875,3.0799995,-2.667358  0.004632
-11.671875,0.77,4.001037        0.004632
-11.671875,3.8499995,-1.333679  0.004632
-11.671875,3.8499995,1.333679   0.004632
-11.671875,3.0799995,2.667358   0.004632
-71.5625,-3.8499995,0.4445595   -2.519484
-71.5625,-2.31,3.1119175        -2.519484
-71.5625,-1.54,-3.5564775       -2.519484
-71.5625,1.54,-3.5564775        -2.519484
-71.5625,3.8499995,0.4445595    -2.519484
-71.5625,2.31,3.1119175 -2.519484
1516.0,-0.0,-0.0        -8.177907
-58.0,-1.54,-0.8891195  7.550516
-58.0,0.0,1.7782385     7.550516
-58.0,1.54,-0.8891195   7.550516
-301.75,-1.54,0.8891195 -7.554483
-301.75,-0.0,-1.7782385 -7.554483
-301.75,1.54,0.8891195  -7.554483
24.453125,-3.8499995,1.333679   1.892092
24.453125,-3.8499995,-1.333679  1.892092
24.453125,-3.0799995,-2.667358  1.892092
24.453125,-3.0799995,2.667358   1.892092
24.453125,-0.77,-4.001037       1.892092
24.453125,0.77,-4.001037        1.892092
24.453125,-0.77,4.001037        1.892092
24.453125,3.0799995,-2.667358   1.892092
24.453125,0.77,4.001037 1.892092
24.453125,3.8499995,-1.333679   1.892092
24.453125,3.8499995,1.333679    1.892092
24.453125,3.0799995,2.667358    1.892092
-252.5,-3.0799995,-1.7782385    4.409069
-252.5,3.0799995,-1.7782385     4.409069
-252.5,0.0,3.5564775    4.409069
12.91015625,-3.0799995,0.8891195        -5.660931
12.91015625,-0.77,-3.1119175    -5.660931
12.91015625,-2.31,2.2227985     -5.660931
12.91015625,0.77,-3.1119175     -5.660931
12.91015625,2.31,2.2227985      -5.660931
12.91015625,3.0799995,0.8891195 -5.660931
-29.09375,-3.0799995,-2.667358  -3.142907
-29.09375,-3.8499995,1.333679   -3.142907
-29.09375,-3.8499995,-1.333679  -3.142907
-29.09375,-3.0799995,2.667358   -3.142907
-29.09375,-0.77,-4.001037       -3.142907
-29.09375,0.77,-4.001037        -3.142907
-29.09375,-0.77,4.001037        -3.142907
-29.09375,3.8499995,-1.333679   -3.142907
-29.09375,3.0799995,-2.667358   -3.142907
-29.09375,0.77,4.001037 -3.142907
-29.09375,3.8499995,1.333679    -3.142907
-29.09375,3.0799995,2.667358    -3.142907
32.703125,-2.31,-1.333679       6.927092
32.703125,-2.31,1.333679        6.927092
32.703125,2.31,-1.333679        6.927092
32.703125,2.31,1.333679 6.927092
32.703125,-0.0,-2.667358        6.927092
32.703125,0.0,2.667358  6.927092
-41.625,-1.54,-0.0      -8.177907
-41.625,-0.77,1.333679  -8.177907
-41.625,-0.77,-1.333679 -8.177907
-41.625,0.77,-1.333679  -8.177907
-41.625,1.54,-0.0       -8.177907
-41.625,0.77,1.333679   -8.177907
-45.453125,-1.54,1.7782385      7.550516
-45.453125,1.54,1.7782385       7.550516
-45.453125,-2.31,0.4445595      7.550516
-45.453125,2.31,0.4445595       7.550516
-45.453125,-0.77,-2.2227985     7.550516
-45.453125,0.77,-2.2227985      7.550516
-22.84375,-1.54,-1.7782385      -7.554483
-22.84375,1.54,-1.7782385       -7.554483
-22.84375,-2.31,-0.4445595      -7.554483
-22.84375,2.31,-0.4445595       -7.554483
-22.84375,-0.77,2.2227985       -7.554483
-22.84375,0.77,2.2227985        -7.554483
-250.125,0.0,4.4455965  -0.625931
-250.125,-3.8499995,-2.2227985  -0.625931
-250.125,3.8499995,-2.2227985   -0.625931
-134.875,-3.8499995,-0.4445595  4.409069
-134.875,-2.31,-3.1119175       4.409069
-134.875,-1.54,3.5564775        4.409069
-134.875,2.31,-3.1119175        4.409069
-134.875,3.8499995,-0.4445595   4.409069
-134.875,1.54,3.5564775 4.409069
155.1875,-3.0799995,-1.7782385  -5.660931
155.1875,3.0799995,-1.7782385   -5.660931
155.1875,0.0,3.5564775  -5.660931
293.5,-0.0,-4.4455965   2.515516
293.5,-3.8499995,2.2227985      2.515516
293.5,3.8499995,2.2227985       2.515516
-46.9375,-4.6199995,-0.0        0.004632
-46.9375,2.31,-4.001037 0.004632
-46.9375,-2.31,4.001037 0.004632
-46.9375,4.6199995,-0.0 0.004632
-46.9375,-2.31,-4.001037        0.004632
-46.9375,2.31,4.001037  0.004632
-192.875,0.0,4.4455965  -2.519484
-192.875,-3.8499995,-2.2227985  -2.519484
-192.875,3.8499995,-2.2227985   -2.519484
114.0,-3.0799995,0.0    6.927092
114.0,-1.54,-2.667358   6.927092
114.0,-1.54,2.667358    6.927092
114.0,1.54,-2.667358    6.927092
114.0,3.0799995,0.0     6.927092
114.0,1.54,2.667358     6.927092
105.9375,-4.6199995,-0.8891195  -0.625931
105.9375,-1.54,4.4455965        -0.625931
105.9375,-3.0799995,-3.5564775  -0.625931
105.9375,3.0799995,-3.5564775   -0.625931
105.9375,1.54,4.4455965 -0.625931
105.9375,4.6199995,-0.8891195   -0.625931
55.96875,-4.6199995,0.0 1.892092
55.96875,-2.31,-4.001037        1.892092
55.96875,-2.31,4.001037 1.892092
55.96875,2.31,-4.001037 1.892092
55.96875,4.6199995,0.0  1.892092
55.96875,2.31,4.001037  1.892092
-2.16015625,-3.8499995,1.333679 -5.030367
-2.16015625,-3.8499995,-1.333679        -5.030367
-2.16015625,-3.0799995,-2.667358        -5.030367
-2.16015625,-3.0799995,2.667358 -5.030367
-2.16015625,-3.8499995,1.333679 5.039632
-2.16015625,0.77,-4.001037      -5.030367
-2.16015625,-0.77,-4.001037     -5.030367
-2.16015625,-3.8499995,-1.333679        5.039632
-2.16015625,-3.0799995,-2.667358        5.039632
-2.16015625,-0.77,4.001037      -5.030367
-2.16015625,0.77,-4.001037      5.039632
-2.16015625,-3.0799995,2.667358 5.039632
-2.16015625,-0.77,-4.001037     5.039632
-2.16015625,3.0799995,-2.667358 -5.030367
-2.16015625,0.77,4.001037       -5.030367
-2.16015625,3.8499995,-1.333679 -5.030367
-2.16015625,3.8499995,1.333679  -5.030367
-2.16015625,3.0799995,2.667358  -5.030367
-2.16015625,-0.77,4.001037      5.039632
-2.16015625,3.0799995,-2.667358 5.039632
-2.16015625,3.8499995,-1.333679 5.039632
-2.16015625,0.77,4.001037       5.039632
-2.16015625,3.8499995,1.333679  5.039632
-2.16015625,3.0799995,2.667358  5.039632
-0.34375,-3.8499995,-0.4445595  -5.660931
-0.34375,-2.31,-3.1119175       -5.660931
-0.34375,-1.54,3.5564775        -5.660931
-0.34375,2.31,-3.1119175        -5.660931
-0.34375,1.54,3.5564775 -5.660931
-0.34375,3.8499995,-0.4445595   -5.660931
58.0,-0.77,0.4445595    9.444068
58.0,0.0,-0.8891195     9.444068
58.0,0.77,0.4445595     9.444068
25.65625,-4.6199995,0.8891195   2.515516
25.65625,-1.54,-4.4455965       2.515516
25.65625,1.54,-4.4455965        2.515516
25.65625,-3.0799995,3.5564775   2.515516
25.65625,4.6199995,0.8891195    2.515516
25.65625,3.0799995,3.5564775    2.515516
78.4375,-4.6199995,-0.8891195   -2.519484
78.4375,-1.54,4.4455965 -2.519484
78.4375,-3.0799995,-3.5564775   -2.519484
78.4375,3.0799995,-3.5564775    -2.519484
78.4375,4.6199995,-0.8891195    -2.519484
78.4375,1.54,4.4455965  -2.519484
109.8125,-4.6199995,-0.0        -3.142907
109.8125,-2.31,-4.001037        -3.142907
109.8125,-2.31,4.001037 -3.142907
109.8125,2.31,-4.001037 -3.142907
109.8125,4.6199995,-0.0 -3.142907
109.8125,2.31,4.001037  -3.142907
4.322753905,-2.31,-1.333679     -8.177907
4.322753905,-2.31,1.333679      -8.177907
4.322753905,2.31,1.333679       -8.177907
4.322753905,2.31,-1.333679      -8.177907
4.322753905,-0.0,-2.667358      -8.177907
4.322753905,0.0,2.667358        -8.177907
125.9375,-2.31,-2.2227985       7.550516
125.9375,-3.0799995,-0.8891195  7.550516
125.9375,-0.77,3.1119175        7.550516
125.9375,2.31,-2.2227985        7.550516
125.9375,0.77,3.1119175 7.550516
125.9375,3.0799995,-0.8891195   7.550516
-174.0,-2.31,2.2227985  -7.554483
-174.0,-3.0799995,0.8891195     -7.554483
-174.0,-0.77,-3.1119175 -7.554483
-174.0,0.77,-3.1119175  -7.554483
-174.0,3.0799995,0.8891195      -7.554483
-174.0,2.31,2.2227985   -7.554483
35.6328125,-3.8499995,3.1119175 -0.625931
35.6328125,-4.6199995,1.7782385 -0.625931
35.6328125,-0.77,-4.8901565     -0.625931
35.6328125,0.77,-4.8901565      -0.625931
35.6328125,4.6199995,1.7782385  -0.625931
35.6328125,3.8499995,3.1119175  -0.625931
-241.875,-0.0,-4.4455965        4.409069
-241.875,-3.8499995,2.2227985   4.409069
-241.875,3.8499995,2.2227985    4.409069

End of input

&SCF
Occupied
9
Iterations
   50  100
End of Input

&RASSCF
LumOrb
Symmetry
1
Spin
2
Nactel
1 0 0
CIRoot
9 9 1
inactive
9
ras2
9
End of Input

>>> COPY tungsten_so_cf.JobIph $SLURM_SUBMIT_DIR/tungsten_so_cf.doublet.JobIph

>>> COPY $SLURM_SUBMIT_DIR/tungsten_so_cf.doublet.JobIph ./JOB002

&RASSI
NROFJobIph
1 All
SpinOrbit
End of Input

EOF

-- ----------------------------------

--- Start Module: seward at Wed Mar 26 11:18:56 2025 ---

()()()()()()()()()()()()()()()()()()()()()()()()()()()()()()()()()()()()()()()()()()()()()()()()()()

                                              &SEWARD

                                   only a single process is used
                       available to each process: 4.1 GB of memory, 1 thread?
                                            pid: 3348600
()()()()()()()()()()()()()()()()()()()()()()()()()()()()()()()()()()()()()()()()()()()()()()()()()()

 The speed of LIGHT in this CALCULATION =   137.03599917700001     
               SEWARD will generate:
                  Multipole Moment integrals up to order  2
                  Kinetic Energy integrals
                  Nuclear Attraction integrals (point charge)
                  One-Electron Hamiltonian integrals
                  Velocity integrals
                  Relativistic Douglas-Kroll-Hess integrals:
                    - Parametrization         : EXP
                    - DKH order of Hamiltonian: 2
                    - DKH order of Properties : 0
                         - multipole moment operators
                         - electric potential operators
                         - contact operators
                  External field from   414 point(s) added to the one-electron Hamiltonian
                  Orbital angular momentum around (-0.0000 -0.0000  0.0088 )
                  Velocity quadrupole around (-0.0000 -0.0000  0.0088 )
                  Atomic mean-field integrals
                  Two-Electron Repulsion integrals

                   Integrals are discarded if absolute value <: 0.10E-13
                   Integral cutoff threshold is set to       <: 0.10E-15

++    Symmetry information:
      ---------------------

                    Character Table for C1 

                             E  
                    a        1  x, y, xy, Rz, z, xz, Ry, yz, Rx, I
--


++    Basis set information:
      ----------------------


      Basis set label: W.ANO-RCC.ROOS.24S21P15D11F4G2H.11S10P9D8F4G2H......

      Electronic valence basis set:
      ------------------
      Associated Effective Charge  74.000000 au
      Associated Actual Charge     74.000000 au
      Nuclear Model: Point charge

      Shell  nPrim  nBasis  Cartesian Spherical Contaminant
         s      24      11        X                  
         p      21      10        X                  
         d      15       9                 X         
         f      11       8                 X         
         g       4       4                 X         
         h       2       2                 X         
--


++    Molecular structure info:
      -------------------------

                    ************************************************ 
                    **** Cartesian Coordinates / Bohr, Angstrom **** 
                    ************************************************ 

     Center  Label                x              y              z                     x              y              z
        1      W               -0.000000      -0.000000       0.008754             -0.000000      -0.000000       0.004632
--


++    Operator info:
      --------------


  Net charge from external field:   -39.268449999999902     
--


            Nuclear Potential Energy              0.00000000 au

                    Nuclear-External Field Potential Energy   -1354.04523943 au
                    External Field Potential Energy            3211.27380277 au 


            Total Nuclear Potential Energy          -1354.04523943 au


      Basis set specifications :
      Symmetry species         a  
      Basis functions          200

 Sorry, Molden does not know how to handle
 functions with angular momentum larger than g
Note: The following floating-point exceptions are signalling: IEEE_UNDERFLOW_FLAG IEEE_DENORMAL
--- Stop Module: seward at Wed Mar 26 11:19:15 2025 /rc=_RC_ALL_IS_WELL_ ---
*** files: tungsten_so_cf.GssOrb xmldump
    saved to directory /home4/s4752295/Internship/Initial_simulations/Point_charge_model/1_electron/Madelung_charges_9_active_space/W
--- Module seward spent 18 seconds ---

*** symbolic link created: INPORB -> tungsten_so_cf.GssOrb
--- Start Module: scf at Wed Mar 26 11:19:15 2025 ---

()()()()()()()()()()()()()()()()()()()()()()()()()()()()()()()()()()()()()()()()()()()()()()()()()()

                                                &SCF

                                   only a single process is used
                       available to each process: 4.1 GB of memory, 1 thread?
                                            pid: 3348643
()()()()()()()()()()()()()()()()()()()()()()()()()()()()()()()()()()()()()()()()()()()()()()()()()()

++    Input section:
      --------------

      Header of the integral files:
      
       Integrals generated by seward 4.2.0  , Wed Mar 26 11:18:57 2025


      Cartesian coordinates in Angstrom:
      -----------------------------------------------------
      No.  Label        X            Y            Z        
      -----------------------------------------------------
       1   W         -0.00000000  -0.00000000   0.00463220
      -----------------------------------------------------
      Nuclear repulsion energy =-1354.04523943
--

++    Orbital specifications:
      -----------------------

      Symmetry species               1
                                     a
      Frozen orbitals                0
      Occupied orbitals              9
      Secondary orbitals           191
      Deleted orbitals               0
      Total number of orbitals     200
      Number of basis functions    200
--

      Molecular charge                          56.000

++    Optimization specifications:
      ----------------------------

      SCF Algorithm: Conventional
      Minimized density differences are used
      Number of density matrices in core                5
      Maximum number of NDDO SCF iterations            50
      Maximum number of HF SCF iterations             100
      Threshold for SCF energy change            0.10E-08
      Threshold for density matrix               0.10E-03
      Threshold for Fock matrix                  0.15E-03
      Threshold for linear dependence            0.10E-08
      Threshold at which DIIS is turned on       0.15E+00
      Threshold at which QNR/C2DIIS is turned on 0.75E-01
      Threshold for Norm(delta) (QNR/C2DIIS)     0.20E-04
      DIIS extrapolation of the SCF procedure
      All orbitals punched on: SCFORB
--

      Detected guessorb starting orbitals                                             


++ Convergence information
                                   SCF        iterations: Energy and convergence statistics

Iter     Tot. SCF        One-elec.       Two-elec.     Energy      Max Dij or  Max Fij      DNorm      TNorm      AccCon     Time
         Energy          Energy          Energy        Change      Delta Norm                                                in Sec.

 The total and one-electron energies are shifted by a value of     13000. a.u.

   1  -938.685235077  -853.486962256  1268.846966605   0.00E+00    0.22E+00*   0.90E+01*    0.60E+01   0.65E+03   None         1.
   2  -949.785434490  -909.621929804  1313.881734740  -0.11E+02*   0.23E-02*   0.19E+00*    0.90E+00   0.66E+03   EDIIS        1.
   3  -949.788763545  -909.077123827  1313.333599708  -0.33E-02*   0.24E-03*   0.44E-02*    0.12E-01   0.66E+03   EDIIS        1.
   4  -949.788766086  -909.088109538  1313.344582877  -0.25E-05*   0.91E-05    0.41E-03*    0.58E-03   0.66E+03   c2DIIS       1.
   5  -949.788766099  -909.087976215  1313.344449541  -0.13E-07*   0.81E-06    0.15E-04     0.98E-05   0.66E+03   QNRc2DIIS    1.
   6  -949.788766099  -909.087975240  1313.344448567  -0.49E-10    0.13E-06    0.16E-05     0.69E-03   0.66E+03   QNRc2DIIS    1.

       Convergence after  6 Macro Iterations
--

 *****************************************************************************************************************************
 *                                                                                                                           *
 *                                             SCF/KS-DFT Program, Final results                                             *
 *                                                                                                                           *
 *                                                                                                                           *
 *                                                                                                                           *
 *                                                       Final Results                                                       *
 *                                                                                                                           *
 *****************************************************************************************************************************

::    Total SCF energy                             -13949.7887660991
      One-electron energy                          -13909.0879752402
      Two-electron energy                            1313.3444485667
      Nuclear repulsion energy                      -1354.0452394255
      Kinetic energy (interpolated)                 19280.2512375376
      Virial theorem                                    0.7235273334
      Total spin, S(S+1)                                0.0000000000
      Total spin, S                                     0.0000000000
      Max non-diagonal density matrix element           0.0000001605
      Max non-diagonal Fock matrix element              0.0000000375


      All orbitals with orbital energies smaller than  E(LUMO)+0.5 are printed

++    Molecular orbitals:
      -------------------

      Title: SCF orbitals

      Molecular orbitals for symmetry species 1: a  

          Some orbital energies have been scaled by powers of 10, the power is written right after the orbital index


          Orbital            1 (1)     2         3         4         5         6         7         8         9        10    
          Energy         -269.6738 -576.0057 -522.0571 -522.0571 -522.0545 -213.0846 -196.4098 -196.4098 -196.3828 -176.4328
          Occ. No.          2.0000    2.0000    2.0000    2.0000    2.0000    2.0000    2.0000    2.0000    2.0000    0.0000

        1 W      1s         1.0000    0.0001    0.0000    0.0000   -0.0000   -0.0000   -0.0000    0.0000    0.0000   -0.0000
        2 W      2s        -0.0001    0.9999    0.0000    0.0000   -0.0016    0.0122    0.0000   -0.0000   -0.0004    0.0000
        3 W      3s         0.0000   -0.0118   -0.0000   -0.0000    0.0002    0.9950    0.0001   -0.0000   -0.0214    0.0000
        4 W      4s        -0.0000    0.0034    0.0000    0.0000   -0.0000   -0.0799   -0.0000    0.0000    0.0030    0.0000
        5 W      5s         0.0000   -0.0012   -0.0000   -0.0000    0.0000    0.0234    0.0000   -0.0000   -0.0009   -0.0000
        6 W      6s        -0.0000    0.0003    0.0000    0.0000   -0.0000   -0.0062   -0.0000    0.0000    0.0002    0.0000
        7 W      7s         0.0000   -0.0004   -0.0000   -0.0000    0.0000    0.0069    0.0000   -0.0000   -0.0003   -0.0000
        8 W      8s        -0.0000    0.0010    0.0000    0.0000   -0.0000   -0.0175   -0.0000    0.0000    0.0007   -0.0000
        9 W      9s         0.0000   -0.0013   -0.0000   -0.0000    0.0000    0.0223    0.0000   -0.0000   -0.0009    0.0000
       10 W     10s        -0.0000    0.0016    0.0000    0.0000   -0.0000   -0.0252   -0.0000    0.0000    0.0010    0.0000
       11 W     11s         0.0000   -0.0024   -0.0000   -0.0000    0.0000    0.0312    0.0000   -0.0000   -0.0012   -0.0000
       12 W      2px        0.0000    0.0016   -0.0055   -0.0000    0.9999    0.0001   -0.0001    0.0000    0.0143    0.0000
       13 W      3px       -0.0000    0.0001    0.0001    0.0000   -0.0137    0.0216   -0.0047    0.0000    0.9927    0.0000
       14 W      4px        0.0000   -0.0000   -0.0000   -0.0000    0.0038   -0.0011    0.0004   -0.0000   -0.0913   -0.0000
       15 W      5px       -0.0000    0.0000    0.0000    0.0000   -0.0012    0.0003   -0.0001    0.0000    0.0253    0.0000
       16 W      6px        0.0000   -0.0000   -0.0000   -0.0000    0.0005   -0.0001    0.0000   -0.0000   -0.0102   -0.0000
       17 W      7px       -0.0000    0.0000    0.0000    0.0000   -0.0016    0.0003   -0.0001    0.0000    0.0303    0.0000
       18 W      8px        0.0000   -0.0000   -0.0000   -0.0000    0.0017   -0.0003    0.0001   -0.0000   -0.0301   -0.0000
       19 W      9px       -0.0000    0.0000    0.0000    0.0000   -0.0019    0.0003   -0.0001    0.0000    0.0310    0.0000
       20 W     10px        0.0000   -0.0000   -0.0000   -0.0000    0.0020   -0.0003    0.0001   -0.0000   -0.0284   -0.0000
       21 W     11px       -0.0000    0.0000    0.0000    0.0000   -0.0027    0.0002   -0.0001    0.0000    0.0287    0.0000
       22 W      2py        0.0000    0.0000   -0.0000    0.9999   -0.0000   -0.0000    0.0000    0.0143    0.0000    0.0000
       23 W      3py       -0.0000   -0.0000    0.0000   -0.0137    0.0000   -0.0000    0.0000    0.9930    0.0000    0.0001
       24 W      4py        0.0000    0.0000   -0.0000    0.0038   -0.0000    0.0000   -0.0000   -0.0912   -0.0000   -0.0000
       25 W      5py       -0.0000   -0.0000    0.0000   -0.0012    0.0000   -0.0000    0.0000    0.0253    0.0000    0.0000
       26 W      6py        0.0000    0.0000   -0.0000    0.0005   -0.0000    0.0000   -0.0000   -0.0102   -0.0000   -0.0000
       27 W      7py       -0.0000   -0.0000    0.0000   -0.0016    0.0000   -0.0000    0.0000    0.0302    0.0000    0.0000
       28 W      8py        0.0000    0.0000   -0.0000    0.0017   -0.0000    0.0000   -0.0000   -0.0301   -0.0000   -0.0000
       29 W      9py       -0.0000   -0.0000    0.0000   -0.0019    0.0000   -0.0000    0.0000    0.0309    0.0000    0.0000
       30 W     10py        0.0000    0.0000   -0.0000    0.0020   -0.0000    0.0000   -0.0000   -0.0283   -0.0000   -0.0000
       31 W     11py       -0.0000   -0.0000    0.0000   -0.0027    0.0000   -0.0000    0.0000    0.0287    0.0000    0.0000
       32 W      2pz        0.0000    0.0000    0.9999    0.0000    0.0055    0.0000    0.0143   -0.0000    0.0001    0.0000
       33 W      3pz       -0.0000    0.0000   -0.0137   -0.0000   -0.0001    0.0000    0.9930   -0.0000    0.0047    0.0000
       34 W      4pz        0.0000   -0.0000    0.0038    0.0000    0.0000   -0.0000   -0.0912    0.0000   -0.0004   -0.0000
       35 W      5pz       -0.0000    0.0000   -0.0012   -0.0000   -0.0000    0.0000    0.0253   -0.0000    0.0001    0.0000
       36 W      6pz        0.0000   -0.0000    0.0005    0.0000    0.0000   -0.0000   -0.0102    0.0000   -0.0000   -0.0000
       37 W      7pz       -0.0000    0.0000   -0.0016   -0.0000   -0.0000    0.0000    0.0302   -0.0000    0.0001    0.0000
       38 W      8pz        0.0000   -0.0000    0.0017    0.0000    0.0000   -0.0000   -0.0301    0.0000   -0.0001   -0.0000
       39 W      9pz       -0.0000    0.0000   -0.0019   -0.0000   -0.0000    0.0000    0.0309   -0.0000    0.0001    0.0000
       40 W     10pz        0.0000   -0.0000    0.0020    0.0000    0.0000   -0.0000   -0.0283    0.0000   -0.0001    0.0000
       41 W     11pz       -0.0000    0.0000   -0.0027   -0.0000   -0.0000    0.0000    0.0287   -0.0000    0.0001    0.0000
       42 W      3d2-      -0.0000   -0.0000   -0.0000    0.0002   -0.0000   -0.0000    0.0000    0.0146    0.0000   -0.0094
       43 W      4d2-       0.0000    0.0000    0.0000   -0.0000    0.0000    0.0000   -0.0000   -0.0004   -0.0000    0.0009
       44 W      5d2-      -0.0000   -0.0000   -0.0000    0.0000   -0.0000   -0.0000    0.0000    0.0001    0.0000   -0.0002
       45 W      6d2-       0.0000    0.0000    0.0000   -0.0000    0.0000    0.0000   -0.0000   -0.0001   -0.0000    0.0002
       46 W      7d2-      -0.0000   -0.0000   -0.0000    0.0000   -0.0000   -0.0000    0.0000    0.0001    0.0000   -0.0003
       47 W      8d2-       0.0000    0.0000    0.0000   -0.0000    0.0000    0.0000   -0.0000   -0.0001   -0.0000    0.0004
       48 W      9d2-      -0.0000   -0.0000   -0.0000    0.0000   -0.0000   -0.0000    0.0000    0.0000    0.0000   -0.0003
       49 W     10d2-       0.0000    0.0000    0.0000   -0.0000    0.0000    0.0000   -0.0000   -0.0000    0.0000    0.0004
       50 W     11d2-      -0.0000   -0.0000   -0.0000    0.0000   -0.0000   -0.0000   -0.0000   -0.0001   -0.0000   -0.0003
       51 W      3d1-       0.0000   -0.0000   -0.0000    0.0000   -0.0000   -0.0000    0.0000    0.0000    0.0000    0.9917
       52 W      4d1-      -0.0000    0.0000    0.0000   -0.0000    0.0000    0.0000   -0.0000   -0.0000   -0.0000   -0.0958
       53 W      5d1-       0.0000   -0.0000    0.0000   -0.0000   -0.0000   -0.0000    0.0000    0.0000   -0.0000    0.0186
       54 W      6d1-      -0.0000    0.0000    0.0000   -0.0000    0.0000    0.0000    0.0000    0.0000   -0.0000   -0.0254
       55 W      7d1-       0.0000   -0.0000   -0.0000    0.0000   -0.0000   -0.0000   -0.0000   -0.0000    0.0000    0.0328
       56 W      8d1-      -0.0000    0.0000   -0.0000    0.0000    0.0000    0.0000   -0.0000   -0.0000   -0.0000   -0.0372
       57 W      9d1-       0.0000    0.0000   -0.0000    0.0000   -0.0000    0.0000    0.0000    0.0000    0.0000    0.0370
       58 W     10d1-      -0.0000   -0.0000    0.0000   -0.0000    0.0000   -0.0000    0.0000    0.0000   -0.0000   -0.0397
       59 W     11d1-       0.0000    0.0000   -0.0000    0.0000   -0.0000    0.0000    0.0000    0.0000    0.0000    0.0299
       60 W      3d0        0.0000    0.0000    0.0000    0.0000   -0.0001    0.0001    0.0001   -0.0000   -0.0086   -0.0000
       61 W      4d0       -0.0000   -0.0000   -0.0000   -0.0000    0.0000    0.0000   -0.0000    0.0000    0.0002    0.0000
       62 W      5d0        0.0000    0.0000    0.0000    0.0000   -0.0000   -0.0000   -0.0000    0.0000   -0.0000   -0.0000
       63 W      6d0       -0.0000   -0.0000   -0.0000   -0.0000    0.0000    0.0000   -0.0000    0.0000    0.0000    0.0000
       64 W      7d0        0.0000    0.0000    0.0000    0.0000   -0.0000   -0.0000    0.0000   -0.0000   -0.0001   -0.0000
       65 W      8d0       -0.0000   -0.0000   -0.0000   -0.0000    0.0000    0.0000    0.0000   -0.0000    0.0000    0.0000
       66 W      9d0        0.0000    0.0000    0.0000    0.0000   -0.0000   -0.0000   -0.0000    0.0000   -0.0000   -0.0000
       67 W     10d0       -0.0000   -0.0000   -0.0000   -0.0000    0.0000    0.0000   -0.0000    0.0000    0.0000    0.0000
       68 W     11d0        0.0000    0.0000    0.0000    0.0000   -0.0000   -0.0000   -0.0000    0.0000    0.0000   -0.0000
       69 W      3d1+      -0.0000   -0.0000    0.0002    0.0000    0.0000   -0.0000    0.0146   -0.0000    0.0001    0.0000
       70 W      4d1+       0.0000    0.0000   -0.0000   -0.0000   -0.0000   -0.0000   -0.0004    0.0000   -0.0000   -0.0000
       71 W      5d1+      -0.0000   -0.0000    0.0000    0.0000    0.0000    0.0000    0.0001   -0.0000    0.0000    0.0000
       72 W      6d1+       0.0000    0.0000   -0.0000   -0.0000   -0.0000   -0.0000   -0.0001    0.0000   -0.0000   -0.0000
       73 W      7d1+      -0.0000   -0.0000    0.0000    0.0000    0.0000    0.0000    0.0001   -0.0000    0.0000    0.0000
       74 W      8d1+       0.0000    0.0000   -0.0000   -0.0000   -0.0000   -0.0000   -0.0001    0.0000   -0.0000   -0.0000
       75 W      9d1+      -0.0000   -0.0000    0.0000    0.0000    0.0000    0.0000    0.0000   -0.0000    0.0000    0.0000
       76 W     10d1+       0.0000    0.0000   -0.0000   -0.0000   -0.0000   -0.0000   -0.0000    0.0000    0.0000   -0.0000
       77 W     11d1+      -0.0000   -0.0000    0.0000    0.0000    0.0000    0.0000   -0.0001    0.0000   -0.0000    0.0000
       78 W      3d2+      -0.0000   -0.0000   -0.0000   -0.0000    0.0002   -0.0002   -0.0001    0.0000    0.0148   -0.0000
       79 W      4d2+       0.0000    0.0000    0.0000    0.0000   -0.0000   -0.0000    0.0000   -0.0000   -0.0004    0.0000
       80 W      5d2+      -0.0000   -0.0000   -0.0000   -0.0000    0.0000    0.0000   -0.0000    0.0000    0.0001   -0.0000
       81 W      6d2+       0.0000    0.0000    0.0000    0.0000   -0.0000   -0.0000    0.0000   -0.0000   -0.0001    0.0000
       82 W      7d2+      -0.0000   -0.0000   -0.0000   -0.0000    0.0000    0.0000    0.0000   -0.0000    0.0001   -0.0000
       83 W      8d2+       0.0000    0.0000    0.0000    0.0000   -0.0000   -0.0000    0.0000   -0.0000   -0.0001    0.0000
       84 W      9d2+      -0.0000   -0.0000   -0.0000   -0.0000    0.0000    0.0000   -0.0000    0.0000    0.0000   -0.0000
       85 W     10d2+       0.0000    0.0000    0.0000    0.0000   -0.0000   -0.0000   -0.0000    0.0000   -0.0000    0.0000
       86 W     11d2+      -0.0000   -0.0000   -0.0000   -0.0000    0.0000    0.0000    0.0000   -0.0000   -0.0001   -0.0000
       87 W      4f3-       0.0000   -0.0000    0.0000   -0.0000    0.0000    0.0000   -0.0000   -0.0000   -0.0000   -0.0000
       88 W      5f3-      -0.0000    0.0000   -0.0000    0.0000   -0.0000   -0.0000    0.0000    0.0000    0.0000    0.0000
       89 W      6f3-       0.0000   -0.0000    0.0000   -0.0000    0.0000    0.0000   -0.0000   -0.0000   -0.0000   -0.0000
       90 W      7f3-      -0.0000   -0.0000   -0.0000    0.0000   -0.0000   -0.0000    0.0000    0.0000    0.0000    0.0000
       91 W      8f3-       0.0000    0.0000    0.0000   -0.0000    0.0000    0.0000   -0.0000   -0.0000   -0.0000   -0.0000
       92 W      9f3-      -0.0000   -0.0000   -0.0000    0.0000   -0.0000   -0.0000    0.0000    0.0000    0.0000    0.0000
       93 W     10f3-       0.0000    0.0000    0.0000   -0.0000    0.0000    0.0000   -0.0000   -0.0000   -0.0000   -0.0000
       94 W     11f3-      -0.0000   -0.0000   -0.0000    0.0000   -0.0000   -0.0000    0.0000    0.0000    0.0000    0.0000
       95 W      4f2-       0.0000    0.0000    0.0000   -0.0000    0.0000    0.0000   -0.0000   -0.0000   -0.0000    0.0013
       96 W      5f2-      -0.0000   -0.0000    0.0000   -0.0000   -0.0000   -0.0000    0.0000    0.0000    0.0000   -0.0009
       97 W      6f2-       0.0000    0.0000    0.0000   -0.0000    0.0000    0.0000   -0.0000   -0.0000   -0.0000    0.0009
       98 W      7f2-      -0.0000   -0.0000   -0.0000    0.0000   -0.0000    0.0000    0.0000    0.0000    0.0000   -0.0008
       99 W      8f2-       0.0000    0.0000   -0.0000    0.0000   -0.0000   -0.0000   -0.0000   -0.0000   -0.0000    0.0007
      100 W      9f2-      -0.0000   -0.0000   -0.0000    0.0000    0.0000   -0.0000    0.0000    0.0000   -0.0000   -0.0005
      101 W     10f2-       0.0000    0.0000    0.0000   -0.0000   -0.0000   -0.0000    0.0000    0.0000    0.0000    0.0004
      102 W     11f2-      -0.0000   -0.0000   -0.0000    0.0000    0.0000    0.0000    0.0000    0.0000   -0.0000   -0.0002
      103 W      4f1-       0.0000    0.0000   -0.0000    0.0000   -0.0000    0.0000    0.0000    0.0000    0.0000    0.0000
      104 W      5f1-      -0.0000   -0.0000    0.0000   -0.0000    0.0000   -0.0000   -0.0000   -0.0000   -0.0000   -0.0000
      105 W      6f1-       0.0000    0.0000   -0.0000    0.0000   -0.0000    0.0000    0.0000    0.0000    0.0000    0.0000
      106 W      7f1-      -0.0000   -0.0000    0.0000   -0.0000    0.0000   -0.0000   -0.0000   -0.0000   -0.0000   -0.0000
      107 W      8f1-       0.0000    0.0000   -0.0000    0.0000   -0.0000    0.0000    0.0000    0.0000    0.0000    0.0000
      108 W      9f1-      -0.0000    0.0000    0.0000   -0.0000    0.0000   -0.0000   -0.0000   -0.0000   -0.0000   -0.0000
      109 W     10f1-      -0.0000   -0.0000   -0.0000    0.0000   -0.0000   -0.0000    0.0000    0.0000    0.0000    0.0000
      110 W     11f1-       0.0000    0.0000    0.0000   -0.0000    0.0000    0.0000   -0.0000   -0.0000    0.0000   -0.0000
      111 W      4f0        0.0000   -0.0000    0.0000    0.0000    0.0000    0.0000    0.0000   -0.0000    0.0000   -0.0000
      112 W      5f0        0.0000   -0.0000   -0.0000   -0.0000   -0.0000    0.0000   -0.0000    0.0000   -0.0000    0.0000
      113 W      6f0       -0.0000    0.0000    0.0000    0.0000    0.0000   -0.0000    0.0000   -0.0000    0.0000   -0.0000
      114 W      7f0       -0.0000    0.0000   -0.0000   -0.0000   -0.0000   -0.0000   -0.0000    0.0000   -0.0000    0.0000
      115 W      8f0       -0.0000    0.0000    0.0000    0.0000   -0.0000   -0.0000    0.0000   -0.0000    0.0000   -0.0000
      116 W      9f0        0.0000   -0.0000   -0.0000   -0.0000   -0.0000    0.0000   -0.0000    0.0000   -0.0000    0.0000
      117 W     10f0        0.0000   -0.0000    0.0000    0.0000    0.0000    0.0000    0.0000   -0.0000   -0.0000   -0.0000
      118 W     11f0        0.0000   -0.0000   -0.0000   -0.0000   -0.0000    0.0000   -0.0000    0.0000   -0.0000    0.0000
      119 W      4f1+       0.0000   -0.0000   -0.0000   -0.0000    0.0000   -0.0000    0.0000   -0.0000    0.0000   -0.0000
      120 W      5f1+      -0.0000    0.0000    0.0000    0.0000   -0.0000    0.0000   -0.0000    0.0000   -0.0000    0.0000
      121 W      6f1+       0.0000   -0.0000    0.0000    0.0000    0.0000   -0.0000   -0.0000    0.0000    0.0000   -0.0000
      122 W      7f1+      -0.0000   -0.0000    0.0000    0.0000   -0.0000    0.0000    0.0000   -0.0000   -0.0000    0.0000
      123 W      8f1+       0.0000   -0.0000   -0.0000   -0.0000    0.0000   -0.0000    0.0000   -0.0000    0.0000   -0.0000
      124 W      9f1+      -0.0000    0.0000    0.0000    0.0000   -0.0000   -0.0000    0.0000   -0.0000   -0.0000    0.0000
      125 W     10f1+       0.0000   -0.0000    0.0000    0.0000    0.0000   -0.0000   -0.0000    0.0000    0.0000   -0.0000
      126 W     11f1+      -0.0000    0.0000    0.0000    0.0000   -0.0000    0.0000   -0.0000    0.0000   -0.0000    0.0000
      127 W      4f2+       0.0000   -0.0000   -0.0000   -0.0000   -0.0000    0.0000   -0.0000    0.0000   -0.0000   -0.0000
      128 W      5f2+       0.0000   -0.0000    0.0000    0.0000    0.0000    0.0000    0.0000   -0.0000    0.0000    0.0000
      129 W      6f2+      -0.0000    0.0000   -0.0000   -0.0000    0.0000   -0.0000   -0.0000    0.0000   -0.0000   -0.0000
      130 W      7f2+      -0.0000    0.0000    0.0000    0.0000    0.0000   -0.0000    0.0000   -0.0000    0.0000    0.0000
      131 W      8f2+      -0.0000    0.0000   -0.0000   -0.0000   -0.0000   -0.0000   -0.0000    0.0000    0.0000   -0.0000
      132 W      9f2+       0.0000   -0.0000    0.0000    0.0000    0.0000    0.0000    0.0000   -0.0000    0.0000    0.0000
      133 W     10f2+       0.0000   -0.0000   -0.0000   -0.0000   -0.0000    0.0000   -0.0000    0.0000   -0.0000    0.0000
      134 W     11f2+       0.0000   -0.0000    0.0000    0.0000    0.0000    0.0000    0.0000   -0.0000   -0.0000    0.0000
      135 W      4f3+      -0.0000    0.0000    0.0000    0.0000   -0.0000    0.0000    0.0000   -0.0000   -0.0001   -0.0000
      136 W      5f3+       0.0000   -0.0000    0.0000    0.0000    0.0000   -0.0000   -0.0000    0.0000    0.0000    0.0000
      137 W      6f3+      -0.0000    0.0000    0.0000    0.0000   -0.0000    0.0000    0.0000   -0.0000   -0.0000   -0.0000
      138 W      7f3+       0.0000    0.0000   -0.0000   -0.0000    0.0000   -0.0000   -0.0000    0.0000    0.0000    0.0000
      139 W      8f3+      -0.0000    0.0000   -0.0000   -0.0000   -0.0000    0.0000    0.0000   -0.0000   -0.0000   -0.0000
      140 W      9f3+       0.0000   -0.0000   -0.0000   -0.0000    0.0000    0.0000   -0.0000    0.0000    0.0000    0.0000
      141 W     10f3+      -0.0000    0.0000    0.0000    0.0000   -0.0000    0.0000   -0.0000    0.0000   -0.0000   -0.0000
      142 W     11f3+       0.0000   -0.0000   -0.0000   -0.0000    0.0000   -0.0000   -0.0000    0.0000    0.0000    0.0000
      143 W      5g4-      -0.0000    0.0000   -0.0000    0.0000    0.0000   -0.0000    0.0000    0.0000    0.0000    0.0000
      144 W      6g4-       0.0000    0.0000   -0.0000    0.0000   -0.0000    0.0000   -0.0000   -0.0000   -0.0000   -0.0000
      145 W      7g4-      -0.0000    0.0000   -0.0000    0.0000   -0.0000   -0.0000    0.0000    0.0000    0.0000    0.0000
      146 W      8g4-       0.0000   -0.0000    0.0000   -0.0000    0.0000   -0.0000   -0.0000   -0.0000   -0.0000   -0.0000
      147 W      5g3-       0.0000    0.0000    0.0000   -0.0000    0.0000    0.0000   -0.0000   -0.0000    0.0000   -0.0000
      148 W      6g3-      -0.0000   -0.0000    0.0000   -0.0000   -0.0000   -0.0000    0.0000    0.0000    0.0000    0.0000
      149 W      7g3-       0.0000    0.0000   -0.0000    0.0000    0.0000    0.0000   -0.0000   -0.0000    0.0000   -0.0000
      150 W      8g3-      -0.0000   -0.0000   -0.0000    0.0000   -0.0000    0.0000   -0.0000   -0.0000   -0.0000    0.0000
      151 W      5g2-       0.0000   -0.0000    0.0000   -0.0000    0.0000   -0.0000   -0.0000   -0.0000   -0.0000   -0.0000
      152 W      6g2-      -0.0000    0.0000    0.0000   -0.0000    0.0000    0.0000    0.0000    0.0000    0.0000    0.0000
      153 W      7g2-       0.0000   -0.0000    0.0000   -0.0000    0.0000   -0.0000   -0.0000   -0.0000   -0.0000   -0.0000
      154 W      8g2-      -0.0000    0.0000   -0.0000    0.0000   -0.0000    0.0000    0.0000    0.0000    0.0000    0.0000
      155 W      5g1-       0.0000   -0.0000   -0.0000    0.0000    0.0000    0.0000    0.0000    0.0000   -0.0000    0.0000
      156 W      6g1-      -0.0000    0.0000   -0.0000    0.0000   -0.0000   -0.0000   -0.0000   -0.0000   -0.0000   -0.0000
      157 W      7g1-       0.0000   -0.0000   -0.0000    0.0000   -0.0000    0.0000   -0.0000   -0.0000   -0.0000    0.0000
      158 W      8g1-      -0.0000    0.0000   -0.0000    0.0000   -0.0000    0.0000   -0.0000   -0.0000   -0.0000   -0.0000
      159 W      5g0       -0.0000    0.0000   -0.0000   -0.0000   -0.0000   -0.0000   -0.0000    0.0000    0.0000   -0.0000
      160 W      6g0       -0.0000    0.0000    0.0000    0.0000   -0.0000   -0.0000   -0.0000    0.0000   -0.0000    0.0000
      161 W      7g0       -0.0000    0.0000    0.0000    0.0000    0.0000   -0.0000   -0.0000    0.0000    0.0000   -0.0000
      162 W      8g0        0.0000   -0.0000    0.0000    0.0000    0.0000    0.0000   -0.0000    0.0000   -0.0000    0.0000
      163 W      5g1+       0.0000   -0.0000   -0.0000   -0.0000    0.0000    0.0000   -0.0000    0.0000   -0.0000   -0.0000
      164 W      6g1+       0.0000   -0.0000   -0.0000   -0.0000    0.0000    0.0000    0.0000   -0.0000   -0.0000   -0.0000
      165 W      7g1+       0.0000   -0.0000   -0.0000   -0.0000    0.0000    0.0000   -0.0000    0.0000   -0.0000    0.0000
      166 W      8g1+      -0.0000    0.0000    0.0000    0.0000    0.0000   -0.0000    0.0000   -0.0000   -0.0000    0.0000
      167 W      5g2+       0.0000   -0.0000    0.0000    0.0000    0.0000    0.0000    0.0000   -0.0000   -0.0000    0.0000
      168 W      6g2+       0.0000   -0.0000    0.0000    0.0000    0.0000    0.0000   -0.0000    0.0000    0.0000   -0.0000
      169 W      7g2+       0.0000   -0.0000    0.0000    0.0000   -0.0000    0.0000   -0.0000    0.0000   -0.0000    0.0000
      170 W      8g2+      -0.0000    0.0000    0.0000    0.0000   -0.0000   -0.0000   -0.0000    0.0000    0.0000   -0.0000
      171 W      5g3+       0.0000   -0.0000    0.0000    0.0000    0.0000    0.0000    0.0000   -0.0000    0.0000    0.0000
      172 W      6g3+       0.0000   -0.0000    0.0000    0.0000    0.0000    0.0000   -0.0000    0.0000   -0.0000   -0.0000
      173 W      7g3+       0.0000   -0.0000    0.0000    0.0000    0.0000    0.0000    0.0000   -0.0000   -0.0000    0.0000
      174 W      8g3+      -0.0000    0.0000   -0.0000   -0.0000    0.0000   -0.0000   -0.0000    0.0000   -0.0000   -0.0000
      175 W      5g4+      -0.0000    0.0000    0.0000    0.0000   -0.0000   -0.0000    0.0000   -0.0000    0.0000    0.0000
      176 W      6g4+      -0.0000    0.0000    0.0000    0.0000   -0.0000   -0.0000   -0.0000    0.0000   -0.0000   -0.0000
      177 W      7g4+      -0.0000    0.0000    0.0000    0.0000    0.0000   -0.0000   -0.0000    0.0000    0.0000    0.0000
      178 W      8g4+       0.0000   -0.0000   -0.0000   -0.0000    0.0000    0.0000    0.0000   -0.0000   -0.0000   -0.0000
      179 W      6h5-      -0.0000   -0.0000   -0.0000    0.0000   -0.0000    0.0000   -0.0000   -0.0000    0.0000    0.0000
      180 W      7h5-       0.0000    0.0000   -0.0000    0.0000   -0.0000    0.0000   -0.0000   -0.0000   -0.0000   -0.0000
      181 W      6h4-      -0.0000   -0.0000    0.0000   -0.0000    0.0000   -0.0000    0.0000    0.0000    0.0000    0.0000
      182 W      7h4-      -0.0000   -0.0000    0.0000   -0.0000    0.0000   -0.0000    0.0000    0.0000    0.0000   -0.0000
      183 W      6h3-       0.0000    0.0000    0.0000   -0.0000    0.0000    0.0000    0.0000    0.0000    0.0000   -0.0000
      184 W      7h3-      -0.0000   -0.0000    0.0000   -0.0000   -0.0000   -0.0000    0.0000    0.0000    0.0000    0.0000
      185 W      6h2-       0.0000    0.0000   -0.0000    0.0000   -0.0000    0.0000    0.0000    0.0000    0.0000   -0.0000
      186 W      7h2-       0.0000    0.0000   -0.0000    0.0000   -0.0000    0.0000   -0.0000   -0.0000   -0.0000    0.0000
      187 W      6h1-       0.0000   -0.0000   -0.0000    0.0000   -0.0000    0.0000   -0.0000   -0.0000    0.0000    0.0000
      188 W      7h1-      -0.0000    0.0000    0.0000   -0.0000   -0.0000   -0.0000    0.0000    0.0000   -0.0000    0.0000
      189 W      6h0       -0.0000    0.0000    0.0000    0.0000   -0.0000   -0.0000   -0.0000    0.0000    0.0000    0.0000
      190 W      7h0       -0.0000    0.0000    0.0000    0.0000   -0.0000   -0.0000   -0.0000    0.0000    0.0000   -0.0000
      191 W      6h1+       0.0000   -0.0000   -0.0000   -0.0000    0.0000    0.0000    0.0000   -0.0000   -0.0000    0.0000
      192 W      7h1+       0.0000   -0.0000   -0.0000   -0.0000   -0.0000    0.0000    0.0000   -0.0000    0.0000   -0.0000
      193 W      6h2+       0.0000   -0.0000   -0.0000   -0.0000    0.0000    0.0000    0.0000   -0.0000   -0.0000   -0.0000
      194 W      7h2+       0.0000   -0.0000   -0.0000   -0.0000    0.0000    0.0000    0.0000   -0.0000   -0.0000   -0.0000
      195 W      6h3+      -0.0000    0.0000    0.0000    0.0000   -0.0000   -0.0000    0.0000   -0.0000    0.0000   -0.0000
      196 W      7h3+      -0.0000    0.0000    0.0000    0.0000    0.0000   -0.0000   -0.0000    0.0000   -0.0000    0.0000
      197 W      6h4+       0.0000   -0.0000    0.0000    0.0000    0.0000    0.0000   -0.0000    0.0000   -0.0000    0.0000
      198 W      7h4+       0.0000   -0.0000    0.0000    0.0000    0.0000    0.0000   -0.0000    0.0000   -0.0000   -0.0000
      199 W      6h5+       0.0000   -0.0000    0.0000    0.0000    0.0000    0.0000   -0.0000    0.0000   -0.0000   -0.0000
      200 W      7h5+       0.0000   -0.0000    0.0000    0.0000   -0.0000    0.0000   -0.0000    0.0000    0.0000    0.0000

          Orbital           11        12        13        14    
          Energy         -176.4328 -176.4187 -176.4187 -176.4136
          Occ. No.          0.0000    0.0000    0.0000    0.0000

        1 W      1s        -0.0000    0.0000    0.0000   -0.0000
        2 W      2s         0.0000   -0.0000   -0.0000    0.0000
        3 W      3s         0.0000   -0.0000   -0.0000    0.0006
        4 W      4s        -0.0000   -0.0000    0.0000   -0.0001
        5 W      5s         0.0000    0.0000    0.0000    0.0000
        6 W      6s        -0.0000    0.0000    0.0000   -0.0000
        7 W      7s         0.0000    0.0000   -0.0000    0.0000
        8 W      8s         0.0000    0.0000   -0.0000   -0.0000
        9 W      9s        -0.0000    0.0000    0.0000    0.0000
       10 W     10s        -0.0000   -0.0000    0.0000   -0.0000
       11 W     11s         0.0000   -0.0000    0.0000    0.0000
       12 W      2px       -0.0000    0.0000    0.0000   -0.0005
       13 W      3px       -0.0000    0.0001    0.0000   -0.0168
       14 W      4px        0.0000   -0.0000   -0.0000    0.0024
       15 W      5px       -0.0000    0.0000    0.0000   -0.0007
       16 W      6px        0.0000   -0.0000   -0.0000    0.0003
       17 W      7px       -0.0000    0.0000    0.0000   -0.0008
       18 W      8px        0.0000   -0.0000   -0.0000    0.0008
       19 W      9px       -0.0000    0.0000    0.0000   -0.0008
       20 W     10px        0.0000   -0.0000   -0.0000    0.0008
       21 W     11px       -0.0000    0.0000    0.0000   -0.0007
       22 W      2py        0.0000    0.0000   -0.0004   -0.0000
       23 W      3py        0.0000    0.0000   -0.0144   -0.0000
       24 W      4py       -0.0000   -0.0000    0.0020    0.0000
       25 W      5py        0.0000    0.0000   -0.0006   -0.0000
       26 W      6py       -0.0000   -0.0000    0.0002    0.0000
       27 W      7py        0.0000    0.0000   -0.0007   -0.0000
       28 W      8py       -0.0000   -0.0000    0.0007    0.0000
       29 W      9py        0.0000    0.0000   -0.0007   -0.0000
       30 W     10py       -0.0000   -0.0000    0.0006    0.0000
       31 W     11py        0.0000    0.0000   -0.0006   -0.0000
       32 W      2pz       -0.0000   -0.0004   -0.0000   -0.0000
       33 W      3pz       -0.0000   -0.0144   -0.0000   -0.0001
       34 W      4pz        0.0000    0.0020    0.0000    0.0000
       35 W      5pz       -0.0000   -0.0006   -0.0000   -0.0000
       36 W      6pz        0.0000    0.0002    0.0000    0.0000
       37 W      7pz       -0.0000   -0.0007   -0.0000   -0.0000
       38 W      8pz        0.0000    0.0007    0.0000    0.0000
       39 W      9pz       -0.0000   -0.0007   -0.0000   -0.0000
       40 W     10pz       -0.0000    0.0006    0.0000    0.0000
       41 W     11pz       -0.0000   -0.0006   -0.0000   -0.0000
       42 W      3d2-      -0.0000   -0.0000    0.9916    0.0000
       43 W      4d2-       0.0000    0.0000   -0.0959   -0.0000
       44 W      5d2-      -0.0000   -0.0000    0.0186    0.0000
       45 W      6d2-       0.0000    0.0000   -0.0254   -0.0000
       46 W      7d2-      -0.0000   -0.0000    0.0329    0.0000
       47 W      8d2-       0.0000    0.0000   -0.0372   -0.0000
       48 W      9d2-      -0.0000   -0.0000    0.0370    0.0000
       49 W     10d2-       0.0000    0.0000   -0.0397   -0.0000
       50 W     11d2-      -0.0000   -0.0000    0.0299    0.0000
       51 W      3d1-       0.0000   -0.0000    0.0094   -0.0000
       52 W      4d1-      -0.0000    0.0000   -0.0009    0.0000
       53 W      5d1-       0.0000   -0.0000    0.0002   -0.0000
       54 W      6d1-      -0.0000    0.0000   -0.0002    0.0000
       55 W      7d1-       0.0000   -0.0000    0.0003   -0.0000
       56 W      8d1-      -0.0000    0.0000   -0.0004    0.0000
       57 W      9d1-       0.0000   -0.0000    0.0003   -0.0000
       58 W     10d1-      -0.0000    0.0000   -0.0004    0.0000
       59 W     11d1-       0.0000   -0.0000    0.0003   -0.0000
       60 W      3d0        0.8588    0.0044    0.0000   -0.4958
       61 W      4d0       -0.0830   -0.0004   -0.0000    0.0480
       62 W      5d0        0.0161    0.0001    0.0000   -0.0093
       63 W      6d0       -0.0220   -0.0001   -0.0000    0.0127
       64 W      7d0        0.0284    0.0001    0.0000   -0.0164
       65 W      8d0       -0.0322   -0.0002   -0.0000    0.0186
       66 W      9d0        0.0320    0.0002    0.0000   -0.0185
       67 W     10d0       -0.0343   -0.0002   -0.0000    0.0199
       68 W     11d0        0.0259    0.0001    0.0000   -0.0150
       69 W      3d1+      -0.0004    0.9916    0.0000    0.0081
       70 W      4d1+       0.0000   -0.0959   -0.0000   -0.0008
       71 W      5d1+      -0.0000    0.0186    0.0000    0.0002
       72 W      6d1+       0.0000   -0.0254   -0.0000   -0.0002
       73 W      7d1+      -0.0000    0.0329    0.0000    0.0003
       74 W      8d1+       0.0000   -0.0372   -0.0000   -0.0003
       75 W      9d1+      -0.0000    0.0370    0.0000    0.0003
       76 W     10d1+       0.0000   -0.0397   -0.0000   -0.0003
       77 W     11d1+      -0.0000    0.0299    0.0000    0.0002
       78 W      3d2+       0.4959   -0.0068   -0.0000    0.8587
       79 W      4d2+      -0.0479    0.0007    0.0000   -0.0831
       80 W      5d2+       0.0093   -0.0001   -0.0000    0.0161
       81 W      6d2+      -0.0127    0.0002    0.0000   -0.0220
       82 W      7d2+       0.0164   -0.0002   -0.0000    0.0285
       83 W      8d2+      -0.0186    0.0003    0.0000   -0.0322
       84 W      9d2+       0.0185   -0.0003   -0.0000    0.0321
       85 W     10d2+      -0.0198    0.0003    0.0000   -0.0344
       86 W     11d2+       0.0150   -0.0002   -0.0000    0.0259
       87 W      4f3-      -0.0000   -0.0000    0.0016    0.0000
       88 W      5f3-       0.0000    0.0000   -0.0011   -0.0000
       89 W      6f3-      -0.0000   -0.0000    0.0011    0.0000
       90 W      7f3-       0.0000    0.0000   -0.0010   -0.0000
       91 W      8f3-      -0.0000   -0.0000    0.0008    0.0000
       92 W      9f3-       0.0000    0.0000   -0.0006   -0.0000
       93 W     10f3-      -0.0000   -0.0000    0.0005    0.0000
       94 W     11f3-       0.0000    0.0000   -0.0003   -0.0000
       95 W      4f2-       0.0000   -0.0000    0.0000   -0.0000
       96 W      5f2-      -0.0000    0.0000   -0.0000    0.0000
       97 W      6f2-       0.0000   -0.0000    0.0000   -0.0000
       98 W      7f2-      -0.0000    0.0000   -0.0000    0.0000
       99 W      8f2-       0.0000   -0.0000    0.0000   -0.0000
      100 W      9f2-      -0.0000    0.0000   -0.0000    0.0000
      101 W     10f2-       0.0000   -0.0000    0.0000   -0.0000
      102 W     11f2-      -0.0000    0.0000   -0.0000    0.0000
      103 W      4f1-       0.0000    0.0000   -0.0004   -0.0000
      104 W      5f1-      -0.0000   -0.0000    0.0003    0.0000
      105 W      6f1-       0.0000    0.0000   -0.0003   -0.0000
      106 W      7f1-      -0.0000   -0.0000    0.0002    0.0000
      107 W      8f1-       0.0000    0.0000   -0.0002   -0.0000
      108 W      9f1-      -0.0000   -0.0000    0.0002    0.0000
      109 W     10f1-       0.0000    0.0000   -0.0001   -0.0000
      110 W     11f1-      -0.0000   -0.0000    0.0001    0.0000
      111 W      4f0        0.0000   -0.0010   -0.0000   -0.0000
      112 W      5f0       -0.0000    0.0007    0.0000    0.0000
      113 W      6f0        0.0000   -0.0007   -0.0000   -0.0000
      114 W      7f0       -0.0000    0.0006    0.0000    0.0000
      115 W      8f0        0.0000   -0.0005   -0.0000   -0.0000
      116 W      9f0       -0.0000    0.0004    0.0000    0.0000
      117 W     10f0        0.0000   -0.0003   -0.0000   -0.0000
      118 W     11f0       -0.0000    0.0002    0.0000    0.0000
      119 W      4f1+       0.0010    0.0000    0.0000   -0.0011
      120 W      5f1+      -0.0007   -0.0000   -0.0000    0.0008
      121 W      6f1+       0.0007    0.0000    0.0000   -0.0007
      122 W      7f1+      -0.0006   -0.0000   -0.0000    0.0006
      123 W      8f1+       0.0005    0.0000    0.0000   -0.0006
      124 W      9f1+      -0.0004   -0.0000   -0.0000    0.0004
      125 W     10f1+       0.0003    0.0000    0.0000   -0.0003
      126 W     11f1+      -0.0002   -0.0000   -0.0000    0.0002
      127 W      4f2+       0.0000    0.0013    0.0000    0.0000
      128 W      5f2+      -0.0000   -0.0009   -0.0000   -0.0000
      129 W      6f2+       0.0000    0.0009    0.0000    0.0000
      130 W      7f2+      -0.0000   -0.0008   -0.0000   -0.0000
      131 W      8f2+       0.0000    0.0007    0.0000    0.0000
      132 W      9f2+      -0.0000   -0.0005   -0.0000   -0.0000
      133 W     10f2+      -0.0000    0.0004    0.0000    0.0000
      134 W     11f2+      -0.0000   -0.0002   -0.0000   -0.0000
      135 W      4f3+       0.0008   -0.0000   -0.0000    0.0014
      136 W      5f3+      -0.0006    0.0000    0.0000   -0.0010
      137 W      6f3+       0.0005   -0.0000   -0.0000    0.0009
      138 W      7f3+      -0.0005    0.0000    0.0000   -0.0008
      139 W      8f3+       0.0004   -0.0000   -0.0000    0.0007
      140 W      9f3+      -0.0003    0.0000    0.0000   -0.0005
      141 W     10f3+       0.0002   -0.0000   -0.0000    0.0004
      142 W     11f3+      -0.0001    0.0000    0.0000   -0.0003
      143 W      5g4-       0.0000    0.0000   -0.0000   -0.0000
      144 W      6g4-      -0.0000   -0.0000    0.0000    0.0000
      145 W      7g4-       0.0000    0.0000   -0.0000   -0.0000
      146 W      8g4-      -0.0000   -0.0000    0.0000    0.0000
      147 W      5g3-      -0.0000    0.0000   -0.0000    0.0000
      148 W      6g3-       0.0000   -0.0000    0.0000   -0.0000
      149 W      7g3-      -0.0000    0.0000    0.0000    0.0000
      150 W      8g3-       0.0000    0.0000   -0.0000   -0.0000
      151 W      5g2-      -0.0000   -0.0000    0.0000    0.0000
      152 W      6g2-       0.0000    0.0000   -0.0000   -0.0000
      153 W      7g2-      -0.0000   -0.0000    0.0000    0.0000
      154 W      8g2-       0.0000    0.0000   -0.0000   -0.0000
      155 W      5g1-       0.0000   -0.0000    0.0000   -0.0000
      156 W      6g1-      -0.0000    0.0000   -0.0000    0.0000
      157 W      7g1-       0.0000    0.0000   -0.0000   -0.0000
      158 W      8g1-      -0.0000   -0.0000    0.0000    0.0000
      159 W      5g0        0.0000    0.0000   -0.0000   -0.0000
      160 W      6g0       -0.0000    0.0000    0.0000    0.0000
      161 W      7g0        0.0000    0.0000    0.0000   -0.0000
      162 W      8g0       -0.0000   -0.0000   -0.0000    0.0000
      163 W      5g1+       0.0000    0.0000    0.0000    0.0000
      164 W      6g1+       0.0000   -0.0000   -0.0000   -0.0000
      165 W      7g1+      -0.0000    0.0000    0.0000    0.0000
      166 W      8g1+      -0.0000   -0.0000   -0.0000    0.0000
      167 W      5g2+      -0.0000    0.0000    0.0000    0.0000
      168 W      6g2+       0.0000   -0.0000   -0.0000   -0.0000
      169 W      7g2+      -0.0000   -0.0000   -0.0000    0.0000
      170 W      8g2+       0.0000    0.0000    0.0000   -0.0000
      171 W      5g3+      -0.0000   -0.0000   -0.0000   -0.0000
      172 W      6g3+       0.0000    0.0000    0.0000   -0.0000
      173 W      7g3+      -0.0000   -0.0000   -0.0000   -0.0000
      174 W      8g3+       0.0000    0.0000    0.0000    0.0000
      175 W      5g4+      -0.0000    0.0000   -0.0000   -0.0000
      176 W      6g4+       0.0000   -0.0000    0.0000    0.0000
      177 W      7g4+      -0.0000   -0.0000   -0.0000   -0.0000
      178 W      8g4+       0.0000    0.0000    0.0000    0.0000
      179 W      6h5-       0.0000   -0.0000    0.0000   -0.0000
      180 W      7h5-      -0.0000    0.0000   -0.0000    0.0000
      181 W      6h4-       0.0000   -0.0000    0.0000    0.0000
      182 W      7h4-      -0.0000   -0.0000    0.0000   -0.0000
      183 W      6h3-      -0.0000    0.0000   -0.0000   -0.0000
      184 W      7h3-       0.0000   -0.0000    0.0000    0.0000
      185 W      6h2-      -0.0000    0.0000   -0.0000    0.0000
      186 W      7h2-       0.0000    0.0000   -0.0000   -0.0000
      187 W      6h1-       0.0000   -0.0000    0.0000   -0.0000
      188 W      7h1-       0.0000    0.0000   -0.0000    0.0000
      189 W      6h0       -0.0000    0.0000    0.0000    0.0000
      190 W      7h0        0.0000   -0.0000   -0.0000    0.0000
      191 W      6h1+      -0.0000    0.0000    0.0000    0.0000
      192 W      7h1+       0.0000    0.0000    0.0000   -0.0000
      193 W      6h2+       0.0000   -0.0000   -0.0000   -0.0000
      194 W      7h2+       0.0000    0.0000    0.0000   -0.0000
      195 W      6h3+       0.0000   -0.0000   -0.0000   -0.0000
      196 W      7h3+      -0.0000   -0.0000   -0.0000    0.0000
      197 W      6h4+      -0.0000    0.0000    0.0000   -0.0000
      198 W      7h4+       0.0000   -0.0000   -0.0000   -0.0000
      199 W      6h5+       0.0000   -0.0000   -0.0000    0.0000
      200 W      7h5+      -0.0000   -0.0000   -0.0000   -0.0000
--


++    Molecular charges:
      ------------------

      Mulliken charges per centre and basis function type
      ---------------------------------------------------

                W     
      1s       2.0000
      2s       2.0000
      2px      2.0000
      2pz      2.0000
      2py      2.0000
      3s       1.9811
      3px      1.9724
      3pz      1.9726
      3py      1.9726
      4s       0.0128
      3d2+     0.0004
      3d1+     0.0004
      3d0      0.0001
      3d1-     0.0000
      3d2-     0.0004
      4px      0.0167
      4pz      0.0167
      4py      0.0167
      5s       0.0011
      4d2+     0.0000
      4d1+     0.0000
      4d0      0.0000
      4d1-     0.0000
      4d2-     0.0000
      5px      0.0013
      5pz      0.0013
      5py      0.0013
      6s       0.0001
      4f3+     0.0000
      4f2+     0.0000
      4f1+     0.0000
      4f0      0.0000
      4f1-     0.0000
      4f2-     0.0000
      4f3-     0.0000
      5d2+     0.0000
      5d1+     0.0000
      5d0      0.0000
      5d1-     0.0000
      5d2-     0.0000
      6px      0.0002
      6pz      0.0002
      6py      0.0002
      7s       0.0001
      5f3+     0.0000
      5f2+     0.0000
      5f1+     0.0000
      5f0      0.0000
      5f1-     0.0000
      5f2-     0.0000
      5f3-     0.0000
      6d2+     0.0000
      6d1+     0.0000
      6d0      0.0000
      6d1-     0.0000
      6d2-     0.0000
      7px      0.0018
      7pz      0.0018
      7py      0.0018
      5g4+     0.0000
      5g3+     0.0000
      5g2+     0.0000
      5g1+     0.0000
      5g0      0.0000
      5g1-     0.0000
      5g2-     0.0000
      5g3-     0.0000
      5g4-     0.0000
      6f3+     0.0000
      6f2+     0.0000
      6f1+     0.0000
      6f0      0.0000
      6f1-     0.0000
      6f2-     0.0000
      6f3-     0.0000
      6g4+     0.0000
      6g3+     0.0000
      6g2+     0.0000
      6g1+     0.0000
      6g0      0.0000
      6g1-     0.0000
      6g2-     0.0000
      6g3-     0.0000
      6g4-     0.0000
      6h5+     0.0000
      6h4+     0.0000
      6h3+     0.0000
      6h2+     0.0000
      6h1+     0.0000
      6h0      0.0000
      6h1-     0.0000
      6h2-     0.0000
      6h3-     0.0000
      6h4-     0.0000
      6h5-     0.0000
      7d2+     0.0000
      7d1+     0.0000
      7d0      0.0000
      7d1-     0.0000
      7d2-     0.0000
      7f3+     0.0000
      7f2+     0.0000
      7f1+     0.0000
      7f0      0.0000
      7f1-     0.0000
      7f2-     0.0000
      7f3-     0.0000
      7g4+     0.0000
      7g3+     0.0000
      7g2+     0.0000
      7g1+     0.0000
      7g0      0.0000
      7g1-     0.0000
      7g2-     0.0000
      7g3-     0.0000
      7g4-     0.0000
      7h5+     0.0000
      7h4+     0.0000
      7h3+     0.0000
      7h2+     0.0000
      7h1+     0.0000
      7h0      0.0000
      7h1-     0.0000
      7h2-     0.0000
      7h3-     0.0000
      7h4-     0.0000
      7h5-     0.0000
      8s       0.0006
      8px      0.0018
      8pz      0.0018
      8py      0.0018
      8d2+     0.0000
      8d1+     0.0000
      8d0      0.0000
      8d1-     0.0000
      8d2-     0.0000
      8f3+     0.0000
      8f2+     0.0000
      8f1+     0.0000
      8f0      0.0000
      8f1-     0.0000
      8f2-     0.0000
      8f3-     0.0000
      8g4+     0.0000
      8g3+     0.0000
      8g2+     0.0000
      8g1+     0.0000
      8g0      0.0000
      8g1-     0.0000
      8g2-     0.0000
      8g3-     0.0000
      8g4-     0.0000
      9s       0.0010
      9px      0.0019
      9pz      0.0019
      9py      0.0019
      9d2+     0.0000
      9d1+     0.0000
      9d0      0.0000
      9d1-     0.0000
      9d2-     0.0000
      9f3+     0.0000
      9f2+     0.0000
      9f1+     0.0000
      9f0      0.0000
      9f1-     0.0000
      9f2-     0.0000
      9f3-     0.0000
     10s       0.0013
     10px      0.0016
     10pz      0.0016
     10py      0.0016
     10d2+     0.0000
     10d1+     0.0000
     10d0      0.0000
     10d1-     0.0000
     10d2-     0.0000
     10f3+     0.0000
     10f2+     0.0000
     10f1+     0.0000
     10f0      0.0000
     10f1-     0.0000
     10f2-     0.0000
     10f3-     0.0000
     11s       0.0020
     11px      0.0017
     11pz      0.0017
     11py      0.0017
     11d2+     0.0000
     11d1+     0.0000
     11d0      0.0000
     11d1-     0.0000
     11d2-     0.0000
     11f3+     0.0000
     11f2+     0.0000
     11f1+     0.0000
     11f0      0.0000
     11f1-     0.0000
     11f2-     0.0000
     11f3-     0.0000
      Total   18.0000

      N-E     56.0000

      Total electronic charge=   18.000000

      Total            charge=   56.000000
--

 Sorry, Molden does not know how to handle
 functions with angular momentum larger than g

++    Static properties:
      ------------------


      LoProp Charges per center


                   W     
      Nuclear     74.0000
      Electronic -18.0000

      Total       56.0000
--


++    Molecular properties:
      ---------------------

      Charge (e):
                      =   56.0000
      Dipole Moment (Debye):
      Origin of the operator (Ang)=    0.0000    0.0000    0.0000
                   X= -3.9502E-02               Y= -4.9654E-13               Z=  1.2459E+00           Total=  1.2465E+00
      Center of Charge (Ang)
                     X=   -0.00014686               Y=   -0.00000000               Z=    0.00463193
      Quadrupole Moment (Debye*Ang):
      Origin of the operator (Ang)=   -0.0000   -0.0000    0.0046
                  XX= -1.6453E-01              XY= -2.0116E-15              XZ=  4.6588E-07              YY= -1.6460E-01
                  YZ= -6.4342E-16              ZZ= -1.6460E-01
      In traceless form (Debye*Ang)
                  XX=  7.4761E-05              XY= -3.0174E-15              XZ=  6.9882E-07              YY= -3.7378E-05
                  YZ= -9.6513E-16              ZZ= -3.7383E-05
--

 Sorry, Molden does not know how to handle
 functions with angular momentum larger than g
 ###############################################################################
 ###############################################################################
 ###                                                                         ###
 ###                                                                         ###
 ###    WARNING: RunFile label nBas                                          ###
 ###    was used       62 times                                              ###
 ###                                                                         ###
 ###                                                                         ###
 ###############################################################################
 ###############################################################################
Note: The following floating-point exceptions are signalling: IEEE_UNDERFLOW_FLAG IEEE_DENORMAL
--- Stop Module: scf at Wed Mar 26 11:19:24 2025 /rc=_RC_ALL_IS_WELL_ ---
*** files: tungsten_so_cf.LprOrb tungsten_so_cf.ScfOrb xmldump
    saved to directory /home4/s4752295/Internship/Initial_simulations/Point_charge_model/1_electron/Madelung_charges_9_active_space/W
--- Module scf spent 8 seconds ---

*** symbolic link created: INPORB -> tungsten_so_cf.ScfOrb
--- Start Module: rasscf at Wed Mar 26 11:19:24 2025 ---

()()()()()()()()()()()()()()()()()()()()()()()()()()()()()()()()()()()()()()()()()()()()()()()()()()

                                              &RASSCF

                                   only a single process is used
                       available to each process: 4.1 GB of memory, 1 thread?
                                            pid: 3348652
()()()()()()()()()()()()()()()()()()()()()()()()()()()()()()()()()()()()()()()()()()()()()()()()()()


      Header of the ONEINT file:
      --------------------------
      
      Integrals generated by seward 4.2.0  , Wed Mar 26 11:18:57 2025


      OrdInt status: non-squared


      Cartesian coordinates in Angstrom:
      -----------------------------------------------------
      No.  Label        X            Y            Z        
      -----------------------------------------------------
       1   W         -0.00000000  -0.00000000   0.00463220
      -----------------------------------------------------
      Nuclear repulsion energy =-1354.04523943

++    Wave function specifications:
      -----------------------------

      Number of closed shell electrons          18
      Number of electrons in active shells       1
      Max number of holes in RAS1 space          0
      Max nr of electrons in RAS3 space          0
      Number of inactive orbitals                9
      Number of active orbitals                  9
      Number of secondary orbitals             182
      Spin quantum number                      0.5
      State symmetry                             1
--

++    Orbital specifications:
      -----------------------

      Symmetry species                           1
                                                 a
      Frozen orbitals                            0
      Inactive orbitals                          9
      Active orbitals                            9
      RAS1 orbitals                              0
      RAS2 orbitals                              9
      RAS3 orbitals                              0
      Secondary orbitals                       182
      Deleted orbitals                           0
      Number of basis functions                200
--

++    CI expansion specifications:
      ----------------------------

      Number of CSFs                             9
      Number of determinants                     9
      Number of root(s) required                 9
      Root chosen for geometry opt.              9
      CI roots used                              1     2     3     4     5     6     7     8     9
      weights                                0.111 0.111 0.111 0.111 0.111 0.111 0.111 0.111 0.111
      highest root included in the CI            9
      max. size of the explicit Hamiltonian      9
--

++    Optimization specifications:
      ----------------------------

      RASSCF algorithm: Conventional
      Maximum number of macro iterations       200
      Maximum number of SX iterations          100
      Threshold for RASSCF energy            0.100E-07
      Threshold for max MO rotation          0.100E+00
      Threshold for max BLB element          0.100E-03
      Level shift parameter                  0.500E+00
      Make Quasi-Newton update
--

[...]
    18            83.3283198121     2267.4790956374       18288452.2729         1.2


 Weights of the five most important spin-orbit-free states for each spin-orbit state.

 SO State  Total energy (au)           Spin-free states, spin, and weights
 -------------------------------------------------------------------------------------------------------
    1         0.000000       1 0.5  1.0000    9 0.5  0.0000    8 0.5  0.0000    7 0.5  0.0000    6 0.5  0.0000
    2         0.000000       1 0.5  1.0000    9 0.5  0.0000    8 0.5  0.0000    7 0.5  0.0000    6 0.5  0.0000
    3         0.000002       2 0.5  1.0000    9 0.5  0.0000    8 0.5  0.0000    7 0.5  0.0000    6 0.5  0.0000
    4         0.000002       2 0.5  1.0000    9 0.5  0.0000    8 0.5  0.0000    7 0.5  0.0000    6 0.5  0.0000
    5         0.014201       3 0.5  1.0000    9 0.5  0.0000    8 0.5  0.0000    7 0.5  0.0000    6 0.5  0.0000
    6         0.014201       3 0.5  1.0000    9 0.5  0.0000    8 0.5  0.0000    7 0.5  0.0000    6 0.5  0.0000
    7         0.014208       4 0.5  1.0000    9 0.5  0.0000    8 0.5  0.0000    7 0.5  0.0000    6 0.5  0.0000
    8         0.014208       4 0.5  1.0000    9 0.5  0.0000    8 0.5  0.0000    7 0.5  0.0000    6 0.5  0.0000
    9         0.019345       5 0.5  1.0000    9 0.5  0.0000    8 0.5  0.0000    7 0.5  0.0000    6 0.5  0.0000
   10         0.019345       5 0.5  1.0000    9 0.5  0.0000    8 0.5  0.0000    7 0.5  0.0000    6 0.5  0.0000
   11        77.022840       6 0.5  1.0000    9 0.5  0.0000    8 0.5  0.0000    7 0.5  0.0000    5 0.5  0.0000
   12        77.022840       6 0.5  1.0000    9 0.5  0.0000    8 0.5  0.0000    7 0.5  0.0000    5 0.5  0.0000
   13        83.172053       7 0.5  1.0000    9 0.5  0.0000    8 0.5  0.0000    6 0.5  0.0000    5 0.5  0.0000
   14        83.172053       7 0.5  1.0000    9 0.5  0.0000    8 0.5  0.0000    6 0.5  0.0000    5 0.5  0.0000
   15        83.172095       8 0.5  1.0000    9 0.5  0.0000    7 0.5  0.0000    6 0.5  0.0000    5 0.5  0.0000
   16        83.172095       8 0.5  1.0000    9 0.5  0.0000    7 0.5  0.0000    6 0.5  0.0000    5 0.5  0.0000
   17        83.328320       9 0.5  1.0000    8 0.5  0.0000    7 0.5  0.0000    6 0.5  0.0000    5 0.5  0.0000
   18        83.328320       9 0.5  1.0000    8 0.5  0.0000    7 0.5  0.0000    6 0.5  0.0000    5 0.5  0.0000
 -------------------------------------------------------------------------------------------------------


      ****************************************************************************************************
      *                                                                                                  *
      *                                    Special properties section                                    *
      *                                                                                                  *
      ****************************************************************************************************


++ Dipole transition strengths (SO states):
   ----------------------------------------
    for osc. strength at least    1.0000000000000001E-005

      From   To        Osc. strength     Einstein coefficients Ax, Ay, Az (sec-1)    Total A (sec-1)
     -----------------------------------------------------------------------------------------------
         1   13       1.32368319E-02  5.23946648E-07  2.94203797E+12  2.06475849E-01  2.94203797E+12
         1   15       1.32376741E-02  2.83922407E+08  2.06561166E-01  2.94194416E+12  2.94222808E+12
         2   14       1.32368319E-02  5.23946648E-07  2.94203797E+12  2.06475849E-01  2.94203797E+12
         2   16       1.32376741E-02  2.83922407E+08  2.06561166E-01  2.94194416E+12  2.94222808E+12
         3   13       1.32357014E-02  4.74595931E+04  2.06507393E-01  2.94178648E+12  2.94178653E+12
         3   15       1.32384541E-02  3.12506503E-05  2.94240126E+12  2.06505434E-01  2.94240126E+12
         4   14       1.32357014E-02  4.74595931E+04  2.06507393E-01  2.94178648E+12  2.94178653E+12
         4   16       1.32384541E-02  3.12506503E-05  2.94240126E+12  2.06505434E-01  2.94240126E+12
         5   11       1.32711291E-04  1.51161466E+06  4.83503600E-05  2.52854209E+10  2.52869325E+10
         5   13       1.34371220E-02  2.98552570E+12  5.69072299E-07  9.29067623E+06  2.98553499E+12
         5   17       1.30186193E-02  1.03986751E+08  5.55488623E-03  2.90332705E+12  2.90343104E+12
         6   12       1.32711291E-04  1.51161466E+06  4.83503600E-05  2.52854209E+10  2.52869325E+10
         6   14       1.34371220E-02  2.98552570E+12  5.69072299E-07  9.29067623E+06  2.98553499E+12
         6   18       1.30186193E-02  1.03986751E+08  5.55488623E-03  2.90332705E+12  2.90343104E+12
         7   11       1.32604733E-04  2.28054356E-09  2.52666243E+10  4.83848530E-05  2.52666243E+10
         7   15       1.34362801E-02  2.98511121E+12  1.19192070E-06  2.39188091E+08  2.98535040E+12
         7   17       1.30175592E-02  1.56854708E-07  2.90319414E+12  5.55497981E-03  2.90319414E+12
         8   12       1.32604733E-04  2.28054356E-09  2.52666243E+10  4.83848530E-05  2.52666243E+10
         8   16       1.34362801E-02  2.98511121E+12  1.19192070E-06  2.39188091E+08  2.98535040E+12
         8   18       1.30175592E-02  1.56854708E-07  2.90319414E+12  5.55497981E-03  2.90319414E+12
         9   11       1.84206597E-04  3.50928634E+10  3.09339254E-11  1.34319062E+06  3.50942066E+10
         9   13       4.36160755E-03  5.04675815E+07  1.92655263E-03  9.68916017E+11  9.68966485E+11
         9   15       4.35930929E-03  8.09294525E-08  9.68456870E+11  1.93371624E-03  9.68456870E+11
         9   17       1.77037650E-02  3.94772537E+12  2.72443104E-09  1.05951711E+08  3.94783132E+12
        10   12       1.84206597E-04  3.50928634E+10  3.09339254E-11  1.34319062E+06  3.50942066E+10
        10   14       4.36160755E-03  5.04675815E+07  1.92655263E-03  9.68916017E+11  9.68966485E+11
        10   16       4.35930929E-03  8.09294525E-08  9.68456870E+11  1.93371624E-03  9.68456870E+11
        10   18       1.77037650E-02  3.94772537E+12  2.72443104E-09  1.05951711E+08  3.94783132E+12
        11   13       1.76915395E-01  2.71750369E+06  4.28284407E-04  2.14935723E+11  2.14938440E+11
        11   15       1.76915276E-01  4.17635620E-09  2.14941182E+11  4.28292213E-04  2.14941182E+11
        11   17       1.74417074E-01  2.22807113E+11  8.80663067E-11  2.85980326E+06  2.22809973E+11
        12   14       1.76915395E-01  2.71750369E+06  4.28284407E-04  2.14935723E+11  2.14938440E+11
        12   16       1.76915276E-01  4.17635620E-09  2.14941182E+11  4.28292213E-04  2.14941182E+11
        12   18       1.74417074E-01  2.22807113E+11  8.80663067E-11  2.85980326E+06  2.22809973E+11
        13   17       5.09725212E-05  1.19093571E+00  7.97572584E-11  3.99911892E+04  3.99923801E+04
        14   18       5.09725212E-05  1.19093571E+00  7.97572584E-11  3.99911892E+04  3.99923801E+04
        15   17       5.10014368E-05  1.83612335E-15  3.99939263E+04  7.96247705E-11  3.99939263E+04
        16   18       5.10014368E-05  1.83612335E-15  3.99939263E+04  7.96247705E-11  3.99939263E+04
     -----------------------------------------------------------------------------------------------
--

++ Velocity transition strengths (SO states):
   ------------------------------------------
    for osc. strength at least    1.0000000000000001E-005

      From   To        Osc. strength     Einstein coefficients Ax, Ay, Az (sec-1)    Total A (sec-1)
     -----------------------------------------------------------------------------------------------
         1    3       3.11287533E-05  1.88968946E-21  6.24812967E-06  2.38141984E-20  6.24812967E-06
         1    5       1.45549596E-04  2.42698145E-18  9.43060920E+02  6.66494920E-11  9.43060920E+02
         1    7       1.45458956E-04  3.71889112E-03  6.67578184E-11  9.43389328E+02  9.43393047E+02
         1   13       1.30703794E-02  5.18243614E-07  2.90505209E+12  2.03882501E-01  2.90505209E+12
         1   15       1.30712115E-02  2.80374561E+08  2.03967517E-01  2.90495954E+12  2.90523991E+12
         2    4       3.11287533E-05  1.88968946E-21  6.24812967E-06  2.38141984E-20  6.24812967E-06
         2    6       1.45549596E-04  2.42698145E-18  9.43060920E+02  6.66494920E-11  9.43060920E+02
         2    8       1.45458956E-04  3.71889112E-03  6.67578184E-11  9.43389328E+02  9.43393047E+02
         2   14       1.30703794E-02  5.18243614E-07  2.90505209E+12  2.03882501E-01  2.90505209E+12
         2   16       1.30712115E-02  2.80374561E+08  2.03967517E-01  2.90495954E+12  2.90523991E+12
         3    5       1.45513676E-04  2.80257567E-03  6.66797052E-11  9.42493522E+02  9.42496324E+02
         3    7       1.45522503E-04  4.99177201E-16  9.43473143E+02  6.67174028E-11  9.43473143E+02
         3   13       1.30692628E-02  4.67071854E+04  2.03913896E-01  2.90480370E+12  2.90480375E+12
         3   15       1.30719820E-02  3.08648635E-05  2.90541100E+12  2.03912191E-01  2.90541100E+12
         4    6       1.45513676E-04  2.80257567E-03  6.66797052E-11  9.42493522E+02  9.42496324E+02
         4    8       1.45522503E-04  4.99177201E-16  9.43473143E+02  6.67174028E-11  9.43473143E+02
         4   14       1.30692628E-02  4.67071854E+04  2.03913896E-01  2.90480370E+12  2.90480375E+12
         4   16       1.30719820E-02  3.08648635E-05  2.90541100E+12  2.03912191E-01  2.90541100E+12
         5    9       1.19813996E-03  3.42171230E-03  1.95695549E-12  1.01882438E+03  1.01882780E+03
         5   11       1.34514877E-04  1.53162368E+06  4.89998798E-05  2.56291470E+10  2.56306787E+10
         5   13       1.32702085E-02  2.94845029E+12  5.62132536E-07  9.17940659E+06  2.94845947E+12
         5   17       1.28506582E-02  1.02643874E+08  5.48313035E-03  2.86587944E+12  2.86598209E+12
         6   10       1.19813996E-03  3.42171230E-03  1.95695549E-12  1.01882438E+03  1.01882780E+03
         6   12       1.34514877E-04  1.53162368E+06  4.89998798E-05  2.56291470E+10  2.56306787E+10
         6   14       1.32702085E-02  2.94845029E+12  5.62132536E-07  9.17940659E+06  2.94845947E+12
         6   18       1.28506582E-02  1.02643874E+08  5.48313035E-03  2.86587944E+12  2.86598209E+12
         7    9       1.19945705E-03  6.42694488E-18  1.01720377E+03  1.95769524E-12  1.01720377E+03
         7   11       1.34408208E-04  2.28390926E-09  2.56103491E+10  4.90348293E-05  2.56103491E+10
         7   15       1.32693773E-02  2.94804104E+12  1.17548620E-06  2.36192901E+08  2.94827723E+12
         7   17       1.28496115E-02  1.55062950E-07  2.86574816E+12  5.48322307E-03  2.86574816E+12
         8   10       1.19945705E-03  6.42694488E-18  1.01720377E+03  1.95769524E-12  1.01720377E+03
         8   12       1.34408208E-04  2.28390926E-09  2.56103491E+10  4.90348293E-05  2.56103491E+10
         8   16       1.32693773E-02  2.94804104E+12  1.17548620E-06  2.36192901E+08  2.94827723E+12
         8   18       1.28496115E-02  1.55062950E-07  2.86574816E+12  5.48322307E-03  2.86574816E+12
         9   11       1.86680241E-04  3.55642370E+10  3.38020699E-11  1.36074565E+06  3.55655978E+10
         9   13       4.30489337E-03  4.98376484E+07  1.90143473E-03  9.56320458E+11  9.56370295E+11
         9   15       4.30262510E-03  7.95488253E-08  9.55867328E+11  1.90849727E-03  9.55867328E+11
         9   17       1.74819847E-02  3.89828463E+12  2.67811058E-09  1.04603414E+08  3.89838924E+12
        10   12       1.86680241E-04  3.55642370E+10  3.38020699E-11  1.36074565E+06  3.55655978E+10
        10   14       4.30489337E-03  4.98376484E+07  1.90143473E-03  9.56320458E+11  9.56370295E+11
        10   16       4.30262510E-03  7.95488253E-08  9.55867328E+11  1.90849727E-03  9.55867328E+11
        10   18       1.74819847E-02  3.89828463E+12  2.67811058E-09  1.04603414E+08  3.89838924E+12
        11   13       1.45856902E-01  2.23680908E+06  3.53100298E-04  1.77203167E+11  1.77205404E+11
        11   15       1.45856796E-01  3.43387443E-09  1.77207654E+11  3.53096431E-04  1.77207654E+11
        11   17       1.43732052E-01  1.83609514E+11  7.21283381E-11  2.36064221E+06  1.83611875E+11
        12   14       1.45856902E-01  2.23680908E+06  3.53100298E-04  1.77203167E+11  1.77205404E+11
        12   16       1.45856796E-01  3.43387443E-09  1.77207654E+11  3.53096431E-04  1.77207654E+11
        12   18       1.43732052E-01  1.83609514E+11  7.21283381E-11  2.36064221E+06  1.83611875E+11
        13   15       1.71776285E-05  1.09749072E-19  9.40694929E-04  2.78471975E-18  9.40694929E-04
        13   17       1.92289229E-03  8.26287182E+00  3.00766734E-09  1.50867338E+06  1.50868164E+06
        14   16       1.71776285E-05  1.09749072E-19  9.40694929E-04  2.78471975E-18  9.40694929E-04
        14   18       1.92289229E-03  8.26287182E+00  3.00766734E-09  1.50867338E+06  1.50868164E+06
        15   17       1.92350059E-03  4.87134721E-14  1.50836159E+06  3.00672164E-09  1.50836159E+06
        16   18       1.92350059E-03  4.87134721E-14  1.50836159E+06  3.00672164E-09  1.50836159E+06
     -----------------------------------------------------------------------------------------------
--

++ Length and velocity gauge comparison (SO states):

 --------------------------------------------------
 A comparison between the dipole oscillator strengths in 
 length and velocity gauge will be performed

 All dipole oscillator differences above the tolerance of   0.10000000000000001       will be printed 

 Due to basis set deficiency these oscillator may be problematic 

 The tolerance is defined as ABS(1-O_l/O_v) 
 O_l : dipole oscillator strength in length gauge
 O_p : dipole oscillator strength in velocity gauge
 --------------------------------------------------

  Problematic transitions have been found

      From   To       Difference (%) Osc. st. (len.) Osc. st. (vel.)
     ---------------------------------------------------------------
         1    3      --------------- below threshold  3.11287533E-05
         1    5      --------------- below threshold  1.45549596E-04
         1    7      --------------- below threshold  1.45458956E-04
         2    4      --------------- below threshold  3.11287533E-05
         2    6      --------------- below threshold  1.45549596E-04
         2    8      --------------- below threshold  1.45458956E-04
         3    5      --------------- below threshold  1.45513676E-04
         3    7      --------------- below threshold  1.45522503E-04
         4    6      --------------- below threshold  1.45513676E-04
         4    8      --------------- below threshold  1.45522503E-04
         5    9      --------------- below threshold  1.19813996E-03
         6   10      --------------- below threshold  1.19813996E-03
         7    9      --------------- below threshold  1.19945705E-03
         8   10      --------------- below threshold  1.19945705E-03
        11   13            21.293811  1.76915395E-01  1.45856902E-01
        11   15            21.293818  1.76915276E-01  1.45856796E-01
        11   17            21.348767  1.74417074E-01  1.43732052E-01
        12   14            21.293811  1.76915395E-01  1.45856902E-01
        12   16            21.293818  1.76915276E-01  1.45856796E-01
        12   18            21.348767  1.74417074E-01  1.43732052E-01
        13   15      --------------- below threshold  1.71776285E-05
        13   17            97.349174  5.09725212E-05  1.92289229E-03
        14   16      --------------- below threshold  1.71776285E-05
        14   18            97.349174  5.09725212E-05  1.92289229E-03
        15   17            97.348509  5.10014368E-05  1.92350059E-03
        16   18            97.348509  5.10014368E-05  1.92350059E-03
     ---------------------------------------------------------------

 Number of problematic transitions =                    26

--

 Electric-dipole - electric-octupole not included
++ Total transition strengths for the second-order expansion of the wave vector (SO states):
   -----------------------------------------------------------------------------------------
    for osc. strength at least    1.0000000000000001E-005

      From   To        Osc. strength
     -------------------------------
         1   11       5.70987765E-05
         2   12       5.70987765E-05
         3   11       5.70985855E-05
         4   12       5.70985855E-05
         5   11       5.73005877E-05
         6   12       5.73005877E-05
         7   11       5.72999294E-05
         8   12       5.72999294E-05
         9   11       5.73534482E-05
        10   12       5.73534482E-05
     -------------------------------
--

++ I/O STATISTICS
 
  I. General I/O information
  - - - - - - - - - - - - - - - - - - - - - - - - - - - - - - - - - - - - - - - - - - -
  Unit  Name          Flsize      Write/Read            MBytes           Write/Read
                      (MBytes)       Calls              In/Out           Time, sec.
  - - - - - - - - - - - - - - - - - - - - - - - - - - - - - - - - - - - - - - - - - - -
   1  SCRATCH           0.00 .       9/      45 .      0.0/      0.0 .       0/       0
   2  ANNI              0.00 .       0/       0 .      0.0/      0.0 .       0/       0
   3  RUNFILE          15.31 .     322/   10733 .      2.3/     77.8 .       0/       0
   4  ONEINT            6.58 .       0/   28767 .      0.0/   3777.9 .       0/       0
   5  JOBIPH            7.70 .       0/      92 .      0.0/      0.9 .       0/       0
   6  ORDINT          771.03 .       1/    6169 .      0.0/   1542.0 .       0/       0
  - - - - - - - - - - - - - - - - - - - - - - - - - - - - - - - - - - - - - - - - - - -
   *  TOTAL           800.62 .     332/   45806 .      2.3/   5398.7 .       0/       0
  - - - - - - - - - - - - - - - - - - - - - - - - - - - - - - - - - - - - - - - - - - -
 
  II. I/O Access Patterns
  - - - - - - - - - - - - - - - - - - - -
  Unit  Name               % of random
                         Write/Read calls
  - - - - - - - - - - - - - - - - - - - -
   1  SCRATCH             88.9/ 100.0
   2  ANNI                 0.0/   0.0
   3  RUNFILE             28.6/  10.8
   4  ONEINT               0.0/  13.4
   5  JOBIPH               0.0/  76.1
   6  ORDINT             100.0/   0.0
  - - - - - - - - - - - - - - - - - - - -
--
--- Stop Module: rassi at Wed Mar 26 11:20:17 2025 /rc=_RC_ALL_IS_WELL_ ---
*** files: xmldump
    saved to directory /home4/s4752295/Internship/Initial_simulations/Point_charge_model/1_electron/Madelung_charges_9_active_space/W
--- Module rassi spent 3 seconds ---

.##################.
.# Happy landing! #.
.##################.

    Timing: Wall=80.44 User=68.36 System=11.03

###############################################################################
Hbrk Cluster
Job 15905524 for user s4752295
Finished at: Wed Mar 26 11:20:21 CET 2025

Job details:
============

Job ID                         : 15905524
Name                           : W_no_SO
User                           : s4752295
Partition                      : regularmedium
Nodes                          : node92
Number of Nodes                : 1
Cores                          : 1
Number of Tasks                : 1
State                          : COMPLETED  
Submit                         : 2025-03-26T11:18:50
Start                          : 2025-03-26T11:18:53
End                            : 2025-03-26T11:20:17
Reserved walltime              : 15:00:00
Used walltime                  : 00:01:24
Used CPU time                  : 00:01:20 (Efficiency: 95.82%)
% User (Computation)           : 86.01%
% System (I/O)                 : 13.99%
Total memory reserved          : 25000M
Maximum memory used            : 3.06G

Acknowledgements:
=================

Please see this page for information about acknowledging Hbrk in your publications:

https://wiki.hpc.rug.nl/habrok/introduction/scientific_output

################################################################################
