   This run of MOLCAS is using the pymolcas driver

                             OPE
                             OPE          NMOL  CASOP  ENMOLC A   SO
                 OPE        NMOLC        AS  OP EN  MO LC     AS  OP
                OPENM       OL CA        SO  PE NM  OL CA     SOP EN
                OP EN      MO   LC       AS  OP ENMOL  CASO   PENMOL
                OP  EN     MO   LC       AS  OP EN     MO     LC ASO
               OP   E  NMOL  C  AS       OP  EN MO     LC     AS  OP
               OP  E   NMO   LC AS        OPEN  MO     LCASOP EN   M
               O  PEN   MO  LCA  SO
            OPE   NMO   L   CAS    OP
        OPENMOL  CASOP     ENMOL   CASOPE
     OPENMOLCA   SOPENMOLCASOPEN   MOLCASOPE
    OPENMOLCAS   OP           EN   MOL    CAS
    OPENMOLCAS       OP  ENM        O     LCA
    OPENMOLCAS    OPEN  MOLCASO     P  E  NMO
    OPENMOLCAS     OP               E  N  MOL
    OPENMOLCA   SO           PENM   O  L  CAS    OPEN    MO    LCAS
    OPENMOLCA   SOP           ENM   O  L  CAS   OP  EN  MOLC  AS   O
    OPENMOLCA   SOPE           NM      O  LCA   S      OP  EN MO
    OPENMOLC                AS         O  PEN   M      OL  CA  SOPE
    OPENMO        LCASOPE  NMOL        C  ASO   P      ENMOLC     AS
    OPE     NMO      LCA  SO     P     E   NM   OL  CA SO  PE N   MO
          OPENMOLCA            SOPE   NMO        LCAS  O    P  ENMO
     OPENMOLCASOPENMOLCASOPENMOLCASOPENMOLCA
        OPENMOLCASOPENMOLCASOPENMOLCASOPE
            OPENMOLCASOPENMOLCASOPENM
               OPENMOLCASOPENMOLCA        version: o91e1abe7de707b ?
                   OPENMOLCASO
                       OPE                tag:

 OpenMolcas is free software; you can redistribute it and/or modify it
 under the terms of the GNU Lesser General Public License version 2.1.
 OpenMolcas is distributed in the hope that it will be useful, but it
 is provided "as is" and without any express or implied warranties.
 For more details see the full text of the license in the file
 LICENSE or in <http://www.gnu.org/licenses/>.

                 Copyright (C) The OpenMolcas Authors
           For the author list and the recommended citation,
                   consult the file CONTRIBUTORS.md

           *************************************************
           * pymolcas version py2.10                       *
           *   build 3068ae8b88c9345ec6cfef6fef7f1169      *
           *   (after the EMIL interpreter by V. Veryazov) *
           *************************************************

configuration info
------------------
Host name: login1 (Linux)
C Compiler ID: GNU
C flags: -std=gnu99
Fortran Compiler ID: GNU
Fortran flags: -fno-aggressive-loop-optimizations -cpp -fdefault-integer-8 -fmax-stack-var-size=1048576
Definitions: _MOLCAS_;_I8_;_LINUX_;_MKL_
Parallel: OFF (GA=OFF)


   ----------------------------------------------------------------------------------------------------------------------------------
  |
  |           Project: tungsten_so_cf
  |    Submitted from: /home4/s4752295/Internship/Initial_simulations/Point_charge_model/1_electron/Madelung_charges_9_active_space/W
  |      Scratch area: /tmp/tungsten_so_cf
  |   Save outputs to: /home4/s4752295/Internship/Initial_simulations/Point_charge_model/1_electron/Madelung_charges_9_active_space/W
  |            Molcas: /home4/s4752295/Internship/Molcas/recomp_try/OpenMolcas-master/build
  |
  | Scratch area is empty
  |
  |    MOLCAS_DRIVER = /home4/s4752295/Internship/Molcas/bin/pymolcas
  |    MOLCAS_NPROCS = 1
  |    MOLCAS_SOURCE = /home4/s4752295/Internship/Molcas/recomp_try/OpenMolcas-master
  | MOLCAS_STRUCTURE = 0
  |
   ----------------------------------------------------------------------------------------------------------------------------------

++ ---------   Input file   ---------

&SEWARD
AMFi

CLIG
$R

Basis Set
W.ANO-rcc.Roos.24s21p15d11f4g2h.11s10p9d8f4g2h.
Spherical d
W            -1.0658140267135469e-14    -3.5527134223784897e-15 0.008753588724385739
End of Basis

Xfield

414
-6.00330162,-2.31,1.3336785     -0.625931
-6.00330162,-0.0,-2.6673584999999997    -0.625931
-6.00330162,2.31,1.3336785      -0.625931
-5.993019105,0.0,0.0    1.892092
3.9887695350000003,-2.31,-1.3336785     2.515516
3.9887695350000003,0.0,2.6673584999999997       2.515516
3.9887695350000003,2.31,-1.3336785      2.515516
5.34448242,-4.62,0.0    0.004632
5.34448242,-2.31,-4.001037      0.004632
5.34448242,-2.31,4.001037       0.004632
5.34448242,2.31,-4.001037       0.004632
5.34448242,2.31,4.001037        0.004632
5.34448242,4.62,0.0     0.004632
6.193725585000001,-2.31,1.3336785       -2.519484
6.193725585000001,-0.0,-2.6673584999999997      -2.519484
6.193725585000001,2.31,1.3336785        -2.519484
-4.399658205,-0.0,-0.0  -3.142907
-7.462646490000001,-4.62,-2.6673584999999997    -0.625931
-7.462646490000001,0.0,5.3347155        -0.625931
-7.462646490000001,4.62,-2.6673584999999997     -0.625931
-9.9140625,-4.62,0.0    1.892092
-9.9140625,-2.31,-4.001037      1.892092
-9.9140625,-2.31,4.001037       1.892092
-9.9140625,2.31,-4.001037       1.892092
-9.9140625,2.31,4.001037        1.892092
-9.9140625,4.62,0.0     1.892092
37.7578125,-4.62,2.6673584999999997     2.515516
37.7578125,-0.0,-5.3347155      2.515516
37.7578125,4.62,2.6673584999999997      2.515516
5.45800782,-4.62,-2.6673584999999997    -2.519484
5.45800782,0.0,5.3347155        -2.519484
5.45800782,4.62,-2.6673584999999997     -2.519484
-4.84863282,-4.62,-0.0  -3.142907
-4.84863282,-2.31,-4.001037     -3.142907
-4.84863282,-2.31,4.001037      -3.142907
-4.84863282,2.31,-4.001037      -3.142907
-4.84863282,2.31,4.001037       -3.142907
-4.84863282,4.62,-0.0   -3.142907
-14.28515625,-4.62,5.3347155    -0.625931
-14.28515625,4.62,5.3347155     -0.625931
-14.28515625,-6.93,1.3336785    -0.625931
-14.28515625,6.93,1.3336785     -0.625931
-14.28515625,-2.31,-6.668395500000001   -0.625931
-14.28515625,2.31,-6.668395500000001    -0.625931
9.01171875,-2.31,-1.3336785     4.409069
9.01171875,2.31,-1.3336785      4.409069
9.01171875,0.0,2.6673584999999997       4.409069
-262.875,-0.0,-0.0      -5.030367
-262.875,0.0,0.0        5.039632
20.27636718,-4.62,-5.3347155    2.515516
20.27636718,4.62,-5.3347155     2.515516
20.27636718,-6.93,-1.3336785    2.515516
20.27636718,6.93,-1.3336785     2.515516
20.27636718,-2.31,6.668395500000001     2.515516
20.27636718,2.31,6.668395500000001      2.515516
28.55859375,-6.93,-4.001037     0.004632
28.55859375,-6.93,4.001037      0.004632
28.55859375,6.93,-4.001037      0.004632
28.55859375,6.93,4.001037       0.004632
28.55859375,-0.0,-8.002074      0.004632
28.55859375,0.0,8.002074        0.004632
72.1171875,-4.62,5.3347155      -2.519484
72.1171875,4.62,5.3347155       -2.519484
72.1171875,-6.93,1.3336785      -2.519484
72.1171875,6.93,1.3336785       -2.519484
72.1171875,-2.31,-6.668395500000001     -2.519484
72.1171875,2.31,-6.668395500000001      -2.519484
-218.8125,-6.93,-4.001037       1.892092
-218.8125,-6.93,4.001037        1.892092
-218.8125,6.93,-4.001037        1.892092
-218.8125,6.93,4.001037 1.892092
-218.8125,-0.0,-8.002074        1.892092
-218.8125,0.0,8.002074  1.892092
-176.625,-4.62,2.6673584999999997       4.409069
-176.625,-0.0,-5.3347155        4.409069
-176.625,4.62,2.6673584999999997        4.409069
-133.5,-4.62,-0.0       -5.030367
-133.5,-2.31,-4.001037  -5.030367
-133.5,-2.31,4.001037   -5.030367
-133.5,2.31,-4.001037   -5.030367
-133.5,-4.62,0.0        5.039632
-133.5,4.62,-0.0        -5.030367
-133.5,2.31,4.001037    -5.030367
-133.5,-2.31,-4.001037  5.039632
-133.5,-2.31,4.001037   5.039632
-133.5,2.31,-4.001037   5.039632
-133.5,4.62,0.0 5.039632
-133.5,2.31,4.001037    5.039632
-69.9375,-2.31,-1.3336785       -5.660931
-69.9375,0.0,2.6673584999999997 -5.660931
-69.9375,2.31,-1.3336785        -5.660931
1.32421875,-9.2399985,0.0       0.004632
1.32421875,-4.62,-8.002074      0.004632
1.32421875,-4.62,8.002074       0.004632
1.32421875,4.62,-8.002074       0.004632
1.32421875,9.2399985,0.0        0.004632
1.32421875,4.62,8.002074        0.004632
101.90625,-6.93,4.001037        -3.142907
101.90625,-6.93,-4.001037       -3.142907
101.90625,6.93,-4.001037        -3.142907
101.90625,6.93,4.001037 -3.142907
101.90625,-0.0,-8.002074        -3.142907
101.90625,0.0,8.002074  -3.142907
129.5625,-9.2399985,-2.6673584999999997 -0.625931
129.5625,-6.93,-6.668395500000001       -0.625931
129.5625,-2.31,9.3357525        -0.625931
129.5625,6.93,-6.668395500000001        -0.625931
129.5625,9.2399985,-2.6673584999999997  -0.625931
129.5625,2.31,9.3357525 -0.625931
1.79589843,-9.2399985,0.0       1.892092
1.79589843,-4.62,-8.002074      1.892092
1.79589843,-4.62,8.002074       1.892092
1.79589843,4.62,-8.002074       1.892092
1.79589843,9.2399985,0.0        1.892092
1.79589843,4.62,8.002074        1.892092
50.765625,-4.62,-5.3347155      4.409069
50.765625,4.62,-5.3347155       4.409069
50.765625,-6.93,-1.3336785      4.409069
50.765625,6.93,-1.3336785       4.409069
50.765625,-2.31,6.668395500000001       4.409069
50.765625,2.31,6.668395500000001        4.409069
243.609375,-4.62,2.6673584999999997     -5.660931
243.609375,-0.0,-5.3347155      -5.660931
243.609375,4.62,2.6673584999999997      -5.660931
0.515625,-9.2399985,2.6673584999999997  2.515516
0.515625,-2.31,-9.3357525       2.515516
0.515625,-6.93,6.668395500000001        2.515516
0.515625,2.31,-9.3357525        2.515516
0.515625,9.2399985,2.6673584999999997   2.515516
0.515625,6.93,6.668395500000001 2.515516
-141.28125,-9.2399985,-2.6673584999999997       -2.519484
-141.28125,-6.93,-6.668395500000001     -2.519484
-141.28125,-2.31,9.3357525      -2.519484
-141.28125,6.93,-6.668395500000001      -2.519484
-141.28125,2.31,9.3357525       -2.519484
-141.28125,9.2399985,-2.6673584999999997        -2.519484
-33.10546875,-9.2399985,-0.0    -3.142907
-33.10546875,-4.62,-8.002074    -3.142907
-33.10546875,-4.62,8.002074     -3.142907
-33.10546875,4.62,-8.002074     -3.142907
-33.10546875,4.62,8.002074      -3.142907
-33.10546875,9.2399985,-0.0     -3.142907
909.75,0.0,0.0  6.927092
484.875,-9.2399985,5.3347155    -0.625931
484.875,9.2399985,5.3347155     -0.625931
484.875,-0.0,-10.669432500000001        -0.625931
-8.1328125,-6.93,4.001037       -5.030367
-8.1328125,-6.93,-4.001037      -5.030367
-8.1328125,-6.93,4.001037       5.039632
-8.1328125,-6.93,-4.001037      5.039632
-8.1328125,6.93,-4.001037       -5.030367
-8.1328125,6.93,4.001037        -5.030367
-8.1328125,6.93,-4.001037       5.039632
-8.1328125,6.93,4.001037        5.039632
-8.1328125,-0.0,-8.002074       -5.030367
-8.1328125,0.0,8.002074 -5.030367
-8.1328125,-0.0,-8.002074       5.039632
-8.1328125,0.0,8.002074 5.039632
137.71875,-4.62,-5.3347155      -5.660931
137.71875,4.62,-5.3347155       -5.660931
137.71875,-6.93,-1.3336785      -5.660931
137.71875,6.93,-1.3336785       -5.660931
137.71875,-2.31,6.668395500000001       -5.660931
137.71875,2.31,6.668395500000001        -5.660931
450.75,-9.2399985,-5.3347155    2.515516
450.75,9.2399985,-5.3347155     2.515516
450.75,0.0,10.669432500000001   2.515516
-775.875,-9.2399985,5.3347155   -2.519484
-775.875,9.2399985,5.3347155    -2.519484
-775.875,-0.0,-10.669432500000001       -2.519484
80.34375,-4.62,0.0      6.927092
80.34375,-2.31,-4.001037        6.927092
80.34375,-2.31,4.001037 6.927092
80.34375,2.31,-4.001037 6.927092
80.34375,2.31,4.001037  6.927092
80.34375,4.62,0.0       6.927092
-82.875,-2.31,1.3336785 7.550516
-82.875,0.0,-2.6673584999999997 7.550516
-82.875,2.31,1.3336785  7.550516
23.296875,-2.31,-1.3336785      -7.554483
23.296875,2.31,-1.3336785       -7.554483
23.296875,-0.0,2.6673584999999997       -7.554483
-187.3125,-11.549998500000001,1.3336785 -0.625931
-187.3125,-6.93,9.3357525       -0.625931
-187.3125,-4.62,-10.669432500000001     -0.625931
-187.3125,4.62,-10.669432500000001      -0.625931
-187.3125,11.549998500000001,1.3336785  -0.625931
-187.3125,6.93,9.3357525        -0.625931
-101.15625,-9.2399985,2.6673584999999997        4.409069
-101.15625,-6.93,6.668395500000001      4.409069
-101.15625,-2.31,-9.3357525     4.409069
-101.15625,2.31,-9.3357525      4.409069
-101.15625,6.93,6.668395500000001       4.409069
-101.15625,9.2399985,2.6673584999999997 4.409069
73.734375,-9.2399985,-0.0       -5.030367
73.734375,-4.62,-8.002074       -5.030367
73.734375,-4.62,8.002074        -5.030367
73.734375,-9.2399985,0.0        5.039632
73.734375,-4.62,-8.002074       5.039632
73.734375,4.62,-8.002074        -5.030367
73.734375,4.62,8.002074 -5.030367
73.734375,9.2399985,-0.0        -5.030367
73.734375,-4.62,8.002074        5.039632
73.734375,4.62,-8.002074        5.039632
73.734375,9.2399985,0.0 5.039632
73.734375,4.62,8.002074 5.039632
271.125,-11.549998500000001,-1.3336785  2.515516
271.125,-6.93,-9.3357525        2.515516
271.125,-4.62,10.669432500000001        2.515516
271.125,6.93,-9.3357525 2.515516
271.125,11.549998500000001,-1.3336785   2.515516
271.125,4.62,10.669432500000001 2.515516
-35.015625,-11.549998500000001,-4.001037        0.004632
-35.015625,-11.549998500000001,4.001037 0.004632
-35.015625,-9.2399985,-8.002074 0.004632
-35.015625,-9.2399985,8.002074  0.004632
-35.015625,-2.31,-12.003111     0.004632
-35.015625,2.31,-12.003111      0.004632
-35.015625,-2.31,12.003111      0.004632
-35.015625,9.2399985,-8.002074  0.004632
-35.015625,2.31,12.003111       0.004632
-35.015625,11.549998500000001,-4.001037 0.004632
-35.015625,11.549998500000001,4.001037  0.004632
-35.015625,9.2399985,8.002074   0.004632
-214.6875,-11.549998500000001,1.3336785 -2.519484
-214.6875,-6.93,9.3357525       -2.519484
-214.6875,-4.62,-10.669432500000001     -2.519484
-214.6875,4.62,-10.669432500000001      -2.519484
-214.6875,11.549998500000001,1.3336785  -2.519484
-214.6875,6.93,9.3357525        -2.519484
4548.0,-0.0,-0.0        -8.177907
-174.0,-4.62,-2.6673584999999997        7.550516
-174.0,0.0,5.3347155    7.550516
-174.0,4.62,-2.6673584999999997 7.550516
-905.25,-4.62,2.6673584999999997        -7.554483
-905.25,-0.0,-5.3347155 -7.554483
-905.25,4.62,2.6673584999999997 -7.554483
73.359375,-11.549998500000001,4.001037  1.892092
73.359375,-11.549998500000001,-4.001037 1.892092
73.359375,-9.2399985,-8.002074  1.892092
73.359375,-9.2399985,8.002074   1.892092
73.359375,-2.31,-12.003111      1.892092
73.359375,2.31,-12.003111       1.892092
73.359375,-2.31,12.003111       1.892092
73.359375,9.2399985,-8.002074   1.892092
73.359375,2.31,12.003111        1.892092
73.359375,11.549998500000001,-4.001037  1.892092
73.359375,11.549998500000001,4.001037   1.892092
73.359375,9.2399985,8.002074    1.892092
-757.5,-9.2399985,-5.3347155    4.409069
-757.5,9.2399985,-5.3347155     4.409069
-757.5,0.0,10.669432500000001   4.409069
38.73046875,-9.2399985,2.6673584999999997       -5.660931
38.73046875,-2.31,-9.3357525    -5.660931
38.73046875,-6.93,6.668395500000001     -5.660931
38.73046875,2.31,-9.3357525     -5.660931
38.73046875,6.93,6.668395500000001      -5.660931
38.73046875,9.2399985,2.6673584999999997        -5.660931
-87.28125,-9.2399985,-8.002074  -3.142907
-87.28125,-11.549998500000001,4.001037  -3.142907
-87.28125,-11.549998500000001,-4.001037 -3.142907
-87.28125,-9.2399985,8.002074   -3.142907
-87.28125,-2.31,-12.003111      -3.142907
-87.28125,2.31,-12.003111       -3.142907
-87.28125,-2.31,12.003111       -3.142907
-87.28125,11.549998500000001,-4.001037  -3.142907
-87.28125,9.2399985,-8.002074   -3.142907
-87.28125,2.31,12.003111        -3.142907
-87.28125,11.549998500000001,4.001037   -3.142907
-87.28125,9.2399985,8.002074    -3.142907
98.109375,-6.93,-4.001037       6.927092
98.109375,-6.93,4.001037        6.927092
98.109375,6.93,-4.001037        6.927092
98.109375,6.93,4.001037 6.927092
98.109375,-0.0,-8.002074        6.927092
98.109375,0.0,8.002074  6.927092
-124.875,-4.62,-0.0     -8.177907
-124.875,-2.31,4.001037 -8.177907
-124.875,-2.31,-4.001037        -8.177907
-124.875,2.31,-4.001037 -8.177907
-124.875,4.62,-0.0      -8.177907
-124.875,2.31,4.001037  -8.177907
-136.359375,-4.62,5.3347155     7.550516
-136.359375,4.62,5.3347155      7.550516
-136.359375,-6.93,1.3336785     7.550516
-136.359375,6.93,1.3336785      7.550516
-136.359375,-2.31,-6.668395500000001    7.550516
-136.359375,2.31,-6.668395500000001     7.550516
-68.53125,-4.62,-5.3347155      -7.554483
-68.53125,4.62,-5.3347155       -7.554483
-68.53125,-6.93,-1.3336785      -7.554483
-68.53125,6.93,-1.3336785       -7.554483
-68.53125,-2.31,6.668395500000001       -7.554483
-68.53125,2.31,6.668395500000001        -7.554483
-750.375,0.0,13.336789499999998 -0.625931
-750.375,-11.549998500000001,-6.668395500000001 -0.625931
-750.375,11.549998500000001,-6.668395500000001  -0.625931
-404.625,-11.549998500000001,-1.3336785 4.409069
-404.625,-6.93,-9.3357525       4.409069
-404.625,-4.62,10.669432500000001       4.409069
-404.625,6.93,-9.3357525        4.409069
-404.625,11.549998500000001,-1.3336785  4.409069
-404.625,4.62,10.669432500000001        4.409069
465.5625,-9.2399985,-5.3347155  -5.660931
465.5625,9.2399985,-5.3347155   -5.660931
465.5625,0.0,10.669432500000001 -5.660931
880.5,-0.0,-13.336789499999998  2.515516
880.5,-11.549998500000001,6.668395500000001     2.515516
880.5,11.549998500000001,6.668395500000001      2.515516
-140.8125,-13.8599985,-0.0      0.004632
-140.8125,6.93,-12.003111       0.004632
-140.8125,-6.93,12.003111       0.004632
-140.8125,13.8599985,-0.0       0.004632
-140.8125,-6.93,-12.003111      0.004632
-140.8125,6.93,12.003111        0.004632
-578.625,0.0,13.336789499999998 -2.519484
-578.625,-11.549998500000001,-6.668395500000001 -2.519484
-578.625,11.549998500000001,-6.668395500000001  -2.519484
342.0,-9.2399985,0.0    6.927092
342.0,-4.62,-8.002074   6.927092
342.0,-4.62,8.002074    6.927092
342.0,4.62,-8.002074    6.927092
342.0,9.2399985,0.0     6.927092
342.0,4.62,8.002074     6.927092
317.8125,-13.8599985,-2.6673584999999997        -0.625931
317.8125,-4.62,13.336789499999998       -0.625931
317.8125,-9.2399985,-10.669432500000001 -0.625931
317.8125,9.2399985,-10.669432500000001  -0.625931
317.8125,4.62,13.336789499999998        -0.625931
317.8125,13.8599985,-2.6673584999999997 -0.625931
167.90625,-13.8599985,0.0       1.892092
167.90625,-6.93,-12.003111      1.892092
167.90625,-6.93,12.003111       1.892092
167.90625,6.93,-12.003111       1.892092
167.90625,13.8599985,0.0        1.892092
167.90625,6.93,12.003111        1.892092
-6.48046875,-11.549998500000001,4.001037        -5.030367
-6.48046875,-11.549998500000001,-4.001037       -5.030367
-6.48046875,-9.2399985,-8.002074        -5.030367
-6.48046875,-9.2399985,8.002074 -5.030367
-6.48046875,-11.549998500000001,4.001037        5.039632
-6.48046875,2.31,-12.003111     -5.030367
-6.48046875,-2.31,-12.003111    -5.030367
-6.48046875,-11.549998500000001,-4.001037       5.039632
-6.48046875,-9.2399985,-8.002074        5.039632
-6.48046875,-2.31,12.003111     -5.030367
-6.48046875,2.31,-12.003111     5.039632
-6.48046875,-9.2399985,8.002074 5.039632
-6.48046875,-2.31,-12.003111    5.039632
-6.48046875,9.2399985,-8.002074 -5.030367
-6.48046875,2.31,12.003111      -5.030367
-6.48046875,11.549998500000001,-4.001037        -5.030367
-6.48046875,11.549998500000001,4.001037 -5.030367
-6.48046875,9.2399985,8.002074  -5.030367
-6.48046875,-2.31,12.003111     5.039632
-6.48046875,9.2399985,-8.002074 5.039632
-6.48046875,11.549998500000001,-4.001037        5.039632
-6.48046875,2.31,12.003111      5.039632
-6.48046875,11.549998500000001,4.001037 5.039632
-6.48046875,9.2399985,8.002074  5.039632
-1.03125,-11.549998500000001,-1.3336785 -5.660931
-1.03125,-6.93,-9.3357525       -5.660931
-1.03125,-4.62,10.669432500000001       -5.660931
-1.03125,6.93,-9.3357525        -5.660931
-1.03125,4.62,10.669432500000001        -5.660931
-1.03125,11.549998500000001,-1.3336785  -5.660931
174.0,-2.31,1.3336785   9.444068
174.0,0.0,-2.6673584999999997   9.444068
174.0,2.31,1.3336785    9.444068
76.96875,-13.8599985,2.6673584999999997 2.515516
76.96875,-4.62,-13.336789499999998      2.515516
76.96875,4.62,-13.336789499999998       2.515516
76.96875,-9.2399985,10.669432500000001  2.515516
76.96875,13.8599985,2.6673584999999997  2.515516
76.96875,9.2399985,10.669432500000001   2.515516
235.3125,-13.8599985,-2.6673584999999997        -2.519484
235.3125,-4.62,13.336789499999998       -2.519484
235.3125,-9.2399985,-10.669432500000001 -2.519484
235.3125,9.2399985,-10.669432500000001  -2.519484
235.3125,13.8599985,-2.6673584999999997 -2.519484
235.3125,4.62,13.336789499999998        -2.519484
329.4375,-13.8599985,-0.0       -3.142907
329.4375,-6.93,-12.003111       -3.142907
329.4375,-6.93,12.003111        -3.142907
329.4375,6.93,-12.003111        -3.142907
329.4375,13.8599985,-0.0        -3.142907
329.4375,6.93,12.003111 -3.142907
12.968261715,-6.93,-4.001037    -8.177907
12.968261715,-6.93,4.001037     -8.177907
12.968261715,6.93,4.001037      -8.177907
12.968261715,6.93,-4.001037     -8.177907
12.968261715,-0.0,-8.002074     -8.177907
12.968261715,0.0,8.002074       -8.177907
377.8125,-6.93,-6.668395500000001       7.550516
377.8125,-9.2399985,-2.6673584999999997 7.550516
377.8125,-2.31,9.3357525        7.550516
377.8125,6.93,-6.668395500000001        7.550516
377.8125,2.31,9.3357525 7.550516
377.8125,9.2399985,-2.6673584999999997  7.550516
-522.0,-6.93,6.668395500000001  -7.554483
-522.0,-9.2399985,2.6673584999999997    -7.554483
-522.0,-2.31,-9.3357525 -7.554483
-522.0,2.31,-9.3357525  -7.554483
-522.0,9.2399985,2.6673584999999997     -7.554483
-522.0,6.93,6.668395500000001   -7.554483
106.8984375,-11.549998500000001,9.3357525       -0.625931
106.8984375,-13.8599985,5.3347155       -0.625931
106.8984375,-2.31,-14.6704695   -0.625931
106.8984375,2.31,-14.6704695    -0.625931
106.8984375,13.8599985,5.3347155        -0.625931
106.8984375,11.549998500000001,9.3357525        -0.625931
-725.625,-0.0,-13.336789499999998       4.409069
-725.625,-11.549998500000001,6.668395500000001  4.409069
-725.625,11.549998500000001,6.668395500000001   4.409069

End of input

&SCF
Occupied
9
Iterations
   50  100
End of Input

&RASSCF
LumOrb
Symmetry
1
Spin
2
Nactel
1 0 0
CIRoot
9 9 1
inactive
9
ras2
9
End of Input

>>> COPY tungsten_so_cf.JobIph $SLURM_SUBMIT_DIR/tungsten_so_cf.doublet.JobIph

>>> COPY $SLURM_SUBMIT_DIR/tungsten_so_cf.doublet.JobIph ./JOB002

&RASSI
NROFJobIph
1 All
SpinOrbit
End of Input

EOF

-- ----------------------------------

--- Start Module: seward at Wed Mar 26 16:01:58 2025 ---

()()()()()()()()()()()()()()()()()()()()()()()()()()()()()()()()()()()()()()()()()()()()()()()()()()

                                              &SEWARD

                                   only a single process is used
                       available to each process: 4.1 GB of memory, 1 thread?
                                            pid: 2214133
()()()()()()()()()()()()()()()()()()()()()()()()()()()()()()()()()()()()()()()()()()()()()()()()()()

 The speed of LIGHT in this CALCULATION =   137.03599917700001     
               SEWARD will generate:
                  Multipole Moment integrals up to order  2
                  Kinetic Energy integrals
                  Nuclear Attraction integrals (point charge)
                  One-Electron Hamiltonian integrals
                  Velocity integrals
                  Relativistic Douglas-Kroll-Hess integrals:
                    - Parametrization         : EXP
                    - DKH order of Hamiltonian: 2
                    - DKH order of Properties : 0
                         - multipole moment operators
                         - electric potential operators
                         - contact operators
                  External field from   414 point(s) added to the one-electron Hamiltonian
                  Orbital angular momentum around (-0.0000 -0.0000  0.0088 )
                  Velocity quadrupole around (-0.0000 -0.0000  0.0088 )
                  Atomic mean-field integrals
                  Two-Electron Repulsion integrals

                   Integrals are discarded if absolute value <: 0.10E-13
                   Integral cutoff threshold is set to       <: 0.10E-15

++    Symmetry information:
      ---------------------

                    Character Table for C1 

                             E  
                    a        1  x, y, xy, Rz, z, xz, Ry, yz, Rx, I
--


++    Basis set information:
      ----------------------


      Basis set label: W.ANO-RCC.ROOS.24S21P15D11F4G2H.11S10P9D8F4G2H......

      Electronic valence basis set:
      ------------------
      Associated Effective Charge  74.000000 au
      Associated Actual Charge     74.000000 au
      Nuclear Model: Point charge

      Shell  nPrim  nBasis  Cartesian Spherical Contaminant
         s      24      11        X                  
         p      21      10        X                  
         d      15       9                 X         
         f      11       8                 X         
         g       4       4                 X         
         h       2       2                 X         
--


++    Molecular structure info:
      -------------------------

                    ************************************************ 
                    **** Cartesian Coordinates / Bohr, Angstrom **** 
                    ************************************************ 

     Center  Label                x              y              z                     x              y              z
        1      W               -0.000000      -0.000000       0.008754             -0.000000      -0.000000       0.004632
--


++    Operator info:
      --------------


  Net charge from external field:   -39.268449999999902     
--


            Nuclear Potential Energy              0.00000000 au

                    Nuclear-External Field Potential Energy    -451.34915048 au
                    External Field Potential Energy            1070.42460092 au 


            Total Nuclear Potential Energy           -451.34915048 au


      Basis set specifications :
      Symmetry species         a  
      Basis functions          200

 Sorry, Molden does not know how to handle
 functions with angular momentum larger than g
Note: The following floating-point exceptions are signalling: IEEE_UNDERFLOW_FLAG IEEE_DENORMAL
--- Stop Module: seward at Wed Mar 26 16:02:19 2025 /rc=_RC_ALL_IS_WELL_ ---
*** files: tungsten_so_cf.GssOrb xmldump
    saved to directory /home4/s4752295/Internship/Initial_simulations/Point_charge_model/1_electron/Madelung_charges_9_active_space/W
--- Module seward spent 21 seconds ---

*** symbolic link created: INPORB -> tungsten_so_cf.GssOrb
--- Start Module: scf at Wed Mar 26 16:02:19 2025 ---

()()()()()()()()()()()()()()()()()()()()()()()()()()()()()()()()()()()()()()()()()()()()()()()()()()

                                                &SCF

                                   only a single process is used
                       available to each process: 4.1 GB of memory, 1 thread?
                                            pid: 2215302
()()()()()()()()()()()()()()()()()()()()()()()()()()()()()()()()()()()()()()()()()()()()()()()()()()

++    Input section:
      --------------

      Header of the integral files:
      
       Integrals generated by seward 4.2.0  , Wed Mar 26 16:01:58 2025


      Cartesian coordinates in Angstrom:
      -----------------------------------------------------
      No.  Label        X            Y            Z        
      -----------------------------------------------------
       1   W         -0.00000000  -0.00000000   0.00463220
      -----------------------------------------------------
      Nuclear repulsion energy = -451.34915048
--

++    Orbital specifications:
      -----------------------

      Symmetry species               1
                                     a
      Frozen orbitals                0
      Occupied orbitals              9
      Secondary orbitals           191
      Deleted orbitals               0
      Total number of orbitals     200
      Number of basis functions    200
--

      Molecular charge                          56.000

++    Optimization specifications:
      ----------------------------

      SCF Algorithm: Conventional
      Minimized density differences are used
      Number of density matrices in core                5
      Maximum number of NDDO SCF iterations            50
      Maximum number of HF SCF iterations             100
      Threshold for SCF energy change            0.10E-08
      Threshold for density matrix               0.10E-03
      Threshold for Fock matrix                  0.15E-03
      Threshold for linear dependence            0.10E-08
      Threshold at which DIIS is turned on       0.15E+00
      Threshold at which QNR/C2DIIS is turned on 0.75E-01
      Threshold for Norm(delta) (QNR/C2DIIS)     0.20E-04
      DIIS extrapolation of the SCF procedure
      All orbitals punched on: SCFORB
--

      Detected guessorb starting orbitals                                             


++ Convergence information
                                   SCF        iterations: Energy and convergence statistics

Iter     Tot. SCF        One-elec.       Two-elec.     Energy      Max Dij or  Max Fij      DNorm      TNorm      AccCon     Time
         Energy          Energy          Energy        Change      Delta Norm                                                in Sec.

 The total and one-electron energies are shifted by a value of     13000. a.u.

   1  -255.563870454 -1073.061686577  1268.846966605   0.00E+00    0.22E+00*   0.90E+01*    0.60E+01   0.65E+03   None         1.
   2  -266.631880975 -1129.159736263  1313.877005771  -0.11E+02*   0.16E-02*   0.20E+00*    0.90E+00   0.66E+03   EDIIS        1.
   3  -266.634965677 -1128.617563460  1313.331748265  -0.31E-02*   0.66E-04    0.38E-02*    0.96E-02   0.66E+03   EDIIS        1.
   4  -266.634966483 -1128.628261703  1313.342445701  -0.81E-06*   0.16E-05    0.46E-04     0.10E-03   0.66E+03   c2DIIS       1.
   5  -266.634966484 -1128.628148460  1313.342332458  -0.39E-09    0.12E-06    0.30E-05     0.55E-05   0.66E+03   QNRc2DIIS    1.

       Convergence after  5 Macro Iterations
--

 *****************************************************************************************************************************
 *                                                                                                                           *
 *                                             SCF/KS-DFT Program, Final results                                             *
 *                                                                                                                           *
 *                                                                                                                           *
 *                                                                                                                           *
 *                                                       Final Results                                                       *
 *                                                                                                                           *
 *****************************************************************************************************************************

::    Total SCF energy                             -13266.6349664836
      One-electron energy                          -14128.6281484595
      Two-electron energy                            1313.3423324580
      Nuclear repulsion energy                       -451.3491504820
      Kinetic energy (interpolated)                 19280.3797676716
      Virial theorem                                    0.6880899197
      Total spin, S(S+1)                                0.0000000000
      Total spin, S                                     0.0000000000
      Max non-diagonal density matrix element           0.0000001552
      Max non-diagonal Fock matrix element              0.0000000000


      All orbitals with orbital energies smaller than  E(LUMO)+0.5 are printed

++    Molecular orbitals:
      -------------------

      Title: SCF orbitals

      Molecular orbitals for symmetry species 1: a  

          Some orbital energies have been scaled by powers of 10, the power is written right after the orbital index


          Orbital            1 (1)     2         3         4         5         6         7         8         9        10    
          Energy         -270.8935 -588.2039 -534.2545 -534.2545 -534.2544 -225.2756 -208.5981 -208.5981 -208.5972 -188.6238
          Occ. No.          2.0000    2.0000    2.0000    2.0000    2.0000    2.0000    2.0000    2.0000    2.0000    0.0000

        1 W      1s         1.0000    0.0001    0.0000    0.0000   -0.0000   -0.0000   -0.0000   -0.0000    0.0000   -0.0000
        2 W      2s        -0.0001    0.9999    0.0000    0.0000   -0.0002    0.0122    0.0000    0.0000   -0.0000    0.0000
        3 W      3s         0.0000   -0.0118   -0.0000   -0.0000    0.0000    0.9952    0.0000    0.0000   -0.0024    0.0000
        4 W      4s        -0.0000    0.0034    0.0000    0.0000   -0.0000   -0.0799   -0.0000   -0.0000    0.0003   -0.0000
        5 W      5s         0.0000   -0.0012   -0.0000   -0.0000    0.0000    0.0234    0.0000    0.0000   -0.0001    0.0000
        6 W      6s        -0.0000    0.0003    0.0000    0.0000   -0.0000   -0.0062   -0.0000   -0.0000    0.0000    0.0000
        7 W      7s         0.0000   -0.0004   -0.0000   -0.0000    0.0000    0.0069    0.0000    0.0000   -0.0000    0.0000
        8 W      8s        -0.0000    0.0010    0.0000    0.0000   -0.0000   -0.0175   -0.0000   -0.0000    0.0001    0.0000
        9 W      9s         0.0000   -0.0013   -0.0000   -0.0000    0.0000    0.0223    0.0000    0.0000   -0.0001    0.0000
       10 W     10s        -0.0000    0.0016    0.0000    0.0000   -0.0000   -0.0252   -0.0000   -0.0000    0.0001   -0.0000
       11 W     11s         0.0000   -0.0024   -0.0000   -0.0000    0.0000    0.0312    0.0000    0.0000   -0.0001    0.0000
       12 W      2px        0.0000    0.0002   -0.0019   -0.0000    0.9999    0.0000   -0.0000   -0.0000    0.0143   -0.0000
       13 W      3px       -0.0000    0.0000    0.0000    0.0000   -0.0137    0.0024   -0.0018   -0.0000    0.9931   -0.0000
       14 W      4px        0.0000   -0.0000   -0.0000   -0.0000    0.0038   -0.0001    0.0002    0.0000   -0.0913    0.0000
       15 W      5px       -0.0000    0.0000    0.0000    0.0000   -0.0012    0.0000   -0.0000   -0.0000    0.0253   -0.0000
       16 W      6px        0.0000   -0.0000   -0.0000   -0.0000    0.0005   -0.0000    0.0000    0.0000   -0.0102    0.0000
       17 W      7px       -0.0000    0.0000    0.0000    0.0000   -0.0016    0.0000   -0.0001   -0.0000    0.0303   -0.0000
       18 W      8px        0.0000   -0.0000   -0.0000   -0.0000    0.0017   -0.0000    0.0001    0.0000   -0.0301    0.0000
       19 W      9px       -0.0000    0.0000    0.0000    0.0000   -0.0019    0.0000   -0.0001   -0.0000    0.0310   -0.0000
       20 W     10px        0.0000   -0.0000   -0.0000   -0.0000    0.0020   -0.0000    0.0001    0.0000   -0.0284    0.0000
       21 W     11px       -0.0000    0.0000    0.0000    0.0000   -0.0027    0.0000   -0.0001   -0.0000    0.0287   -0.0000
       22 W      2py        0.0000    0.0000   -0.0010    0.9999   -0.0000   -0.0000   -0.0000    0.0143    0.0000    0.0000
       23 W      3py       -0.0000   -0.0000    0.0000   -0.0137    0.0000   -0.0000   -0.0000    0.9931    0.0000    0.0000
       24 W      4py        0.0000    0.0000   -0.0000    0.0038   -0.0000    0.0000    0.0000   -0.0913   -0.0000   -0.0000
       25 W      5py       -0.0000   -0.0000    0.0000   -0.0012    0.0000   -0.0000   -0.0000    0.0253    0.0000    0.0000
       26 W      6py        0.0000    0.0000   -0.0000    0.0005   -0.0000    0.0000    0.0000   -0.0102   -0.0000   -0.0000
       27 W      7py       -0.0000   -0.0000    0.0000   -0.0016    0.0000   -0.0000   -0.0000    0.0303    0.0000    0.0000
       28 W      8py        0.0000    0.0000   -0.0000    0.0017   -0.0000    0.0000    0.0000   -0.0301   -0.0000   -0.0000
       29 W      9py       -0.0000   -0.0000    0.0000   -0.0019    0.0000   -0.0000   -0.0000    0.0310    0.0000    0.0000
       30 W     10py        0.0000    0.0000   -0.0000    0.0020   -0.0000    0.0000    0.0000   -0.0284   -0.0000   -0.0000
       31 W     11py       -0.0000   -0.0000    0.0000   -0.0027    0.0000   -0.0000   -0.0000    0.0287    0.0000    0.0000
       32 W      2pz        0.0000    0.0000    0.9999    0.0010    0.0019    0.0000    0.0143    0.0000    0.0000   -0.0000
       33 W      3pz       -0.0000    0.0000   -0.0137   -0.0000   -0.0000    0.0000    0.9931    0.0000    0.0018   -0.0000
       34 W      4pz        0.0000   -0.0000    0.0038    0.0000    0.0000   -0.0000   -0.0913   -0.0000   -0.0002    0.0000
       35 W      5pz       -0.0000    0.0000   -0.0012   -0.0000   -0.0000    0.0000    0.0253    0.0000    0.0000   -0.0000
       36 W      6pz        0.0000   -0.0000    0.0005    0.0000    0.0000   -0.0000   -0.0102   -0.0000   -0.0000    0.0000
       37 W      7pz       -0.0000    0.0000   -0.0016   -0.0000   -0.0000    0.0000    0.0303    0.0000    0.0001   -0.0000
       38 W      8pz        0.0000   -0.0000    0.0017    0.0000    0.0000   -0.0000   -0.0301   -0.0000   -0.0001    0.0000
       39 W      9pz       -0.0000    0.0000   -0.0019   -0.0000   -0.0000    0.0000    0.0310    0.0000    0.0001    0.0000
       40 W     10pz        0.0000   -0.0000    0.0020    0.0000    0.0000   -0.0000   -0.0284   -0.0000   -0.0001    0.0000
       41 W     11pz       -0.0000    0.0000   -0.0027   -0.0000   -0.0000    0.0000    0.0287    0.0000    0.0001   -0.0000
       42 W      3d2-      -0.0000   -0.0000   -0.0000    0.0000   -0.0000   -0.0000   -0.0000    0.0016    0.0000   -0.0024
       43 W      4d2-       0.0000    0.0000    0.0000   -0.0000    0.0000    0.0000    0.0000   -0.0000   -0.0000    0.0002
       44 W      5d2-      -0.0000   -0.0000   -0.0000    0.0000   -0.0000   -0.0000   -0.0000    0.0000    0.0000   -0.0000
       45 W      6d2-       0.0000    0.0000    0.0000   -0.0000    0.0000    0.0000    0.0000   -0.0000   -0.0000    0.0001
       46 W      7d2-      -0.0000   -0.0000   -0.0000    0.0000   -0.0000   -0.0000   -0.0000    0.0000    0.0000   -0.0001
       47 W      8d2-       0.0000    0.0000    0.0000   -0.0000    0.0000    0.0000    0.0000   -0.0000   -0.0000    0.0001
       48 W      9d2-      -0.0000   -0.0000   -0.0000    0.0000   -0.0000   -0.0000   -0.0000    0.0000    0.0000   -0.0001
       49 W     10d2-       0.0000    0.0000    0.0000   -0.0000    0.0000    0.0000   -0.0000    0.0000    0.0000    0.0001
       50 W     11d2-      -0.0000   -0.0000   -0.0000    0.0000   -0.0000   -0.0000    0.0000   -0.0000   -0.0000   -0.0001
       51 W      3d1-       0.0000   -0.0000   -0.0000    0.0000   -0.0000   -0.0000   -0.0000    0.0000    0.0000    0.9917
       52 W      4d1-      -0.0000    0.0000    0.0000   -0.0000    0.0000    0.0000    0.0000   -0.0000   -0.0000   -0.0959
       53 W      5d1-       0.0000   -0.0000    0.0000   -0.0000   -0.0000   -0.0000   -0.0000    0.0000   -0.0000    0.0186
       54 W      6d1-      -0.0000    0.0000    0.0000   -0.0000    0.0000    0.0000   -0.0000    0.0000   -0.0000   -0.0254
       55 W      7d1-       0.0000   -0.0000    0.0000   -0.0000   -0.0000   -0.0000   -0.0000    0.0000    0.0000    0.0328
       56 W      8d1-      -0.0000    0.0000    0.0000   -0.0000    0.0000    0.0000   -0.0000    0.0000    0.0000   -0.0372
       57 W      9d1-       0.0000    0.0000    0.0000   -0.0000   -0.0000    0.0000   -0.0000    0.0000    0.0000    0.0370
       58 W     10d1-      -0.0000   -0.0000    0.0000   -0.0000    0.0000   -0.0000   -0.0000    0.0000   -0.0000   -0.0397
       59 W     11d1-       0.0000    0.0000   -0.0000    0.0000   -0.0000    0.0000   -0.0000    0.0000    0.0000    0.0299
       60 W      3d0        0.0000    0.0000    0.0000    0.0000   -0.0000    0.0000    0.0000    0.0000   -0.0009   -0.0001
       61 W      4d0       -0.0000   -0.0000   -0.0000   -0.0000    0.0000    0.0000   -0.0000   -0.0000    0.0000    0.0000
       62 W      5d0        0.0000    0.0000    0.0000    0.0000   -0.0000   -0.0000    0.0000    0.0000   -0.0000   -0.0000
       63 W      6d0       -0.0000   -0.0000    0.0000    0.0000    0.0000    0.0000   -0.0000   -0.0000    0.0000    0.0000
       64 W      7d0        0.0000    0.0000    0.0000    0.0000   -0.0000   -0.0000   -0.0000   -0.0000   -0.0000   -0.0000
       65 W      8d0       -0.0000   -0.0000    0.0000    0.0000    0.0000   -0.0000   -0.0000   -0.0000    0.0000    0.0000
       66 W      9d0        0.0000    0.0000    0.0000    0.0000   -0.0000   -0.0000   -0.0000   -0.0000   -0.0000   -0.0000
       67 W     10d0       -0.0000   -0.0000   -0.0000   -0.0000    0.0000   -0.0000   -0.0000   -0.0000   -0.0000    0.0000
       68 W     11d0        0.0000    0.0000    0.0000    0.0000   -0.0000   -0.0000   -0.0000   -0.0000    0.0000   -0.0000
       69 W      3d1+      -0.0000   -0.0000    0.0000    0.0000    0.0000   -0.0000    0.0016    0.0000    0.0000    0.0000
       70 W      4d1+       0.0000    0.0000   -0.0000   -0.0000   -0.0000   -0.0000   -0.0000   -0.0000   -0.0000   -0.0000
       71 W      5d1+      -0.0000   -0.0000    0.0000    0.0000    0.0000    0.0000    0.0000    0.0000    0.0000    0.0000
       72 W      6d1+       0.0000    0.0000   -0.0000   -0.0000   -0.0000   -0.0000   -0.0000   -0.0000   -0.0000   -0.0000
       73 W      7d1+      -0.0000   -0.0000    0.0000    0.0000    0.0000    0.0000    0.0000    0.0000    0.0000    0.0000
       74 W      8d1+       0.0000    0.0000   -0.0000   -0.0000   -0.0000   -0.0000   -0.0000   -0.0000   -0.0000   -0.0000
       75 W      9d1+      -0.0000   -0.0000    0.0000    0.0000    0.0000    0.0000    0.0000    0.0000    0.0000    0.0000
       76 W     10d1+       0.0000    0.0000   -0.0000   -0.0000   -0.0000   -0.0000    0.0000    0.0000    0.0000   -0.0000
       77 W     11d1+      -0.0000   -0.0000    0.0000    0.0000    0.0000    0.0000   -0.0000   -0.0000   -0.0000    0.0000
       78 W      3d2+      -0.0000   -0.0000   -0.0000   -0.0000    0.0000   -0.0000   -0.0000   -0.0000    0.0016   -0.0001
       79 W      4d2+       0.0000    0.0000    0.0000    0.0000   -0.0000   -0.0000    0.0000    0.0000   -0.0000    0.0000
       80 W      5d2+      -0.0000   -0.0000   -0.0000   -0.0000    0.0000    0.0000   -0.0000   -0.0000    0.0000   -0.0000
       81 W      6d2+       0.0000    0.0000    0.0000    0.0000   -0.0000   -0.0000   -0.0000   -0.0000   -0.0000    0.0000
       82 W      7d2+      -0.0000   -0.0000   -0.0000   -0.0000    0.0000    0.0000   -0.0000   -0.0000    0.0000   -0.0000
       83 W      8d2+       0.0000    0.0000    0.0000    0.0000   -0.0000    0.0000   -0.0000   -0.0000   -0.0000    0.0000
       84 W      9d2+      -0.0000   -0.0000   -0.0000   -0.0000    0.0000    0.0000   -0.0000   -0.0000    0.0000   -0.0000
       85 W     10d2+       0.0000    0.0000    0.0000    0.0000   -0.0000    0.0000   -0.0000   -0.0000    0.0000    0.0000
       86 W     11d2+      -0.0000   -0.0000   -0.0000   -0.0000    0.0000    0.0000    0.0000    0.0000   -0.0000   -0.0000
       87 W      4f3-       0.0000   -0.0000    0.0000   -0.0000    0.0000   -0.0000    0.0000   -0.0000   -0.0000   -0.0000
       88 W      5f3-      -0.0000    0.0000   -0.0000    0.0000   -0.0000   -0.0000   -0.0000    0.0000    0.0000    0.0000
       89 W      6f3-       0.0000   -0.0000    0.0000   -0.0000    0.0000    0.0000    0.0000   -0.0000   -0.0000   -0.0000
       90 W      7f3-      -0.0000   -0.0000   -0.0000    0.0000   -0.0000   -0.0000   -0.0000    0.0000    0.0000    0.0000
       91 W      8f3-       0.0000    0.0000    0.0000   -0.0000    0.0000    0.0000    0.0000   -0.0000   -0.0000   -0.0000
       92 W      9f3-      -0.0000   -0.0000   -0.0000    0.0000   -0.0000   -0.0000   -0.0000    0.0000    0.0000    0.0000
       93 W     10f3-       0.0000    0.0000    0.0000   -0.0000    0.0000    0.0000    0.0000   -0.0000   -0.0000   -0.0000
       94 W     11f3-      -0.0000   -0.0000   -0.0000    0.0000   -0.0000   -0.0000   -0.0000    0.0000    0.0000    0.0000
       95 W      4f2-       0.0000    0.0000    0.0000   -0.0000    0.0000    0.0000    0.0000   -0.0000   -0.0000    0.0001
       96 W      5f2-      -0.0000   -0.0000    0.0000   -0.0000   -0.0000   -0.0000   -0.0000    0.0000    0.0000   -0.0001
       97 W      6f2-       0.0000    0.0000    0.0000   -0.0000    0.0000    0.0000   -0.0000    0.0000   -0.0000    0.0001
       98 W      7f2-      -0.0000   -0.0000    0.0000   -0.0000    0.0000   -0.0000   -0.0000    0.0000    0.0000   -0.0001
       99 W      8f2-       0.0000    0.0000    0.0000   -0.0000    0.0000    0.0000   -0.0000    0.0000    0.0000    0.0001
      100 W      9f2-      -0.0000   -0.0000    0.0000   -0.0000    0.0000   -0.0000   -0.0000    0.0000    0.0000   -0.0001
      101 W     10f2-       0.0000    0.0000    0.0000   -0.0000    0.0000   -0.0000   -0.0000    0.0000    0.0000    0.0000
      102 W     11f2-      -0.0000   -0.0000    0.0000   -0.0000    0.0000    0.0000   -0.0000    0.0000   -0.0000   -0.0000
      103 W      4f1-       0.0000    0.0000   -0.0000    0.0000   -0.0000    0.0000   -0.0000    0.0000    0.0000    0.0000
      104 W      5f1-      -0.0000   -0.0000    0.0000   -0.0000    0.0000   -0.0000    0.0000   -0.0000   -0.0000   -0.0000
      105 W      6f1-       0.0000    0.0000   -0.0000    0.0000   -0.0000    0.0000   -0.0000    0.0000    0.0000    0.0000
      106 W      7f1-      -0.0000   -0.0000    0.0000   -0.0000    0.0000   -0.0000    0.0000   -0.0000   -0.0000   -0.0000
      107 W      8f1-       0.0000    0.0000   -0.0000    0.0000   -0.0000    0.0000   -0.0000    0.0000    0.0000    0.0000
      108 W      9f1-      -0.0000    0.0000    0.0000   -0.0000    0.0000   -0.0000    0.0000   -0.0000   -0.0000   -0.0000
      109 W     10f1-      -0.0000   -0.0000   -0.0000    0.0000   -0.0000   -0.0000   -0.0000    0.0000    0.0000    0.0000
      110 W     11f1-       0.0000    0.0000    0.0000   -0.0000    0.0000    0.0000    0.0000   -0.0000    0.0000   -0.0000
      111 W      4f0        0.0000   -0.0000    0.0000    0.0000    0.0000    0.0000    0.0000    0.0000    0.0000   -0.0000
      112 W      5f0        0.0000   -0.0000   -0.0000   -0.0000    0.0000    0.0000   -0.0000   -0.0000   -0.0000    0.0000
      113 W      6f0        0.0000   -0.0000    0.0000    0.0000    0.0000    0.0000    0.0000    0.0000   -0.0000   -0.0000
      114 W      7f0        0.0000   -0.0000   -0.0000   -0.0000    0.0000    0.0000   -0.0000   -0.0000   -0.0000    0.0000
      115 W      8f0        0.0000   -0.0000    0.0000    0.0000    0.0000    0.0000    0.0000    0.0000   -0.0000   -0.0000
      116 W      9f0        0.0000   -0.0000   -0.0000   -0.0000    0.0000    0.0000   -0.0000   -0.0000   -0.0000    0.0000
      117 W     10f0        0.0000   -0.0000    0.0000    0.0000    0.0000    0.0000    0.0000    0.0000   -0.0000   -0.0000
      118 W     11f0        0.0000   -0.0000   -0.0000   -0.0000    0.0000    0.0000   -0.0000   -0.0000   -0.0000    0.0000
      119 W      4f1+       0.0000   -0.0000   -0.0000   -0.0000    0.0000   -0.0000   -0.0000   -0.0000    0.0000   -0.0000
      120 W      5f1+      -0.0000    0.0000    0.0000    0.0000   -0.0000    0.0000    0.0000    0.0000   -0.0000    0.0000
      121 W      6f1+      -0.0000    0.0000    0.0000    0.0000    0.0000   -0.0000   -0.0000   -0.0000    0.0000   -0.0000
      122 W      7f1+      -0.0000    0.0000    0.0000    0.0000   -0.0000   -0.0000   -0.0000   -0.0000   -0.0000    0.0000
      123 W      8f1+      -0.0000    0.0000    0.0000    0.0000    0.0000   -0.0000   -0.0000   -0.0000    0.0000   -0.0000
      124 W      9f1+      -0.0000    0.0000    0.0000    0.0000   -0.0000   -0.0000   -0.0000   -0.0000   -0.0000    0.0000
      125 W     10f1+       0.0000   -0.0000    0.0000    0.0000    0.0000    0.0000   -0.0000   -0.0000    0.0000   -0.0000
      126 W     11f1+      -0.0000   -0.0000    0.0000    0.0000   -0.0000    0.0000   -0.0000   -0.0000   -0.0000    0.0000
      127 W      4f2+      -0.0000    0.0000   -0.0000   -0.0000   -0.0000    0.0000   -0.0000   -0.0000   -0.0000    0.0000
      128 W      5f2+       0.0000   -0.0000    0.0000    0.0000    0.0000    0.0000    0.0000    0.0000    0.0000   -0.0000
      129 W      6f2+       0.0000   -0.0000   -0.0000   -0.0000    0.0000    0.0000   -0.0000   -0.0000   -0.0000    0.0000
      130 W      7f2+       0.0000   -0.0000    0.0000    0.0000    0.0000    0.0000    0.0000    0.0000   -0.0000   -0.0000
      131 W      8f2+       0.0000   -0.0000   -0.0000   -0.0000    0.0000    0.0000   -0.0000   -0.0000   -0.0000    0.0000
      132 W      9f2+       0.0000   -0.0000    0.0000    0.0000    0.0000    0.0000    0.0000    0.0000   -0.0000   -0.0000
      133 W     10f2+       0.0000   -0.0000   -0.0000   -0.0000    0.0000    0.0000   -0.0000   -0.0000   -0.0000    0.0000
      134 W     11f2+       0.0000   -0.0000    0.0000    0.0000    0.0000    0.0000    0.0000    0.0000   -0.0000   -0.0000
      135 W      4f3+      -0.0000    0.0000    0.0000    0.0000   -0.0000    0.0000    0.0000    0.0000   -0.0000   -0.0000
      136 W      5f3+       0.0000   -0.0000    0.0000    0.0000    0.0000   -0.0000   -0.0000   -0.0000    0.0000    0.0000
      137 W      6f3+       0.0000   -0.0000    0.0000    0.0000   -0.0000    0.0000   -0.0000   -0.0000   -0.0000   -0.0000
      138 W      7f3+       0.0000   -0.0000    0.0000    0.0000    0.0000    0.0000   -0.0000   -0.0000    0.0000    0.0000
      139 W      8f3+       0.0000   -0.0000    0.0000    0.0000   -0.0000    0.0000   -0.0000   -0.0000   -0.0000   -0.0000
      140 W      9f3+       0.0000   -0.0000    0.0000    0.0000    0.0000    0.0000   -0.0000   -0.0000    0.0000    0.0000
      141 W     10f3+      -0.0000    0.0000    0.0000    0.0000   -0.0000   -0.0000   -0.0000   -0.0000   -0.0000   -0.0000
      142 W     11f3+       0.0000    0.0000    0.0000    0.0000    0.0000   -0.0000   -0.0000   -0.0000    0.0000    0.0000
      143 W      5g4-      -0.0000    0.0000   -0.0000    0.0000    0.0000   -0.0000   -0.0000    0.0000    0.0000    0.0000
      144 W      6g4-       0.0000   -0.0000    0.0000   -0.0000    0.0000    0.0000    0.0000   -0.0000   -0.0000   -0.0000
      145 W      7g4-      -0.0000    0.0000    0.0000   -0.0000    0.0000   -0.0000   -0.0000    0.0000    0.0000    0.0000
      146 W      8g4-       0.0000   -0.0000    0.0000   -0.0000    0.0000    0.0000   -0.0000    0.0000    0.0000    0.0000
      147 W      5g3-       0.0000    0.0000    0.0000   -0.0000    0.0000    0.0000   -0.0000    0.0000    0.0000   -0.0000
      148 W      6g3-      -0.0000   -0.0000   -0.0000    0.0000   -0.0000   -0.0000    0.0000   -0.0000   -0.0000    0.0000
      149 W      7g3-      -0.0000    0.0000   -0.0000    0.0000    0.0000    0.0000    0.0000   -0.0000    0.0000   -0.0000
      150 W      8g3-       0.0000   -0.0000   -0.0000    0.0000   -0.0000   -0.0000    0.0000   -0.0000   -0.0000    0.0000
      151 W      5g2-       0.0000   -0.0000    0.0000   -0.0000    0.0000   -0.0000    0.0000   -0.0000   -0.0000   -0.0000
      152 W      6g2-      -0.0000    0.0000   -0.0000    0.0000   -0.0000    0.0000   -0.0000    0.0000    0.0000    0.0000
      153 W      7g2-       0.0000   -0.0000   -0.0000    0.0000   -0.0000   -0.0000    0.0000   -0.0000   -0.0000   -0.0000
      154 W      8g2-      -0.0000    0.0000   -0.0000    0.0000   -0.0000    0.0000    0.0000   -0.0000   -0.0000   -0.0000
      155 W      5g1-       0.0000   -0.0000   -0.0000    0.0000    0.0000    0.0000   -0.0000    0.0000   -0.0000    0.0000
      156 W      6g1-      -0.0000    0.0000    0.0000   -0.0000   -0.0000   -0.0000    0.0000   -0.0000    0.0000   -0.0000
      157 W      7g1-       0.0000   -0.0000    0.0000   -0.0000    0.0000    0.0000   -0.0000    0.0000   -0.0000    0.0000
      158 W      8g1-      -0.0000    0.0000    0.0000   -0.0000   -0.0000    0.0000   -0.0000    0.0000    0.0000   -0.0000
      159 W      5g0        0.0000   -0.0000   -0.0000   -0.0000    0.0000   -0.0000   -0.0000   -0.0000    0.0000   -0.0000
      160 W      6g0       -0.0000    0.0000    0.0000    0.0000   -0.0000   -0.0000    0.0000    0.0000   -0.0000    0.0000
      161 W      7g0       -0.0000    0.0000    0.0000    0.0000   -0.0000   -0.0000   -0.0000   -0.0000    0.0000   -0.0000
      162 W      8g0       -0.0000    0.0000    0.0000    0.0000   -0.0000   -0.0000   -0.0000   -0.0000    0.0000    0.0000
      163 W      5g1+      -0.0000    0.0000   -0.0000   -0.0000    0.0000    0.0000   -0.0000   -0.0000    0.0000    0.0000
      164 W      6g1+       0.0000   -0.0000    0.0000    0.0000   -0.0000    0.0000    0.0000    0.0000   -0.0000   -0.0000
      165 W      7g1+       0.0000   -0.0000    0.0000    0.0000   -0.0000    0.0000   -0.0000   -0.0000    0.0000   -0.0000
      166 W      8g1+       0.0000   -0.0000    0.0000    0.0000   -0.0000    0.0000   -0.0000   -0.0000    0.0000   -0.0000
      167 W      5g2+      -0.0000    0.0000    0.0000    0.0000   -0.0000    0.0000    0.0000    0.0000   -0.0000    0.0000
      168 W      6g2+       0.0000   -0.0000   -0.0000   -0.0000    0.0000    0.0000   -0.0000   -0.0000    0.0000   -0.0000
      169 W      7g2+       0.0000   -0.0000   -0.0000   -0.0000    0.0000    0.0000    0.0000    0.0000   -0.0000    0.0000
      170 W      8g2+       0.0000   -0.0000   -0.0000   -0.0000    0.0000    0.0000    0.0000    0.0000   -0.0000   -0.0000
      171 W      5g3+      -0.0000    0.0000    0.0000    0.0000    0.0000    0.0000    0.0000    0.0000    0.0000    0.0000
      172 W      6g3+       0.0000   -0.0000   -0.0000   -0.0000   -0.0000    0.0000   -0.0000   -0.0000   -0.0000    0.0000
      173 W      7g3+       0.0000   -0.0000   -0.0000   -0.0000   -0.0000    0.0000    0.0000    0.0000    0.0000    0.0000
      174 W      8g3+       0.0000   -0.0000   -0.0000   -0.0000   -0.0000    0.0000    0.0000    0.0000    0.0000    0.0000
      175 W      5g4+       0.0000   -0.0000    0.0000    0.0000    0.0000   -0.0000    0.0000   -0.0000    0.0000    0.0000
      176 W      6g4+      -0.0000    0.0000   -0.0000   -0.0000   -0.0000   -0.0000   -0.0000    0.0000   -0.0000   -0.0000
      177 W      7g4+      -0.0000    0.0000   -0.0000   -0.0000   -0.0000   -0.0000    0.0000    0.0000    0.0000    0.0000
      178 W      8g4+      -0.0000    0.0000   -0.0000   -0.0000   -0.0000   -0.0000    0.0000    0.0000    0.0000   -0.0000
      179 W      6h5-      -0.0000   -0.0000    0.0000   -0.0000   -0.0000   -0.0000   -0.0000    0.0000    0.0000   -0.0000
      180 W      7h5-       0.0000    0.0000    0.0000   -0.0000   -0.0000    0.0000   -0.0000    0.0000    0.0000   -0.0000
      181 W      6h4-      -0.0000    0.0000   -0.0000    0.0000   -0.0000    0.0000    0.0000   -0.0000   -0.0000    0.0000
      182 W      7h4-       0.0000    0.0000   -0.0000    0.0000   -0.0000   -0.0000    0.0000   -0.0000   -0.0000   -0.0000
      183 W      6h3-       0.0000    0.0000   -0.0000    0.0000    0.0000    0.0000    0.0000   -0.0000    0.0000    0.0000
      184 W      7h3-      -0.0000   -0.0000   -0.0000    0.0000   -0.0000   -0.0000    0.0000   -0.0000    0.0000    0.0000
      185 W      6h2-      -0.0000   -0.0000   -0.0000    0.0000   -0.0000   -0.0000    0.0000   -0.0000   -0.0000   -0.0000
      186 W      7h2-       0.0000   -0.0000   -0.0000    0.0000   -0.0000    0.0000    0.0000   -0.0000   -0.0000    0.0000
      187 W      6h1-       0.0000   -0.0000    0.0000   -0.0000   -0.0000    0.0000   -0.0000    0.0000    0.0000    0.0000
      188 W      7h1-      -0.0000    0.0000    0.0000   -0.0000   -0.0000   -0.0000   -0.0000    0.0000   -0.0000    0.0000
      189 W      6h0        0.0000   -0.0000   -0.0000   -0.0000   -0.0000    0.0000    0.0000    0.0000    0.0000   -0.0000
      190 W      7h0        0.0000   -0.0000   -0.0000   -0.0000   -0.0000    0.0000    0.0000    0.0000    0.0000   -0.0000
      191 W      6h1+      -0.0000    0.0000    0.0000    0.0000   -0.0000   -0.0000   -0.0000   -0.0000    0.0000    0.0000
      192 W      7h1+      -0.0000    0.0000    0.0000    0.0000   -0.0000   -0.0000   -0.0000   -0.0000    0.0000   -0.0000
      193 W      6h2+      -0.0000    0.0000    0.0000    0.0000    0.0000   -0.0000   -0.0000   -0.0000   -0.0000    0.0000
      194 W      7h2+      -0.0000    0.0000    0.0000    0.0000    0.0000   -0.0000   -0.0000   -0.0000   -0.0000    0.0000
      195 W      6h3+       0.0000   -0.0000    0.0000    0.0000    0.0000    0.0000   -0.0000   -0.0000   -0.0000   -0.0000
      196 W      7h3+       0.0000   -0.0000    0.0000    0.0000    0.0000    0.0000   -0.0000   -0.0000   -0.0000    0.0000
      197 W      6h4+      -0.0000    0.0000   -0.0000   -0.0000    0.0000   -0.0000    0.0000    0.0000   -0.0000   -0.0000
      198 W      7h4+      -0.0000    0.0000   -0.0000   -0.0000    0.0000   -0.0000    0.0000    0.0000   -0.0000   -0.0000
      199 W      6h5+      -0.0000    0.0000    0.0000    0.0000   -0.0000   -0.0000   -0.0000   -0.0000    0.0000   -0.0000
      200 W      7h5+      -0.0000    0.0000    0.0000    0.0000   -0.0000   -0.0000   -0.0000   -0.0000    0.0000    0.0000

          Orbital           11        12        13        14    
          Energy         -188.6238 -188.6234 -188.6234 -188.6232
          Occ. No.          0.0000    0.0000    0.0000    0.0000

        1 W      1s        -0.0000    0.0000    0.0000   -0.0000
        2 W      2s        -0.0000   -0.0000    0.0000    0.0000
        3 W      3s        -0.0000   -0.0000    0.0000    0.0000
        4 W      4s         0.0000   -0.0000   -0.0000   -0.0000
        5 W      5s        -0.0000   -0.0000    0.0000    0.0000
        6 W      6s        -0.0000    0.0000   -0.0000   -0.0000
        7 W      7s        -0.0000    0.0000   -0.0000    0.0000
        8 W      8s        -0.0000    0.0000   -0.0000   -0.0000
        9 W      9s        -0.0000   -0.0000    0.0000    0.0000
       10 W     10s         0.0000   -0.0000    0.0000   -0.0000
       11 W     11s        -0.0000   -0.0000    0.0000    0.0000
       12 W      2px        0.0000    0.0000   -0.0000   -0.0000
       13 W      3px        0.0000    0.0000   -0.0000   -0.0019
       14 W      4px       -0.0000   -0.0000    0.0000    0.0003
       15 W      5px        0.0000    0.0000   -0.0000   -0.0001
       16 W      6px       -0.0000   -0.0000    0.0000    0.0000
       17 W      7px        0.0000    0.0000   -0.0000   -0.0001
       18 W      8px       -0.0000   -0.0000    0.0000    0.0001
       19 W      9px        0.0000    0.0000   -0.0000   -0.0001
       20 W     10px       -0.0000   -0.0000    0.0000    0.0001
       21 W     11px        0.0000    0.0000   -0.0000   -0.0001
       22 W      2py        0.0000   -0.0000   -0.0000    0.0000
       23 W      3py        0.0000   -0.0000   -0.0016    0.0000
       24 W      4py       -0.0000    0.0000    0.0002   -0.0000
       25 W      5py        0.0000   -0.0000   -0.0001    0.0000
       26 W      6py       -0.0000    0.0000    0.0000   -0.0000
       27 W      7py        0.0000   -0.0000   -0.0001    0.0000
       28 W      8py       -0.0000    0.0000    0.0001   -0.0000
       29 W      9py        0.0000   -0.0000   -0.0001    0.0000
       30 W     10py       -0.0000    0.0000    0.0001   -0.0000
       31 W     11py        0.0000   -0.0000   -0.0001    0.0000
       32 W      2pz        0.0000   -0.0000    0.0000   -0.0000
       33 W      3pz        0.0000   -0.0016    0.0000   -0.0000
       34 W      4pz       -0.0000    0.0002   -0.0000    0.0000
       35 W      5pz        0.0000   -0.0001    0.0000   -0.0000
       36 W      6pz       -0.0000    0.0000   -0.0000    0.0000
       37 W      7pz        0.0000   -0.0001    0.0000   -0.0000
       38 W      8pz       -0.0000    0.0001   -0.0000    0.0000
       39 W      9pz       -0.0000   -0.0001    0.0000   -0.0000
       40 W     10pz       -0.0000    0.0001   -0.0000    0.0000
       41 W     11pz        0.0000   -0.0001    0.0000   -0.0000
       42 W      3d2-      -0.0000    0.0000    0.9917   -0.0000
       43 W      4d2-       0.0000   -0.0000   -0.0959    0.0000
       44 W      5d2-      -0.0000    0.0000    0.0186   -0.0000
       45 W      6d2-       0.0000   -0.0000   -0.0254    0.0000
       46 W      7d2-      -0.0000    0.0000    0.0328   -0.0000
       47 W      8d2-       0.0000   -0.0000   -0.0372    0.0000
       48 W      9d2-      -0.0000    0.0000    0.0370   -0.0000
       49 W     10d2-       0.0000   -0.0000   -0.0397    0.0000
       50 W     11d2-      -0.0000    0.0000    0.0299   -0.0000
       51 W      3d1-       0.0001    0.0000    0.0024   -0.0000
       52 W      4d1-      -0.0000   -0.0000   -0.0002    0.0000
       53 W      5d1-       0.0000    0.0000    0.0000   -0.0000
       54 W      6d1-      -0.0000   -0.0000   -0.0001    0.0000
       55 W      7d1-       0.0000    0.0000    0.0001   -0.0000
       56 W      8d1-      -0.0000   -0.0000   -0.0001    0.0000
       57 W      9d1-       0.0000    0.0000    0.0001   -0.0000
       58 W     10d1-      -0.0000   -0.0000   -0.0001    0.0000
       59 W     11d1-       0.0000    0.0000    0.0001   -0.0000
       60 W      3d0        0.8589    0.0026   -0.0000   -0.4958
       61 W      4d0       -0.0830   -0.0003    0.0000    0.0479
       62 W      5d0        0.0161    0.0000   -0.0000   -0.0093
       63 W      6d0       -0.0220   -0.0001    0.0000    0.0127
       64 W      7d0        0.0284    0.0001   -0.0000   -0.0164
       65 W      8d0       -0.0322   -0.0001    0.0000    0.0186
       66 W      9d0        0.0320    0.0001   -0.0000   -0.0185
       67 W     10d0       -0.0344   -0.0001    0.0000    0.0198
       68 W     11d0        0.0259    0.0001   -0.0000   -0.0150
       69 W      3d1+      -0.0012    0.9917   -0.0000    0.0031
       70 W      4d1+       0.0001   -0.0959    0.0000   -0.0003
       71 W      5d1+      -0.0000    0.0186   -0.0000    0.0001
       72 W      6d1+       0.0000   -0.0254    0.0000   -0.0001
       73 W      7d1+      -0.0000    0.0328   -0.0000    0.0001
       74 W      8d1+       0.0000   -0.0372    0.0000   -0.0001
       75 W      9d1+      -0.0000    0.0370   -0.0000    0.0001
       76 W     10d1+       0.0000   -0.0397    0.0000   -0.0001
       77 W     11d1+      -0.0000    0.0299   -0.0000    0.0001
       78 W      3d2+       0.4959   -0.0021    0.0000    0.8589
       79 W      4d2+      -0.0479    0.0002   -0.0000   -0.0830
       80 W      5d2+       0.0093   -0.0000    0.0000    0.0161
       81 W      6d2+      -0.0127    0.0001   -0.0000   -0.0220
       82 W      7d2+       0.0164   -0.0001    0.0000    0.0284
       83 W      8d2+      -0.0186    0.0001   -0.0000   -0.0322
       84 W      9d2+       0.0185   -0.0001    0.0000    0.0320
       85 W     10d2+      -0.0198    0.0001   -0.0000   -0.0344
       86 W     11d2+       0.0150   -0.0001    0.0000    0.0259
       87 W      4f3-      -0.0000    0.0000    0.0002   -0.0000
       88 W      5f3-       0.0000   -0.0000   -0.0001    0.0000
       89 W      6f3-      -0.0000    0.0000    0.0001   -0.0000
       90 W      7f3-       0.0000   -0.0000   -0.0001    0.0000
       91 W      8f3-      -0.0000    0.0000    0.0001   -0.0000
       92 W      9f3-       0.0000   -0.0000   -0.0001    0.0000
       93 W     10f3-      -0.0000    0.0000    0.0001   -0.0000
       94 W     11f3-       0.0000   -0.0000   -0.0000    0.0000
       95 W      4f2-       0.0000    0.0000    0.0000   -0.0000
       96 W      5f2-      -0.0000   -0.0000   -0.0000    0.0000
       97 W      6f2-       0.0000    0.0000    0.0000   -0.0000
       98 W      7f2-      -0.0000   -0.0000   -0.0000    0.0000
       99 W      8f2-       0.0000    0.0000    0.0000   -0.0000
      100 W      9f2-      -0.0000   -0.0000   -0.0000    0.0000
      101 W     10f2-       0.0000    0.0000    0.0000   -0.0000
      102 W     11f2-      -0.0000   -0.0000   -0.0000    0.0000
      103 W      4f1-       0.0000   -0.0000   -0.0000    0.0000
      104 W      5f1-      -0.0000    0.0000    0.0000   -0.0000
      105 W      6f1-       0.0000   -0.0000   -0.0000    0.0000
      106 W      7f1-      -0.0000    0.0000    0.0000   -0.0000
      107 W      8f1-       0.0000   -0.0000   -0.0000    0.0000
      108 W      9f1-      -0.0000    0.0000    0.0000   -0.0000
      109 W     10f1-       0.0000   -0.0000   -0.0000    0.0000
      110 W     11f1-      -0.0000    0.0000    0.0000   -0.0000
      111 W      4f0        0.0000   -0.0001    0.0000   -0.0000
      112 W      5f0       -0.0000    0.0001   -0.0000    0.0000
      113 W      6f0        0.0000   -0.0001    0.0000   -0.0000
      114 W      7f0       -0.0000    0.0001   -0.0000    0.0000
      115 W      8f0        0.0000   -0.0001    0.0000   -0.0000
      116 W      9f0       -0.0000    0.0000   -0.0000    0.0000
      117 W     10f0        0.0000   -0.0000    0.0000   -0.0000
      118 W     11f0       -0.0000    0.0000   -0.0000    0.0000
      119 W      4f1+       0.0001    0.0000   -0.0000   -0.0001
      120 W      5f1+      -0.0001   -0.0000    0.0000    0.0001
      121 W      6f1+       0.0001    0.0000   -0.0000   -0.0001
      122 W      7f1+      -0.0001   -0.0000    0.0000    0.0001
      123 W      8f1+       0.0001    0.0000   -0.0000   -0.0001
      124 W      9f1+      -0.0000   -0.0000    0.0000    0.0000
      125 W     10f1+       0.0000    0.0000   -0.0000   -0.0000
      126 W     11f1+      -0.0000   -0.0000    0.0000    0.0000
      127 W      4f2+      -0.0000    0.0001   -0.0000    0.0000
      128 W      5f2+       0.0000   -0.0001    0.0000   -0.0000
      129 W      6f2+      -0.0000    0.0001   -0.0000    0.0000
      130 W      7f2+       0.0000   -0.0001    0.0000   -0.0000
      131 W      8f2+      -0.0000    0.0001   -0.0000    0.0000
      132 W      9f2+       0.0000   -0.0001    0.0000   -0.0000
      133 W     10f2+      -0.0000    0.0000   -0.0000    0.0000
      134 W     11f2+       0.0000   -0.0000    0.0000   -0.0000
      135 W      4f3+       0.0001   -0.0000    0.0000    0.0002
      136 W      5f3+      -0.0001    0.0000   -0.0000   -0.0001
      137 W      6f3+       0.0001   -0.0000    0.0000    0.0001
      138 W      7f3+      -0.0001    0.0000   -0.0000   -0.0001
      139 W      8f3+       0.0000   -0.0000    0.0000    0.0001
      140 W      9f3+      -0.0000    0.0000   -0.0000   -0.0001
      141 W     10f3+       0.0000   -0.0000    0.0000    0.0000
      142 W     11f3+      -0.0000    0.0000   -0.0000   -0.0000
      143 W      5g4-       0.0000   -0.0000   -0.0000    0.0000
      144 W      6g4-      -0.0000    0.0000    0.0000   -0.0000
      145 W      7g4-       0.0000   -0.0000   -0.0000    0.0000
      146 W      8g4-       0.0000    0.0000    0.0000   -0.0000
      147 W      5g3-      -0.0000   -0.0000   -0.0000    0.0000
      148 W      6g3-       0.0000    0.0000    0.0000   -0.0000
      149 W      7g3-      -0.0000    0.0000    0.0000    0.0000
      150 W      8g3-       0.0000    0.0000    0.0000   -0.0000
      151 W      5g2-      -0.0000    0.0000    0.0000   -0.0000
      152 W      6g2-       0.0000   -0.0000   -0.0000    0.0000
      153 W      7g2-      -0.0000    0.0000    0.0000   -0.0000
      154 W      8g2-      -0.0000   -0.0000   -0.0000    0.0000
      155 W      5g1-       0.0000    0.0000    0.0000   -0.0000
      156 W      6g1-      -0.0000   -0.0000   -0.0000    0.0000
      157 W      7g1-       0.0000    0.0000    0.0000   -0.0000
      158 W      8g1-      -0.0000   -0.0000   -0.0000    0.0000
      159 W      5g0        0.0000    0.0000   -0.0000   -0.0000
      160 W      6g0       -0.0000   -0.0000    0.0000    0.0000
      161 W      7g0        0.0000    0.0000   -0.0000   -0.0000
      162 W      8g0       -0.0000    0.0000   -0.0000    0.0000
      163 W      5g1+      -0.0000    0.0000   -0.0000    0.0000
      164 W      6g1+       0.0000   -0.0000    0.0000   -0.0000
      165 W      7g1+       0.0000    0.0000   -0.0000   -0.0000
      166 W      8g1+       0.0000   -0.0000    0.0000   -0.0000
      167 W      5g2+      -0.0000   -0.0000    0.0000    0.0000
      168 W      6g2+       0.0000   -0.0000    0.0000   -0.0000
      169 W      7g2+      -0.0000   -0.0000    0.0000    0.0000
      170 W      8g2+       0.0000   -0.0000    0.0000   -0.0000
      171 W      5g3+      -0.0000   -0.0000    0.0000   -0.0000
      172 W      6g3+      -0.0000    0.0000   -0.0000    0.0000
      173 W      7g3+      -0.0000   -0.0000    0.0000   -0.0000
      174 W      8g3+      -0.0000    0.0000   -0.0000   -0.0000
      175 W      5g4+      -0.0000    0.0000   -0.0000   -0.0000
      176 W      6g4+       0.0000   -0.0000    0.0000    0.0000
      177 W      7g4+      -0.0000   -0.0000    0.0000   -0.0000
      178 W      8g4+       0.0000   -0.0000    0.0000    0.0000
      179 W      6h5-      -0.0000    0.0000    0.0000   -0.0000
      180 W      7h5-      -0.0000   -0.0000   -0.0000    0.0000
      181 W      6h4-       0.0000   -0.0000   -0.0000    0.0000
      182 W      7h4-      -0.0000   -0.0000   -0.0000   -0.0000
      183 W      6h3-       0.0000   -0.0000   -0.0000   -0.0000
      184 W      7h3-       0.0000    0.0000    0.0000    0.0000
      185 W      6h2-      -0.0000   -0.0000   -0.0000    0.0000
      186 W      7h2-       0.0000   -0.0000   -0.0000   -0.0000
      187 W      6h1-       0.0000    0.0000    0.0000   -0.0000
      188 W      7h1-       0.0000   -0.0000   -0.0000    0.0000
      189 W      6h0        0.0000    0.0000   -0.0000   -0.0000
      190 W      7h0        0.0000   -0.0000    0.0000   -0.0000
      191 W      6h1+      -0.0000   -0.0000    0.0000    0.0000
      192 W      7h1+       0.0000   -0.0000    0.0000   -0.0000
      193 W      6h2+      -0.0000   -0.0000    0.0000   -0.0000
      194 W      7h2+      -0.0000    0.0000   -0.0000    0.0000
      195 W      6h3+       0.0000   -0.0000    0.0000   -0.0000
      196 W      7h3+      -0.0000   -0.0000    0.0000    0.0000
      197 W      6h4+       0.0000    0.0000   -0.0000    0.0000
      198 W      7h4+       0.0000   -0.0000    0.0000   -0.0000
      199 W      6h5+       0.0000   -0.0000    0.0000    0.0000
      200 W      7h5+      -0.0000   -0.0000    0.0000   -0.0000
--


++    Molecular charges:
      ------------------

      Mulliken charges per centre and basis function type
      ---------------------------------------------------

                W     
      1s       2.0000
      2s       2.0000
      2px      2.0000
      2pz      2.0000
      2py      2.0000
      3s       1.9811
      3px      1.9730
      3pz      1.9730
      3py      1.9730
      4s       0.0128
      3d2+     0.0000
      3d1+     0.0000
      3d0      0.0000
      3d1-     0.0000
      3d2-     0.0000
      4px      0.0167
      4pz      0.0167
      4py      0.0167
      5s       0.0011
      4d2+     0.0000
      4d1+     0.0000
      4d0      0.0000
      4d1-     0.0000
      4d2-     0.0000
      5px      0.0013
      5pz      0.0013
      5py      0.0013
      6s       0.0001
      4f3+     0.0000
      4f2+     0.0000
      4f1+     0.0000
      4f0      0.0000
      4f1-     0.0000
      4f2-     0.0000
      4f3-     0.0000
      5d2+     0.0000
      5d1+     0.0000
      5d0      0.0000
      5d1-     0.0000
      5d2-     0.0000
      6px      0.0002
      6pz      0.0002
      6py      0.0002
      7s       0.0001
      5f3+     0.0000
      5f2+     0.0000
      5f1+     0.0000
      5f0      0.0000
      5f1-     0.0000
      5f2-     0.0000
      5f3-     0.0000
      6d2+     0.0000
      6d1+     0.0000
      6d0      0.0000
      6d1-     0.0000
      6d2-     0.0000
      7px      0.0018
      7pz      0.0018
      7py      0.0018
      5g4+     0.0000
      5g3+     0.0000
      5g2+     0.0000
      5g1+     0.0000
      5g0      0.0000
      5g1-     0.0000
      5g2-     0.0000
      5g3-     0.0000
      5g4-     0.0000
      6f3+     0.0000
      6f2+     0.0000
      6f1+     0.0000
      6f0      0.0000
      6f1-     0.0000
      6f2-     0.0000
      6f3-     0.0000
      6g4+     0.0000
      6g3+     0.0000
      6g2+     0.0000
      6g1+     0.0000
      6g0      0.0000
      6g1-     0.0000
      6g2-     0.0000
      6g3-     0.0000
      6g4-     0.0000
      6h5+     0.0000
      6h4+     0.0000
      6h3+     0.0000
      6h2+     0.0000
      6h1+     0.0000
      6h0      0.0000
      6h1-     0.0000
      6h2-     0.0000
      6h3-     0.0000
      6h4-     0.0000
      6h5-     0.0000
      7d2+     0.0000
      7d1+     0.0000
      7d0      0.0000
      7d1-     0.0000
      7d2-     0.0000
      7f3+     0.0000
      7f2+     0.0000
      7f1+     0.0000
      7f0      0.0000
      7f1-     0.0000
      7f2-     0.0000
      7f3-     0.0000
      7g4+     0.0000
      7g3+     0.0000
      7g2+     0.0000
      7g1+     0.0000
      7g0      0.0000
      7g1-     0.0000
      7g2-     0.0000
      7g3-     0.0000
      7g4-     0.0000
      7h5+     0.0000
      7h4+     0.0000
      7h3+     0.0000
      7h2+     0.0000
      7h1+     0.0000
      7h0      0.0000
      7h1-     0.0000
      7h2-     0.0000
      7h3-     0.0000
      7h4-     0.0000
      7h5-     0.0000
      8s       0.0006
      8px      0.0018
      8pz      0.0018
      8py      0.0018
      8d2+     0.0000
      8d1+     0.0000
      8d0      0.0000
      8d1-     0.0000
      8d2-     0.0000
      8f3+     0.0000
      8f2+     0.0000
      8f1+     0.0000
      8f0      0.0000
      8f1-     0.0000
      8f2-     0.0000
      8f3-     0.0000
      8g4+     0.0000
      8g3+     0.0000
      8g2+     0.0000
      8g1+     0.0000
      8g0      0.0000
      8g1-     0.0000
      8g2-     0.0000
      8g3-     0.0000
      8g4-     0.0000
      9s       0.0010
      9px      0.0019
      9pz      0.0019
      9py      0.0019
      9d2+     0.0000
      9d1+     0.0000
      9d0      0.0000
      9d1-     0.0000
      9d2-     0.0000
      9f3+     0.0000
      9f2+     0.0000
      9f1+     0.0000
      9f0      0.0000
      9f1-     0.0000
      9f2-     0.0000
      9f3-     0.0000
     10s       0.0013
     10px      0.0016
     10pz      0.0016
     10py      0.0016
     10d2+     0.0000
     10d1+     0.0000
     10d0      0.0000
     10d1-     0.0000
     10d2-     0.0000
     10f3+     0.0000
     10f2+     0.0000
     10f1+     0.0000
     10f0      0.0000
     10f1-     0.0000
     10f2-     0.0000
     10f3-     0.0000
     11s       0.0020
     11px      0.0017
     11pz      0.0017
     11py      0.0017
     11d2+     0.0000
     11d1+     0.0000
     11d0      0.0000
     11d1-     0.0000
     11d2-     0.0000
     11f3+     0.0000
     11f2+     0.0000
     11f1+     0.0000
     11f0      0.0000
     11f1-     0.0000
     11f2-     0.0000
     11f3-     0.0000
      Total   18.0000

      N-E     56.0000

      Total electronic charge=   18.000000

      Total            charge=   56.000000
--

 Sorry, Molden does not know how to handle
 functions with angular momentum larger than g

++    Static properties:
      ------------------


      LoProp Charges per center


                   W     
      Nuclear     74.0000
      Electronic -18.0000

      Total       56.0000
--


++    Molecular properties:
      ---------------------

      Charge (e):
                      =   56.0000
      Dipole Moment (Debye):
      Origin of the operator (Ang)=    0.0000    0.0000    0.0000
                   X= -4.3908E-03               Y= -4.9653E-13               Z=  1.2460E+00           Total=  1.2460E+00
      Center of Charge (Ang)
                     X=   -0.00001632               Y=   -0.00000000               Z=    0.00463219
      Quadrupole Moment (Debye*Ang):
      Origin of the operator (Ang)=   -0.0000   -0.0000    0.0046
                  XX= -1.6457E-01              XY= -2.0003E-15              XZ=  6.0384E-09              YY= -1.6457E-01
                  YZ= -5.0887E-16              ZZ= -1.6457E-01
      In traceless form (Debye*Ang)
                  XX=  3.0863E-06              XY= -3.0004E-15              XZ=  9.0576E-09              YY= -1.5431E-06
                  YZ= -7.6331E-16              ZZ= -1.5432E-06
--

 Sorry, Molden does not know how to handle
 functions with angular momentum larger than g
 ###############################################################################
 ###############################################################################
 ###                                                                         ###
 ###                                                                         ###
 ###    WARNING: RunFile label nBas                                          ###
 ###    was used       62 times                                              ###
 ###                                                                         ###
 ###                                                                         ###
 ###############################################################################
 ###############################################################################
Note: The following floating-point exceptions are signalling: IEEE_UNDERFLOW_FLAG IEEE_DENORMAL
--- Stop Module: scf at Wed Mar 26 16:02:27 2025 /rc=_RC_ALL_IS_WELL_ ---
*** files: tungsten_so_cf.LprOrb tungsten_so_cf.ScfOrb xmldump
    saved to directory /home4/s4752295/Internship/Initial_simulations/Point_charge_model/1_electron/Madelung_charges_9_active_space/W
--- Module scf spent 8 seconds ---

*** symbolic link created: INPORB -> tungsten_so_cf.ScfOrb
--- Start Module: rasscf at Wed Mar 26 16:02:28 2025 ---

()()()()()()()()()()()()()()()()()()()()()()()()()()()()()()()()()()()()()()()()()()()()()()()()()()

                                              &RASSCF

                                   only a single process is used
                       available to each process: 4.1 GB of memory, 1 thread?
                                            pid: 2216172
()()()()()()()()()()()()()()()()()()()()()()()()()()()()()()()()()()()()()()()()()()()()()()()()()()


      Header of the ONEINT file:
      --------------------------
      
      Integrals generated by seward 4.2.0  , Wed Mar 26 16:01:58 2025


      OrdInt status: non-squared


      Cartesian coordinates in Angstrom:
      -----------------------------------------------------
      No.  Label        X            Y            Z        
      -----------------------------------------------------
       1   W         -0.00000000  -0.00000000   0.00463220
      -----------------------------------------------------
      Nuclear repulsion energy = -451.34915048

++    Wave function specifications:
      -----------------------------

      Number of closed shell electrons          18
      Number of electrons in active shells       1
      Max number of holes in RAS1 space          0
      Max nr of electrons in RAS3 space          0
      Number of inactive orbitals                9
      Number of active orbitals                  9
      Number of secondary orbitals             182
      Spin quantum number                      0.5
      State symmetry                             1
--

++    Orbital specifications:
      -----------------------

[...]
::    SO-RASSI State   14     Total energy: -13372.06027602
::    SO-RASSI State   15     Total energy: -13372.06027591
::    SO-RASSI State   16     Total energy: -13372.06027591
::    SO-RASSI State   17     Total energy: -13372.05634518
::    SO-RASSI State   18     Total energy: -13372.05634518


   Eigenvalues of complex Hamiltonian:
   -----------------------------------
  (Shifted by EMIN (a.u.) =     -13455.3060928159)

 SO State       Relative EMIN(au)   Rel lowest level(eV)    D:o, cm**(-1)     J-value

     1             0.0000000000        0.0000000000              0.0000         2.1
     2             0.0000000000        0.0000000000              0.0000         2.1
     3             0.0000000037        0.0000001000              0.0008         2.1
     4             0.0000000037        0.0000001000              0.0008         2.1
     5             0.0004544648        0.0123666185             99.7435         2.1
     6             0.0004544648        0.0123666185             99.7435         2.1
     7             0.0004544884        0.0123672594             99.7487         2.1
     8             0.0004544884        0.0123672594             99.7487         2.1
     9             0.0006073949        0.0165280560            133.3078         2.1
    10             0.0006073949        0.0165280560            133.3078         2.1
    11            77.1214521943     2098.5816235111       16926202.2905         0.5
    12            77.1214521943     2098.5816235111       16926202.2905         0.5
    13            83.2458167932     2265.2340741233       18270344.9532         1.2
    14            83.2458167932     2265.2340741233       18270344.9532         1.2
    15            83.2458169098     2265.2340772967       18270344.9788         1.2
    16            83.2458169098     2265.2340772967       18270344.9788         1.2
    17            83.2497476325     2265.3410377091       18271207.6727         1.2
    18            83.2497476325     2265.3410377091       18271207.6727         1.2


 Weights of the five most important spin-orbit-free states for each spin-orbit state.

 SO State  Total energy (au)           Spin-free states, spin, and weights
 -------------------------------------------------------------------------------------------------------
    1         0.000000       1 0.5  1.0000    9 0.5  0.0000    8 0.5  0.0000    7 0.5  0.0000    6 0.5  0.0000
    2         0.000000       1 0.5  1.0000    9 0.5  0.0000    8 0.5  0.0000    7 0.5  0.0000    6 0.5  0.0000
    3         0.000000       2 0.5  1.0000    9 0.5  0.0000    8 0.5  0.0000    7 0.5  0.0000    6 0.5  0.0000
    4         0.000000       2 0.5  1.0000    9 0.5  0.0000    8 0.5  0.0000    7 0.5  0.0000    6 0.5  0.0000
    5         0.000454       3 0.5  1.0000    9 0.5  0.0000    8 0.5  0.0000    7 0.5  0.0000    6 0.5  0.0000
    6         0.000454       3 0.5  1.0000    9 0.5  0.0000    8 0.5  0.0000    7 0.5  0.0000    6 0.5  0.0000
    7         0.000454       4 0.5  1.0000    9 0.5  0.0000    8 0.5  0.0000    7 0.5  0.0000    6 0.5  0.0000
    8         0.000454       4 0.5  1.0000    9 0.5  0.0000    8 0.5  0.0000    7 0.5  0.0000    6 0.5  0.0000
    9         0.000607       5 0.5  1.0000    9 0.5  0.0000    8 0.5  0.0000    7 0.5  0.0000    6 0.5  0.0000
   10         0.000607       5 0.5  1.0000    9 0.5  0.0000    8 0.5  0.0000    7 0.5  0.0000    6 0.5  0.0000
   11        77.121452       6 0.5  1.0000    9 0.5  0.0000    8 0.5  0.0000    7 0.5  0.0000    5 0.5  0.0000
   12        77.121452       6 0.5  1.0000    9 0.5  0.0000    8 0.5  0.0000    7 0.5  0.0000    5 0.5  0.0000
   13        83.245817       7 0.5  1.0000    9 0.5  0.0000    8 0.5  0.0000    6 0.5  0.0000    5 0.5  0.0000
   14        83.245817       7 0.5  1.0000    9 0.5  0.0000    8 0.5  0.0000    6 0.5  0.0000    5 0.5  0.0000
   15        83.245817       8 0.5  1.0000    9 0.5  0.0000    7 0.5  0.0000    6 0.5  0.0000    5 0.5  0.0000
   16        83.245817       8 0.5  1.0000    9 0.5  0.0000    7 0.5  0.0000    6 0.5  0.0000    5 0.5  0.0000
   17        83.249748       9 0.5  1.0000    8 0.5  0.0000    7 0.5  0.0000    6 0.5  0.0000    5 0.5  0.0000
   18        83.249748       9 0.5  1.0000    8 0.5  0.0000    7 0.5  0.0000    6 0.5  0.0000    5 0.5  0.0000
 -------------------------------------------------------------------------------------------------------


      ****************************************************************************************************
      *                                                                                                  *
      *                                    Special properties section                                    *
      *                                                                                                  *
      ****************************************************************************************************


++ Dipole transition strengths (SO states):
   ----------------------------------------
    for osc. strength at least    1.0000000000000001E-005

      From   To        Osc. strength     Einstein coefficients Ax, Ay, Az (sec-1)    Total A (sec-1)
     -----------------------------------------------------------------------------------------------
         1   13       1.34049528E-02  2.94187603E-02  2.98469184E+12  2.28012558E+04  2.98469186E+12
         1   15       1.34049632E-02  1.70638667E+07  2.27999230E+04  2.98467709E+12  2.98469417E+12
         2   14       1.34049528E-02  2.94187603E-02  2.98469184E+12  2.28012558E+04  2.98469186E+12
         2   16       1.34049632E-02  1.70638667E+07  2.27999230E+04  2.98467709E+12  2.98469417E+12
         3   13       1.34050886E-02  4.40613326E+06  2.28006022E+04  2.98471766E+12  2.98472209E+12
         3   15       1.34048343E-02  1.36396508E-01  2.98466546E+12  2.28004568E+04  2.98466549E+12
         4   14       1.34050886E-02  4.40613326E+06  2.28006022E+04  2.98471766E+12  2.98472209E+12
         4   16       1.34048343E-02  1.36396508E-01  2.98466546E+12  2.28004568E+04  2.98466549E+12
         5   13       1.33968800E-02  2.98285550E+12  1.63992975E-04  6.32112130E+06  2.98286182E+12
         5   17       1.34066045E-02  1.23424845E+07  6.88257713E+01  2.98529659E+12  2.98530894E+12
         6   14       1.33968800E-02  2.98285550E+12  1.63992975E-04  6.32112130E+06  2.98286182E+12
         6   18       1.34066045E-02  1.23424845E+07  6.88257713E+01  2.98529659E+12  2.98530894E+12
         7   15       1.33968827E-02  2.98284543E+12  6.79564394E-05  1.70114170E+07  2.98286244E+12
         7   17       1.34065943E-02  1.65013590E-04  2.98530666E+12  6.88256614E+01  2.98530666E+12
         8   16       1.33968827E-02  2.98284543E+12  6.79564394E-05  1.70114170E+07  2.98286244E+12
         8   18       1.34065943E-02  1.65013590E-04  2.98530666E+12  6.88256614E+01  2.98530666E+12
         9   13       4.47074465E-03  5.14272950E+06  3.41111645E+01  9.95418014E+11  9.95423157E+11
         9   15       4.47099089E-03  1.03186581E-04  9.95477985E+11  3.40490526E+01  9.95477985E+11
         9   17       1.78593097E-02  3.97678368E+12  1.49364953E-05  1.45491595E+07  3.97679823E+12
        10   14       4.47074465E-03  5.14272950E+06  3.41111645E+01  9.95418014E+11  9.95423157E+11
        10   16       4.47099089E-03  1.03186581E-04  9.95477985E+11  3.40490526E+01  9.95477985E+11
        10   18       1.78593097E-02  3.97678368E+12  1.49364953E-05  1.45491595E+07  3.97679823E+12
        11   13       1.77757837E-01  5.17247012E+05  7.33402276E+00  2.14219577E+11  2.14220094E+11
        11   15       1.77757837E-01  1.48811082E-05  2.14220102E+11  7.33400860E+00  2.14220102E+11
        11   17       1.77725540E-01  2.14455681E+11  1.23218739E-07  5.17936737E+05  2.14456199E+11
        12   14       1.77757837E-01  5.17247012E+05  7.33402276E+00  2.14219577E+11  2.14220094E+11
        12   16       1.77757837E-01  1.48811082E-05  2.14220102E+11  7.33400860E+00  2.14220102E+11
        12   18       1.77725540E-01  2.14455681E+11  1.23218739E-07  5.17936737E+05  2.14456199E+11
     -----------------------------------------------------------------------------------------------
--

++ Velocity transition strengths (SO states):
   ------------------------------------------
    for osc. strength at least    1.0000000000000001E-005

      From   To        Osc. strength     Einstein coefficients Ax, Ay, Az (sec-1)    Total A (sec-1)
     -----------------------------------------------------------------------------------------------
         1    5       5.64489096E-05  1.41053138E-15  3.74599363E-01  2.93109921E-09  3.74599365E-01
         1    7       5.64456430E-05  1.35283319E-07  2.93063270E-09  3.74616372E-01  3.74616510E-01
         1   13       1.32382334E-02  2.90528820E-02  2.94758103E+12  2.25177516E+04  2.94758106E+12
         1   15       1.32382436E-02  1.68516794E+07  2.25164353E+04  2.94756646E+12  2.94758334E+12
         2    6       5.64489096E-05  1.41053138E-15  3.74599363E-01  2.93109921E-09  3.74599365E-01
         2    8       5.64456430E-05  1.35283319E-07  2.93063270E-09  3.74616372E-01  3.74616510E-01
         2   14       1.32382334E-02  2.90528820E-02  2.94758103E+12  2.25177516E+04  2.94758106E+12
         2   16       1.32382436E-02  1.68516794E+07  2.25164353E+04  2.94756646E+12  2.94758334E+12
         3    5       5.64506720E-05  1.40983444E-07  2.93080385E-09  3.74604856E-01  3.74605000E-01
         3    7       5.64443195E-05  1.02782436E-15  3.74601664E-01  2.93082924E-09  3.74601666E-01
         3   13       1.32383675E-02  4.35136406E+06  2.25171060E+04  2.94760653E+12  2.94761090E+12
         3   15       1.32381164E-02  1.34700705E-01  2.94755499E+12  2.25169625E+04  2.94755501E+12
         4    6       5.64506720E-05  1.40983444E-07  2.93080385E-09  3.74604856E-01  3.74605000E-01
         4    8       5.64443195E-05  1.02782436E-15  3.74601664E-01  2.93082924E-09  3.74601666E-01
         4   14       1.32383675E-02  4.35136406E+06  2.25171060E+04  2.94760653E+12  2.94761090E+12
         4   16       1.32381164E-02  1.34700705E-01  2.94755499E+12  2.25169625E+04  2.94755501E+12
         5    9       5.03415163E-04  1.39479216E-07  8.72189388E-12  3.78287881E-01  3.78288021E-01
         5   13       1.32303131E-02  2.94577913E+12  1.62041625E-04  6.24254528E+06  2.94578537E+12
         5   17       1.32398353E-02  1.21889830E+07  6.79698576E+01  2.94817174E+12  2.94818393E+12
         6   10       5.03415163E-04  1.39479216E-07  8.72189388E-12  3.78287881E-01  3.78288021E-01
         6   14       1.32303131E-02  2.94577913E+12  1.62041625E-04  6.24254528E+06  2.94578537E+12
         6   18       1.32398353E-02  1.21889830E+07  6.79698576E+01  2.94817174E+12  2.94818393E+12
         7    9       5.03500662E-04  2.20003404E-19  3.78235749E-01  8.71486287E-12  3.78235749E-01
         7   15       1.32303158E-02  2.94576919E+12  6.71066991E-05  1.67999860E+07  2.94578599E+12
         7   17       1.32398252E-02  1.62992524E-04  2.94818168E+12  6.79697534E+01  2.94818168E+12
         8   10       5.03500662E-04  2.20003404E-19  3.78235749E-01  8.71486287E-12  3.78235749E-01
         8   16       1.32303158E-02  2.94576919E+12  6.71066991E-05  1.67999860E+07  2.94578599E+12
         8   18       1.32398252E-02  1.62992524E-04  2.94818168E+12  6.79697534E+01  2.94818168E+12
         9   13       4.41509609E-03  5.07878104E+06  3.36867208E+01  9.83031195E+11  9.83036274E+11
         9   15       4.41533926E-03  1.01877554E-04  9.83090421E+11  3.36253181E+01  9.83090421E+11
         9   17       1.76373127E-02  3.92736462E+12  1.47509900E-05  1.43683148E+07  3.92737899E+12
        10   14       4.41509609E-03  5.07878104E+06  3.36867208E+01  9.83031195E+11  9.83036274E+11
        10   16       4.41533926E-03  1.01877554E-04  9.83090421E+11  3.36253181E+01  9.83090421E+11
        10   18       1.76373127E-02  3.92736462E+12  1.47509900E-05  1.43683148E+07  3.92737899E+12
        11   13       1.46114936E-01  4.25162156E+05  6.02850523E+00  1.76086687E+11  1.76087112E+11
        11   15       1.46114936E-01  1.22315732E-05  1.76087119E+11  6.02849303E+00  1.76087119E+11
        11   17       1.46091985E-01  1.76285102E+11  1.01269708E-07  4.25760666E+05  1.76285528E+11
        12   14       1.46114936E-01  4.25162156E+05  6.02850523E+00  1.76086687E+11  1.76087112E+11
        12   16       1.46114936E-01  1.22315732E-05  1.76087119E+11  6.02849303E+00  1.76087119E+11
        12   18       1.46091985E-01  1.76285102E+11  1.01269708E-07  4.25760666E+05  1.76285528E+11
        13   15       2.09429908E-05  1.75715662E-22  9.15142181E-09  1.77256818E-20  9.15142181E-09
        13   17       6.97923540E-04  1.31051325E-04  1.18620555E-08  3.46488751E+02  3.46488882E+02
        14   16       2.09429908E-05  1.75715662E-22  9.15142181E-09  1.77256818E-20  9.15142181E-09
        14   18       6.97923540E-04  1.31051325E-04  1.18620555E-08  3.46488751E+02  3.46488882E+02
        15   17       6.97943532E-04  6.56841029E-15  3.46478248E+02  1.18617704E-08  3.46478248E+02
        16   18       6.97943532E-04  6.56841029E-15  3.46478248E+02  1.18617704E-08  3.46478248E+02
     -----------------------------------------------------------------------------------------------
--

++ Length and velocity gauge comparison (SO states):

 --------------------------------------------------
 A comparison between the dipole oscillator strengths in 
 length and velocity gauge will be performed

 All dipole oscillator differences above the tolerance of   0.10000000000000001       will be printed 

 Due to basis set deficiency these oscillator may be problematic 

 The tolerance is defined as ABS(1-O_l/O_v) 
 O_l : dipole oscillator strength in length gauge
 O_p : dipole oscillator strength in velocity gauge
 --------------------------------------------------

  Problematic transitions have been found

      From   To       Difference (%) Osc. st. (len.) Osc. st. (vel.)
     ---------------------------------------------------------------
         1    5      --------------- below threshold  5.64489096E-05
         1    7      --------------- below threshold  5.64456430E-05
         2    6      --------------- below threshold  5.64489096E-05
         2    8      --------------- below threshold  5.64456430E-05
         3    5      --------------- below threshold  5.64506720E-05
         3    7      --------------- below threshold  5.64443195E-05
         4    6      --------------- below threshold  5.64506720E-05
         4    8      --------------- below threshold  5.64443195E-05
         5    9      --------------- below threshold  5.03415163E-04
         6   10      --------------- below threshold  5.03415163E-04
         7    9      --------------- below threshold  5.03500662E-04
         8   10      --------------- below threshold  5.03500662E-04
        11   13            21.656171  1.77757837E-01  1.46114936E-01
        11   15            21.656171  1.77757837E-01  1.46114936E-01
        11   17            21.653176  1.77725540E-01  1.46091985E-01
        12   14            21.656171  1.77757837E-01  1.46114936E-01
        12   16            21.656171  1.77757837E-01  1.46114936E-01
        12   18            21.653176  1.77725540E-01  1.46091985E-01
        13   15      --------------- below threshold  2.09429908E-05
        13   17      --------------- below threshold  6.97923540E-04
        14   16      --------------- below threshold  2.09429908E-05
        14   18      --------------- below threshold  6.97923540E-04
        15   17      --------------- below threshold  6.97943532E-04
        16   18      --------------- below threshold  6.97943532E-04
     ---------------------------------------------------------------

 Number of problematic transitions =                    24

--

 Electric-dipole - electric-octupole not included
++ Total transition strengths for the second-order expansion of the wave vector (SO states):
   -----------------------------------------------------------------------------------------
    for osc. strength at least    1.0000000000000001E-005

      From   To        Osc. strength
     -------------------------------
         1   11       5.84924886E-05
         2   12       5.84924886E-05
         3   11       5.84924883E-05
         4   12       5.84924883E-05
         5   11       5.84784035E-05
         6   12       5.84784035E-05
         7   11       5.84784022E-05
         8   12       5.84784022E-05
         9   11       5.84736964E-05
        10   12       5.84736964E-05
     -------------------------------
--

++ I/O STATISTICS
 
  I. General I/O information
  - - - - - - - - - - - - - - - - - - - - - - - - - - - - - - - - - - - - - - - - - - -
  Unit  Name          Flsize      Write/Read            MBytes           Write/Read
                      (MBytes)       Calls              In/Out           Time, sec.
  - - - - - - - - - - - - - - - - - - - - - - - - - - - - - - - - - - - - - - - - - - -
   1  SCRATCH           0.00 .       9/      45 .      0.0/      0.0 .       0/       0
   2  ANNI              0.00 .       0/       0 .      0.0/      0.0 .       0/       0
   3  RUNFILE          15.31 .     322/   10517 .      2.3/     76.3 .       0/       0
   4  ONEINT            6.58 .       0/   28767 .      0.0/   3777.9 .       0/       0
   5  JOBIPH            7.70 .       0/      92 .      0.0/      0.9 .       0/       0
   6  ORDINT          771.03 .       1/    6169 .      0.0/   1542.0 .       0/       0
  - - - - - - - - - - - - - - - - - - - - - - - - - - - - - - - - - - - - - - - - - - -
   *  TOTAL           800.62 .     332/   45590 .      2.3/   5397.1 .       0/       0
  - - - - - - - - - - - - - - - - - - - - - - - - - - - - - - - - - - - - - - - - - - -
 
  II. I/O Access Patterns
  - - - - - - - - - - - - - - - - - - - -
  Unit  Name               % of random
                         Write/Read calls
  - - - - - - - - - - - - - - - - - - - -
   1  SCRATCH             88.9/ 100.0
   2  ANNI                 0.0/   0.0
   3  RUNFILE             28.6/  10.8
   4  ONEINT               0.0/  13.4
   5  JOBIPH               0.0/  76.1
   6  ORDINT             100.0/   0.0
  - - - - - - - - - - - - - - - - - - - -
--
--- Stop Module: rassi at Wed Mar 26 16:03:13 2025 /rc=_RC_ALL_IS_WELL_ ---
*** files: xmldump
    saved to directory /home4/s4752295/Internship/Initial_simulations/Point_charge_model/1_electron/Madelung_charges_9_active_space/W
--- Module rassi spent 4 seconds ---

.##################.
.# Happy landing! #.
.##################.

    Timing: Wall=74.71 User=61.68 System=11.03

###############################################################################
Hbrk Cluster
Job 15909514 for user s4752295
Finished at: Wed Mar 26 16:03:17 CET 2025

Job details:
============

Job ID                         : 15909514
Name                           : W_no_SO
User                           : s4752295
Partition                      : regularmedium
Nodes                          : node72
Number of Nodes                : 1
Cores                          : 1
Number of Tasks                : 1
State                          : COMPLETED  
Submit                         : 2025-03-26T16:01:22
Start                          : 2025-03-26T16:01:53
End                            : 2025-03-26T16:03:13
Reserved walltime              : 15:00:00
Used walltime                  : 00:01:20
Used CPU time                  : 00:01:14 (Efficiency: 92.60%)
% User (Computation)           : 84.72%
% System (I/O)                 : 15.28%
Total memory reserved          : 25000M
Maximum memory used            : 3.04G

Acknowledgements:
=================

Please see this page for information about acknowledging Hbrk in your publications:

https://wiki.hpc.rug.nl/habrok/introduction/scientific_output

################################################################################
