   This run of MOLCAS is using the pymolcas driver

                             OPE
                             OPE          NMOL  CASOP  ENMOLC A   SO
                 OPE        NMOLC        AS  OP EN  MO LC     AS  OP
                OPENM       OL CA        SO  PE NM  OL CA     SOP EN
                OP EN      MO   LC       AS  OP ENMOL  CASO   PENMOL
                OP  EN     MO   LC       AS  OP EN     MO     LC ASO
               OP   E  NMOL  C  AS       OP  EN MO     LC     AS  OP
               OP  E   NMO   LC AS        OPEN  MO     LCASOP EN   M
               O  PEN   MO  LCA  SO
            OPE   NMO   L   CAS    OP
        OPENMOL  CASOP     ENMOL   CASOPE
     OPENMOLCA   SOPENMOLCASOPEN   MOLCASOPE
    OPENMOLCAS   OP           EN   MOL    CAS
    OPENMOLCAS       OP  ENM        O     LCA
    OPENMOLCAS    OPEN  MOLCASO     P  E  NMO
    OPENMOLCAS     OP               E  N  MOL
    OPENMOLCA   SO           PENM   O  L  CAS    OPEN    MO    LCAS
    OPENMOLCA   SOP           ENM   O  L  CAS   OP  EN  MOLC  AS   O
    OPENMOLCA   SOPE           NM      O  LCA   S      OP  EN MO
    OPENMOLC                AS         O  PEN   M      OL  CA  SOPE
    OPENMO        LCASOPE  NMOL        C  ASO   P      ENMOLC     AS
    OPE     NMO      LCA  SO     P     E   NM   OL  CA SO  PE N   MO
          OPENMOLCA            SOPE   NMO        LCAS  O    P  ENMO
     OPENMOLCASOPENMOLCASOPENMOLCASOPENMOLCA
        OPENMOLCASOPENMOLCASOPENMOLCASOPE
            OPENMOLCASOPENMOLCASOPENM
               OPENMOLCASOPENMOLCA        version: o91e1abe7de707b ?
                   OPENMOLCASO
                       OPE                tag:

 OpenMolcas is free software; you can redistribute it and/or modify it
 under the terms of the GNU Lesser General Public License version 2.1.
 OpenMolcas is distributed in the hope that it will be useful, but it
 is provided "as is" and without any express or implied warranties.
 For more details see the full text of the license in the file
 LICENSE or in <http://www.gnu.org/licenses/>.

                 Copyright (C) The OpenMolcas Authors
           For the author list and the recommended citation,
                   consult the file CONTRIBUTORS.md

           *************************************************
           * pymolcas version py2.10                       *
           *   build 3068ae8b88c9345ec6cfef6fef7f1169      *
           *   (after the EMIL interpreter by V. Veryazov) *
           *************************************************

configuration info
------------------
Host name: login1 (Linux)
C Compiler ID: GNU
C flags: -std=gnu99
Fortran Compiler ID: GNU
Fortran flags: -fno-aggressive-loop-optimizations -cpp -fdefault-integer-8 -fmax-stack-var-size=1048576
Definitions: _MOLCAS_;_I8_;_LINUX_;_MKL_
Parallel: OFF (GA=OFF)


   ----------------------------------------------------------------------------------------------------------------------------------
  |
  |           Project: vanadium_so_cf
  |    Submitted from: /home4/s4752295/Internship/Initial_simulations/Point_charge_model/1_electron/Madelung_charges_9_active_space/V
  |      Scratch area: /tmp/vanadium_so_cf
  |   Save outputs to: /home4/s4752295/Internship/Initial_simulations/Point_charge_model/1_electron/Madelung_charges_9_active_space/V
  |            Molcas: /home4/s4752295/Internship/Molcas/recomp_try/OpenMolcas-master/build
  |
  | Scratch area is empty
  |
  |    MOLCAS_DRIVER = /home4/s4752295/Internship/Molcas/bin/pymolcas
  |    MOLCAS_NPROCS = 1
  |    MOLCAS_SOURCE = /home4/s4752295/Internship/Molcas/recomp_try/OpenMolcas-master
  | MOLCAS_STRUCTURE = 0
  |
   ----------------------------------------------------------------------------------------------------------------------------------

++ ---------   Input file   ---------

&SEWARD
AMFi

CLIG
$R

Basis Set
V.ANO-rcc.Roos.21s15p10d6f4g2h.10s9p8d6f4g2h.
Spherical d
V            -1.0658140267135469e-14    -3.5527134223784897e-15 0.008753588724385739
End of Basis

Xfield

414
-2.8015407559999996,-1.0779999999999998,0.6223833       -0.625931
-2.8015407559999996,-0.0,-1.2447673     -0.625931
-2.8015407559999996,1.0779999999999998,0.6223833        -0.625931
-2.796742249,0.0,0.0    1.892092
1.861425783,-1.0779999999999998,-0.6223833      2.515516
1.861425783,0.0,1.2447673       2.515516
1.861425783,1.0779999999999998,-0.6223833       2.515516
2.4940917959999997,-2.1559999999999997,0.0      0.004632
2.4940917959999997,-1.0779999999999998,-1.8671506       0.004632
2.4940917959999997,-1.0779999999999998,1.8671506        0.004632
2.4940917959999997,1.0779999999999998,-1.8671506        0.004632
2.4940917959999997,1.0779999999999998,1.8671506 0.004632
2.4940917959999997,2.1559999999999997,0.0       0.004632
2.8904052730000003,-1.0779999999999998,0.6223833        -2.519484
2.8904052730000003,-0.0,-1.2447673      -2.519484
2.8904052730000003,1.0779999999999998,0.6223833 -2.519484
-2.053173829,-0.0,-0.0  -3.142907
-3.482568362,-2.1559999999999997,-1.2447673     -0.625931
-3.482568362,0.0,2.4895339      -0.625931
-3.482568362,2.1559999999999997,-1.2447673      -0.625931
-4.6265624999999995,-2.1559999999999997,0.0     1.892092
-4.6265624999999995,-1.0779999999999998,-1.8671506      1.892092
-4.6265624999999995,-1.0779999999999998,1.8671506       1.892092
-4.6265624999999995,1.0779999999999998,-1.8671506       1.892092
-4.6265624999999995,1.0779999999999998,1.8671506        1.892092
-4.6265624999999995,2.1559999999999997,0.0      1.892092
17.620312499999997,-2.1559999999999997,1.2447673        2.515516
17.620312499999997,-0.0,-2.4895339      2.515516
17.620312499999997,2.1559999999999997,1.2447673 2.515516
2.5470703159999997,-2.1559999999999997,-1.2447673       -2.519484
2.5470703159999997,0.0,2.4895339        -2.519484
2.5470703159999997,2.1559999999999997,-1.2447673        -2.519484
-2.262695316,-2.1559999999999997,-0.0   -3.142907
-2.262695316,-1.0779999999999998,-1.8671506     -3.142907
-2.262695316,-1.0779999999999998,1.8671506      -3.142907
-2.262695316,1.0779999999999998,-1.8671506      -3.142907
-2.262695316,1.0779999999999998,1.8671506       -3.142907
-2.262695316,2.1559999999999997,-0.0    -3.142907
-6.66640625,-2.1559999999999997,2.4895339       -0.625931
-6.66640625,2.1559999999999997,2.4895339        -0.625931
-6.66640625,-3.234,0.6223833    -0.625931
-6.66640625,3.234,0.6223833     -0.625931
-6.66640625,-1.0779999999999998,-3.1119179      -0.625931
-6.66640625,1.0779999999999998,-3.1119179       -0.625931
4.20546875,-1.0779999999999998,-0.6223833       4.409069
4.20546875,1.0779999999999998,-0.6223833        4.409069
4.20546875,0.0,1.2447673        4.409069
-122.675,-0.0,-0.0      -5.030367
-122.675,0.0,0.0        5.039632
9.462304684,-2.1559999999999997,-2.4895339      2.515516
9.462304684,2.1559999999999997,-2.4895339       2.515516
9.462304684,-3.234,-0.6223833   2.515516
9.462304684,3.234,-0.6223833    2.515516
9.462304684,-1.0779999999999998,3.1119179       2.515516
9.462304684,1.0779999999999998,3.1119179        2.515516
13.327343749999999,-3.234,-1.8671506    0.004632
13.327343749999999,-3.234,1.8671506     0.004632
13.327343749999999,3.234,-1.8671506     0.004632
13.327343749999999,3.234,1.8671506      0.004632
13.327343749999999,-0.0,-3.7343012      0.004632
13.327343749999999,0.0,3.7343012        0.004632
33.654687499999994,-2.1559999999999997,2.4895339        -2.519484
33.654687499999994,2.1559999999999997,2.4895339 -2.519484
33.654687499999994,-3.234,0.6223833     -2.519484
33.654687499999994,3.234,0.6223833      -2.519484
33.654687499999994,-1.0779999999999998,-3.1119179       -2.519484
33.654687499999994,1.0779999999999998,-3.1119179        -2.519484
-102.1125,-3.234,-1.8671506     1.892092
-102.1125,-3.234,1.8671506      1.892092
-102.1125,3.234,-1.8671506      1.892092
-102.1125,3.234,1.8671506       1.892092
-102.1125,-0.0,-3.7343012       1.892092
-102.1125,0.0,3.7343012 1.892092
-82.425,-2.1559999999999997,1.2447673   4.409069
-82.425,-0.0,-2.4895339 4.409069
-82.425,2.1559999999999997,1.2447673    4.409069
-62.3,-2.1559999999999997,-0.0  -5.030367
-62.3,-1.0779999999999998,-1.8671506    -5.030367
-62.3,-1.0779999999999998,1.8671506     -5.030367
-62.3,1.0779999999999998,-1.8671506     -5.030367
-62.3,-2.1559999999999997,0.0   5.039632
-62.3,2.1559999999999997,-0.0   -5.030367
-62.3,1.0779999999999998,1.8671506      -5.030367
-62.3,-1.0779999999999998,-1.8671506    5.039632
-62.3,-1.0779999999999998,1.8671506     5.039632
-62.3,1.0779999999999998,-1.8671506     5.039632
-62.3,2.1559999999999997,0.0    5.039632
-62.3,1.0779999999999998,1.8671506      5.039632
-32.637499999999996,-1.0779999999999998,-0.6223833      -5.660931
-32.637499999999996,0.0,1.2447673       -5.660931
-32.637499999999996,1.0779999999999998,-0.6223833       -5.660931
0.61796875,-4.3119993,0.0       0.004632
0.61796875,-2.1559999999999997,-3.7343012       0.004632
0.61796875,-2.1559999999999997,3.7343012        0.004632
0.61796875,2.1559999999999997,-3.7343012        0.004632
0.61796875,4.3119993,0.0        0.004632
0.61796875,2.1559999999999997,3.7343012 0.004632
47.55625,-3.234,1.8671506       -3.142907
47.55625,-3.234,-1.8671506      -3.142907
47.55625,3.234,-1.8671506       -3.142907
47.55625,3.234,1.8671506        -3.142907
47.55625,-0.0,-3.7343012        -3.142907
47.55625,0.0,3.7343012  -3.142907
60.4625,-4.3119993,-1.2447673   -0.625931
60.4625,-3.234,-3.1119179       -0.625931
60.4625,-1.0779999999999998,4.3566845   -0.625931
60.4625,3.234,-3.1119179        -0.625931
60.4625,4.3119993,-1.2447673    -0.625931
60.4625,1.0779999999999998,4.3566845    -0.625931
0.838085934,-4.3119993,0.0      1.892092
0.838085934,-2.1559999999999997,-3.7343012      1.892092
0.838085934,-2.1559999999999997,3.7343012       1.892092
0.838085934,2.1559999999999997,-3.7343012       1.892092
0.838085934,4.3119993,0.0       1.892092
0.838085934,2.1559999999999997,3.7343012        1.892092
23.690624999999997,-2.1559999999999997,-2.4895339       4.409069
23.690624999999997,2.1559999999999997,-2.4895339        4.409069
23.690624999999997,-3.234,-0.6223833    4.409069
23.690624999999997,3.234,-0.6223833     4.409069
23.690624999999997,-1.0779999999999998,3.1119179        4.409069
23.690624999999997,1.0779999999999998,3.1119179 4.409069
113.68437499999999,-2.1559999999999997,1.2447673        -5.660931
113.68437499999999,-0.0,-2.4895339      -5.660931
113.68437499999999,2.1559999999999997,1.2447673 -5.660931
0.24062499999999998,-4.3119993,1.2447673        2.515516
0.24062499999999998,-1.0779999999999998,-4.3566845      2.515516
0.24062499999999998,-3.234,3.1119179    2.515516
0.24062499999999998,1.0779999999999998,-4.3566845       2.515516
0.24062499999999998,4.3119993,1.2447673 2.515516
0.24062499999999998,3.234,3.1119179     2.515516
-65.93124999999999,-4.3119993,-1.2447673        -2.519484
-65.93124999999999,-3.234,-3.1119179    -2.519484
-65.93124999999999,-1.0779999999999998,4.3566845        -2.519484
-65.93124999999999,3.234,-3.1119179     -2.519484
-65.93124999999999,1.0779999999999998,4.3566845 -2.519484
-65.93124999999999,4.3119993,-1.2447673 -2.519484
-15.449218749999998,-4.3119993,-0.0     -3.142907
-15.449218749999998,-2.1559999999999997,-3.7343012      -3.142907
-15.449218749999998,-2.1559999999999997,3.7343012       -3.142907
-15.449218749999998,2.1559999999999997,-3.7343012       -3.142907
-15.449218749999998,2.1559999999999997,3.7343012        -3.142907
-15.449218749999998,4.3119993,-0.0      -3.142907
424.54999999999995,0.0,0.0      6.927092
226.27499999999998,-4.3119993,2.4895339 -0.625931
226.27499999999998,4.3119993,2.4895339  -0.625931
226.27499999999998,-0.0,-4.9790685      -0.625931
-3.7953124999999996,-3.234,1.8671506    -5.030367
-3.7953124999999996,-3.234,-1.8671506   -5.030367
-3.7953124999999996,-3.234,1.8671506    5.039632
-3.7953124999999996,-3.234,-1.8671506   5.039632
-3.7953124999999996,3.234,-1.8671506    -5.030367
-3.7953124999999996,3.234,1.8671506     -5.030367
-3.7953124999999996,3.234,-1.8671506    5.039632
-3.7953124999999996,3.234,1.8671506     5.039632
-3.7953124999999996,-0.0,-3.7343012     -5.030367
-3.7953124999999996,0.0,3.7343012       -5.030367
-3.7953124999999996,-0.0,-3.7343012     5.039632
-3.7953124999999996,0.0,3.7343012       5.039632
64.26875,-2.1559999999999997,-2.4895339 -5.660931
64.26875,2.1559999999999997,-2.4895339  -5.660931
64.26875,-3.234,-0.6223833      -5.660931
64.26875,3.234,-0.6223833       -5.660931
64.26875,-1.0779999999999998,3.1119179  -5.660931
64.26875,1.0779999999999998,3.1119179   -5.660931
210.35,-4.3119993,-2.4895339    2.515516
210.35,4.3119993,-2.4895339     2.515516
210.35,0.0,4.9790685    2.515516
-362.075,-4.3119993,2.4895339   -2.519484
-362.075,4.3119993,2.4895339    -2.519484
-362.075,-0.0,-4.9790685        -2.519484
37.49375,-2.1559999999999997,0.0        6.927092
37.49375,-1.0779999999999998,-1.8671506 6.927092
37.49375,-1.0779999999999998,1.8671506  6.927092
37.49375,1.0779999999999998,-1.8671506  6.927092
37.49375,1.0779999999999998,1.8671506   6.927092
37.49375,2.1559999999999997,0.0 6.927092
-38.675,-1.0779999999999998,0.6223833   7.550516
-38.675,0.0,-1.2447673  7.550516
-38.675,1.0779999999999998,0.6223833    7.550516
10.871875,-1.0779999999999998,-0.6223833        -7.554483
10.871875,1.0779999999999998,-0.6223833 -7.554483
10.871875,-0.0,1.2447673        -7.554483
-87.4125,-5.3899992999999995,0.6223833  -0.625931
-87.4125,-3.234,4.3566845       -0.625931
-87.4125,-2.1559999999999997,-4.9790685 -0.625931
-87.4125,2.1559999999999997,-4.9790685  -0.625931
-87.4125,5.3899992999999995,0.6223833   -0.625931
-87.4125,3.234,4.3566845        -0.625931
-47.20625,-4.3119993,1.2447673  4.409069
-47.20625,-3.234,3.1119179      4.409069
-47.20625,-1.0779999999999998,-4.3566845        4.409069
-47.20625,1.0779999999999998,-4.3566845 4.409069
-47.20625,3.234,3.1119179       4.409069
-47.20625,4.3119993,1.2447673   4.409069
34.409375,-4.3119993,-0.0       -5.030367
34.409375,-2.1559999999999997,-3.7343012        -5.030367
34.409375,-2.1559999999999997,3.7343012 -5.030367
34.409375,-4.3119993,0.0        5.039632
34.409375,-2.1559999999999997,-3.7343012        5.039632
34.409375,2.1559999999999997,-3.7343012 -5.030367
34.409375,2.1559999999999997,3.7343012  -5.030367
34.409375,4.3119993,-0.0        -5.030367
34.409375,-2.1559999999999997,3.7343012 5.039632
34.409375,2.1559999999999997,-3.7343012 5.039632
34.409375,4.3119993,0.0 5.039632
34.409375,2.1559999999999997,3.7343012  5.039632
126.52499999999999,-5.3899992999999995,-0.6223833       2.515516
126.52499999999999,-3.234,-4.3566845    2.515516
126.52499999999999,-2.1559999999999997,4.9790685        2.515516
126.52499999999999,3.234,-4.3566845     2.515516
126.52499999999999,5.3899992999999995,-0.6223833        2.515516
126.52499999999999,2.1559999999999997,4.9790685 2.515516
-16.340625,-5.3899992999999995,-1.8671506       0.004632
-16.340625,-5.3899992999999995,1.8671506        0.004632
-16.340625,-4.3119993,-3.7343012        0.004632
-16.340625,-4.3119993,3.7343012 0.004632
-16.340625,-1.0779999999999998,-5.6014517999999995      0.004632
-16.340625,1.0779999999999998,-5.6014517999999995       0.004632
-16.340625,-1.0779999999999998,5.6014517999999995       0.004632
-16.340625,4.3119993,-3.7343012 0.004632
-16.340625,1.0779999999999998,5.6014517999999995        0.004632
-16.340625,5.3899992999999995,-1.8671506        0.004632
-16.340625,5.3899992999999995,1.8671506 0.004632
-16.340625,4.3119993,3.7343012  0.004632
-100.1875,-5.3899992999999995,0.6223833 -2.519484
-100.1875,-3.234,4.3566845      -2.519484
-100.1875,-2.1559999999999997,-4.9790685        -2.519484
-100.1875,2.1559999999999997,-4.9790685 -2.519484
-100.1875,5.3899992999999995,0.6223833  -2.519484
-100.1875,3.234,4.3566845       -2.519484
2122.4,-0.0,-0.0        -8.177907
-81.19999999999999,-2.1559999999999997,-1.2447673       7.550516
-81.19999999999999,0.0,2.4895339        7.550516
-81.19999999999999,2.1559999999999997,-1.2447673        7.550516
-422.45,-2.1559999999999997,1.2447673   -7.554483
-422.45,-0.0,-2.4895339 -7.554483
-422.45,2.1559999999999997,1.2447673    -7.554483
34.234375,-5.3899992999999995,1.8671506 1.892092
34.234375,-5.3899992999999995,-1.8671506        1.892092
34.234375,-4.3119993,-3.7343012 1.892092
34.234375,-4.3119993,3.7343012  1.892092
34.234375,-1.0779999999999998,-5.6014517999999995       1.892092
34.234375,1.0779999999999998,-5.6014517999999995        1.892092
34.234375,-1.0779999999999998,5.6014517999999995        1.892092
34.234375,4.3119993,-3.7343012  1.892092
34.234375,1.0779999999999998,5.6014517999999995 1.892092
34.234375,5.3899992999999995,-1.8671506 1.892092
34.234375,5.3899992999999995,1.8671506  1.892092
34.234375,4.3119993,3.7343012   1.892092
-353.5,-4.3119993,-2.4895339    4.409069
-353.5,4.3119993,-2.4895339     4.409069
-353.5,0.0,4.9790685    4.409069
18.07421875,-4.3119993,1.2447673        -5.660931
18.07421875,-1.0779999999999998,-4.3566845      -5.660931
18.07421875,-3.234,3.1119179    -5.660931
18.07421875,1.0779999999999998,-4.3566845       -5.660931
18.07421875,3.234,3.1119179     -5.660931
18.07421875,4.3119993,1.2447673 -5.660931
-40.731249999999996,-4.3119993,-3.7343012       -3.142907
-40.731249999999996,-5.3899992999999995,1.8671506       -3.142907
-40.731249999999996,-5.3899992999999995,-1.8671506      -3.142907
-40.731249999999996,-4.3119993,3.7343012        -3.142907
-40.731249999999996,-1.0779999999999998,-5.6014517999999995     -3.142907
-40.731249999999996,1.0779999999999998,-5.6014517999999995      -3.142907
-40.731249999999996,-1.0779999999999998,5.6014517999999995      -3.142907
-40.731249999999996,5.3899992999999995,-1.8671506       -3.142907
-40.731249999999996,4.3119993,-3.7343012        -3.142907
-40.731249999999996,1.0779999999999998,5.6014517999999995       -3.142907
-40.731249999999996,5.3899992999999995,1.8671506        -3.142907
-40.731249999999996,4.3119993,3.7343012 -3.142907
45.784375,-3.234,-1.8671506     6.927092
45.784375,-3.234,1.8671506      6.927092
45.784375,3.234,-1.8671506      6.927092
45.784375,3.234,1.8671506       6.927092
45.784375,-0.0,-3.7343012       6.927092
45.784375,0.0,3.7343012 6.927092
-58.275,-2.1559999999999997,-0.0        -8.177907
-58.275,-1.0779999999999998,1.8671506   -8.177907
-58.275,-1.0779999999999998,-1.8671506  -8.177907
-58.275,1.0779999999999998,-1.8671506   -8.177907
-58.275,2.1559999999999997,-0.0 -8.177907
-58.275,1.0779999999999998,1.8671506    -8.177907
-63.634375,-2.1559999999999997,2.4895339        7.550516
-63.634375,2.1559999999999997,2.4895339 7.550516
-63.634375,-3.234,0.6223833     7.550516
-63.634375,3.234,0.6223833      7.550516
-63.634375,-1.0779999999999998,-3.1119179       7.550516
-63.634375,1.0779999999999998,-3.1119179        7.550516
-31.98125,-2.1559999999999997,-2.4895339        -7.554483
-31.98125,2.1559999999999997,-2.4895339 -7.554483
-31.98125,-3.234,-0.6223833     -7.554483
-31.98125,3.234,-0.6223833      -7.554483
-31.98125,-1.0779999999999998,3.1119179 -7.554483
-31.98125,1.0779999999999998,3.1119179  -7.554483
-350.17499999999995,0.0,6.2238351       -0.625931
-350.17499999999995,-5.3899992999999995,-3.1119179      -0.625931
-350.17499999999995,5.3899992999999995,-3.1119179       -0.625931
-188.825,-5.3899992999999995,-0.6223833 4.409069
-188.825,-3.234,-4.3566845      4.409069
-188.825,-2.1559999999999997,4.9790685  4.409069
-188.825,3.234,-4.3566845       4.409069
-188.825,5.3899992999999995,-0.6223833  4.409069
-188.825,2.1559999999999997,4.9790685   4.409069
217.2625,-4.3119993,-2.4895339  -5.660931
217.2625,4.3119993,-2.4895339   -5.660931
217.2625,0.0,4.9790685  -5.660931
410.9,-0.0,-6.2238351   2.515516
410.9,-5.3899992999999995,3.1119179     2.515516
410.9,5.3899992999999995,3.1119179      2.515516
-65.71249999999999,-6.467999299999999,-0.0      0.004632
-65.71249999999999,3.234,-5.6014517999999995    0.004632
-65.71249999999999,-3.234,5.6014517999999995    0.004632
-65.71249999999999,6.467999299999999,-0.0       0.004632
-65.71249999999999,-3.234,-5.6014517999999995   0.004632
-65.71249999999999,3.234,5.6014517999999995     0.004632
-270.025,0.0,6.2238351  -2.519484
-270.025,-5.3899992999999995,-3.1119179 -2.519484
-270.025,5.3899992999999995,-3.1119179  -2.519484
159.6,-4.3119993,0.0    6.927092
159.6,-2.1559999999999997,-3.7343012    6.927092
159.6,-2.1559999999999997,3.7343012     6.927092
159.6,2.1559999999999997,-3.7343012     6.927092
159.6,4.3119993,0.0     6.927092
159.6,2.1559999999999997,3.7343012      6.927092
148.3125,-6.467999299999999,-1.2447673  -0.625931
148.3125,-2.1559999999999997,6.2238351  -0.625931
148.3125,-4.3119993,-4.9790685  -0.625931
148.3125,4.3119993,-4.9790685   -0.625931
148.3125,2.1559999999999997,6.2238351   -0.625931
148.3125,6.467999299999999,-1.2447673   -0.625931
78.35624999999999,-6.467999299999999,0.0        1.892092
78.35624999999999,-3.234,-5.6014517999999995    1.892092
78.35624999999999,-3.234,5.6014517999999995     1.892092
78.35624999999999,3.234,-5.6014517999999995     1.892092
78.35624999999999,6.467999299999999,0.0 1.892092
78.35624999999999,3.234,5.6014517999999995      1.892092
-3.0242187499999997,-5.3899992999999995,1.8671506       -5.030367
-3.0242187499999997,-5.3899992999999995,-1.8671506      -5.030367
-3.0242187499999997,-4.3119993,-3.7343012       -5.030367
-3.0242187499999997,-4.3119993,3.7343012        -5.030367
-3.0242187499999997,-5.3899992999999995,1.8671506       5.039632
-3.0242187499999997,1.0779999999999998,-5.6014517999999995      -5.030367
-3.0242187499999997,-1.0779999999999998,-5.6014517999999995     -5.030367
-3.0242187499999997,-5.3899992999999995,-1.8671506      5.039632
-3.0242187499999997,-4.3119993,-3.7343012       5.039632
-3.0242187499999997,-1.0779999999999998,5.6014517999999995      -5.030367
-3.0242187499999997,1.0779999999999998,-5.6014517999999995      5.039632
-3.0242187499999997,-4.3119993,3.7343012        5.039632
-3.0242187499999997,-1.0779999999999998,-5.6014517999999995     5.039632
-3.0242187499999997,4.3119993,-3.7343012        -5.030367
-3.0242187499999997,1.0779999999999998,5.6014517999999995       -5.030367
-3.0242187499999997,5.3899992999999995,-1.8671506       -5.030367
-3.0242187499999997,5.3899992999999995,1.8671506        -5.030367
-3.0242187499999997,4.3119993,3.7343012 -5.030367
-3.0242187499999997,-1.0779999999999998,5.6014517999999995      5.039632
-3.0242187499999997,4.3119993,-3.7343012        5.039632
-3.0242187499999997,5.3899992999999995,-1.8671506       5.039632
-3.0242187499999997,1.0779999999999998,5.6014517999999995       5.039632
-3.0242187499999997,5.3899992999999995,1.8671506        5.039632
-3.0242187499999997,4.3119993,3.7343012 5.039632
-0.48124999999999996,-5.3899992999999995,-0.6223833     -5.660931
-0.48124999999999996,-3.234,-4.3566845  -5.660931
-0.48124999999999996,-2.1559999999999997,4.9790685      -5.660931
-0.48124999999999996,3.234,-4.3566845   -5.660931
-0.48124999999999996,2.1559999999999997,4.9790685       -5.660931
-0.48124999999999996,5.3899992999999995,-0.6223833      -5.660931
81.19999999999999,-1.0779999999999998,0.6223833 9.444068
81.19999999999999,0.0,-1.2447673        9.444068
81.19999999999999,1.0779999999999998,0.6223833  9.444068
35.918749999999996,-6.467999299999999,1.2447673 2.515516
35.918749999999996,-2.1559999999999997,-6.2238351       2.515516
35.918749999999996,2.1559999999999997,-6.2238351        2.515516
35.918749999999996,-4.3119993,4.9790685 2.515516
35.918749999999996,6.467999299999999,1.2447673  2.515516
35.918749999999996,4.3119993,4.9790685  2.515516
109.8125,-6.467999299999999,-1.2447673  -2.519484
109.8125,-2.1559999999999997,6.2238351  -2.519484
109.8125,-4.3119993,-4.9790685  -2.519484
109.8125,4.3119993,-4.9790685   -2.519484
109.8125,6.467999299999999,-1.2447673   -2.519484
109.8125,2.1559999999999997,6.2238351   -2.519484
153.73749999999998,-6.467999299999999,-0.0      -3.142907
153.73749999999998,-3.234,-5.6014517999999995   -3.142907
153.73749999999998,-3.234,5.6014517999999995    -3.142907
153.73749999999998,3.234,-5.6014517999999995    -3.142907
153.73749999999998,6.467999299999999,-0.0       -3.142907
153.73749999999998,3.234,5.6014517999999995     -3.142907
6.051855466999999,-3.234,-1.8671506     -8.177907
6.051855466999999,-3.234,1.8671506      -8.177907
6.051855466999999,3.234,1.8671506       -8.177907
6.051855466999999,3.234,-1.8671506      -8.177907
6.051855466999999,-0.0,-3.7343012       -8.177907
6.051855466999999,0.0,3.7343012 -8.177907
176.3125,-3.234,-3.1119179      7.550516
176.3125,-4.3119993,-1.2447673  7.550516
176.3125,-1.0779999999999998,4.3566845  7.550516
176.3125,3.234,-3.1119179       7.550516
176.3125,1.0779999999999998,4.3566845   7.550516
176.3125,4.3119993,-1.2447673   7.550516
-243.6,-3.234,3.1119179 -7.554483
-243.6,-4.3119993,1.2447673     -7.554483
-243.6,-1.0779999999999998,-4.3566845   -7.554483
-243.6,1.0779999999999998,-4.3566845    -7.554483
-243.6,4.3119993,1.2447673      -7.554483
-243.6,3.234,3.1119179  -7.554483
49.8859375,-5.3899992999999995,4.3566845        -0.625931
49.8859375,-6.467999299999999,2.4895339 -0.625931
49.8859375,-1.0779999999999998,-6.846219099999999       -0.625931
49.8859375,1.0779999999999998,-6.846219099999999        -0.625931
49.8859375,6.467999299999999,2.4895339  -0.625931
49.8859375,5.3899992999999995,4.3566845 -0.625931
-338.625,-0.0,-6.2238351        4.409069
-338.625,-5.3899992999999995,3.1119179  4.409069
-338.625,5.3899992999999995,3.1119179   4.409069

End of input

&SCF
Occupied
9
Iterations
   50  100
End of Input

&RASSCF
LumOrb
Symmetry
1
Spin
2
Nactel
1 0 0
CIRoot
9 9 1
inactive
9
ras2
9
End of Input

>>> COPY vanadium_so_cf.JobIph $SLURM_SUBMIT_DIR/vanadium_so_cf.doublet.JobIph

>>> COPY $SLURM_SUBMIT_DIR/vanadium_so_cf.doublet.JobIph ./JOB002

&RASSI
NROFJobIph
1 All
SpinOrbit
End of Input

EOF

-- ----------------------------------

--- Start Module: seward at Wed Mar 26 12:01:06 2025 ---

()()()()()()()()()()()()()()()()()()()()()()()()()()()()()()()()()()()()()()()()()()()()()()()()()()

                                              &SEWARD

                                   only a single process is used
                       available to each process: 4.1 GB of memory, 1 thread?
                                            pid: 3350100
()()()()()()()()()()()()()()()()()()()()()()()()()()()()()()()()()()()()()()()()()()()()()()()()()()

 The speed of LIGHT in this CALCULATION =   137.03599917700001     
               SEWARD will generate:
                  Multipole Moment integrals up to order  2
                  Kinetic Energy integrals
                  Nuclear Attraction integrals (point charge)
                  One-Electron Hamiltonian integrals
                  Velocity integrals
                  Relativistic Douglas-Kroll-Hess integrals:
                    - Parametrization         : EXP
                    - DKH order of Hamiltonian: 2
                    - DKH order of Properties : 0
                         - multipole moment operators
                         - electric potential operators
                         - contact operators
                  External field from   414 point(s) added to the one-electron Hamiltonian
                  Orbital angular momentum around (-0.0000 -0.0000  0.0088 )
                  Velocity quadrupole around (-0.0000 -0.0000  0.0088 )
                  Atomic mean-field integrals
                  Two-Electron Repulsion integrals

                   Integrals are discarded if absolute value <: 0.10E-13
                   Integral cutoff threshold is set to       <: 0.10E-15

++    Symmetry information:
      ---------------------

                    Character Table for C1 

                             E  
                    a        1  x, y, xy, Rz, z, xz, Ry, yz, Rx, I
--


++    Basis set information:
      ----------------------


      Basis set label: V.ANO-RCC.ROOS.21S15P10D6F4G2H.10S9P8D6F4G2H......

      Electronic valence basis set:
      ------------------
      Associated Effective Charge  23.000000 au
      Associated Actual Charge     23.000000 au
      Nuclear Model: Point charge

      Shell  nPrim  nBasis  Cartesian Spherical Contaminant
         s      21      10        X                  
         p      15       9        X                  
         d      10       8                 X         
         f       6       6                 X         
         g       4       4                 X         
         h       2       2                 X         
--


++    Molecular structure info:
      -------------------------

                    ************************************************ 
                    **** Cartesian Coordinates / Bohr, Angstrom **** 
                    ************************************************ 

     Center  Label                x              y              z                     x              y              z
        1      V               -0.000000      -0.000000       0.008754             -0.000000      -0.000000       0.004632
--


++    Operator info:
      --------------


  Net charge from external field:   -39.268449999999902     
--


            Nuclear Potential Energy              0.00000000 au

                    Nuclear-External Field Potential Energy    -300.60876969 au
                    External Field Potential Energy            2293.76700198 au 


            Total Nuclear Potential Energy           -300.60876969 au


      Basis set specifications :
      Symmetry species         a  
      Basis functions          177

 Sorry, Molden does not know how to handle
 functions with angular momentum larger than g
Note: The following floating-point exceptions are signalling: IEEE_UNDERFLOW_FLAG IEEE_DENORMAL
--- Stop Module: seward at Wed Mar 26 12:01:14 2025 /rc=_RC_ALL_IS_WELL_ ---
*** files: vanadium_so_cf.GssOrb xmldump
    saved to directory /home4/s4752295/Internship/Initial_simulations/Point_charge_model/1_electron/Madelung_charges_9_active_space/V
--- Module seward spent 7 seconds ---

*** symbolic link created: INPORB -> vanadium_so_cf.GssOrb
--- Start Module: scf at Wed Mar 26 12:01:14 2025 ---

()()()()()()()()()()()()()()()()()()()()()()()()()()()()()()()()()()()()()()()()()()()()()()()()()()

                                                &SCF

                                   only a single process is used
                       available to each process: 4.1 GB of memory, 1 thread?
                                            pid: 3350106
()()()()()()()()()()()()()()()()()()()()()()()()()()()()()()()()()()()()()()()()()()()()()()()()()()

++    Input section:
      --------------

      Header of the integral files:
      
       Integrals generated by seward 4.2.0  , Wed Mar 26 12:01:06 2025


      Cartesian coordinates in Angstrom:
      -----------------------------------------------------
      No.  Label        X            Y            Z        
      -----------------------------------------------------
       1   V         -0.00000000  -0.00000000   0.00463220
      -----------------------------------------------------
      Nuclear repulsion energy = -300.60876969
--

++    Orbital specifications:
      -----------------------

      Symmetry species               1
                                     a
      Frozen orbitals                0
      Occupied orbitals              9
      Secondary orbitals           168
      Deleted orbitals               0
      Total number of orbitals     177
      Number of basis functions    177
--

      Molecular charge                           5.000

++    Optimization specifications:
      ----------------------------

      SCF Algorithm: Conventional
      Minimized density differences are used
      Number of density matrices in core                5
      Maximum number of NDDO SCF iterations            50
      Maximum number of HF SCF iterations             100
      Threshold for SCF energy change            0.10E-08
      Threshold for density matrix               0.10E-03
      Threshold for Fock matrix                  0.15E-03
      Threshold for linear dependence            0.10E-08
      Threshold at which DIIS is turned on       0.15E+00
      Threshold at which QNR/C2DIIS is turned on 0.75E-01
      Threshold for Norm(delta) (QNR/C2DIIS)     0.20E-04
      DIIS extrapolation of the SCF procedure
      All orbitals punched on: SCFORB
--

      Detected guessorb starting orbitals                                             


++ Convergence information
                                   SCF        iterations: Energy and convergence statistics

Iter     Tot. SCF        One-elec.       Two-elec.     Energy      Max Dij or  Max Fij      DNorm      TNorm      AccCon     Time
         Energy          Energy          Energy        Change      Delta Norm                                                in Sec.

 The total and one-electron energies are shifted by a value of      1000. a.u.

   1    -7.373358819     3.755643264   289.479767612   0.00E+00    0.14E+00*   0.93E+00*    0.60E+01   0.22E+03   None         1.
   2    -5.138250194    92.274837090   203.195682411   0.22E+01*   0.20E+00*   0.22E+00*    0.56E+01   0.18E+03   EDIIS        1.
   3   -12.629238745    23.176496125   264.803034824  -0.75E+01*   0.20E+00*   0.24E+00*    0.33E+01   0.21E+03   EDIIS        1.
   4   -12.744025268    24.348708067   263.516036359  -0.11E+00*   0.17E-01*   0.48E-01*    0.45E+00   0.21E+03   EDIIS        1.
   5   -12.747857887    24.200485811   263.660425997  -0.38E-02*   0.11E-01*   0.13E-01*    0.64E-01   0.21E+03   EDIIS        1.
   6   -12.748065993    24.221304577   263.639399125  -0.21E-03*   0.12E-02*   0.23E-02*    0.56E-02   0.21E+03   c2DIIS       1.
   7   -12.748082777    24.219940802   263.640746116  -0.17E-04*   0.43E-03*   0.95E-03*    0.66E-03   0.21E+03   QNRc2DIIS    1.
   8   -12.748083989    24.220585492   263.640100214  -0.12E-05*   0.20E-03*   0.22E-03*    0.88E-04   0.21E+03   QNRc2DIIS    1.
   9   -12.748084121    24.220696619   263.639988955  -0.13E-06*   0.60E-05    0.69E-05     0.28E-04   0.21E+03   QNRc2DIIS    1.
  10   -12.748084122    24.220677485   263.640008089  -0.22E-09    0.83E-05    0.33E-05     0.19E-03   0.21E+03   QNRc2DIIS    1.

       Convergence after 10 Macro Iterations
--

 *****************************************************************************************************************************
 *                                                                                                                           *
 *                                             SCF/KS-DFT Program, Final results                                             *
 *                                                                                                                           *
 *                                                                                                                           *
 *                                                                                                                           *
 *                                                       Final Results                                                       *
 *                                                                                                                           *
 *****************************************************************************************************************************

::    Total SCF energy                              -1012.7480841217
      One-electron energy                            -975.7793225154
      Two-electron energy                             263.6400080887
      Nuclear repulsion energy                       -300.6087696950
      Kinetic energy (interpolated)                   958.1231732532
      Virial theorem                                    1.0570124097
      Total spin, S(S+1)                                0.0000000000
      Total spin, S                                     0.0000000000
      Max non-diagonal density matrix element           0.0000154439
      Max non-diagonal Fock matrix element              0.0000049068


      All orbitals with orbital energies smaller than  E(LUMO)+0.5 are printed

++    Molecular orbitals:
      -------------------

      Title: SCF orbitals

      Molecular orbitals for symmetry species 1: a  

          Orbital            1         2         3         4         5         6         7         8         9        10    
          Energy         -195.3431  -16.4519  -12.3854  -12.3854  -12.3689    5.1696    6.4915    6.4921    6.5319    7.1868
          Occ. No.          2.0000    2.0000    2.0000    2.0000    2.0000    2.0000    2.0000    2.0000    2.0000    0.0000

        1 V      1s         1.0000    0.0001   -0.0000   -0.0000    0.0001   -0.0000   -0.0000   -0.0000    0.0000    0.0000
        2 V      2s        -0.0001    1.0000   -0.0000   -0.0000    0.0032    0.0042    0.0000    0.0000    0.0000   -0.0000
        3 V      3s         0.0000   -0.0053   -0.0000   -0.0000    0.0028    0.9020    0.0003    0.0000    0.0007   -0.0000
        4 V      4s        -0.0000    0.0006    0.0000    0.0000   -0.0003   -0.0325   -0.0001   -0.0000    0.0703    0.0000
        5 V      5s         0.0000   -0.0008   -0.0000   -0.0000    0.0002    0.0266    0.0003   -0.0000    0.4287    0.0000
        6 V      6s        -0.0000    0.0020    0.0000    0.0000   -0.0003   -0.0444   -0.0000   -0.0000    0.2981    0.0000
        7 V      7s         0.0000   -0.0011   -0.0000    0.0000   -0.0001    0.0097    0.0001   -0.0000    0.4541    0.0000
        8 V      8s        -0.0000    0.0007   -0.0000   -0.0000    0.0005   -0.0005    0.0001   -0.0000    0.3427    0.0000
        9 V      9s         0.0000   -0.0002    0.0000    0.0000   -0.0003    0.0004    0.0002   -0.0000    0.5781    0.0000
       10 V     10s        -0.0000    0.0002   -0.0000   -0.0000    0.0004    0.0008    0.0001   -0.0000    0.2270    0.0000
       11 V      2px       -0.0001   -0.0032   -0.0000   -0.0031    1.0000   -0.0008   -0.0000    0.0000   -0.0000   -0.0000
       12 V      3px        0.0000    0.0018    0.0000    0.0000   -0.0042    0.4227   -0.0016   -0.0000   -0.0027    0.0000
       13 V      4px       -0.0000   -0.0002   -0.0000   -0.0000    0.0007   -0.0117    0.0000   -0.0000    0.0070   -0.0000
       14 V      5px        0.0000    0.0003    0.0000    0.0000   -0.0015   -0.0040   -0.0001   -0.0000    0.0101   -0.0000
       15 V      6px       -0.0000    0.0001   -0.0000   -0.0000    0.0006    0.0122    0.0001    0.0000   -0.0122   -0.0000
       16 V      7px        0.0000   -0.0006    0.0000    0.0000   -0.0001   -0.0044   -0.0000    0.0000   -0.0436   -0.0000
       17 V      8px       -0.0000    0.0006   -0.0000   -0.0000   -0.0002   -0.0046   -0.0000    0.0000   -0.0752   -0.0000
       18 V      9px        0.0000   -0.0006    0.0000    0.0000    0.0003    0.0019    0.0000    0.0000   -0.0466   -0.0000
       19 V     10px       -0.0001    0.0004   -0.0000   -0.0000   -0.0002    0.0016    0.0000    0.0000   -0.0128   -0.0000
       20 V      2py       -0.0000    0.0000    1.0000   -0.0000    0.0000   -0.0000   -0.0000    0.0062    0.0000    0.0000
       21 V      3py       -0.0000   -0.0000   -0.0063    0.0000   -0.0000   -0.0000   -0.0000    0.9497    0.0000    0.0045
       22 V      4py        0.0000    0.0000    0.0012   -0.0000    0.0000    0.0000    0.0000   -0.0678   -0.0000    0.1040
       23 V      5py       -0.0000   -0.0000   -0.0031    0.0000   -0.0000   -0.0000   -0.0000    0.0996    0.0000    0.1611
       24 V      6py        0.0000    0.0000    0.0016   -0.0000    0.0000    0.0000    0.0000   -0.0181   -0.0000    0.4243
       25 V      7py       -0.0000   -0.0000   -0.0014    0.0000   -0.0000    0.0000    0.0000   -0.0043   -0.0000    0.4338
       26 V      8py        0.0000    0.0000    0.0007   -0.0000    0.0000   -0.0000    0.0000   -0.0024   -0.0000    0.6448
       27 V      9py       -0.0000   -0.0000   -0.0004    0.0000   -0.0000    0.0000    0.0000   -0.0002   -0.0000    0.3967
       28 V     10py        0.0000    0.0000    0.0003   -0.0000    0.0000    0.0000    0.0000   -0.0003   -0.0000    0.1085
       29 V      2pz       -0.0000   -0.0000    0.0000    1.0000    0.0031   -0.0000    0.0062    0.0000   -0.0000   -0.0000
       30 V      3pz        0.0000    0.0000   -0.0000   -0.0063   -0.0000    0.0004    0.9495    0.0000   -0.0004   -0.0000
       31 V      4pz       -0.0000   -0.0000    0.0000    0.0012    0.0000   -0.0000   -0.0677   -0.0000    0.0005   -0.0000
       32 V      5pz        0.0000    0.0000   -0.0000   -0.0031   -0.0000    0.0000    0.0993    0.0000    0.0006   -0.0000
       33 V      6pz       -0.0000    0.0000    0.0000    0.0016    0.0000    0.0000   -0.0180   -0.0000    0.0016   -0.0000
       34 V      7pz        0.0000   -0.0000   -0.0000   -0.0014   -0.0000   -0.0000   -0.0043   -0.0000    0.0017   -0.0000
       35 V      8pz       -0.0000    0.0000    0.0000    0.0007    0.0000   -0.0000   -0.0025   -0.0000    0.0027   -0.0000
       36 V      9pz        0.0000   -0.0000   -0.0000   -0.0004   -0.0000    0.0000   -0.0003   -0.0000    0.0017   -0.0000
       37 V     10pz       -0.0000    0.0000    0.0000    0.0003    0.0000    0.0000   -0.0003   -0.0000    0.0005   -0.0000
       38 V      3d2-      -0.0000   -0.0000    0.0006   -0.0000    0.0000   -0.0000   -0.0000    0.2691    0.0000   -0.0052
       39 V      4d2-      -0.0000   -0.0000   -0.0001    0.0000   -0.0000    0.0000    0.0000   -0.0784   -0.0000   -0.0116
       40 V      5d2-       0.0000    0.0000   -0.0002    0.0000   -0.0000   -0.0000    0.0000   -0.0138   -0.0000   -0.0183
       41 V      6d2-      -0.0000   -0.0000    0.0011   -0.0000    0.0000   -0.0000   -0.0000    0.0278    0.0000   -0.0298
       42 V      7d2-       0.0000    0.0000   -0.0012    0.0000   -0.0000   -0.0000   -0.0000    0.0102    0.0000   -0.0427
       43 V      8d2-      -0.0000   -0.0000    0.0007   -0.0000    0.0000   -0.0000    0.0000   -0.0025   -0.0000   -0.0426
       44 V      9d2-       0.0000    0.0000   -0.0003    0.0000   -0.0000   -0.0000    0.0000   -0.0062   -0.0000   -0.0278
       45 V     10d2-      -0.0000   -0.0000    0.0001   -0.0000    0.0000    0.0000    0.0000   -0.0016   -0.0000   -0.0058
       46 V      3d1-      -0.0000   -0.0000   -0.0000    0.0000   -0.0000   -0.0000    0.0000   -0.0085   -0.0000    0.0009
       47 V      4d1-       0.0000    0.0000   -0.0000    0.0000    0.0000   -0.0000   -0.0000    0.0009    0.0000   -0.0004
       48 V      5d1-      -0.0000   -0.0000    0.0000   -0.0000   -0.0000    0.0000   -0.0000    0.0035    0.0000    0.0021
       49 V      6d1-       0.0000    0.0000   -0.0000    0.0000   -0.0000    0.0000    0.0000   -0.0007   -0.0000    0.0082
       50 V      7d1-      -0.0000   -0.0000    0.0000   -0.0000    0.0000    0.0000    0.0000   -0.0019   -0.0000    0.0153
       51 V      8d1-       0.0000    0.0000   -0.0000    0.0000    0.0000    0.0000    0.0000   -0.0013   -0.0000    0.0203
       52 V      9d1-      -0.0000    0.0000    0.0000   -0.0000    0.0000    0.0000   -0.0000    0.0004   -0.0000    0.0168
       53 V     10d1-       0.0000    0.0000   -0.0000    0.0000    0.0000   -0.0000   -0.0000    0.0003    0.0000    0.0040
       54 V      3d0       -0.0000    0.0000    0.0000    0.0000   -0.0005   -0.0257    0.0079    0.0000    0.0022    0.0000
       55 V      4d0        0.0000    0.0000    0.0000    0.0000    0.0003    0.0024   -0.0011   -0.0000    0.0073   -0.0000
       56 V      5d0       -0.0000   -0.0001   -0.0000   -0.0000   -0.0001    0.0084   -0.0030   -0.0000    0.0110    0.0000
       57 V      6d0        0.0000    0.0003    0.0000    0.0000   -0.0003   -0.0056    0.0007    0.0000    0.0096    0.0000
       58 V      7d0        0.0000   -0.0003   -0.0000   -0.0000    0.0004   -0.0030    0.0016    0.0000    0.0099    0.0000
       59 V      8d0       -0.0000    0.0002    0.0000    0.0000   -0.0003    0.0000    0.0011    0.0000    0.0083    0.0000
       60 V      9d0        0.0000   -0.0000   -0.0000   -0.0000    0.0001    0.0018   -0.0003   -0.0000    0.0059    0.0000
       61 V     10d0       -0.0000   -0.0000    0.0000    0.0000   -0.0000    0.0006   -0.0002   -0.0000    0.0014    0.0000
       62 V      3d1+       0.0000   -0.0000    0.0000    0.0006    0.0000   -0.0000    0.2699    0.0000   -0.0001    0.0000
       63 V      4d1+      -0.0000    0.0000   -0.0000   -0.0001   -0.0000   -0.0000   -0.0785   -0.0000    0.0000    0.0000
       64 V      5d1+       0.0000   -0.0000   -0.0000   -0.0002    0.0000   -0.0000   -0.0141   -0.0000   -0.0001    0.0000
       65 V      6d1+      -0.0000   -0.0000    0.0000    0.0011    0.0000    0.0000    0.0279    0.0000   -0.0001    0.0000
       66 V      7d1+      -0.0000    0.0000   -0.0000   -0.0012   -0.0000    0.0000    0.0104    0.0000   -0.0001    0.0000
       67 V      8d1+       0.0000   -0.0000    0.0000    0.0007    0.0000   -0.0000   -0.0025   -0.0000   -0.0001    0.0000
       68 V      9d1+      -0.0000    0.0000   -0.0000   -0.0003   -0.0000   -0.0000   -0.0063   -0.0000   -0.0001    0.0000
       69 V     10d1+       0.0000    0.0000    0.0000    0.0001    0.0000   -0.0000   -0.0017   -0.0000   -0.0000    0.0000
       70 V      3d2+       0.0000   -0.0001   -0.0000   -0.0000    0.0008    0.0447    0.0040    0.0000   -0.0038    0.0000
       71 V      4d2+      -0.0000   -0.0001    0.0000    0.0000   -0.0004   -0.0042   -0.0004   -0.0000   -0.0128   -0.0000
       72 V      5d2+       0.0000    0.0002   -0.0000   -0.0000    0.0001   -0.0146   -0.0017   -0.0000   -0.0192    0.0000
       73 V      6d2+      -0.0000   -0.0006    0.0000    0.0000    0.0005    0.0097    0.0004    0.0000   -0.0166    0.0000
       74 V      7d2+      -0.0000    0.0006   -0.0000   -0.0000   -0.0007    0.0053    0.0010    0.0000   -0.0171    0.0000
       75 V      8d2+       0.0000   -0.0003    0.0000    0.0000    0.0004   -0.0001    0.0006    0.0000   -0.0143    0.0000
       76 V      9d2+      -0.0000    0.0001   -0.0000   -0.0000   -0.0002   -0.0032   -0.0002    0.0000   -0.0102    0.0000
       77 V     10d2+       0.0000    0.0001    0.0000    0.0000    0.0000   -0.0011   -0.0001   -0.0000   -0.0024    0.0000
       78 V      4f3-       0.0000    0.0000    0.0001   -0.0000    0.0000   -0.0000   -0.0000    0.0414    0.0000   -0.0065
       79 V      5f3-      -0.0000   -0.0000   -0.0001    0.0000   -0.0000    0.0000   -0.0000    0.0070    0.0000   -0.0112
       80 V      6f3-       0.0000    0.0000    0.0001   -0.0000   -0.0000    0.0000    0.0000   -0.0164   -0.0000   -0.0093
       81 V      7f3-      -0.0000   -0.0000   -0.0002    0.0000   -0.0000   -0.0000    0.0000   -0.0013   -0.0000   -0.0156
       82 V      8f3-       0.0000    0.0000    0.0003   -0.0000    0.0000   -0.0000   -0.0000    0.0047    0.0000   -0.0274
       83 V      9f3-      -0.0000   -0.0000   -0.0001    0.0000    0.0000   -0.0000   -0.0000    0.0041    0.0000   -0.0395
       84 V      4f2-       0.0000    0.0000   -0.0000    0.0000   -0.0000    0.0000    0.0000   -0.0135   -0.0000    0.0024
       85 V      5f2-       0.0000   -0.0000    0.0000   -0.0000   -0.0000   -0.0000    0.0000   -0.0053   -0.0000    0.0016
       86 V      6f2-      -0.0000    0.0000   -0.0000    0.0000    0.0000   -0.0000   -0.0000    0.0060    0.0000   -0.0029
       87 V      7f2-       0.0000   -0.0000   -0.0000    0.0000   -0.0000   -0.0000   -0.0000    0.0023    0.0000   -0.0056
       88 V      8f2-      -0.0000   -0.0000    0.0000   -0.0000    0.0000   -0.0000    0.0000   -0.0017   -0.0000   -0.0046
       89 V      9f2-       0.0000    0.0000   -0.0000    0.0000   -0.0000    0.0000    0.0000   -0.0028   -0.0000   -0.0039
       90 V      4f1-       0.0000    0.0000   -0.0000    0.0000   -0.0000   -0.0000    0.0000   -0.0106   -0.0000    0.0017
       91 V      5f1-      -0.0000   -0.0000    0.0000   -0.0000    0.0000    0.0000    0.0000   -0.0018   -0.0000    0.0029
       92 V      6f1-       0.0000    0.0000   -0.0000    0.0000   -0.0000   -0.0000   -0.0000    0.0042    0.0000    0.0024
       93 V      7f1-      -0.0000   -0.0000    0.0001   -0.0000    0.0000    0.0000   -0.0000    0.0003    0.0000    0.0041
       94 V      8f1-       0.0000    0.0000   -0.0001    0.0000   -0.0000    0.0000    0.0000   -0.0012   -0.0000    0.0071
       95 V      9f1-      -0.0000   -0.0000    0.0000   -0.0000    0.0000    0.0000    0.0000   -0.0010   -0.0000    0.0102
       96 V      4f0       -0.0000    0.0000   -0.0000   -0.0000    0.0000    0.0023   -0.0267   -0.0000   -0.0018   -0.0000
       97 V      5f0        0.0000    0.0000    0.0000    0.0001   -0.0000    0.0005   -0.0046   -0.0000   -0.0049   -0.0000
       98 V      6f0       -0.0000   -0.0000   -0.0000   -0.0001    0.0000   -0.0014    0.0106    0.0000   -0.0051   -0.0000
       99 V      7f0        0.0000    0.0000    0.0000    0.0001    0.0000   -0.0002    0.0009    0.0000   -0.0018   -0.0000
      100 V      8f0       -0.0000   -0.0000   -0.0000   -0.0002   -0.0000    0.0005   -0.0030   -0.0000    0.0035   -0.0000
      101 V      9f0        0.0000    0.0000    0.0000    0.0001    0.0000    0.0005   -0.0026   -0.0000    0.0074   -0.0000
      102 V      4f1+      -0.0000    0.0000    0.0000    0.0000    0.0001   -0.0032    0.0104    0.0000   -0.0004    0.0000
      103 V      5f1+       0.0000    0.0000   -0.0000   -0.0000   -0.0000   -0.0004    0.0041    0.0000   -0.0026    0.0000
      104 V      6f1+      -0.0000   -0.0001    0.0000    0.0000   -0.0001    0.0020   -0.0047   -0.0000   -0.0051   -0.0000
      105 V      7f1+       0.0000    0.0001   -0.0000   -0.0000    0.0001   -0.0004   -0.0017   -0.0000   -0.0072   -0.0000
      106 V      8f1+      -0.0000   -0.0001    0.0000    0.0000   -0.0002   -0.0004    0.0013    0.0000   -0.0068   -0.0000
      107 V      9f1+       0.0000    0.0000   -0.0000   -0.0000    0.0001   -0.0002    0.0022    0.0000   -0.0069   -0.0000
      108 V      4f2+      -0.0000    0.0000    0.0000    0.0001    0.0000    0.0018    0.0343    0.0000   -0.0014    0.0000
      109 V      5f2+       0.0000   -0.0000   -0.0000   -0.0001   -0.0000    0.0004    0.0058    0.0000   -0.0039    0.0000
      110 V      6f2+      -0.0000   -0.0000    0.0000    0.0001    0.0000   -0.0011   -0.0136   -0.0000   -0.0040    0.0000
      111 V      7f2+       0.0000    0.0000   -0.0000   -0.0002   -0.0000   -0.0001   -0.0011   -0.0000   -0.0014    0.0000
      112 V      8f2+      -0.0000   -0.0000    0.0000    0.0002    0.0000    0.0004    0.0039    0.0000    0.0026    0.0000
      113 V      9f2+       0.0000    0.0000   -0.0000   -0.0001   -0.0000    0.0003    0.0034    0.0000    0.0056    0.0000
      114 V      4f3+       0.0000   -0.0001    0.0000    0.0000   -0.0001    0.0045    0.0082    0.0000    0.0005    0.0000
      115 V      5f3+      -0.0000   -0.0000   -0.0000   -0.0000    0.0000    0.0006    0.0033    0.0000    0.0033    0.0000
      116 V      6f3+       0.0000    0.0001    0.0000    0.0000    0.0001   -0.0028   -0.0037   -0.0000    0.0066   -0.0000
      117 V      7f3+      -0.0000   -0.0001    0.0000    0.0000   -0.0002    0.0005   -0.0014   -0.0000    0.0093   -0.0000
      118 V      8f3+       0.0000    0.0001   -0.0000   -0.0000    0.0003    0.0006    0.0011    0.0000    0.0088   -0.0000
      119 V      9f3+      -0.0000   -0.0001    0.0000    0.0000   -0.0001    0.0002    0.0017    0.0000    0.0089   -0.0000
      120 V      5g4-       0.0000    0.0000    0.0001   -0.0000    0.0000    0.0000   -0.0000    0.0127    0.0000   -0.0019
      121 V      6g4-      -0.0000   -0.0000   -0.0001    0.0000   -0.0000   -0.0000   -0.0000    0.0068    0.0000   -0.0015
      122 V      7g4-       0.0000    0.0000    0.0001   -0.0000    0.0000    0.0000    0.0000   -0.0039   -0.0000    0.0035
      123 V      8g4-      -0.0000   -0.0000   -0.0000    0.0000   -0.0000    0.0000    0.0000   -0.0054   -0.0000    0.0074
      124 V      5g3-      -0.0000   -0.0000   -0.0000    0.0000   -0.0000    0.0000    0.0000   -0.0107   -0.0000    0.0020
      125 V      6g3-       0.0000    0.0000    0.0000   -0.0000   -0.0000    0.0000    0.0000   -0.0108   -0.0000    0.0047
      126 V      7g3-      -0.0000   -0.0000   -0.0000    0.0000   -0.0000    0.0000   -0.0000    0.0012    0.0000    0.0047
      127 V      8g3-       0.0000    0.0000    0.0000   -0.0000   -0.0000    0.0000   -0.0000    0.0059    0.0000    0.0045
      128 V      5g2-      -0.0000   -0.0000   -0.0000    0.0000   -0.0000    0.0000    0.0000   -0.0046   -0.0000    0.0007
      129 V      6g2-       0.0000    0.0000    0.0000   -0.0000    0.0000   -0.0000    0.0000   -0.0024   -0.0000    0.0005
      130 V      7g2-      -0.0000   -0.0000   -0.0000    0.0000   -0.0000   -0.0000   -0.0000    0.0014    0.0000   -0.0014
      131 V      8g2-       0.0000    0.0000    0.0000   -0.0000    0.0000   -0.0000   -0.0000    0.0020    0.0000   -0.0028
      132 V      5g1-      -0.0000    0.0000    0.0000   -0.0000   -0.0000   -0.0000   -0.0000    0.0045    0.0000   -0.0009
      133 V      6g1-       0.0000   -0.0000    0.0000   -0.0000   -0.0000    0.0000   -0.0000    0.0040    0.0000   -0.0007
      134 V      7g1-      -0.0000    0.0000   -0.0000    0.0000    0.0000    0.0000    0.0000   -0.0015   -0.0000    0.0017
      135 V      8g1-       0.0000   -0.0000    0.0000   -0.0000   -0.0000    0.0000    0.0000   -0.0032   -0.0000    0.0036
      136 V      5g0        0.0000   -0.0000   -0.0000   -0.0000    0.0000   -0.0010   -0.0061   -0.0000    0.0005   -0.0000
      137 V      6g0       -0.0000    0.0000    0.0000    0.0000   -0.0000   -0.0010   -0.0063   -0.0000    0.0020   -0.0000
      138 V      7g0       -0.0000   -0.0000   -0.0000   -0.0000    0.0000    0.0003    0.0002    0.0000    0.0027   -0.0000
      139 V      8g0        0.0000    0.0000    0.0000    0.0000   -0.0000    0.0006    0.0029    0.0000    0.0028   -0.0000
      140 V      5g1+      -0.0000    0.0000   -0.0000   -0.0000    0.0000    0.0044   -0.0104   -0.0000   -0.0006   -0.0000
      141 V      6g1+      -0.0000   -0.0000    0.0000    0.0001    0.0000    0.0033   -0.0057   -0.0000   -0.0015   -0.0000
      142 V      7g1+       0.0000    0.0000   -0.0000   -0.0001   -0.0000   -0.0012    0.0031    0.0000   -0.0013    0.0000
      143 V      8g1+       0.0000   -0.0000    0.0000    0.0000    0.0000   -0.0020    0.0045    0.0000   -0.0008    0.0000
      144 V      5g2+      -0.0000    0.0000    0.0000    0.0000   -0.0000    0.0013    0.0060    0.0000   -0.0007    0.0000
      145 V      6g2+       0.0000   -0.0000    0.0000    0.0000    0.0001    0.0014    0.0055    0.0000   -0.0029    0.0000
      146 V      7g2+       0.0000    0.0000   -0.0000   -0.0000   -0.0001   -0.0004   -0.0015   -0.0000   -0.0041   -0.0000
      147 V      8g2+      -0.0000   -0.0000   -0.0000   -0.0000    0.0000   -0.0009   -0.0038   -0.0000   -0.0043   -0.0000
      148 V      5g3+      -0.0000    0.0000    0.0000    0.0000    0.0000    0.0051    0.0091    0.0000   -0.0007    0.0000
      149 V      6g3+      -0.0000   -0.0000   -0.0000   -0.0000    0.0000    0.0038    0.0049    0.0000   -0.0017    0.0000
      150 V      7g3+       0.0000   -0.0000    0.0000    0.0000   -0.0000   -0.0014   -0.0028   -0.0000   -0.0014   -0.0000
      151 V      8g3+       0.0000   -0.0000   -0.0000   -0.0000    0.0000   -0.0023   -0.0039   -0.0000   -0.0009   -0.0000
      152 V      5g4+       0.0000   -0.0000    0.0000    0.0000    0.0000   -0.0015    0.0078    0.0000    0.0010    0.0000
      153 V      6g4+      -0.0000    0.0000    0.0000    0.0000   -0.0001   -0.0017    0.0076    0.0000    0.0039    0.0000
      154 V      7g4+      -0.0000   -0.0000   -0.0000   -0.0000    0.0001    0.0004   -0.0013   -0.0000    0.0054    0.0000
      155 V      8g4+       0.0000    0.0000   -0.0000   -0.0000   -0.0000    0.0011   -0.0045   -0.0000    0.0057    0.0000
      156 V      6h5-      -0.0000   -0.0000   -0.0000    0.0000    0.0000    0.0000   -0.0000    0.0035    0.0000   -0.0005
      157 V      7h5-       0.0000    0.0000    0.0000   -0.0000   -0.0000   -0.0000   -0.0000    0.0044    0.0000   -0.0007
      158 V      6h4-       0.0000    0.0000    0.0000   -0.0000    0.0000    0.0000    0.0000   -0.0039   -0.0000    0.0007
      159 V      7h4-       0.0000   -0.0000   -0.0000    0.0000    0.0000    0.0000    0.0000   -0.0076   -0.0000    0.0016
      160 V      6h3-      -0.0000   -0.0000    0.0000   -0.0000    0.0000    0.0000    0.0000   -0.0016   -0.0000    0.0002
      161 V      7h3-       0.0000    0.0000   -0.0000    0.0000   -0.0000   -0.0000    0.0000   -0.0020   -0.0000    0.0003
      162 V      6h2-      -0.0000   -0.0000    0.0000   -0.0000    0.0000   -0.0000   -0.0000    0.0057    0.0000   -0.0009
      163 V      7h2-      -0.0000    0.0000    0.0000   -0.0000    0.0000   -0.0000   -0.0000    0.0076    0.0000   -0.0021
      164 V      6h1-       0.0000    0.0000   -0.0000    0.0000    0.0000    0.0000   -0.0000    0.0001    0.0000   -0.0000
      165 V      7h1-      -0.0000   -0.0000    0.0000   -0.0000   -0.0000   -0.0000   -0.0000    0.0000   -0.0000    0.0000
      166 V      6h0        0.0000   -0.0000   -0.0000   -0.0000   -0.0000   -0.0034    0.0022    0.0000    0.0003    0.0000
      167 V      7h0        0.0000   -0.0000    0.0000    0.0000   -0.0000   -0.0040    0.0028    0.0000    0.0009    0.0000
      168 V      6h1+       0.0000   -0.0000    0.0000    0.0000   -0.0000   -0.0019   -0.0024   -0.0000    0.0002   -0.0000
      169 V      7h1+       0.0000   -0.0000   -0.0000   -0.0000    0.0000   -0.0023   -0.0051   -0.0000    0.0005   -0.0000
      170 V      6h2+      -0.0000    0.0000    0.0000    0.0000    0.0000    0.0020   -0.0025   -0.0000   -0.0002   -0.0000
      171 V      7h2+      -0.0000    0.0000   -0.0000   -0.0000    0.0000    0.0023   -0.0030   -0.0000   -0.0005   -0.0000
      172 V      6h3+      -0.0000    0.0000    0.0000    0.0000    0.0000    0.0019    0.0043    0.0000   -0.0002    0.0000
      173 V      7h3+      -0.0000    0.0000   -0.0000   -0.0000   -0.0000    0.0024    0.0054    0.0000   -0.0005    0.0000
      174 V      6h4+      -0.0000    0.0000   -0.0000   -0.0000    0.0000    0.0053    0.0024    0.0000   -0.0005    0.0000
      175 V      7h4+      -0.0000    0.0000    0.0000    0.0000    0.0000    0.0062    0.0029    0.0000   -0.0013    0.0000
      176 V      6h5+       0.0000   -0.0000    0.0000    0.0000   -0.0000   -0.0024    0.0049    0.0000    0.0002    0.0000
      177 V      7h5+       0.0000   -0.0000    0.0000    0.0000    0.0000   -0.0031    0.0077    0.0000    0.0007    0.0000

          Orbital           11        12    
          Energy            7.1870    7.5586
          Occ. No.          0.0000    0.0000

        1 V      1s         0.0000    0.0000
        2 V      2s        -0.0000   -0.0039
        3 V      3s        -0.0000   -0.3881
        4 V      4s         0.0001    0.1020
        5 V      5s        -0.0010   -0.0913
        6 V      6s        -0.0008    0.1489
        7 V      7s        -0.0016   -0.0016
        8 V      8s        -0.0015   -0.0256
        9 V      9s        -0.0030   -0.0046
       10 V     10s        -0.0013    0.0049
       11 V      2px        0.0000    0.0042
       12 V      3px        0.0000    0.8063
       13 V      4px        0.0000   -0.0126
       14 V      5px       -0.0000    0.0124
       15 V      6px        0.0002   -0.0182
       16 V      7px        0.0004    0.0177
       17 V      8px        0.0007   -0.0146
       18 V      9px        0.0004   -0.0180
       19 V     10px        0.0001   -0.0019
       20 V      2py        0.0000   -0.0000
       21 V      3py        0.0000    0.0000
       22 V      4py        0.0000   -0.0000
       23 V      5py        0.0000    0.0000
       24 V      6py        0.0000    0.0000
       25 V      7py        0.0000   -0.0000
       26 V      8py        0.0000   -0.0000
       27 V      9py        0.0000   -0.0000
       28 V     10py        0.0000   -0.0000
       29 V      2pz        0.0000    0.0000
       30 V      3pz        0.0046    0.0013
       31 V      4pz        0.1040   -0.0000
       32 V      5pz        0.1611    0.0000
       33 V      6pz        0.4242    0.0000
       34 V      7pz        0.4337    0.0000
       35 V      8pz        0.6448   -0.0001
       36 V      9pz        0.3968    0.0000
       37 V     10pz        0.1085    0.0000
       38 V      3d2-      -0.0000    0.0000
       39 V      4d2-      -0.0000   -0.0000
       40 V      5d2-      -0.0000   -0.0000
       41 V      6d2-      -0.0000    0.0000
       42 V      7d2-      -0.0000    0.0000
       43 V      8d2-      -0.0000   -0.0000
       44 V      9d2-      -0.0000   -0.0000
       45 V     10d2-      -0.0000   -0.0000
       46 V      3d1-       0.0000   -0.0000
       47 V      4d1-      -0.0000   -0.0000
       48 V      5d1-       0.0000   -0.0000
       49 V      6d1-       0.0000    0.0000
       50 V      7d1-       0.0000    0.0000
       51 V      8d1-       0.0000    0.0000
       52 V      9d1-       0.0000    0.0000
       53 V     10d1-       0.0000   -0.0000
       54 V      3d0       -0.0006   -0.1859
       55 V      4d0        0.0007    0.0475
       56 V      5d0       -0.0012    0.0190
       57 V      6d0       -0.0064   -0.0184
       58 V      7d0       -0.0125   -0.0093
       59 V      8d0       -0.0168   -0.0006
       60 V      9d0       -0.0140    0.0047
       61 V     10d0       -0.0034    0.0015
       62 V      3d1+      -0.0052    0.0013
       63 V      4d1+      -0.0116   -0.0004
       64 V      5d1+      -0.0183   -0.0001
       65 V      6d1+      -0.0298    0.0002
       66 V      7d1+      -0.0427    0.0001
       67 V      8d1+      -0.0426   -0.0001
       68 V      9d1+      -0.0278   -0.0001
       69 V     10d1+      -0.0058   -0.0000
       70 V      3d2+      -0.0004    0.3232
       71 V      4d2+       0.0003   -0.0823
       72 V      5d2+      -0.0008   -0.0331
       73 V      6d2+      -0.0039    0.0320
       74 V      7d2+      -0.0075    0.0162
       75 V      8d2+      -0.0100    0.0011
       76 V      9d2+      -0.0083   -0.0082
       77 V     10d2+      -0.0020   -0.0026
       78 V      4f3-      -0.0000    0.0000
       79 V      5f3-      -0.0000    0.0000
       80 V      6f3-      -0.0000    0.0000
       81 V      7f3-      -0.0000   -0.0000
       82 V      8f3-      -0.0000    0.0000
       83 V      9f3-      -0.0000    0.0000
       84 V      4f2-       0.0000   -0.0000
       85 V      5f2-       0.0000   -0.0000
       86 V      6f2-      -0.0000    0.0000
       87 V      7f2-      -0.0000   -0.0000
       88 V      8f2-      -0.0000    0.0000
       89 V      9f2-      -0.0000   -0.0000
       90 V      4f1-       0.0000   -0.0000
       91 V      5f1-       0.0000   -0.0000
       92 V      6f1-       0.0000   -0.0000
       93 V      7f1-       0.0000   -0.0000
       94 V      8f1-       0.0000    0.0000
       95 V      9f1-       0.0000    0.0000
       96 V      4f0        0.0042    0.0082
       97 V      5f0        0.0071    0.0038
       98 V      6f0        0.0059   -0.0041
       99 V      7f0        0.0098   -0.0025
      100 V      8f0        0.0172    0.0009
      101 V      9f0        0.0248    0.0026
      102 V      4f1+      -0.0019   -0.0321
      103 V      5f1+      -0.0012   -0.0052
      104 V      6f1+       0.0022    0.0132
      105 V      7f1+       0.0044    0.0002
      106 V      8f1+       0.0036   -0.0041
      107 V      9f1+       0.0031   -0.0032
      108 V      4f2+      -0.0054    0.0068
      109 V      5f2+      -0.0091    0.0031
      110 V      6f2+      -0.0076   -0.0034
      111 V      7f2+      -0.0128   -0.0019
      112 V      8f2+      -0.0224    0.0008
      113 V      9f2+      -0.0323    0.0020
      114 V      4f3+      -0.0015    0.0422
      115 V      5f3+      -0.0010    0.0070
      116 V      6f3+       0.0017   -0.0174
      117 V      7f3+       0.0034   -0.0003
      118 V      8f3+       0.0027    0.0054
      119 V      9f3+       0.0023    0.0043
      120 V      5g4-      -0.0000    0.0000
      121 V      6g4-      -0.0000    0.0000
      122 V      7g4-       0.0000    0.0000
      123 V      8g4-       0.0000   -0.0000
      124 V      5g3-       0.0000   -0.0000
      125 V      6g3-       0.0000   -0.0000
      126 V      7g3-       0.0000    0.0000
      127 V      8g3-       0.0000    0.0000
      128 V      5g2-       0.0000   -0.0000
      129 V      6g2-       0.0000   -0.0000
      130 V      7g2-      -0.0000   -0.0000
      131 V      8g2-      -0.0000    0.0000
      132 V      5g1-      -0.0000    0.0000
      133 V      6g1-      -0.0000    0.0000
      134 V      7g1-       0.0000    0.0000
      135 V      8g1-       0.0000    0.0000
      136 V      5g0        0.0011    0.0006
      137 V      6g0        0.0032   -0.0028
      138 V      7g0        0.0045   -0.0010
      139 V      8g0        0.0052    0.0019
      140 V      5g1+       0.0016    0.0078
      141 V      6g1+       0.0013    0.0090
      142 V      7g1+      -0.0028   -0.0010
      143 V      8g1+      -0.0060   -0.0062
      144 V      5g2+      -0.0012   -0.0012
      145 V      6g2+      -0.0016    0.0040
      146 V      7g2+       0.0002    0.0015
      147 V      8g2+       0.0018   -0.0027
      148 V      5g3+      -0.0014    0.0093
      149 V      6g3+      -0.0011    0.0105
      150 V      7g3+       0.0025   -0.0013
      151 V      8g3+       0.0053   -0.0072
      152 V      5g4+      -0.0015    0.0021
      153 V      6g4+      -0.0030   -0.0048
      154 V      7g4+      -0.0021   -0.0021
      155 V      8g4+      -0.0013    0.0032
      156 V      6h5-      -0.0000    0.0000
      157 V      7h5-      -0.0000   -0.0000
      158 V      6h4-       0.0000   -0.0000
      159 V      7h4-       0.0000   -0.0000
      160 V      6h3-       0.0000    0.0000
      161 V      7h3-       0.0000   -0.0000
      162 V      6h2-      -0.0000    0.0000
      163 V      7h2-      -0.0000    0.0000
      164 V      6h1-      -0.0000    0.0000
      165 V      7h1-       0.0000   -0.0000
      166 V      6h0       -0.0003   -0.0057
      167 V      7h0       -0.0005   -0.0096
      168 V      6h1+       0.0004   -0.0036
      169 V      7h1+       0.0010   -0.0064
      170 V      6h2+       0.0004    0.0033
      171 V      7h2+       0.0005    0.0055
      172 V      6h3+      -0.0006    0.0037
      173 V      7h3+      -0.0015    0.0066
      174 V      6h4+      -0.0003    0.0089
      175 V      7h4+      -0.0005    0.0149
      176 V      6h5+      -0.0008   -0.0046
      177 V      7h5+      -0.0019   -0.0085
--


++    Molecular charges:
      ------------------

      Mulliken charges per centre and basis function type
      ---------------------------------------------------

                V     
      1s       2.0000
      2s       2.0000
      2px      1.9999
      2pz      2.0000
      2py      2.0000
      3s       1.6274
      3px      0.3575
      3pz      1.8033
      3py      1.8041
      4s       0.0120
      3d2+     0.0041
      3d1+     0.1457
      3d0      0.0015
      3d1-     0.0001
      3d2-     0.1449
      4px      0.0004
      4pz      0.0092
      4py      0.0092
      5s       0.3690
      4d2+     0.0004
      4d1+     0.0123
      4d0      0.0001
      4d1-     0.0000
      4d2-     0.0123
      5px      0.0002
      5pz      0.0197
      5py      0.0199
      6s       0.1817
      4f3+     0.0002
      4f2+     0.0024
      4f1+     0.0002
      4f0      0.0014
      4f1-     0.0002
      4f2-     0.0004
      4f3-     0.0034
      5d2+     0.0012
      5d1+     0.0004
      5d0      0.0004
      5d1-     0.0000
      5d2-     0.0004
      6px      0.0006
      6pz      0.0007
      6py      0.0007
      7s       0.4126
      5f3+     0.0000
      5f2+     0.0001
      5f1+     0.0000
      5f0      0.0001
      5f1-     0.0000
      5f2-     0.0001
      5f3-     0.0001
      6d2+     0.0007
      6d1+     0.0016
      6d0      0.0002
      6d1-     0.0000
      6d2-     0.0015
      7px      0.0038
      7pz      0.0000
      7py      0.0000
      5g4+     0.0001
      5g3+     0.0002
      5g2+     0.0001
      5g1+     0.0003
      5g0      0.0001
      5g1-     0.0000
      5g2-     0.0000
      5g3-     0.0002
      5g4-     0.0003
      6f3+     0.0001
      6f2+     0.0004
      6f1+     0.0001
      6f0      0.0003
      6f1-     0.0000
      6f2-     0.0001
      6f3-     0.0005
      6g4+     0.0002
      6g3+     0.0001
      6g2+     0.0001
      6g1+     0.0001
      6g0      0.0001
      6g1-     0.0000
      6g2-     0.0000
      6g3-     0.0002
      6g4-     0.0001
      6h5+     0.0001
      6h4+     0.0001
      6h3+     0.0000
      6h2+     0.0000
      6h1+     0.0000
      6h0      0.0000
      6h1-     0.0000
      6h2-     0.0001
      6h3-     0.0000
      6h4-     0.0000
      6h5-     0.0000
      7d2+     0.0006
      7d1+     0.0002
      7d0      0.0002
      7d1-     0.0000
      7d2-     0.0002
      7f3+     0.0002
      7f2+     0.0000
      7f1+     0.0001
      7f0      0.0000
      7f1-     0.0000
      7f2-     0.0000
      7f3-     0.0000
      7g4+     0.0001
      7g3+     0.0000
      7g2+     0.0000
      7g1+     0.0000
      7g0      0.0000
      7g1-     0.0000
      7g2-     0.0000
      7g3-     0.0000
      7g4-     0.0000
      7h5+     0.0001
      7h4+     0.0001
      7h3+     0.0001
      7h2+     0.0000
      7h1+     0.0001
      7h0      0.0000
      7h1-     0.0000
      7h2-     0.0001
      7h3-     0.0000
      7h4-     0.0001
      7h5-     0.0000
      8s       0.2349
      8px      0.0113
      8pz      0.0000
      8py      0.0000
      8d2+     0.0004
      8d1+     0.0000
      8d0      0.0001
      8d1-     0.0000
      8d2-     0.0000
      8f3+     0.0002
      8f2+     0.0000
      8f1+     0.0001
      8f0      0.0000
      8f1-     0.0000
      8f2-     0.0000
      8f3-     0.0000
      8g4+     0.0001
      8g3+     0.0000
      8g2+     0.0001
      8g1+     0.0000
      8g0      0.0000
      8g1-     0.0000
      8g2-     0.0000
      8g3-     0.0001
      8g4-     0.0001
      9s       0.6685
      9px      0.0044
      9pz      0.0000
      9py      0.0000
      9d2+     0.0002
      9d1+     0.0001
      9d0      0.0001
      9d1-     0.0000
      9d2-     0.0001
      9f3+     0.0002
      9f2+     0.0001
      9f1+     0.0001
      9f0      0.0001
      9f1-     0.0000
      9f2-     0.0000
      9f3-     0.0000
     10s       0.1031
     10px      0.0003
     10pz      0.0000
     10py      0.0000
     10d2+     0.0000
     10d1+     0.0000
     10d0      0.0000
     10d1-     0.0000
     10d2-     0.0000
      Total   18.0000

      N-E      5.0000

      Total electronic charge=   18.000000

      Total            charge=    5.000000
--

 Sorry, Molden does not know how to handle
 functions with angular momentum larger than g

++    Static properties:
      ------------------


      LoProp Charges per center


                   V     
      Nuclear     23.0000
      Electronic -18.0000

      Total        5.0000
--


++    Molecular properties:
      ---------------------

      Charge (e):
                      =    5.0000
      Dipole Moment (Debye):
      Origin of the operator (Ang)=    0.0000    0.0000    0.0000
                   X=  7.3675E-01               Y=  6.5012E-13               Z= -1.2521E-01           Total=  7.4731E-01
      Center of Charge (Ang)
                     X=    0.03067745               Y=    0.00000000               Z=   -0.00521340
      Quadrupole Moment (Debye*Ang):
      Origin of the operator (Ang)=   -0.0000   -0.0000    0.0046
                  XX= -1.5334E+02              XY= -1.0725E-13              XZ=  5.5651E-02              YY= -1.5425E+02
                  YZ=  3.6742E-14              ZZ= -1.5426E+02
      In traceless form (Debye*Ang)
                  XX=  9.1454E-01              XY= -1.6088E-13              XZ=  8.3476E-02              YY= -4.5410E-01
                  YZ=  5.5113E-14              ZZ= -4.6044E-01
--

 Sorry, Molden does not know how to handle
 functions with angular momentum larger than g
 ###############################################################################
 ###############################################################################
 ###                                                                         ###
 ###                                                                         ###
 ###    WARNING: RunFile label nBas                                          ###
 ###    was used       62 times                                              ###
 ###                                                                         ###
 ###                                                                         ###
 ###############################################################################
 ###############################################################################
Note: The following floating-point exceptions are signalling: IEEE_UNDERFLOW_FLAG IEEE_DENORMAL
--- Stop Module: scf at Wed Mar 26 12:01:23 2025 /rc=_RC_ALL_IS_WELL_ ---
*** files: vanadium_so_cf.LprOrb vanadium_so_cf.ScfOrb xmldump
    saved to directory /home4/s4752295/Internship/Initial_simulations/Point_charge_model/1_electron/Madelung_charges_9_active_space/V
--- Module scf spent 9 seconds ---

*** symbolic link created: INPORB -> vanadium_so_cf.ScfOrb
--- Start Module: rasscf at Wed Mar 26 12:01:23 2025 ---

()()()()()()()()()()()()()()()()()()()()()()()()()()()()()()()()()()()()()()()()()()()()()()()()()()

                                              &RASSCF

                                   only a single process is used
                       available to each process: 4.1 GB of memory, 1 thread?
                                            pid: 3350109
()()()()()()()()()()()()()()()()()()()()()()()()()()()()()()()()()()()()()()()()()()()()()()()()()()


      Header of the ONEINT file:
      --------------------------
      
      Integrals generated by seward 4.2.0  , Wed Mar 26 12:01:06 2025


      OrdInt status: non-squared


      Cartesian coordinates in Angstrom:
      -----------------------------------------------------
      No.  Label        X            Y            Z        
      -----------------------------------------------------
       1   V         -0.00000000  -0.00000000   0.00463220
      -----------------------------------------------------
      Nuclear repulsion energy = -300.60876969

++    Wave function specifications:
      -----------------------------

      Number of closed shell electrons          18
      Number of electrons in active shells       1
      Max number of holes in RAS1 space          0
      Max nr of electrons in RAS3 space          0
      Number of inactive orbitals                9
      Number of active orbitals                  9
      Number of secondary orbitals             159
      Spin quantum number                      0.5
      State symmetry                             1
--

++    Orbital specifications:
      -----------------------

      Symmetry species                           1
                                                 a
      Frozen orbitals                            0
      Inactive orbitals                          9
      Active orbitals                            9
      RAS1 orbitals                              0
      RAS2 orbitals                              9
      RAS3 orbitals                              0
      Secondary orbitals                       159
      Deleted orbitals                           0
      Number of basis functions                177
--

++    CI expansion specifications:
      ----------------------------

      Number of CSFs                             9
      Number of determinants                     9
      Number of root(s) required                 9
      Root chosen for geometry opt.              9
      CI roots used                              1     2     3     4     5     6     7     8     9
      weights                                0.111 0.111 0.111 0.111 0.111 0.111 0.111 0.111 0.111
      highest root included in the CI            9
      max. size of the explicit Hamiltonian      9
--

++    Optimization specifications:
      ----------------------------

      RASSCF algorithm: Conventional
      Maximum number of macro iterations       200
      Maximum number of SX iterations          100
      Threshold for RASSCF energy            0.100E-07
      Threshold for max MO rotation          0.100E+00
      Threshold for max BLB element          0.100E-03
      Level shift parameter                  0.500E+00
      Make Quasi-Newton update
--

      The MO-coefficients are taken from the file:
      INPORB                                                                                                                          
      Title: SCF orbitals                                                                  

      Total molecular charge    4.00

      ************************************************************************************************************************
      *                                                                                                                      *
      *                                            Wave function control section                                             *
      *                                                                                                                      *
      ************************************************************************************************************************


                                         RASSCF iterations: Energy and convergence statistics
                                         ----------------------------------------------------

      Iter CI   SX   CI       RASSCF       Energy    max ROT     max BLB   max BLB  Level Ln srch  Step   QN   Walltime
          iter iter root      energy       change     param      element    value   shift minimum  type update hh:mm:ss
 Nr of preliminary CI iterations:   1
      Total energies have been shifted. Add                -1000.00 au
        1   1    5    0    -4.56546921    0.00E+00  -0.30E-02    6  25 1 -0.21E-01*  0.00   0.00    SX    NO    0:00:03
        2   1    5    0    -4.56604945   -0.58E-03*  0.33E-02    5 172 1 -0.45E-02*  0.00   0.00    SX    NO    0:00:01
        3   1    4    0    -4.56605794   -0.85E-05*  0.25E-02    3 170 1  0.82E-03*  0.00   0.00    SX    NO    0:00:01
        4   1    4    0    -4.56605916   -0.12E-05*  0.18E-02   12  25 1  0.16E-03*  0.00   0.00    SX    NO    0:00:01
        5   1    4    0    -4.56605985   -0.70E-06*  0.20E-02   12  25 1 -0.11E-03*  0.00   1.10    QN   YES    0:00:01
        6   1    4    0    -4.56606069   -0.83E-06*  0.29E-02    5 172 1  0.11E-03*  0.00   2.50    LS   YES    0:00:01
        7   1    4    0    -4.56606142   -0.74E-06*  0.39E-02    5 172 1  0.23E-03*  0.00   1.74    QN   YES    0:00:01
        8   1    4    0    -4.56606177   -0.35E-06*  0.95E-03   10  21 1 -0.10E-03*  0.00   0.74    QN   YES    0:00:01
        9   1    4    0    -4.56606200   -0.23E-06* -0.62E-03    5 172 1 -0.81E-04   0.00   0.99    QN   YES    0:00:01
       10   1    4    0    -4.56606209   -0.93E-07* -0.84E-03   18  25 1  0.25E-04   0.00   2.37    LS   YES    0:00:01
       11   1    4    0    -4.56606214   -0.47E-07*  0.13E-02    5 172 1  0.98E-04   0.00   1.00    QN   YES    0:00:01
[...]
         9   15       3.87078801E-01  1.09258969E+07  7.18020250E-14  6.89757964E+08  7.00683861E+08
         9   17       4.31812767E-01  9.32863570E+08  2.18430099E-16  6.40714013E+06  9.39270711E+08
        10   12       1.73700771E-01  1.71561189E+08  1.83361576E-15  1.35523354E+06  1.72916422E+08
        10   14       3.65031510E-01  4.05827291E-15  6.17348410E+08  8.62791232E-14  6.17348410E+08
        10   16       3.87078801E-01  1.09258969E+07  7.18020250E-14  6.89757964E+08  7.00683861E+08
        10   18       4.31812767E-01  9.32863570E+08  2.18430099E-16  6.40714013E+06  9.39270711E+08
        11   13       2.13984150E-01  1.11060950E-17  1.96105796E+07  1.05911523E-15  1.96105796E+07
        11   15       1.82494455E-01  7.64584549E+04  4.98913839E-15  2.19851330E+07  2.20615915E+07
        11   17       8.33355730E-02  1.88755813E+07  1.26388189E-18  9.43947442E+04  1.89699761E+07
        12   14       2.13984150E-01  1.11060950E-17  1.96105796E+07  1.05911523E-15  1.96105796E+07
        12   16       1.82494455E-01  7.64584549E+04  4.98913839E-15  2.19851330E+07  2.20615915E+07
        12   18       8.33355730E-02  1.88755813E+07  1.26388189E-18  9.43947442E+04  1.89699761E+07
        13   15       1.24205950E-02  1.91823550E-22  2.51090637E+04  1.25308032E-17  2.51090637E+04
        13   17       3.83881025E-04  8.58857658E-18  1.16732496E+04  9.42412409E-18  1.16732496E+04
        14   16       1.24205950E-02  1.91823550E-22  2.51090637E+04  1.25308032E-17  2.51090637E+04
        14   18       3.83881025E-04  8.58857658E-18  1.16732496E+04  9.42412409E-18  1.16732496E+04
        15   17       1.94311226E-03  5.85859304E+03  2.09180137E-19  2.66868916E+04  3.25454847E+04
        16   18       1.94311226E-03  5.85859304E+03  2.09180137E-19  2.66868916E+04  3.25454847E+04
     -----------------------------------------------------------------------------------------------
--

++ Velocity transition strengths (SO states):
   ------------------------------------------
    for osc. strength at least    1.0000000000000001E-005

      From   To        Osc. strength     Einstein coefficients Ax, Ay, Az (sec-1)    Total A (sec-1)
     -----------------------------------------------------------------------------------------------
         1    3       4.69776435E-04  9.99484461E-25  6.60802098E-01  1.32878778E-23  6.60802098E-01
         1    5       1.67596485E-04  1.22412210E-19  7.09142456E+05  1.34724608E-14  7.09142456E+05
         1    7       7.23415691E-03  5.02197022E-17  2.28773442E+08  4.26372314E-12  2.28773442E+08
         1    9       5.52690192E-03  3.59606694E-18  3.18245432E+08  5.86210667E-12  3.18245432E+08
         1   11       3.00601660E-04  2.29545948E-16  2.21600005E+07  4.18181158E-13  2.21600005E+07
         1   13       6.88127084E-05  1.19352167E+06  8.31372330E-14  4.24329636E+06  5.43681804E+06
         1   15       2.98954198E-05  2.94605119E-14  2.38596096E+06  1.61042960E-13  2.38596096E+06
         1   17       4.42789261E-03  1.26336078E-17  3.63704291E+08  6.35232882E-12  3.63704291E+08
         2    4       4.69776435E-04  9.99484461E-25  6.60802098E-01  1.32878778E-23  6.60802098E-01
         2    6       1.67596485E-04  1.22412210E-19  7.09142456E+05  1.34724608E-14  7.09142456E+05
         2    8       7.23415691E-03  5.02197022E-17  2.28773442E+08  4.26372314E-12  2.28773442E+08
         2   10       5.52690192E-03  3.59606694E-18  3.18245432E+08  5.86210667E-12  3.18245432E+08
         2   12       3.00601660E-04  2.29545948E-16  2.21600005E+07  4.18181158E-13  2.21600005E+07
         2   14       6.88127084E-05  1.19352167E+06  8.31372330E-14  4.24329636E+06  5.43681804E+06
         2   16       2.98954198E-05  2.94605119E-14  2.38596096E+06  1.61042960E-13  2.38596096E+06
         2   18       4.42789261E-03  1.26336078E-17  3.63704291E+08  6.35232882E-12  3.63704291E+08
         3    5       1.69747157E-04  1.86980449E+00  1.27645597E-14  7.17412613E+05  7.17414483E+05
         3    7       7.21244195E-03  2.60463915E+03  4.27500326E-12  2.27987925E+08  2.27990529E+08
         3    9       5.44509801E-03  4.98278125E+02  5.94474484E-12  3.13436568E+08  3.13437066E+08
         3   11       3.09134967E-04  6.48112772E+03  4.21804772E-13  2.27762892E+07  2.27827704E+07
         3   13       5.34740406E-05  2.58884258E-14  4.22379901E+06  4.91669439E-14  4.22379901E+06
         3   15       1.36519157E-04  1.34405770E+06  3.58094835E-14  9.54867775E+06  1.08927354E+07
         3   17       4.12927402E-03  3.85660691E+03  6.77744217E-12  3.39083328E+08  3.39087184E+08
         4    6       1.69747157E-04  1.86980449E+00  1.27645597E-14  7.17412613E+05  7.17414483E+05
         4    8       7.21244195E-03  2.60463915E+03  4.27500326E-12  2.27987925E+08  2.27990529E+08
         4   10       5.44509801E-03  4.98278125E+02  5.94474484E-12  3.13436568E+08  3.13437066E+08
         4   12       3.09134967E-04  6.48112772E+03  4.21804772E-13  2.27762892E+07  2.27827704E+07
         4   14       5.34740406E-05  2.58884258E-14  4.22379901E+06  4.91669439E-14  4.22379901E+06
         4   16       1.36519157E-04  1.34405770E+06  3.58094835E-14  9.54867775E+06  1.08927354E+07
         4   18       4.12927402E-03  3.85660691E+03  6.77744217E-12  3.39083328E+08  3.39087184E+08
         5    7       1.80806205E-03  2.29987546E+07  2.15494658E-18  1.19470794E+01  2.29987665E+07
         5    9       3.31603076E-04  1.01449250E+07  2.79422090E-16  2.89405515E+02  1.01452144E+07
         5   11       5.99200292E-04  2.45152361E+07  7.01335425E-15  1.02711746E+06  2.55423535E+07
         5   13       1.00678309E-02  3.98664822E-16  4.69886566E+08  7.03558404E-14  4.69886566E+08
         5   15       1.32628568E-02  4.37421820E+06  5.75325225E-14  6.22805451E+08  6.27179669E+08
         5   17       5.47859267E-02  2.68442795E+09  1.38162477E-16  4.74561427E+06  2.68917356E+09
         6    8       1.80806205E-03  2.29987546E+07  2.15494658E-18  1.19470794E+01  2.29987665E+07
         6   10       3.31603076E-04  1.01449250E+07  2.79422090E-16  2.89405515E+02  1.01452144E+07
         6   12       5.99200292E-04  2.45152361E+07  7.01335425E-15  1.02711746E+06  2.55423535E+07
         6   14       1.00678309E-02  3.98664822E-16  4.69886566E+08  7.03558404E-14  4.69886566E+08
         6   16       1.32628568E-02  4.37421820E+06  5.75325225E-14  6.22805451E+08  6.27179669E+08
         6   18       5.47859267E-02  2.68442795E+09  1.38162477E-16  4.74561427E+06  2.68917356E+09
         7    9       3.36745725E-03  1.29980289E+07  3.49630056E-19  4.77577364E+02  1.29985065E+07
         7   11       1.74446278E-03  1.52340536E+07  1.41486404E-16  7.54286942E+04  1.53094823E+07
         7   13       1.33445665E-03  5.80055980E-18  1.42270780E+07  1.92727450E-15  1.42270780E+07
         7   15       1.56496388E-03  2.12258679E+06  1.58085347E-15  1.50246668E+07  1.71472536E+07
         7   17       2.92568977E-02  3.46011364E+08  8.14492817E-18  1.12351262E+05  3.46123716E+08
         8   10       3.36745725E-03  1.29980289E+07  3.49630056E-19  4.77577364E+02  1.29985065E+07
         8   12       1.74446278E-03  1.52340536E+07  1.41486404E-16  7.54286942E+04  1.53094823E+07
         8   14       1.33445665E-03  5.80055980E-18  1.42270780E+07  1.92727450E-15  1.42270780E+07
         8   16       1.56496388E-03  2.12258679E+06  1.58085347E-15  1.50246668E+07  1.71472536E+07
         8   18       2.92568977E-02  3.46011364E+08  8.14492817E-18  1.12351262E+05  3.46123716E+08
         9   11       1.10131310E-03  4.97042466E+05  8.51963648E-16  5.99301451E+05  1.09634392E+06
         9   13       5.71293458E-02  2.40131594E-19  9.66185999E+07  1.17009229E-14  9.66185999E+07
         9   15       5.29248898E-02  3.34551205E+04  1.12563381E-14  9.57706680E+07  9.58041231E+07
         9   17       1.98988651E-03  4.06486073E+06  4.16946224E-17  2.63516637E+05  4.32837737E+06
        10   12       1.10131310E-03  4.97042466E+05  8.51963648E-16  5.99301451E+05  1.09634392E+06
        10   14       5.71293458E-02  2.40131594E-19  9.66185999E+07  1.17009229E-14  9.66185999E+07
        10   16       5.29248898E-02  3.34551205E+04  1.12563381E-14  9.57706680E+07  9.58041231E+07
        10   18       1.98988651E-03  4.06486073E+06  4.16946224E-17  2.63516637E+05  4.32837737E+06
        11   13       1.40061377E-02  6.99700686E-20  1.28359709E+06  1.48938623E-16  1.28359709E+06
        11   15       1.15341792E-02  1.14372617E+02  1.58744761E-16  1.39424708E+06  1.39436145E+06
        11   17       1.16235834E-03  7.40984685E+03  2.83497485E-16  2.57182880E+05  2.64592727E+05
        12   14       1.40061377E-02  6.99700686E-20  1.28359709E+06  1.48938623E-16  1.28359709E+06
        12   16       1.15341792E-02  1.14372617E+02  1.58744761E-16  1.39424708E+06  1.39436145E+06
        12   18       1.16235834E-03  7.40984685E+03  2.83497485E-16  2.57182880E+05  2.64592727E+05
        13   15       6.66638875E-04  5.62766710E-20  1.34765976E+03  4.08101326E-18  1.34765976E+03
        13   17       2.82256657E-01  1.66435654E-19  8.58303390E+06  1.02068897E-15  8.58303390E+06
        14   16       6.66638875E-04  5.62766710E-20  1.34765976E+03  4.08101326E-18  1.34765976E+03
        14   18       2.82256657E-01  1.66435654E-19  8.58303390E+06  1.02068897E-15  8.58303390E+06
        15   17       3.52271064E-01  1.62435309E+02  7.67594255E-16  5.90010005E+06  5.90026248E+06
        16   18       3.52271064E-01  1.62435309E+02  7.67594255E-16  5.90010005E+06  5.90026248E+06
     -----------------------------------------------------------------------------------------------
--

++ Length and velocity gauge comparison (SO states):

 --------------------------------------------------
 A comparison between the dipole oscillator strengths in 
 length and velocity gauge will be performed

 All dipole oscillator differences above the tolerance of   0.10000000000000001       will be printed 

 Due to basis set deficiency these oscillator may be problematic 

 The tolerance is defined as ABS(1-O_l/O_v) 
 O_l : dipole oscillator strength in length gauge
 O_p : dipole oscillator strength in velocity gauge
 --------------------------------------------------

  Problematic transitions have been found

      From   To       Difference (%) Osc. st. (len.) Osc. st. (vel.)
     ---------------------------------------------------------------
         1    3      --------------- below threshold  4.69776435E-04
         1    5            75.254506  2.93720392E-04  1.67596485E-04
         1    7          7473.991972  5.47914463E-01  7.23415691E-03
         1    9         35018.746551  1.94097868E+00  5.52690192E-03
         1   11         85289.649813  2.56682705E-01  3.00601660E-04
         1   13        226432.800809  1.55883356E-01  6.88127084E-05
         1   15        487972.524120  1.45911330E-01  2.98954198E-05
         1   17         39803.270212  1.76687395E+00  4.42789261E-03
         2    4      --------------- below threshold  4.69776435E-04
         2    6            75.254506  2.93720392E-04  1.67596485E-04
         2    8          7473.991972  5.47914463E-01  7.23415691E-03
         2   10         35018.746551  1.94097868E+00  5.52690192E-03
         2   12         85289.649813  2.56682705E-01  3.00601660E-04
         2   14        226432.800809  1.55883356E-01  6.88127084E-05
         2   16        487972.524120  1.45911330E-01  2.98954198E-05
         2   18         39803.270212  1.76687395E+00  4.42789261E-03
         3    5            72.361448  2.92578657E-04  1.69747157E-04
         3    7          7406.798697  5.41423498E-01  7.21244195E-03
         3    9         34357.355241  1.87623676E+00  5.44509801E-03
         3   11         92309.803892  2.85671017E-01  3.09134967E-04
         3   13        281657.649401  1.50667200E-01  5.34740406E-05
         3   15        159434.499327  2.17795154E-01  1.36519157E-04
         3   17         36246.487184  1.50084605E+00  4.12927402E-03
         4    6            72.361448  2.92578657E-04  1.69747157E-04
         4    8          7406.798697  5.41423498E-01  7.21244195E-03
         4   10         34357.355241  1.87623676E+00  5.44509801E-03
         4   12         92309.803892  2.85671017E-01  3.09134967E-04
         4   14        281657.649401  1.50667200E-01  5.34740406E-05
         4   16        159434.499327  2.17795154E-01  1.36519157E-04
         4   18         36246.487184  1.50084605E+00  4.12927402E-03
         5    7            99.203662  1.43982831E-05  1.80806205E-03
         5    9            32.303658  4.38723001E-04  3.31603076E-04
         5   11           122.192765  1.33137970E-03  5.99200292E-04
         5   13            15.852894  1.16638735E-02  1.00678309E-02
         5   15            13.174518  1.50101743E-02  1.32628568E-02
         6    8            99.203662  1.43982831E-05  1.80806205E-03
         6   10            32.303658  4.38723001E-04  3.31603076E-04
         6   12           122.192765  1.33137970E-03  5.99200292E-04
         6   14            15.852894  1.16638735E-02  1.00678309E-02
         6   16            13.174518  1.50101743E-02  1.32628568E-02
         7    9         12069.000659  4.09785895E-01  3.36745725E-03
         7   11         15234.894119  2.67511521E-01  1.74446278E-03
         7   13          2053.153117  2.87328950E-02  1.33445665E-03
         7   15          2710.639757  4.39854969E-02  1.56496388E-03
         7   17          4822.575524  1.44019288E+00  2.92568977E-02
         8   10         12069.000659  4.09785895E-01  3.36745725E-03
         8   12         15234.894119  2.67511521E-01  1.74446278E-03
         8   14          2053.153117  2.87328950E-02  1.33445665E-03
         8   16          2710.639757  4.39854969E-02  1.56496388E-03
         8   18          4822.575524  1.44019288E+00  2.92568977E-02
         9   11         15672.151502  1.73700771E-01  1.10131310E-03
         9   13           538.956222  3.65031510E-01  5.71293458E-02
         9   15           631.373844  3.87078801E-01  5.29248898E-02
         9   17         21600.371670  4.31812767E-01  1.98988651E-03
        10   12         15672.151502  1.73700771E-01  1.10131310E-03
        10   14           538.956222  3.65031510E-01  5.71293458E-02
        10   16           631.373844  3.87078801E-01  5.29248898E-02
        10   18         21600.371670  4.31812767E-01  1.98988651E-03
        11   13          1427.788426  2.13984150E-01  1.40061377E-02
        11   15          1482.205828  1.82494455E-01  1.15341792E-02
        11   17          7069.525128  8.33355730E-02  1.16235834E-03
        12   14          1427.788426  2.13984150E-01  1.40061377E-02
        12   16          1482.205828  1.82494455E-01  1.15341792E-02
        12   18          7069.525128  8.33355730E-02  1.16235834E-03
        13   15          1763.166928  1.24205950E-02  6.66638875E-04
        13   17            99.863996  3.83881025E-04  2.82256657E-01
        14   16          1763.166928  1.24205950E-02  6.66638875E-04
        14   18            99.863996  3.83881025E-04  2.82256657E-01
        15   17            99.448404  1.94311226E-03  3.52271064E-01
        16   18            99.448404  1.94311226E-03  3.52271064E-01
     ---------------------------------------------------------------

 Number of problematic transitions =                    70

--

 Electric-dipole - electric-octupole not included
++ Total transition strengths for the second-order expansion of the wave vector (SO states):
   -----------------------------------------------------------------------------------------
    for osc. strength at least    1.0000000000000001E-005

      From   To        Osc. strength
     -------------------------------
         1    7       1.87056535E-03
         1    9       2.02104125E-04
         1   11       6.67317484E-05
         1   13       1.04606227E-05
         1   15       4.24323085E-05
         1   17       1.80272274E-03
         2    8       1.87056535E-03
         2   10       2.02104125E-04
         2   12       6.67317484E-05
         2   14       1.04606227E-05
         2   16       4.24323085E-05
         2   18       1.80272274E-03
         3    7       1.86860289E-03
         3    9       2.06566680E-04
         3   11       7.09993716E-05
         3   17       1.85394749E-03
         4    8       1.86860289E-03
         4   10       2.06566680E-04
         4   12       7.09993716E-05
         4   18       1.85394749E-03
         7    9       2.27140734E-05
         7   17       2.59453118E-05
         8   10       2.27140734E-05
         8   18       2.59453118E-05
     -------------------------------
--

++ I/O STATISTICS
 
  I. General I/O information
  - - - - - - - - - - - - - - - - - - - - - - - - - - - - - - - - - - - - - - - - - - -
  Unit  Name          Flsize      Write/Read            MBytes           Write/Read
                      (MBytes)       Calls              In/Out           Time, sec.
  - - - - - - - - - - - - - - - - - - - - - - - - - - - - - - - - - - - - - - - - - - -
   1  SCRATCH           0.00 .       9/      45 .      0.0/      0.0 .       0/       0
   2  ANNI              0.00 .       0/       0 .      0.0/      0.0 .       0/       0
   3  RUNFILE          14.82 .     322/   10733 .      2.3/     77.8 .       0/       0
   4  ONEINT            5.45 .       0/   23543 .      0.0/   3734.6 .       0/       0
   5  JOBIPH            6.30 .       0/      92 .      0.0/      0.8 .       0/       0
   6  ORDINT          473.53 .       1/    3789 .      0.0/    947.0 .       0/       0
  - - - - - - - - - - - - - - - - - - - - - - - - - - - - - - - - - - - - - - - - - - -
   *  TOTAL           500.11 .     332/   38202 .      2.3/   4760.2 .       0/       0
  - - - - - - - - - - - - - - - - - - - - - - - - - - - - - - - - - - - - - - - - - - -
 
  II. I/O Access Patterns
  - - - - - - - - - - - - - - - - - - - -
  Unit  Name               % of random
                         Write/Read calls
  - - - - - - - - - - - - - - - - - - - -
   1  SCRATCH             88.9/ 100.0
   2  ANNI                 0.0/   0.0
   3  RUNFILE             28.6/  10.8
   4  ONEINT               0.0/  16.4
   5  JOBIPH               0.0/  76.1
   6  ORDINT             100.0/   0.1
  - - - - - - - - - - - - - - - - - - - -
--
--- Stop Module: rassi at Wed Mar 26 12:02:02 2025 /rc=_RC_ALL_IS_WELL_ ---
*** files: xmldump
    saved to directory /home4/s4752295/Internship/Initial_simulations/Point_charge_model/1_electron/Madelung_charges_9_active_space/V
--- Module rassi spent 2 seconds ---

.##################.
.# Happy landing! #.
.##################.

    Timing: Wall=55.97 User=45.73 System=9.37

###############################################################################
Hbrk Cluster
Job 15905644 for user s4752295
Finished at: Wed Mar 26 12:02:06 CET 2025

Job details:
============

Job ID                         : 15905644
Name                           : V_no_SO
User                           : s4752295
Partition                      : regularmedium
Nodes                          : node92
Number of Nodes                : 1
Cores                          : 1
Number of Tasks                : 1
State                          : COMPLETED  
Submit                         : 2025-03-26T12:00:19
Start                          : 2025-03-26T12:01:03
End                            : 2025-03-26T12:02:02
Reserved walltime              : 15:00:00
Used walltime                  : 00:00:59
Used CPU time                  : 00:00:56 (Efficiency: 95.35%)
% User (Computation)           : 82.97%
% System (I/O)                 : 17.03%
Total memory reserved          : 25000M
Maximum memory used            : 1.90G

Acknowledgements:
=================

Please see this page for information about acknowledging Hbrk in your publications:

https://wiki.hpc.rug.nl/habrok/introduction/scientific_output

################################################################################
