   This run of MOLCAS is using the pymolcas driver

                             OPE
                             OPE          NMOL  CASOP  ENMOLC A   SO
                 OPE        NMOLC        AS  OP EN  MO LC     AS  OP
                OPENM       OL CA        SO  PE NM  OL CA     SOP EN
                OP EN      MO   LC       AS  OP ENMOL  CASO   PENMOL
                OP  EN     MO   LC       AS  OP EN     MO     LC ASO
               OP   E  NMOL  C  AS       OP  EN MO     LC     AS  OP
               OP  E   NMO   LC AS        OPEN  MO     LCASOP EN   M
               O  PEN   MO  LCA  SO
            OPE   NMO   L   CAS    OP
        OPENMOL  CASOP     ENMOL   CASOPE
     OPENMOLCA   SOPENMOLCASOPEN   MOLCASOPE
    OPENMOLCAS   OP           EN   MOL    CAS
    OPENMOLCAS       OP  ENM        O     LCA
    OPENMOLCAS    OPEN  MOLCASO     P  E  NMO
    OPENMOLCAS     OP               E  N  MOL
    OPENMOLCA   SO           PENM   O  L  CAS    OPEN    MO    LCAS
    OPENMOLCA   SOP           ENM   O  L  CAS   OP  EN  MOLC  AS   O
    OPENMOLCA   SOPE           NM      O  LCA   S      OP  EN MO
    OPENMOLC                AS         O  PEN   M      OL  CA  SOPE
    OPENMO        LCASOPE  NMOL        C  ASO   P      ENMOLC     AS
    OPE     NMO      LCA  SO     P     E   NM   OL  CA SO  PE N   MO
          OPENMOLCA            SOPE   NMO        LCAS  O    P  ENMO
     OPENMOLCASOPENMOLCASOPENMOLCASOPENMOLCA
        OPENMOLCASOPENMOLCASOPENMOLCASOPE
            OPENMOLCASOPENMOLCASOPENM
               OPENMOLCASOPENMOLCA        version: o91e1abe7de707b ?
                   OPENMOLCASO
                       OPE                tag:

 OpenMolcas is free software; you can redistribute it and/or modify it
 under the terms of the GNU Lesser General Public License version 2.1.
 OpenMolcas is distributed in the hope that it will be useful, but it
 is provided "as is" and without any express or implied warranties.
 For more details see the full text of the license in the file
 LICENSE or in <http://www.gnu.org/licenses/>.

                 Copyright (C) The OpenMolcas Authors
           For the author list and the recommended citation,
                   consult the file CONTRIBUTORS.md

           *************************************************
           * pymolcas version py2.10                       *
           *   build 3068ae8b88c9345ec6cfef6fef7f1169      *
           *   (after the EMIL interpreter by V. Veryazov) *
           *************************************************

configuration info
------------------
Host name: login1 (Linux)
C Compiler ID: GNU
C flags: -std=gnu99
Fortran Compiler ID: GNU
Fortran flags: -fno-aggressive-loop-optimizations -cpp -fdefault-integer-8 -fmax-stack-var-size=1048576
Definitions: _MOLCAS_;_I8_;_LINUX_;_MKL_
Parallel: OFF (GA=OFF)


   ----------------------------------------------------------------------------------------------------------------------------------
  |
  |           Project: vanadium_so_cf
  |    Submitted from: /home4/s4752295/Internship/Initial_simulations/Point_charge_model/1_electron/Madelung_charges_9_active_space/V
  |      Scratch area: /tmp/vanadium_so_cf
  |   Save outputs to: /home4/s4752295/Internship/Initial_simulations/Point_charge_model/1_electron/Madelung_charges_9_active_space/V
  |            Molcas: /home4/s4752295/Internship/Molcas/recomp_try/OpenMolcas-master/build
  |
  | Scratch area is empty
  |
  |    MOLCAS_DRIVER = /home4/s4752295/Internship/Molcas/bin/pymolcas
  |    MOLCAS_NPROCS = 1
  |    MOLCAS_SOURCE = /home4/s4752295/Internship/Molcas/recomp_try/OpenMolcas-master
  | MOLCAS_STRUCTURE = 0
  |
   ----------------------------------------------------------------------------------------------------------------------------------

++ ---------   Input file   ---------

&SEWARD
AMFi

CLIG
$R

Basis Set
V.ANO-rcc.Roos.21s15p10d6f4g2h.10s9p8d6f4g2h.
Spherical d
V            -1.0658140267135469e-14    -3.5527134223784897e-15 0.008753588724385739
End of Basis

Xfield

414
-4.402421188,-1.6940000000000002,0.9780309      -0.625931
-4.402421188,-0.0,-1.9560629    -0.625931
-4.402421188,1.6940000000000002,0.9780309       -0.625931
-4.394880677000001,0.0,0.0      1.892092
2.9250976590000004,-1.6940000000000002,-0.9780309       2.515516
2.9250976590000004,0.0,1.9560629        2.515516
2.9250976590000004,1.6940000000000002,-0.9780309        2.515516
3.9192871080000002,-3.3880000000000003,0.0      0.004632
3.9192871080000002,-1.6940000000000002,-2.9340938000000003      0.004632
3.9192871080000002,-1.6940000000000002,2.9340938000000003       0.004632
3.9192871080000002,1.6940000000000002,-2.9340938000000003       0.004632
3.9192871080000002,1.6940000000000002,2.9340938000000003        0.004632
3.9192871080000002,3.3880000000000003,0.0       0.004632
4.542065429000001,-1.6940000000000002,0.9780309 -2.519484
4.542065429000001,-0.0,-1.9560629       -2.519484
4.542065429000001,1.6940000000000002,0.9780309  -2.519484
-3.2264160170000005,-0.0,-0.0   -3.142907
-5.472607426000001,-3.3880000000000003,-1.9560629       -0.625931
-5.472607426000001,0.0,3.9121247000000006       -0.625931
-5.472607426000001,3.3880000000000003,-1.9560629        -0.625931
-7.2703125,-3.3880000000000003,0.0      1.892092
-7.2703125,-1.6940000000000002,-2.9340938000000003      1.892092
-7.2703125,-1.6940000000000002,2.9340938000000003       1.892092
-7.2703125,1.6940000000000002,-2.9340938000000003       1.892092
-7.2703125,1.6940000000000002,2.9340938000000003        1.892092
-7.2703125,3.3880000000000003,0.0       1.892092
27.689062500000002,-3.3880000000000003,1.9560629        2.515516
27.689062500000002,-0.0,-3.9121247000000006     2.515516
27.689062500000002,3.3880000000000003,1.9560629 2.515516
4.002539068,-3.3880000000000003,-1.9560629      -2.519484
4.002539068,0.0,3.9121247000000006      -2.519484
4.002539068,3.3880000000000003,-1.9560629       -2.519484
-3.5556640680000005,-3.3880000000000003,-0.0    -3.142907
-3.5556640680000005,-1.6940000000000002,-2.9340938000000003     -3.142907
-3.5556640680000005,-1.6940000000000002,2.9340938000000003      -3.142907
-3.5556640680000005,1.6940000000000002,-2.9340938000000003      -3.142907
-3.5556640680000005,1.6940000000000002,2.9340938000000003       -3.142907
-3.5556640680000005,3.3880000000000003,-0.0     -3.142907
-10.47578125,-3.3880000000000003,3.9121247000000006     -0.625931
-10.47578125,3.3880000000000003,3.9121247000000006      -0.625931
-10.47578125,-5.082000000000001,0.9780309       -0.625931
-10.47578125,5.082000000000001,0.9780309        -0.625931
-10.47578125,-1.6940000000000002,-4.8901567     -0.625931
-10.47578125,1.6940000000000002,-4.8901567      -0.625931
6.608593750000001,-1.6940000000000002,-0.9780309        4.409069
6.608593750000001,1.6940000000000002,-0.9780309 4.409069
6.608593750000001,0.0,1.9560629 4.409069
-192.775,-0.0,-0.0      -5.030367
-192.775,0.0,0.0        5.039632
14.869335932,-3.3880000000000003,-3.9121247000000006    2.515516
14.869335932,3.3880000000000003,-3.9121247000000006     2.515516
14.869335932,-5.082000000000001,-0.9780309      2.515516
14.869335932,5.082000000000001,-0.9780309       2.515516
14.869335932,-1.6940000000000002,4.8901567      2.515516
14.869335932,1.6940000000000002,4.8901567       2.515516
20.942968750000002,-5.082000000000001,-2.9340938000000003       0.004632
20.942968750000002,-5.082000000000001,2.9340938000000003        0.004632
20.942968750000002,5.082000000000001,-2.9340938000000003        0.004632
20.942968750000002,5.082000000000001,2.9340938000000003 0.004632
20.942968750000002,-0.0,-5.868187600000001      0.004632
20.942968750000002,0.0,5.868187600000001        0.004632
52.885937500000004,-3.3880000000000003,3.9121247000000006       -2.519484
52.885937500000004,3.3880000000000003,3.9121247000000006        -2.519484
52.885937500000004,-5.082000000000001,0.9780309 -2.519484
52.885937500000004,5.082000000000001,0.9780309  -2.519484
52.885937500000004,-1.6940000000000002,-4.8901567       -2.519484
52.885937500000004,1.6940000000000002,-4.8901567        -2.519484
-160.4625,-5.082000000000001,-2.9340938000000003        1.892092
-160.4625,-5.082000000000001,2.9340938000000003 1.892092
-160.4625,5.082000000000001,-2.9340938000000003 1.892092
-160.4625,5.082000000000001,2.9340938000000003  1.892092
-160.4625,-0.0,-5.868187600000001       1.892092
-160.4625,0.0,5.868187600000001 1.892092
-129.525,-3.3880000000000003,1.9560629  4.409069
-129.525,-0.0,-3.9121247000000006       4.409069
-129.525,3.3880000000000003,1.9560629   4.409069
-97.9,-3.3880000000000003,-0.0  -5.030367
-97.9,-1.6940000000000002,-2.9340938000000003   -5.030367
-97.9,-1.6940000000000002,2.9340938000000003    -5.030367
-97.9,1.6940000000000002,-2.9340938000000003    -5.030367
-97.9,-3.3880000000000003,0.0   5.039632
-97.9,3.3880000000000003,-0.0   -5.030367
-97.9,1.6940000000000002,2.9340938000000003     -5.030367
-97.9,-1.6940000000000002,-2.9340938000000003   5.039632
-97.9,-1.6940000000000002,2.9340938000000003    5.039632
-97.9,1.6940000000000002,-2.9340938000000003    5.039632
-97.9,3.3880000000000003,0.0    5.039632
-97.9,1.6940000000000002,2.9340938000000003     5.039632
-51.2875,-1.6940000000000002,-0.9780309 -5.660931
-51.2875,0.0,1.9560629  -5.660931
-51.2875,1.6940000000000002,-0.9780309  -5.660931
0.9710937500000001,-6.7759989,0.0       0.004632
0.9710937500000001,-3.3880000000000003,-5.868187600000001       0.004632
0.9710937500000001,-3.3880000000000003,5.868187600000001        0.004632
0.9710937500000001,3.3880000000000003,-5.868187600000001        0.004632
0.9710937500000001,6.7759989,0.0        0.004632
0.9710937500000001,3.3880000000000003,5.868187600000001 0.004632
74.73125,-5.082000000000001,2.9340938000000003  -3.142907
74.73125,-5.082000000000001,-2.9340938000000003 -3.142907
74.73125,5.082000000000001,-2.9340938000000003  -3.142907
74.73125,5.082000000000001,2.9340938000000003   -3.142907
74.73125,-0.0,-5.868187600000001        -3.142907
74.73125,0.0,5.868187600000001  -3.142907
95.0125,-6.7759989,-1.9560629   -0.625931
95.0125,-5.082000000000001,-4.8901567   -0.625931
95.0125,-1.6940000000000002,6.846218500000001   -0.625931
95.0125,5.082000000000001,-4.8901567    -0.625931
95.0125,6.7759989,-1.9560629    -0.625931
95.0125,1.6940000000000002,6.846218500000001    -0.625931
1.3169921820000001,-6.7759989,0.0       1.892092
1.3169921820000001,-3.3880000000000003,-5.868187600000001       1.892092
1.3169921820000001,-3.3880000000000003,5.868187600000001        1.892092
1.3169921820000001,3.3880000000000003,-5.868187600000001        1.892092
1.3169921820000001,6.7759989,0.0        1.892092
1.3169921820000001,3.3880000000000003,5.868187600000001 1.892092
37.228125000000006,-3.3880000000000003,-3.9121247000000006      4.409069
37.228125000000006,3.3880000000000003,-3.9121247000000006       4.409069
37.228125000000006,-5.082000000000001,-0.9780309        4.409069
37.228125000000006,5.082000000000001,-0.9780309 4.409069
37.228125000000006,-1.6940000000000002,4.8901567        4.409069
37.228125000000006,1.6940000000000002,4.8901567 4.409069
178.64687500000002,-3.3880000000000003,1.9560629        -5.660931
178.64687500000002,-0.0,-3.9121247000000006     -5.660931
178.64687500000002,3.3880000000000003,1.9560629 -5.660931
0.37812500000000004,-6.7759989,1.9560629        2.515516
0.37812500000000004,-1.6940000000000002,-6.846218500000001      2.515516
0.37812500000000004,-5.082000000000001,4.8901567        2.515516
0.37812500000000004,1.6940000000000002,-6.846218500000001       2.515516
0.37812500000000004,6.7759989,1.9560629 2.515516
0.37812500000000004,5.082000000000001,4.8901567 2.515516
-103.60625,-6.7759989,-1.9560629        -2.519484
-103.60625,-5.082000000000001,-4.8901567        -2.519484
-103.60625,-1.6940000000000002,6.846218500000001        -2.519484
-103.60625,5.082000000000001,-4.8901567 -2.519484
-103.60625,1.6940000000000002,6.846218500000001 -2.519484
-103.60625,6.7759989,-1.9560629 -2.519484
-24.277343750000004,-6.7759989,-0.0     -3.142907
-24.277343750000004,-3.3880000000000003,-5.868187600000001      -3.142907
-24.277343750000004,-3.3880000000000003,5.868187600000001       -3.142907
-24.277343750000004,3.3880000000000003,-5.868187600000001       -3.142907
-24.277343750000004,3.3880000000000003,5.868187600000001        -3.142907
-24.277343750000004,6.7759989,-0.0      -3.142907
667.1500000000001,0.0,0.0       6.927092
355.57500000000005,-6.7759989,3.9121247000000006        -0.625931
355.57500000000005,6.7759989,3.9121247000000006 -0.625931
355.57500000000005,-0.0,-7.824250500000001      -0.625931
-5.964062500000001,-5.082000000000001,2.9340938000000003        -5.030367
-5.964062500000001,-5.082000000000001,-2.9340938000000003       -5.030367
-5.964062500000001,-5.082000000000001,2.9340938000000003        5.039632
-5.964062500000001,-5.082000000000001,-2.9340938000000003       5.039632
-5.964062500000001,5.082000000000001,-2.9340938000000003        -5.030367
-5.964062500000001,5.082000000000001,2.9340938000000003 -5.030367
-5.964062500000001,5.082000000000001,-2.9340938000000003        5.039632
-5.964062500000001,5.082000000000001,2.9340938000000003 5.039632
-5.964062500000001,-0.0,-5.868187600000001      -5.030367
-5.964062500000001,0.0,5.868187600000001        -5.030367
-5.964062500000001,-0.0,-5.868187600000001      5.039632
-5.964062500000001,0.0,5.868187600000001        5.039632
100.99375,-3.3880000000000003,-3.9121247000000006       -5.660931
100.99375,3.3880000000000003,-3.9121247000000006        -5.660931
100.99375,-5.082000000000001,-0.9780309 -5.660931
100.99375,5.082000000000001,-0.9780309  -5.660931
100.99375,-1.6940000000000002,4.8901567 -5.660931
100.99375,1.6940000000000002,4.8901567  -5.660931
330.55,-6.7759989,-3.9121247000000006   2.515516
330.55,6.7759989,-3.9121247000000006    2.515516
330.55,0.0,7.824250500000001    2.515516
-568.975,-6.7759989,3.9121247000000006  -2.519484
-568.975,6.7759989,3.9121247000000006   -2.519484
-568.975,-0.0,-7.824250500000001        -2.519484
58.91875,-3.3880000000000003,0.0        6.927092
58.91875,-1.6940000000000002,-2.9340938000000003        6.927092
58.91875,-1.6940000000000002,2.9340938000000003 6.927092
58.91875,1.6940000000000002,-2.9340938000000003 6.927092
58.91875,1.6940000000000002,2.9340938000000003  6.927092
58.91875,3.3880000000000003,0.0 6.927092
-60.775000000000006,-1.6940000000000002,0.9780309       7.550516
-60.775000000000006,0.0,-1.9560629      7.550516
-60.775000000000006,1.6940000000000002,0.9780309        7.550516
17.084375,-1.6940000000000002,-0.9780309        -7.554483
17.084375,1.6940000000000002,-0.9780309 -7.554483
17.084375,-0.0,1.9560629        -7.554483
-137.3625,-8.4699989,0.9780309  -0.625931
-137.3625,-5.082000000000001,6.846218500000001  -0.625931
-137.3625,-3.3880000000000003,-7.824250500000001        -0.625931
-137.3625,3.3880000000000003,-7.824250500000001 -0.625931
-137.3625,8.4699989,0.9780309   -0.625931
-137.3625,5.082000000000001,6.846218500000001   -0.625931
-74.18125,-6.7759989,1.9560629  4.409069
-74.18125,-5.082000000000001,4.8901567  4.409069
-74.18125,-1.6940000000000002,-6.846218500000001        4.409069
-74.18125,1.6940000000000002,-6.846218500000001 4.409069
-74.18125,5.082000000000001,4.8901567   4.409069
-74.18125,6.7759989,1.9560629   4.409069
54.071875000000006,-6.7759989,-0.0      -5.030367
54.071875000000006,-3.3880000000000003,-5.868187600000001       -5.030367
54.071875000000006,-3.3880000000000003,5.868187600000001        -5.030367
54.071875000000006,-6.7759989,0.0       5.039632
54.071875000000006,-3.3880000000000003,-5.868187600000001       5.039632
54.071875000000006,3.3880000000000003,-5.868187600000001        -5.030367
54.071875000000006,3.3880000000000003,5.868187600000001 -5.030367
54.071875000000006,6.7759989,-0.0       -5.030367
54.071875000000006,-3.3880000000000003,5.868187600000001        5.039632
54.071875000000006,3.3880000000000003,-5.868187600000001        5.039632
54.071875000000006,6.7759989,0.0        5.039632
54.071875000000006,3.3880000000000003,5.868187600000001 5.039632
198.82500000000002,-8.4699989,-0.9780309        2.515516
198.82500000000002,-5.082000000000001,-6.846218500000001        2.515516
198.82500000000002,-3.3880000000000003,7.824250500000001        2.515516
198.82500000000002,5.082000000000001,-6.846218500000001 2.515516
198.82500000000002,8.4699989,-0.9780309 2.515516
198.82500000000002,3.3880000000000003,7.824250500000001 2.515516
-25.678125,-8.4699989,-2.9340938000000003       0.004632
-25.678125,-8.4699989,2.9340938000000003        0.004632
-25.678125,-6.7759989,-5.868187600000001        0.004632
-25.678125,-6.7759989,5.868187600000001 0.004632
-25.678125,-1.6940000000000002,-8.802281400000002       0.004632
-25.678125,1.6940000000000002,-8.802281400000002        0.004632
-25.678125,-1.6940000000000002,8.802281400000002        0.004632
-25.678125,6.7759989,-5.868187600000001 0.004632
-25.678125,1.6940000000000002,8.802281400000002 0.004632
-25.678125,8.4699989,-2.9340938000000003        0.004632
-25.678125,8.4699989,2.9340938000000003 0.004632
-25.678125,6.7759989,5.868187600000001  0.004632
-157.4375,-8.4699989,0.9780309  -2.519484
-157.4375,-5.082000000000001,6.846218500000001  -2.519484
-157.4375,-3.3880000000000003,-7.824250500000001        -2.519484
-157.4375,3.3880000000000003,-7.824250500000001 -2.519484
-157.4375,8.4699989,0.9780309   -2.519484
-157.4375,5.082000000000001,6.846218500000001   -2.519484
3335.2000000000003,-0.0,-0.0    -8.177907
-127.60000000000001,-3.3880000000000003,-1.9560629      7.550516
-127.60000000000001,0.0,3.9121247000000006      7.550516
-127.60000000000001,3.3880000000000003,-1.9560629       7.550516
-663.85,-3.3880000000000003,1.9560629   -7.554483
-663.85,-0.0,-3.9121247000000006        -7.554483
-663.85,3.3880000000000003,1.9560629    -7.554483
53.79687500000001,-8.4699989,2.9340938000000003 1.892092
53.79687500000001,-8.4699989,-2.9340938000000003        1.892092
53.79687500000001,-6.7759989,-5.868187600000001 1.892092
53.79687500000001,-6.7759989,5.868187600000001  1.892092
53.79687500000001,-1.6940000000000002,-8.802281400000002        1.892092
53.79687500000001,1.6940000000000002,-8.802281400000002 1.892092
53.79687500000001,-1.6940000000000002,8.802281400000002 1.892092
53.79687500000001,6.7759989,-5.868187600000001  1.892092
53.79687500000001,1.6940000000000002,8.802281400000002  1.892092
53.79687500000001,8.4699989,-2.9340938000000003 1.892092
53.79687500000001,8.4699989,2.9340938000000003  1.892092
53.79687500000001,6.7759989,5.868187600000001   1.892092
-555.5,-6.7759989,-3.9121247000000006   4.409069
-555.5,6.7759989,-3.9121247000000006    4.409069
-555.5,0.0,7.824250500000001    4.409069
28.402343750000004,-6.7759989,1.9560629 -5.660931
28.402343750000004,-1.6940000000000002,-6.846218500000001       -5.660931
28.402343750000004,-5.082000000000001,4.8901567 -5.660931
28.402343750000004,1.6940000000000002,-6.846218500000001        -5.660931
28.402343750000004,5.082000000000001,4.8901567  -5.660931
28.402343750000004,6.7759989,1.9560629  -5.660931
-64.00625000000001,-6.7759989,-5.868187600000001        -3.142907
-64.00625000000001,-8.4699989,2.9340938000000003        -3.142907
-64.00625000000001,-8.4699989,-2.9340938000000003       -3.142907
-64.00625000000001,-6.7759989,5.868187600000001 -3.142907
-64.00625000000001,-1.6940000000000002,-8.802281400000002       -3.142907
-64.00625000000001,1.6940000000000002,-8.802281400000002        -3.142907
-64.00625000000001,-1.6940000000000002,8.802281400000002        -3.142907
-64.00625000000001,8.4699989,-2.9340938000000003        -3.142907
-64.00625000000001,6.7759989,-5.868187600000001 -3.142907
-64.00625000000001,1.6940000000000002,8.802281400000002 -3.142907
-64.00625000000001,8.4699989,2.9340938000000003 -3.142907
-64.00625000000001,6.7759989,5.868187600000001  -3.142907
71.946875,-5.082000000000001,-2.9340938000000003        6.927092
71.946875,-5.082000000000001,2.9340938000000003 6.927092
71.946875,5.082000000000001,-2.9340938000000003 6.927092
71.946875,5.082000000000001,2.9340938000000003  6.927092
71.946875,-0.0,-5.868187600000001       6.927092
71.946875,0.0,5.868187600000001 6.927092
-91.575,-3.3880000000000003,-0.0        -8.177907
-91.575,-1.6940000000000002,2.9340938000000003  -8.177907
-91.575,-1.6940000000000002,-2.9340938000000003 -8.177907
-91.575,1.6940000000000002,-2.9340938000000003  -8.177907
-91.575,3.3880000000000003,-0.0 -8.177907
-91.575,1.6940000000000002,2.9340938000000003   -8.177907
-99.996875,-3.3880000000000003,3.9121247000000006       7.550516
-99.996875,3.3880000000000003,3.9121247000000006        7.550516
-99.996875,-5.082000000000001,0.9780309 7.550516
-99.996875,5.082000000000001,0.9780309  7.550516
-99.996875,-1.6940000000000002,-4.8901567       7.550516
-99.996875,1.6940000000000002,-4.8901567        7.550516
-50.25625,-3.3880000000000003,-3.9121247000000006       -7.554483
-50.25625,3.3880000000000003,-3.9121247000000006        -7.554483
-50.25625,-5.082000000000001,-0.9780309 -7.554483
-50.25625,5.082000000000001,-0.9780309  -7.554483
-50.25625,-1.6940000000000002,4.8901567 -7.554483
-50.25625,1.6940000000000002,4.8901567  -7.554483
-550.2750000000001,0.0,9.7803123        -0.625931
-550.2750000000001,-8.4699989,-4.8901567        -0.625931
-550.2750000000001,8.4699989,-4.8901567 -0.625931
-296.725,-8.4699989,-0.9780309  4.409069
-296.725,-5.082000000000001,-6.846218500000001  4.409069
-296.725,-3.3880000000000003,7.824250500000001  4.409069
-296.725,5.082000000000001,-6.846218500000001   4.409069
-296.725,8.4699989,-0.9780309   4.409069
-296.725,3.3880000000000003,7.824250500000001   4.409069
341.4125,-6.7759989,-3.9121247000000006 -5.660931
341.4125,6.7759989,-3.9121247000000006  -5.660931
341.4125,0.0,7.824250500000001  -5.660931
645.7,-0.0,-9.7803123   2.515516
645.7,-8.4699989,4.8901567      2.515516
645.7,8.4699989,4.8901567       2.515516
-103.2625,-10.1639989,-0.0      0.004632
-103.2625,5.082000000000001,-8.802281400000002  0.004632
-103.2625,-5.082000000000001,8.802281400000002  0.004632
-103.2625,10.1639989,-0.0       0.004632
-103.2625,-5.082000000000001,-8.802281400000002 0.004632
-103.2625,5.082000000000001,8.802281400000002   0.004632
-424.32500000000005,0.0,9.7803123       -2.519484
-424.32500000000005,-8.4699989,-4.8901567       -2.519484
-424.32500000000005,8.4699989,-4.8901567        -2.519484
250.8,-6.7759989,0.0    6.927092
250.8,-3.3880000000000003,-5.868187600000001    6.927092
250.8,-3.3880000000000003,5.868187600000001     6.927092
250.8,3.3880000000000003,-5.868187600000001     6.927092
250.8,6.7759989,0.0     6.927092
250.8,3.3880000000000003,5.868187600000001      6.927092
233.06250000000003,-10.1639989,-1.9560629       -0.625931
233.06250000000003,-3.3880000000000003,9.7803123        -0.625931
233.06250000000003,-6.7759989,-7.824250500000001        -0.625931
233.06250000000003,6.7759989,-7.824250500000001 -0.625931
233.06250000000003,3.3880000000000003,9.7803123 -0.625931
233.06250000000003,10.1639989,-1.9560629        -0.625931
123.13125000000001,-10.1639989,0.0      1.892092
123.13125000000001,-5.082000000000001,-8.802281400000002        1.892092
123.13125000000001,-5.082000000000001,8.802281400000002 1.892092
123.13125000000001,5.082000000000001,-8.802281400000002 1.892092
123.13125000000001,10.1639989,0.0       1.892092
123.13125000000001,5.082000000000001,8.802281400000002  1.892092
-4.7523437500000005,-8.4699989,2.9340938000000003       -5.030367
-4.7523437500000005,-8.4699989,-2.9340938000000003      -5.030367
-4.7523437500000005,-6.7759989,-5.868187600000001       -5.030367
-4.7523437500000005,-6.7759989,5.868187600000001        -5.030367
-4.7523437500000005,-8.4699989,2.9340938000000003       5.039632
-4.7523437500000005,1.6940000000000002,-8.802281400000002       -5.030367
-4.7523437500000005,-1.6940000000000002,-8.802281400000002      -5.030367
-4.7523437500000005,-8.4699989,-2.9340938000000003      5.039632
-4.7523437500000005,-6.7759989,-5.868187600000001       5.039632
-4.7523437500000005,-1.6940000000000002,8.802281400000002       -5.030367
-4.7523437500000005,1.6940000000000002,-8.802281400000002       5.039632
-4.7523437500000005,-6.7759989,5.868187600000001        5.039632
-4.7523437500000005,-1.6940000000000002,-8.802281400000002      5.039632
-4.7523437500000005,6.7759989,-5.868187600000001        -5.030367
-4.7523437500000005,1.6940000000000002,8.802281400000002        -5.030367
-4.7523437500000005,8.4699989,-2.9340938000000003       -5.030367
-4.7523437500000005,8.4699989,2.9340938000000003        -5.030367
-4.7523437500000005,6.7759989,5.868187600000001 -5.030367
-4.7523437500000005,-1.6940000000000002,8.802281400000002       5.039632
-4.7523437500000005,6.7759989,-5.868187600000001        5.039632
-4.7523437500000005,8.4699989,-2.9340938000000003       5.039632
-4.7523437500000005,1.6940000000000002,8.802281400000002        5.039632
-4.7523437500000005,8.4699989,2.9340938000000003        5.039632
-4.7523437500000005,6.7759989,5.868187600000001 5.039632
-0.7562500000000001,-8.4699989,-0.9780309       -5.660931
-0.7562500000000001,-5.082000000000001,-6.846218500000001       -5.660931
-0.7562500000000001,-3.3880000000000003,7.824250500000001       -5.660931
-0.7562500000000001,5.082000000000001,-6.846218500000001        -5.660931
-0.7562500000000001,3.3880000000000003,7.824250500000001        -5.660931
-0.7562500000000001,8.4699989,-0.9780309        -5.660931
127.60000000000001,-1.6940000000000002,0.9780309        9.444068
127.60000000000001,0.0,-1.9560629       9.444068
127.60000000000001,1.6940000000000002,0.9780309 9.444068
56.44375,-10.1639989,1.9560629  2.515516
56.44375,-3.3880000000000003,-9.7803123 2.515516
56.44375,3.3880000000000003,-9.7803123  2.515516
56.44375,-6.7759989,7.824250500000001   2.515516
56.44375,10.1639989,1.9560629   2.515516
56.44375,6.7759989,7.824250500000001    2.515516
172.5625,-10.1639989,-1.9560629 -2.519484
172.5625,-3.3880000000000003,9.7803123  -2.519484
172.5625,-6.7759989,-7.824250500000001  -2.519484
172.5625,6.7759989,-7.824250500000001   -2.519484
172.5625,10.1639989,-1.9560629  -2.519484
172.5625,3.3880000000000003,9.7803123   -2.519484
241.5875,-10.1639989,-0.0       -3.142907
241.5875,-5.082000000000001,-8.802281400000002  -3.142907
241.5875,-5.082000000000001,8.802281400000002   -3.142907
241.5875,5.082000000000001,-8.802281400000002   -3.142907
241.5875,10.1639989,-0.0        -3.142907
241.5875,5.082000000000001,8.802281400000002    -3.142907
9.510058591,-5.082000000000001,-2.9340938000000003      -8.177907
9.510058591,-5.082000000000001,2.9340938000000003       -8.177907
9.510058591,5.082000000000001,2.9340938000000003        -8.177907
9.510058591,5.082000000000001,-2.9340938000000003       -8.177907
9.510058591,-0.0,-5.868187600000001     -8.177907
9.510058591,0.0,5.868187600000001       -8.177907
277.0625,-5.082000000000001,-4.8901567  7.550516
277.0625,-6.7759989,-1.9560629  7.550516
277.0625,-1.6940000000000002,6.846218500000001  7.550516
277.0625,5.082000000000001,-4.8901567   7.550516
277.0625,1.6940000000000002,6.846218500000001   7.550516
277.0625,6.7759989,-1.9560629   7.550516
-382.8,-5.082000000000001,4.8901567     -7.554483
-382.8,-6.7759989,1.9560629     -7.554483
-382.8,-1.6940000000000002,-6.846218500000001   -7.554483
-382.8,1.6940000000000002,-6.846218500000001    -7.554483
-382.8,6.7759989,1.9560629      -7.554483
-382.8,5.082000000000001,4.8901567      -7.554483
78.3921875,-8.4699989,6.846218500000001 -0.625931
78.3921875,-10.1639989,3.9121247000000006       -0.625931
78.3921875,-1.6940000000000002,-10.758344300000001      -0.625931
78.3921875,1.6940000000000002,-10.758344300000001       -0.625931
78.3921875,10.1639989,3.9121247000000006        -0.625931
78.3921875,8.4699989,6.846218500000001  -0.625931
-532.125,-0.0,-9.7803123        4.409069
-532.125,-8.4699989,4.8901567   4.409069
-532.125,8.4699989,4.8901567    4.409069

End of input

&SCF
Occupied
9
Iterations
   50  100
End of Input

&RASSCF
LumOrb
Symmetry
1
Spin
2
Nactel
1 0 0
CIRoot
9 9 1
inactive
9
ras2
9
End of Input

>>> COPY vanadium_so_cf.JobIph $SLURM_SUBMIT_DIR/vanadium_so_cf.doublet.JobIph

>>> COPY $SLURM_SUBMIT_DIR/vanadium_so_cf.doublet.JobIph ./JOB002

&RASSI
NROFJobIph
1 All
SpinOrbit
End of Input

EOF

-- ----------------------------------

--- Start Module: seward at Wed Mar 26 12:29:13 2025 ---

()()()()()()()()()()()()()()()()()()()()()()()()()()()()()()()()()()()()()()()()()()()()()()()()()()

                                              &SEWARD

                                   only a single process is used
                       available to each process: 4.1 GB of memory, 1 thread?
                                            pid: 3933392
()()()()()()()()()()()()()()()()()()()()()()()()()()()()()()()()()()()()()()()()()()()()()()()()()()

 The speed of LIGHT in this CALCULATION =   137.03599917700001     
               SEWARD will generate:
                  Multipole Moment integrals up to order  2
                  Kinetic Energy integrals
                  Nuclear Attraction integrals (point charge)
                  One-Electron Hamiltonian integrals
                  Velocity integrals
                  Relativistic Douglas-Kroll-Hess integrals:
                    - Parametrization         : EXP
                    - DKH order of Hamiltonian: 2
                    - DKH order of Properties : 0
                         - multipole moment operators
                         - electric potential operators
                         - contact operators
                  External field from   414 point(s) added to the one-electron Hamiltonian
                  Orbital angular momentum around (-0.0000 -0.0000  0.0088 )
                  Velocity quadrupole around (-0.0000 -0.0000  0.0088 )
                  Atomic mean-field integrals
                  Two-Electron Repulsion integrals

                   Integrals are discarded if absolute value <: 0.10E-13
                   Integral cutoff threshold is set to       <: 0.10E-15

++    Symmetry information:
      ---------------------

                    Character Table for C1 

                             E  
                    a        1  x, y, xy, Rz, z, xz, Ry, yz, Rx, I
--


++    Basis set information:
      ----------------------


      Basis set label: V.ANO-RCC.ROOS.21S15P10D6F4G2H.10S9P8D6F4G2H......

      Electronic valence basis set:
      ------------------
      Associated Effective Charge  23.000000 au
      Associated Actual Charge     23.000000 au
      Nuclear Model: Point charge

      Shell  nPrim  nBasis  Cartesian Spherical Contaminant
         s      21      10        X                  
         p      15       9        X                  
         d      10       8                 X         
         f       6       6                 X         
         g       4       4                 X         
         h       2       2                 X         
--


++    Molecular structure info:
      -------------------------

                    ************************************************ 
                    **** Cartesian Coordinates / Bohr, Angstrom **** 
                    ************************************************ 

     Center  Label                x              y              z                     x              y              z
        1      V               -0.000000      -0.000000       0.008754             -0.000000      -0.000000       0.004632
--


++    Operator info:
      --------------


  Net charge from external field:   -39.268449999999902     
--


            Nuclear Potential Energy              0.00000000 au

                    Nuclear-External Field Potential Energy    -191.29659654 au
                    External Field Potential Energy            1459.66991035 au 


            Total Nuclear Potential Energy           -191.29659654 au


      Basis set specifications :
      Symmetry species         a  
      Basis functions          177

 Sorry, Molden does not know how to handle
 functions with angular momentum larger than g
Note: The following floating-point exceptions are signalling: IEEE_UNDERFLOW_FLAG IEEE_DENORMAL
--- Stop Module: seward at Wed Mar 26 12:29:20 2025 /rc=_RC_ALL_IS_WELL_ ---
*** files: vanadium_so_cf.GssOrb xmldump
    saved to directory /home4/s4752295/Internship/Initial_simulations/Point_charge_model/1_electron/Madelung_charges_9_active_space/V
--- Module seward spent 7 seconds ---

*** symbolic link created: INPORB -> vanadium_so_cf.GssOrb
--- Start Module: scf at Wed Mar 26 12:29:20 2025 ---

()()()()()()()()()()()()()()()()()()()()()()()()()()()()()()()()()()()()()()()()()()()()()()()()()()

                                                &SCF

                                   only a single process is used
                       available to each process: 4.1 GB of memory, 1 thread?
                                            pid: 3933440
()()()()()()()()()()()()()()()()()()()()()()()()()()()()()()()()()()()()()()()()()()()()()()()()()()

++    Input section:
      --------------

      Header of the integral files:
      
       Integrals generated by seward 4.2.0  , Wed Mar 26 12:29:13 2025


      Cartesian coordinates in Angstrom:
      -----------------------------------------------------
      No.  Label        X            Y            Z        
      -----------------------------------------------------
       1   V         -0.00000000  -0.00000000   0.00463220
      -----------------------------------------------------
      Nuclear repulsion energy = -191.29659654
--

++    Orbital specifications:
      -----------------------

      Symmetry species               1
                                     a
      Frozen orbitals                0
      Occupied orbitals              9
      Secondary orbitals           168
      Deleted orbitals               0
      Total number of orbitals     177
      Number of basis functions    177
--

      Molecular charge                           5.000

++    Optimization specifications:
      ----------------------------

      SCF Algorithm: Conventional
      Minimized density differences are used
      Number of density matrices in core                5
      Maximum number of NDDO SCF iterations            50
      Maximum number of HF SCF iterations             100
      Threshold for SCF energy change            0.10E-08
      Threshold for density matrix               0.10E-03
      Threshold for Fock matrix                  0.15E-03
      Threshold for linear dependence            0.10E-08
      Threshold at which DIIS is turned on       0.15E+00
      Threshold at which QNR/C2DIIS is turned on 0.75E-01
      Threshold for Norm(delta) (QNR/C2DIIS)     0.20E-04
      DIIS extrapolation of the SCF procedure
      All orbitals punched on: SCFORB
--

      Detected guessorb starting orbitals                                             


++ Convergence information
                                   SCF        iterations: Energy and convergence statistics

Iter     Tot. SCF        One-elec.       Two-elec.     Energy      Max Dij or  Max Fij      DNorm      TNorm      AccCon     Time
         Energy          Energy          Energy        Change      Delta Norm                                                in Sec.
   1  -983.610049655 -1081.793220725   289.479767612   0.00E+00    0.29E+00*   0.38E+00*    0.60E+01   0.22E+03   None         1.
   2  -984.319537084 -1090.069014415   297.046073873  -0.71E+00*   0.54E-01*   0.70E-01*    0.14E+01   0.22E+03   EDIIS        1.
   3  -984.340151819 -1089.032218558   295.988663280  -0.21E-01*   0.14E-01*   0.23E-01*    0.17E+00   0.22E+03   EDIIS        1.
   4  -984.341151227 -1089.183123880   296.138569194  -0.10E-02*   0.14E-02*   0.42E-02*    0.19E-01   0.22E+03   c2DIIS       1.
   5  -984.341211578 -1089.165599711   296.120984674  -0.60E-04*   0.32E-03*   0.41E-03*    0.25E-02   0.22E+03   QNRc2DIIS    1.
   6  -984.341212204 -1089.163211453   296.118595791  -0.63E-06*   0.12E-03*   0.84E-04     0.36E-03   0.22E+03   QNRc2DIIS    1.
   7  -984.341212255 -1089.163410656   296.118794942  -0.51E-07*   0.14E-04    0.25E-04     0.68E-04   0.22E+03   QNRc2DIIS    1.
   8  -984.341212257 -1089.163403305   296.118787590  -0.14E-08*   0.59E-05    0.60E-05     0.25E-04   0.22E+03   QNRc2DIIS    1.
   9  -984.341212257 -1089.163401186   296.118785471  -0.13E-09    0.27E-06    0.30E-06     0.20E-02   0.22E+03   QNRc2DIIS    1.

       Convergence after  9 Macro Iterations
--

 *****************************************************************************************************************************
 *                                                                                                                           *
 *                                             SCF/KS-DFT Program, Final results                                             *
 *                                                                                                                           *
 *                                                                                                                           *
 *                                                                                                                           *
 *                                                       Final Results                                                       *
 *                                                                                                                           *
 *****************************************************************************************************************************

::    Total SCF energy                               -984.3412122567
      One-electron energy                           -1089.1634011859
      Two-electron energy                             296.1187854708
      Nuclear repulsion energy                       -191.2965965416
      Kinetic energy (interpolated)                   973.1069059262
      Virial theorem                                    1.0115447812
      Total spin, S(S+1)                                0.0000000000
      Total spin, S                                     0.0000000000
      Max non-diagonal density matrix element           0.0000002479
      Max non-diagonal Fock matrix element              0.0000000839


      All orbitals with orbital energies smaller than  E(LUMO)+0.5 are printed

++    Molecular orbitals:
      -------------------

      Title: SCF orbitals

      Molecular orbitals for symmetry species 1: a  

          Orbital            1         2         3         4         5         6         7         8         9        10    
          Energy         -197.6310  -18.9904  -14.8895  -14.8895  -14.8876    2.2272    3.5049    3.5049    3.5880    5.4627
          Occ. No.          2.0000    2.0000    2.0000    2.0000    2.0000    2.0000    2.0000    2.0000    2.0000    0.0000

        1 V      1s         1.0000   -0.0001    0.0000   -0.0000   -0.0000    0.0000   -0.0000    0.0000    0.0000   -0.0000
        2 V      2s         0.0001    1.0000    0.0000   -0.0000   -0.0061    0.0015    0.0000    0.0000   -0.0016    0.0002
        3 V      3s        -0.0000   -0.0017   -0.0000    0.0000    0.0019    0.9756    0.0002    0.0000   -0.2011    0.0241
        4 V      4s         0.0000    0.0001    0.0000   -0.0000   -0.0002   -0.0322   -0.0001   -0.0000    0.0554    0.3979
        5 V      5s        -0.0000   -0.0002   -0.0000    0.0000    0.0002    0.0262    0.0000    0.0000   -0.0473   -0.3619
        6 V      6s         0.0000    0.0004    0.0000   -0.0000   -0.0005   -0.0412   -0.0001   -0.0000    0.0617   -0.0657
        7 V      7s        -0.0000   -0.0002   -0.0000    0.0000    0.0002    0.0044   -0.0000   -0.0000    0.0014   -0.0634
        8 V      8s         0.0000    0.0000    0.0000   -0.0000   -0.0001    0.0055    0.0000    0.0000   -0.0094   -0.0880
        9 V      9s        -0.0000    0.0001    0.0000   -0.0000   -0.0000    0.0002    0.0000   -0.0000   -0.0031   -0.2209
       10 V     10s         0.0000   -0.0002   -0.0000   -0.0000    0.0000   -0.0008   -0.0000   -0.0000    0.0007   -0.0953
       11 V      2px        0.0000    0.0062   -0.0025    0.0000    1.0000   -0.0013   -0.0000   -0.0000    0.0027   -0.0005
       12 V      3px       -0.0000    0.0012    0.0000   -0.0000   -0.0024    0.2104   -0.0016   -0.0000    0.9557   -0.0524
       13 V      4px        0.0000   -0.0002   -0.0000    0.0000    0.0003    0.0034    0.0001    0.0000   -0.0424    0.5307
       14 V      5px       -0.0000    0.0004    0.0000   -0.0000   -0.0007   -0.0131   -0.0001   -0.0000    0.0679   -0.1969
       15 V      6px        0.0000   -0.0002   -0.0000    0.0000    0.0003    0.0064    0.0000    0.0000   -0.0142   -0.1084
       16 V      7px       -0.0000    0.0001   -0.0000    0.0000   -0.0000   -0.0014    0.0000    0.0000   -0.0054    0.1389
       17 V      8px        0.0000   -0.0001    0.0000   -0.0000   -0.0001   -0.0013   -0.0000    0.0000    0.0038    0.2252
       18 V      9px       -0.0000    0.0000   -0.0000    0.0000    0.0002    0.0007   -0.0000    0.0000    0.0013    0.0965
       19 V     10px        0.0000   -0.0001    0.0000   -0.0000   -0.0003    0.0005   -0.0000    0.0000   -0.0006    0.0116
       20 V      2py       -0.0000    0.0000    0.0000    1.0000    0.0000   -0.0000   -0.0000    0.0022   -0.0000   -0.0000
       21 V      3py       -0.0000   -0.0000   -0.0000   -0.0023   -0.0000   -0.0000   -0.0000    0.9864    0.0000    0.0000
       22 V      4py        0.0000    0.0000    0.0000    0.0003    0.0000    0.0000    0.0000   -0.0549   -0.0000   -0.0000
       23 V      5py       -0.0000   -0.0000   -0.0000   -0.0007   -0.0000   -0.0000   -0.0000    0.0733    0.0000    0.0000
       24 V      6py        0.0000    0.0000    0.0000    0.0002    0.0000    0.0000    0.0000   -0.0064    0.0000    0.0000
       25 V      7py       -0.0000   -0.0000   -0.0000   -0.0000   -0.0000    0.0000    0.0000   -0.0099    0.0000   -0.0000
       26 V      8py        0.0000    0.0000   -0.0000   -0.0001    0.0000   -0.0000   -0.0000    0.0012   -0.0000   -0.0000
       27 V      9py       -0.0000   -0.0000    0.0000    0.0002   -0.0000   -0.0000   -0.0000    0.0028    0.0000   -0.0000
       28 V     10py        0.0000    0.0000   -0.0000   -0.0002   -0.0000    0.0000   -0.0000    0.0003   -0.0000    0.0000
       29 V      2pz        0.0000    0.0000    1.0000   -0.0000    0.0025   -0.0000    0.0022    0.0000    0.0000   -0.0000
       30 V      3pz       -0.0000    0.0000   -0.0023    0.0000   -0.0000    0.0002    0.9864    0.0000    0.0016   -0.0001
       31 V      4pz        0.0000   -0.0000    0.0003   -0.0000    0.0000   -0.0000   -0.0549   -0.0000   -0.0001    0.0003
       32 V      5pz       -0.0000    0.0000   -0.0007    0.0000   -0.0000   -0.0000    0.0733    0.0000    0.0001   -0.0003
       33 V      6pz        0.0000   -0.0000    0.0002   -0.0000    0.0000    0.0000   -0.0064   -0.0000   -0.0000   -0.0002
       34 V      7pz       -0.0000    0.0000   -0.0000    0.0000   -0.0000   -0.0000   -0.0099   -0.0000   -0.0000   -0.0001
       35 V      8pz        0.0000   -0.0000   -0.0001    0.0000   -0.0000   -0.0000    0.0012    0.0000    0.0000   -0.0004
       36 V      9pz       -0.0000    0.0000    0.0002   -0.0000    0.0000    0.0000    0.0028    0.0000    0.0000   -0.0005
       37 V     10pz        0.0000   -0.0000   -0.0002    0.0000   -0.0000    0.0000    0.0003    0.0000   -0.0000   -0.0002
       38 V      3d2-      -0.0000   -0.0000    0.0000    0.0006    0.0000   -0.0000   -0.0000    0.1318    0.0000   -0.0000
       39 V      4d2-       0.0000    0.0000   -0.0000   -0.0005   -0.0000    0.0000    0.0000   -0.0251   -0.0000    0.0000
       40 V      5d2-       0.0000   -0.0000    0.0000    0.0003    0.0000   -0.0000    0.0000   -0.0138   -0.0000    0.0000
       41 V      6d2-      -0.0000    0.0000   -0.0000   -0.0002   -0.0000    0.0000   -0.0000    0.0118    0.0000    0.0000
       42 V      7d2-       0.0000   -0.0000    0.0000    0.0001    0.0000   -0.0000   -0.0000    0.0041    0.0000    0.0000
       43 V      8d2-      -0.0000   -0.0000   -0.0000   -0.0001   -0.0000    0.0000   -0.0000    0.0005   -0.0000   -0.0000
       44 V      9d2-       0.0000    0.0000    0.0000    0.0001    0.0000   -0.0000    0.0000   -0.0014   -0.0000   -0.0000
       45 V     10d2-      -0.0000   -0.0000   -0.0000   -0.0001   -0.0000    0.0000    0.0000   -0.0003   -0.0000   -0.0000
       46 V      3d1-      -0.0000   -0.0000    0.0000    0.0000   -0.0000    0.0000    0.0000   -0.0008   -0.0000   -0.0000
       47 V      4d1-       0.0000    0.0000   -0.0000   -0.0000    0.0000   -0.0000    0.0000   -0.0005   -0.0000    0.0000
       48 V      5d1-      -0.0000   -0.0000    0.0000    0.0000   -0.0000    0.0000   -0.0000    0.0002    0.0000    0.0000
       49 V      6d1-       0.0000    0.0000   -0.0000   -0.0000   -0.0000   -0.0000   -0.0000    0.0003    0.0000    0.0000
       50 V      7d1-      -0.0000   -0.0000    0.0000    0.0000    0.0000    0.0000   -0.0000    0.0001    0.0000    0.0000
       51 V      8d1-       0.0000    0.0000   -0.0000   -0.0000    0.0000   -0.0000    0.0000   -0.0001    0.0000    0.0000
       52 V      9d1-      -0.0000    0.0000    0.0000    0.0000    0.0000    0.0000    0.0000   -0.0002    0.0000    0.0000
       53 V     10d1-       0.0000    0.0000   -0.0000   -0.0000    0.0000   -0.0000    0.0000   -0.0000   -0.0000    0.0000
       54 V      3d0       -0.0000    0.0000    0.0000   -0.0000   -0.0004   -0.0054    0.0010    0.0000   -0.0847   -0.1684
       55 V      4d0        0.0000   -0.0000   -0.0000    0.0000    0.0003   -0.0010    0.0004    0.0000    0.0155   -0.0942
       56 V      5d0       -0.0000    0.0000    0.0000   -0.0000   -0.0002    0.0022   -0.0002   -0.0000    0.0085    0.0475
       57 V      6d0       -0.0000    0.0000    0.0000   -0.0000    0.0001   -0.0003   -0.0002   -0.0000   -0.0068    0.0727
       58 V      7d0        0.0000   -0.0000   -0.0000    0.0000   -0.0001   -0.0005   -0.0001   -0.0000   -0.0025    0.0527
       59 V      8d0       -0.0000    0.0000    0.0000   -0.0000    0.0000   -0.0004    0.0001    0.0000   -0.0006    0.0146
       60 V      9d0        0.0000   -0.0000    0.0000   -0.0000   -0.0000   -0.0000    0.0001    0.0000    0.0005   -0.0052
       61 V     10d0       -0.0000   -0.0000   -0.0000    0.0000    0.0001    0.0000    0.0000    0.0000    0.0001   -0.0022
       62 V      3d1+       0.0000   -0.0000    0.0006   -0.0000    0.0000   -0.0000    0.1319    0.0000    0.0004    0.0007
       63 V      4d1+      -0.0000    0.0000   -0.0005    0.0000   -0.0000    0.0000   -0.0251   -0.0000   -0.0001    0.0002
       64 V      5d1+      -0.0000   -0.0000    0.0003   -0.0000    0.0000   -0.0000   -0.0139   -0.0000   -0.0000   -0.0002
       65 V      6d1+       0.0000    0.0000   -0.0002    0.0000   -0.0000   -0.0000    0.0118    0.0000    0.0000   -0.0001
       66 V      7d1+      -0.0000    0.0000    0.0001   -0.0000    0.0000    0.0000    0.0041    0.0000    0.0000    0.0001
       67 V      8d1+       0.0000   -0.0000   -0.0001    0.0000   -0.0000    0.0000    0.0005    0.0000    0.0000    0.0003
       68 V      9d1+      -0.0000    0.0000    0.0001   -0.0000    0.0000    0.0000   -0.0014   -0.0000    0.0000    0.0003
       69 V     10d1+       0.0000    0.0000   -0.0001    0.0000   -0.0000    0.0000   -0.0003   -0.0000    0.0000    0.0001
       70 V      3d2+       0.0000   -0.0000   -0.0000    0.0000    0.0007    0.0093    0.0002    0.0000    0.1469    0.2934
       71 V      4d2+      -0.0000    0.0000    0.0000   -0.0000   -0.0005    0.0018    0.0003    0.0000   -0.0268    0.1637
       72 V      5d2+       0.0000   -0.0000   -0.0000    0.0000    0.0003   -0.0037   -0.0001   -0.0000   -0.0147   -0.0829
       73 V      6d2+       0.0000   -0.0000    0.0000   -0.0000   -0.0002    0.0005   -0.0001   -0.0000    0.0117   -0.1267
       74 V      7d2+      -0.0000    0.0000   -0.0000    0.0000    0.0001    0.0008   -0.0001   -0.0000    0.0043   -0.0918
       75 V      8d2+       0.0000   -0.0000    0.0000   -0.0000   -0.0001    0.0007    0.0001    0.0000    0.0010   -0.0255
       76 V      9d2+      -0.0000    0.0000   -0.0000    0.0000    0.0001    0.0000    0.0001    0.0000   -0.0009    0.0091
       77 V     10d2+       0.0000    0.0000    0.0000   -0.0000   -0.0001   -0.0000    0.0000    0.0000   -0.0002    0.0039
       78 V      4f3-       0.0000    0.0000   -0.0000   -0.0000   -0.0000   -0.0000   -0.0000    0.0072    0.0000   -0.0000
       79 V      5f3-      -0.0000   -0.0000    0.0000    0.0000    0.0000   -0.0000   -0.0000    0.0056    0.0000   -0.0000
       80 V      6f3-       0.0000    0.0000   -0.0000   -0.0000   -0.0000   -0.0000    0.0000   -0.0015   -0.0000   -0.0000
       81 V      7f3-      -0.0000   -0.0000    0.0000    0.0000    0.0000    0.0000    0.0000   -0.0022   -0.0000   -0.0000
       82 V      8f3-       0.0000    0.0000    0.0000    0.0000   -0.0000   -0.0000    0.0000   -0.0004   -0.0000   -0.0000
       83 V      9f3-      -0.0000   -0.0000   -0.0000   -0.0000    0.0000   -0.0000   -0.0000    0.0008   -0.0000   -0.0000
       84 V      4f2-       0.0000    0.0000   -0.0000   -0.0000   -0.0000    0.0000    0.0000   -0.0016   -0.0000    0.0000
       85 V      5f2-      -0.0000   -0.0000    0.0000    0.0000   -0.0000   -0.0000    0.0000   -0.0015   -0.0000    0.0000
       86 V      6f2-       0.0000    0.0000   -0.0000   -0.0000    0.0000    0.0000    0.0000   -0.0001    0.0000    0.0000
       87 V      7f2-      -0.0000   -0.0000    0.0000    0.0000   -0.0000    0.0000   -0.0000    0.0005    0.0000    0.0000
       88 V      8f2-      -0.0000    0.0000   -0.0000   -0.0000    0.0000   -0.0000   -0.0000    0.0003    0.0000    0.0000
       89 V      9f2-       0.0000    0.0000   -0.0000   -0.0000   -0.0000    0.0000    0.0000   -0.0000    0.0000    0.0000
       90 V      4f1-       0.0000    0.0000    0.0000    0.0000    0.0000   -0.0000    0.0000   -0.0019    0.0000    0.0000
       91 V      5f1-      -0.0000   -0.0000   -0.0000   -0.0000   -0.0000    0.0000    0.0000   -0.0014   -0.0000    0.0000
       92 V      6f1-       0.0000    0.0000    0.0000    0.0000   -0.0000   -0.0000   -0.0000    0.0004    0.0000    0.0000
       93 V      7f1-      -0.0000   -0.0000   -0.0000   -0.0000   -0.0000    0.0000   -0.0000    0.0006    0.0000   -0.0000
       94 V      8f1-       0.0000    0.0000   -0.0000   -0.0000   -0.0000    0.0000   -0.0000    0.0001    0.0000    0.0000
       95 V      9f1-      -0.0000   -0.0000    0.0000    0.0000    0.0000    0.0000    0.0000   -0.0002    0.0000    0.0000
       96 V      4f0       -0.0000    0.0000    0.0000   -0.0000    0.0000    0.0002   -0.0046   -0.0000    0.0010    0.0118
       97 V      5f0        0.0000    0.0000   -0.0000    0.0000   -0.0000    0.0002   -0.0036   -0.0000    0.0010    0.0166
       98 V      6f0       -0.0000   -0.0000    0.0000   -0.0000    0.0000   -0.0000    0.0009    0.0000    0.0001   -0.0005
       99 V      7f0        0.0000    0.0000   -0.0000    0.0000   -0.0000   -0.0001    0.0014    0.0000   -0.0002   -0.0209
      100 V      8f0       -0.0000   -0.0000   -0.0000    0.0000    0.0000   -0.0000    0.0002    0.0000   -0.0002   -0.0255
      101 V      9f0        0.0000    0.0000    0.0000   -0.0000   -0.0000    0.0000   -0.0005   -0.0000   -0.0000   -0.0267
      102 V      4f1+       0.0000   -0.0000    0.0000   -0.0000    0.0000   -0.0011    0.0012    0.0000   -0.0055   -0.0586
      103 V      5f1+      -0.0000    0.0000   -0.0000    0.0000   -0.0000   -0.0005    0.0012    0.0000   -0.0039   -0.0584
      104 V      6f1+       0.0000   -0.0000   -0.0000    0.0000    0.0000    0.0003    0.0001    0.0000    0.0013   -0.0011
      105 V      7f1+      -0.0000    0.0000    0.0000   -0.0000   -0.0000    0.0002   -0.0004   -0.0000    0.0017    0.0283
      106 V      8f1+       0.0000    0.0000   -0.0000    0.0000   -0.0000   -0.0000   -0.0002   -0.0000    0.0002    0.0169
      107 V      9f1+      -0.0000   -0.0000    0.0000   -0.0000    0.0000   -0.0001    0.0000    0.0000   -0.0007    0.0023
      108 V      4f2+      -0.0000    0.0000   -0.0000    0.0000    0.0000    0.0002    0.0059    0.0000    0.0008    0.0098
      109 V      5f2+       0.0000    0.0000    0.0000   -0.0000   -0.0000    0.0002    0.0046    0.0000    0.0008    0.0134
      110 V      6f2+      -0.0000   -0.0000   -0.0000    0.0000   -0.0000   -0.0000   -0.0012   -0.0000    0.0001   -0.0006
      111 V      7f2+       0.0000    0.0000    0.0000   -0.0000    0.0000   -0.0001   -0.0018   -0.0000   -0.0002   -0.0167
      112 V      8f2+      -0.0000   -0.0000    0.0000   -0.0000   -0.0000   -0.0000   -0.0003   -0.0000   -0.0001   -0.0199
      113 V      9f2+       0.0000    0.0000   -0.0000    0.0000   -0.0000    0.0000    0.0007    0.0000   -0.0000   -0.0206
      114 V      4f3+      -0.0000    0.0000    0.0000   -0.0000   -0.0000    0.0015    0.0010    0.0000    0.0072    0.0769
      115 V      5f3+       0.0000   -0.0000   -0.0000    0.0000    0.0000    0.0006    0.0009    0.0000    0.0052    0.0771
      116 V      6f3+      -0.0000    0.0000    0.0000   -0.0000   -0.0000   -0.0004    0.0001    0.0000   -0.0017    0.0018
      117 V      7f3+       0.0000   -0.0000   -0.0000    0.0000    0.0000   -0.0002   -0.0003   -0.0000   -0.0022   -0.0371
      118 V      8f3+      -0.0000   -0.0000   -0.0000    0.0000    0.0000    0.0000   -0.0002   -0.0000   -0.0003   -0.0223
      119 V      9f3+       0.0000    0.0000    0.0000   -0.0000   -0.0000    0.0002    0.0000    0.0000    0.0009   -0.0032
      120 V      5g4-       0.0000    0.0000    0.0000    0.0000    0.0000    0.0000   -0.0000    0.0016    0.0000   -0.0000
      121 V      6g4-      -0.0000   -0.0000   -0.0000   -0.0000   -0.0000   -0.0000   -0.0000    0.0020    0.0000   -0.0000
      122 V      7g4-       0.0000    0.0000    0.0000    0.0000   -0.0000    0.0000   -0.0000    0.0006   -0.0000   -0.0000
      123 V      8g4-      -0.0000   -0.0000   -0.0000   -0.0000    0.0000   -0.0000    0.0000   -0.0003   -0.0000   -0.0000
      124 V      5g3-      -0.0000   -0.0000   -0.0000   -0.0000   -0.0000   -0.0000    0.0000   -0.0009   -0.0000    0.0000
      125 V      6g3-       0.0000    0.0000    0.0000    0.0000   -0.0000    0.0000    0.0000   -0.0016   -0.0000    0.0000
      126 V      7g3-      -0.0000   -0.0000   -0.0000   -0.0000   -0.0000   -0.0000    0.0000   -0.0007    0.0000    0.0000
      127 V      8g3-       0.0000    0.0000    0.0000    0.0000    0.0000    0.0000   -0.0000    0.0000    0.0000    0.0000
      128 V      5g2-      -0.0000    0.0000   -0.0000   -0.0000   -0.0000    0.0000    0.0000   -0.0006   -0.0000    0.0000
      129 V      6g2-       0.0000    0.0000    0.0000    0.0000    0.0000   -0.0000    0.0000   -0.0008   -0.0000    0.0000
      130 V      7g2-      -0.0000   -0.0000   -0.0000   -0.0000    0.0000    0.0000    0.0000   -0.0002   -0.0000    0.0000
      131 V      8g2-       0.0000    0.0000    0.0000    0.0000    0.0000   -0.0000   -0.0000    0.0001    0.0000    0.0000
      132 V      5g1-      -0.0000    0.0000    0.0000    0.0000   -0.0000   -0.0000   -0.0000    0.0004    0.0000   -0.0000
      133 V      6g1-       0.0000   -0.0000    0.0000    0.0000   -0.0000    0.0000   -0.0000    0.0007   -0.0000   -0.0000
      134 V      7g1-      -0.0000    0.0000   -0.0000   -0.0000    0.0000   -0.0000   -0.0000    0.0003    0.0000   -0.0000
      135 V      8g1-       0.0000   -0.0000    0.0000    0.0000   -0.0000    0.0000    0.0000   -0.0001   -0.0000   -0.0000
      136 V      5g0        0.0000   -0.0000   -0.0000    0.0000    0.0000   -0.0001   -0.0005   -0.0000    0.0004    0.0020
      137 V      6g0       -0.0000    0.0000    0.0000   -0.0000   -0.0000   -0.0001   -0.0009   -0.0000    0.0002    0.0017
      138 V      7g0       -0.0000   -0.0000   -0.0000    0.0000    0.0000   -0.0000   -0.0004   -0.0000   -0.0002   -0.0020
      139 V      8g0       -0.0000    0.0000    0.0000   -0.0000   -0.0000    0.0000   -0.0000   -0.0000   -0.0002   -0.0041
      140 V      5g1+      -0.0000    0.0000   -0.0000    0.0000    0.0000    0.0005   -0.0013   -0.0000    0.0007    0.0104
      141 V      6g1+      -0.0000    0.0000    0.0000   -0.0000    0.0000    0.0005   -0.0017   -0.0000    0.0013    0.0255
      142 V      7g1+       0.0000    0.0000   -0.0000    0.0000   -0.0000    0.0001   -0.0005   -0.0000    0.0007    0.0201
      143 V      8g1+       0.0000   -0.0000    0.0000   -0.0000   -0.0000   -0.0001    0.0003    0.0000    0.0000    0.0095
      144 V      5g2+      -0.0000    0.0000    0.0000   -0.0000   -0.0000    0.0001    0.0005    0.0000   -0.0006   -0.0032
      145 V      6g2+       0.0000   -0.0000    0.0000   -0.0000    0.0000    0.0001    0.0009    0.0000   -0.0003   -0.0030
      146 V      7g2+       0.0000    0.0000   -0.0000    0.0000   -0.0000    0.0000    0.0004    0.0000    0.0003    0.0026
      147 V      8g2+       0.0000   -0.0000    0.0000   -0.0000    0.0000   -0.0000   -0.0001   -0.0000    0.0003    0.0060
      148 V      5g3+      -0.0000    0.0000    0.0000   -0.0000    0.0000    0.0005    0.0012    0.0000    0.0008    0.0121
      149 V      6g3+      -0.0000    0.0000   -0.0000    0.0000    0.0000    0.0006    0.0015    0.0000    0.0015    0.0296
      150 V      7g3+       0.0000    0.0000    0.0000   -0.0000   -0.0000    0.0001    0.0004    0.0000    0.0008    0.0232
      151 V      8g3+       0.0000   -0.0000   -0.0000    0.0000   -0.0000   -0.0002   -0.0002   -0.0000    0.0000    0.0107
      152 V      5g4+       0.0000   -0.0000    0.0000   -0.0000    0.0000   -0.0001    0.0007    0.0000    0.0009    0.0048
      153 V      6g4+      -0.0000    0.0000   -0.0000    0.0000   -0.0000   -0.0001    0.0012    0.0000    0.0005    0.0051
      154 V      7g4+      -0.0000   -0.0000   -0.0000    0.0000    0.0000   -0.0000    0.0005    0.0000   -0.0004   -0.0027
      155 V      8g4+      -0.0000    0.0000   -0.0000    0.0000   -0.0000    0.0000   -0.0000   -0.0000   -0.0005   -0.0078
      156 V      6h5-      -0.0000   -0.0000   -0.0000   -0.0000    0.0000    0.0000   -0.0000    0.0001    0.0000   -0.0000
      157 V      7h5-       0.0000    0.0000    0.0000    0.0000   -0.0000   -0.0000   -0.0000    0.0005   -0.0000   -0.0000
      158 V      6h4-       0.0000   -0.0000    0.0000    0.0000    0.0000    0.0000    0.0000   -0.0001    0.0000    0.0000
      159 V      7h4-       0.0000    0.0000   -0.0000   -0.0000    0.0000    0.0000    0.0000   -0.0004   -0.0000    0.0000
      160 V      6h3-      -0.0000   -0.0000    0.0000    0.0000    0.0000   -0.0000    0.0000   -0.0001    0.0000   -0.0000
      161 V      7h3-       0.0000    0.0000   -0.0000   -0.0000   -0.0000   -0.0000    0.0000   -0.0002   -0.0000   -0.0000
      162 V      6h2-      -0.0000   -0.0000    0.0000    0.0000    0.0000   -0.0000   -0.0000    0.0005    0.0000   -0.0000
      163 V      7h2-      -0.0000   -0.0000   -0.0000   -0.0000    0.0000   -0.0000   -0.0000    0.0009    0.0000   -0.0000
      164 V      6h1-       0.0000    0.0000   -0.0000   -0.0000    0.0000    0.0000    0.0000   -0.0000    0.0000   -0.0000
      165 V      7h1-      -0.0000   -0.0000    0.0000    0.0000   -0.0000   -0.0000   -0.0000    0.0000   -0.0000   -0.0000
      166 V      6h0        0.0000   -0.0000   -0.0000    0.0000   -0.0000   -0.0003    0.0001    0.0000   -0.0004   -0.0039
      167 V      7h0        0.0000   -0.0000    0.0000   -0.0000   -0.0000   -0.0004    0.0003    0.0000   -0.0010   -0.0112
      168 V      6h1+       0.0000   -0.0000    0.0000   -0.0000   -0.0000   -0.0001    0.0000    0.0000   -0.0003   -0.0017
      169 V      7h1+       0.0000   -0.0000   -0.0000    0.0000    0.0000   -0.0002   -0.0002   -0.0000   -0.0006   -0.0055
      170 V      6h2+      -0.0000    0.0000    0.0000   -0.0000    0.0000    0.0001   -0.0001   -0.0000    0.0003    0.0022
      171 V      7h2+      -0.0000    0.0000   -0.0000    0.0000    0.0000    0.0002   -0.0003   -0.0000    0.0006    0.0065
      172 V      6h3+      -0.0000    0.0000    0.0000   -0.0000    0.0000    0.0001    0.0004    0.0000    0.0003    0.0017
      173 V      7h3+      -0.0000    0.0000   -0.0000    0.0000   -0.0000    0.0002    0.0007    0.0000    0.0006    0.0056
      174 V      6h4+      -0.0000    0.0000   -0.0000    0.0000    0.0000    0.0004    0.0001    0.0000    0.0007    0.0060
      175 V      7h4+      -0.0000    0.0000    0.0000   -0.0000    0.0000    0.0007    0.0003    0.0000    0.0015    0.0173
      176 V      6h5+       0.0000   -0.0000    0.0000   -0.0000   -0.0000   -0.0001    0.0003    0.0000   -0.0004   -0.0021
      177 V      7h5+       0.0000   -0.0000    0.0000   -0.0000    0.0000   -0.0003    0.0007    0.0000   -0.0008   -0.0071

          Orbital           11        12        13        14        15        16        17        18        19    
          Energy            5.5169    5.6945    5.6964    5.7382    5.8752    5.8753    5.9517    5.9545    5.9576
          Occ. No.          0.0000    0.0000    0.0000    0.0000    0.0000    0.0000    0.0000    0.0000    0.0000

        1 V      1s        -0.0000    0.0000   -0.0000   -0.0000   -0.0000    0.0000   -0.0000   -0.0000    0.0000
        2 V      2s         0.0001    0.0000   -0.0000    0.0000   -0.0000   -0.0000   -0.0000   -0.0000    0.0003
        3 V      3s         0.0109   -0.0000   -0.0000   -0.0001   -0.0000   -0.0000   -0.0000   -0.0001    0.0034
        4 V      4s         0.2377   -0.0018    0.0000   -0.2460   -0.0000   -0.0002    0.0000    0.0114   -0.2976
        5 V      5s         0.2166    0.0004    0.0000   -0.4504    0.0000    0.0007   -0.0000   -0.0005    0.1737
        6 V      6s         0.2584   -0.0000    0.0000   -0.1064    0.0000    0.0001    0.0000    0.0028   -0.0444
        7 V      7s         0.4197   -0.0003   -0.0000   -0.0181   -0.0000   -0.0000    0.0000    0.0025   -0.0620
        8 V      8s         0.2895   -0.0003   -0.0000    0.0450   -0.0000   -0.0001    0.0000    0.0005   -0.0322
        9 V      9s         0.4149   -0.0004   -0.0000    0.0959   -0.0000   -0.0002    0.0000   -0.0010   -0.0233
       10 V     10s         0.1509   -0.0001   -0.0000    0.0370   -0.0000   -0.0001    0.0000   -0.0006   -0.0042
       11 V      2px       -0.0002   -0.0000   -0.0000   -0.0001    0.0000    0.0000   -0.0000    0.0000   -0.0012
       12 V      3px       -0.0266   -0.0001    0.0000   -0.0066    0.0000    0.0001    0.0000    0.0042   -0.1336
       13 V      4px        0.1847   -0.0016    0.0000   -0.0165   -0.0000   -0.0004    0.0000    0.0047   -0.1527
       14 V      5px       -0.1972    0.0001    0.0000   -0.0344    0.0000    0.0003    0.0000    0.0010   -0.0257
       15 V      6px       -0.3033    0.0006    0.0000   -0.0075    0.0000    0.0001   -0.0000   -0.0032    0.0986
       16 V      7px       -0.1810    0.0003   -0.0000    0.0263   -0.0000   -0.0001   -0.0000   -0.0011    0.0258
       17 V      8px       -0.2452    0.0000   -0.0000    0.0331   -0.0000   -0.0000    0.0000    0.0009   -0.0315
       18 V      9px       -0.1597   -0.0002   -0.0000    0.0113    0.0000    0.0000    0.0000    0.0009   -0.0257
       19 V     10px       -0.0472   -0.0001   -0.0000    0.0007    0.0000    0.0000    0.0000    0.0002   -0.0037
       20 V      2py       -0.0000   -0.0000   -0.0007    0.0000   -0.0002    0.0000    0.0001   -0.0000   -0.0000
       21 V      3py        0.0000    0.0000   -0.0612   -0.0000   -0.0213    0.0000    0.0149    0.0000    0.0000
       22 V      4py       -0.0000   -0.0000    0.3639    0.0000    0.0754   -0.0000    0.3315    0.0000    0.0000
       23 V      5py        0.0000    0.0000   -0.1634   -0.0000   -0.0258    0.0000    0.2882    0.0000    0.0000
       24 V      6py        0.0000    0.0000   -0.1042   -0.0000    0.0052   -0.0000    0.4297    0.0000    0.0000
       25 V      7py       -0.0000   -0.0000    0.0487   -0.0000    0.0134   -0.0000    0.1719    0.0000    0.0000
       26 V      8py        0.0000   -0.0000    0.0825    0.0000    0.0012   -0.0000    0.0456    0.0000    0.0000
       27 V      9py        0.0000   -0.0000    0.0297    0.0000   -0.0074    0.0000   -0.0488   -0.0000   -0.0000
       28 V     10py       -0.0000   -0.0000    0.0011    0.0000   -0.0032    0.0000   -0.0275   -0.0000   -0.0000
       29 V      2pz       -0.0000   -0.0007    0.0000    0.0000    0.0000    0.0002   -0.0000   -0.0001    0.0000
       30 V      3pz       -0.0001   -0.0612   -0.0000   -0.0000    0.0000    0.0208    0.0000   -0.0150   -0.0001
       31 V      4pz        0.0001    0.3640    0.0000   -0.0040   -0.0000   -0.0730    0.0000   -0.3308   -0.0103
       32 V      5pz       -0.0002   -0.1639   -0.0000   -0.0032    0.0000    0.0257    0.0000   -0.2873   -0.0086
       33 V      6pz        0.0002   -0.1049   -0.0000   -0.0046   -0.0000   -0.0044    0.0000   -0.4294   -0.0136
       34 V      7pz        0.0008    0.0488    0.0000   -0.0014   -0.0000   -0.0128    0.0000   -0.1735   -0.0056
       35 V      8pz        0.0014    0.0827    0.0000    0.0004   -0.0000   -0.0012    0.0000   -0.0491   -0.0014
       36 V      9pz        0.0009    0.0297    0.0000    0.0011    0.0000    0.0072   -0.0000    0.0465    0.0017
       37 V     10pz        0.0002    0.0010    0.0000    0.0005    0.0000    0.0031   -0.0000    0.0269    0.0009
       38 V      3d2-       0.0000   -0.0000    0.7093   -0.0000    0.2073   -0.0000   -0.0716   -0.0000   -0.0000
       39 V      4d2-      -0.0000   -0.0000    0.1975    0.0000   -0.0217    0.0000    0.1176    0.0000    0.0000
       40 V      5d2-       0.0000    0.0000   -0.0383   -0.0000    0.0007   -0.0000    0.1053    0.0000    0.0000
       41 V      6d2-       0.0000    0.0000   -0.1154   -0.0000    0.0000   -0.0000    0.0671    0.0000    0.0000
       42 V      7d2-       0.0000    0.0000   -0.0758   -0.0000    0.0046   -0.0000    0.0568    0.0000    0.0000
       43 V      8d2-      -0.0000    0.0000   -0.0063   -0.0000    0.0052   -0.0000    0.0336    0.0000    0.0000
       44 V      9d2-      -0.0000   -0.0000    0.0285    0.0000    0.0036   -0.0000    0.0176    0.0000    0.0000
       45 V     10d2-       0.0000   -0.0000    0.0089    0.0000    0.0008   -0.0000    0.0035    0.0000    0.0000
       46 V      3d1-      -0.0000    0.0000   -0.1779   -0.0000    0.9377   -0.0000    0.0110   -0.0000    0.0000
       47 V      4d1-       0.0000    0.0000   -0.0408    0.0000   -0.1831    0.0000    0.2382    0.0000    0.0000
       48 V      5d1-       0.0000   -0.0000    0.0081   -0.0000    0.0246   -0.0000    0.3419    0.0000    0.0000
       49 V      6d1-       0.0000   -0.0000    0.0346   -0.0000    0.0185   -0.0000    0.2823    0.0000    0.0000
       50 V      7d1-       0.0000   -0.0000    0.0314   -0.0000    0.0192   -0.0000    0.2745    0.0000    0.0000
       51 V      8d1-       0.0000   -0.0000    0.0158   -0.0000    0.0076   -0.0000    0.1906    0.0000    0.0000
       52 V      9d1-       0.0000   -0.0000    0.0020   -0.0000    0.0047   -0.0000    0.1050    0.0000    0.0000
       53 V     10d1-       0.0000   -0.0000   -0.0004   -0.0000    0.0013   -0.0000    0.0207    0.0000    0.0000
       54 V      3d0       -0.0956    0.1508    0.0000   -0.0375    0.0000    0.8132    0.0000    0.0252   -0.4160
       55 V      4d0       -0.0703    0.0352    0.0000   -0.0882   -0.0000   -0.1595   -0.0000    0.2017    0.1457
       56 V      5d0       -0.0270   -0.0070   -0.0000   -0.1351    0.0000    0.0206   -0.0000    0.2975    0.0119
       57 V      6d0       -0.0171   -0.0297   -0.0000   -0.1154    0.0000    0.0156   -0.0000    0.2467   -0.0027
       58 V      7d0       -0.0325   -0.0268   -0.0000   -0.1153    0.0000    0.0162   -0.0000    0.2403   -0.0030
       59 V      8d0       -0.0403   -0.0134   -0.0000   -0.0824    0.0000    0.0064   -0.0000    0.1670    0.0055
       60 V      9d0       -0.0314   -0.0016    0.0000   -0.0461    0.0000    0.0040   -0.0000    0.0920    0.0076
       61 V     10d0       -0.0070    0.0004    0.0000   -0.0091    0.0000    0.0011   -0.0000    0.0182    0.0019
       62 V      3d1+       0.0005    0.7086    0.0000   -0.0002   -0.0000   -0.2039   -0.0000    0.0721   -0.0003
       63 V      4d1+       0.0001    0.1992    0.0000   -0.0009    0.0000    0.0219    0.0000   -0.1185   -0.0022
       64 V      5d1+      -0.0004   -0.0389   -0.0000   -0.0013   -0.0000   -0.0005    0.0000   -0.1046   -0.0032
       65 V      6d1+      -0.0003   -0.1161   -0.0000   -0.0010    0.0000   -0.0000    0.0000   -0.0661   -0.0024
       66 V      7d1+      -0.0002   -0.0761   -0.0000   -0.0009   -0.0000   -0.0045    0.0000   -0.0560   -0.0021
       67 V      8d1+      -0.0000   -0.0061   -0.0000   -0.0005   -0.0000   -0.0050    0.0000   -0.0332   -0.0013
       68 V      9d1+       0.0000    0.0289    0.0000   -0.0002   -0.0000   -0.0035    0.0000   -0.0175   -0.0006
       69 V     10d1+       0.0000    0.0090    0.0000   -0.0000   -0.0000   -0.0007    0.0000   -0.0035   -0.0001
       70 V      3d2+       0.1668    0.0870    0.0000    0.0672    0.0000    0.4686   -0.0000   -0.0164    0.7211
       71 V      4d2+       0.1226    0.0201    0.0000    0.1588   -0.0000   -0.0922   -0.0000    0.1245   -0.2369
       72 V      5d2+       0.0473   -0.0042    0.0000    0.2427    0.0000    0.0116   -0.0000    0.1685    0.0010
       73 V      6d2+       0.0297   -0.0171   -0.0000    0.2069    0.0000    0.0087   -0.0000    0.1384    0.0223
       74 V      7d2+       0.0565   -0.0153   -0.0000    0.2063    0.0000    0.0090   -0.0000    0.1345    0.0223
       75 V      8d2+       0.0700   -0.0075   -0.0000    0.1471    0.0000    0.0034   -0.0000    0.0938    0.0022
       76 V      9d2+       0.0545   -0.0008   -0.0000    0.0821    0.0000    0.0021   -0.0000    0.0519   -0.0066
       77 V     10d2+       0.0122    0.0002    0.0000    0.0163    0.0000    0.0006   -0.0000    0.0103   -0.0020
       78 V      4f3-      -0.0000   -0.0000    0.2331    0.0000    0.0343   -0.0000   -0.0354   -0.0000   -0.0000
       79 V      5f3-      -0.0000   -0.0000    0.2592    0.0000    0.0115   -0.0000   -0.0844   -0.0000   -0.0000
       80 V      6f3-      -0.0000   -0.0000    0.0572    0.0000   -0.0169    0.0000   -0.1308   -0.0000   -0.0000
       81 V      7f3-      -0.0000    0.0000   -0.0708   -0.0000   -0.0174    0.0000   -0.1867   -0.0000   -0.0000
       82 V      8f3-      -0.0000    0.0000   -0.0664   -0.0000   -0.0084    0.0000   -0.1816   -0.0000   -0.0000
       83 V      9f3-      -0.0000    0.0000   -0.0374    0.0000   -0.0027    0.0000   -0.1864   -0.0000   -0.0000
       84 V      4f2-       0.0000    0.0000   -0.0886   -0.0000    0.1471   -0.0000    0.0046    0.0000    0.0000
       85 V      5f2-       0.0000    0.0000   -0.1256   -0.0000    0.0968   -0.0000    0.0394    0.0000    0.0000
       86 V      6f2-       0.0000    0.0000   -0.0509   -0.0000   -0.0034    0.0000    0.0749    0.0000    0.0000
       87 V      7f2-       0.0000   -0.0000    0.0204   -0.0000   -0.0187    0.0000    0.1011    0.0000    0.0000
       88 V      8f2-       0.0000   -0.0000    0.0370   -0.0000   -0.0074    0.0000    0.0876    0.0000    0.0000
       89 V      9f2-       0.0000   -0.0000    0.0354   -0.0000    0.0034   -0.0000    0.0806    0.0000    0.0000
       90 V      4f1-       0.0000    0.0000   -0.0599    0.0000   -0.0088    0.0000    0.0091    0.0000    0.0000
       91 V      5f1-      -0.0000    0.0000   -0.0664    0.0000   -0.0029    0.0000    0.0215    0.0000    0.0000
       92 V      6f1-      -0.0000    0.0000   -0.0145    0.0000    0.0043   -0.0000    0.0333    0.0000    0.0000
       93 V      7f1-      -0.0000   -0.0000    0.0183    0.0000    0.0044   -0.0000    0.0474    0.0000    0.0000
       94 V      8f1-      -0.0000   -0.0000    0.0170    0.0000    0.0021   -0.0000    0.0461    0.0000    0.0000
       95 V      9f1-       0.0000   -0.0000    0.0095    0.0000    0.0007   -0.0000    0.0472    0.0000    0.0000
       96 V      4f0        0.0092   -0.1481   -0.0000    0.0259    0.0000    0.0214    0.0000   -0.0220   -0.0073
       97 V      5f0        0.0231   -0.1652   -0.0000    0.1038    0.0000    0.0071    0.0000   -0.0530   -0.0158
       98 V      6f0        0.0270   -0.0368   -0.0000    0.1791   -0.0000   -0.0105    0.0000   -0.0833   -0.0163
       99 V      7f0        0.0290    0.0450    0.0000    0.2532   -0.0000   -0.0108    0.0000   -0.1199   -0.0175
      100 V      8f0        0.0254    0.0423    0.0000    0.2460   -0.0000   -0.0053    0.0000   -0.1171   -0.0172
      101 V      9f0        0.0253    0.0238    0.0000    0.2528   -0.0000   -0.0018    0.0000   -0.1204   -0.0190
      102 V      4f1+      -0.0307    0.0689    0.0000   -0.0150    0.0000    0.1164    0.0000    0.0073   -0.1088
      103 V      5f1+      -0.0286    0.0975    0.0000   -0.0404    0.0000    0.0765   -0.0000    0.0332   -0.0567
      104 V      6f1+       0.0012    0.0393    0.0000   -0.0614   -0.0000   -0.0029   -0.0000    0.0592    0.0153
      105 V      7f1+       0.0159   -0.0161   -0.0000   -0.0835   -0.0000   -0.0150   -0.0000    0.0804    0.0177
      106 V      8f1+       0.0112   -0.0287   -0.0000   -0.0780   -0.0000   -0.0060   -0.0000    0.0702    0.0080
      107 V      9f1+       0.0054   -0.0273   -0.0000   -0.0777    0.0000    0.0027   -0.0000    0.0651    0.0018
      108 V      4f2+       0.0075    0.1910    0.0000    0.0205   -0.0000   -0.0275   -0.0000    0.0285   -0.0043
      109 V      5f2+       0.0184    0.2127    0.0000    0.0819   -0.0000   -0.0093   -0.0000    0.0674   -0.0082
      110 V      6f2+       0.0211    0.0470    0.0000    0.1408    0.0000    0.0132   -0.0000    0.1048   -0.0067
      111 V      7f2+       0.0225   -0.0582   -0.0000    0.1987    0.0000    0.0133   -0.0000    0.1499   -0.0059
      112 V      8f2+       0.0197   -0.0543   -0.0000    0.1928    0.0000    0.0062   -0.0000    0.1460   -0.0061
      113 V      9f2+       0.0198   -0.0303   -0.0000    0.1980    0.0000    0.0016   -0.0000    0.1499   -0.0075
      114 V      4f3+       0.0403    0.0539    0.0000    0.0197    0.0000    0.0899   -0.0000   -0.0017    0.1407
      115 V      5f3+       0.0379    0.0765    0.0000    0.0532    0.0000    0.0591   -0.0000    0.0211    0.0753
      116 V      6f3+      -0.0012    0.0309    0.0000    0.0806   -0.0000   -0.0023   -0.0000    0.0453   -0.0157
      117 V      7f3+      -0.0207   -0.0125   -0.0000    0.1094   -0.0000   -0.0118   -0.0000    0.0611   -0.0175
      118 V      8f3+      -0.0146   -0.0225   -0.0000    0.1021   -0.0000   -0.0048   -0.0000    0.0525   -0.0059
      119 V      9f3+      -0.0069   -0.0214   -0.0000    0.1015    0.0000    0.0018   -0.0000    0.0481    0.0017
      120 V      5g4-      -0.0000   -0.0000    0.0522    0.0000    0.0029   -0.0000   -0.0057   -0.0000   -0.0000
      121 V      6g4-      -0.0000   -0.0000    0.1125    0.0000    0.0020   -0.0000   -0.0182   -0.0000   -0.0000
      122 V      7g4-      -0.0000   -0.0000    0.0751    0.0000   -0.0037    0.0000   -0.0224   -0.0000   -0.0000
      123 V      8g4-      -0.0000   -0.0000    0.0242    0.0000   -0.0067    0.0000   -0.0214   -0.0000   -0.0000
      124 V      5g3-       0.0000    0.0000   -0.0348   -0.0000    0.0160   -0.0000   -0.0054   -0.0000   -0.0000
      125 V      6g3-       0.0000    0.0000   -0.0837   -0.0000    0.0286   -0.0000   -0.0208   -0.0000   -0.0000
      126 V      7g3-       0.0000    0.0000   -0.0663   -0.0000    0.0130   -0.0000   -0.0279   -0.0000   -0.0000
      127 V      8g3-       0.0000    0.0000   -0.0331   -0.0000   -0.0014    0.0000   -0.0273   -0.0000   -0.0000
      128 V      5g2-      -0.0000    0.0000   -0.0195   -0.0000   -0.0011    0.0000    0.0021    0.0000    0.0000
      129 V      6g2-       0.0000    0.0000   -0.0419    0.0000   -0.0008    0.0000    0.0069    0.0000    0.0000
      130 V      7g2-       0.0000    0.0000   -0.0279    0.0000    0.0014   -0.0000    0.0084    0.0000    0.0000
      131 V      8g2-       0.0000    0.0000   -0.0089    0.0000    0.0025   -0.0000    0.0081    0.0000    0.0000
      132 V      5g1-      -0.0000   -0.0000    0.0172   -0.0000   -0.0061    0.0000   -0.0014   -0.0000   -0.0000
      133 V      6g1-      -0.0000   -0.0000    0.0407    0.0000   -0.0117    0.0000   -0.0065   -0.0000   -0.0000
      134 V      7g1-      -0.0000   -0.0000    0.0314    0.0000   -0.0066    0.0000   -0.0095   -0.0000   -0.0000
      135 V      8g1-      -0.0000   -0.0000    0.0148    0.0000   -0.0013    0.0000   -0.0098   -0.0000   -0.0000
      136 V      5g0        0.0011   -0.0185   -0.0000   -0.0000   -0.0000   -0.0096   -0.0000    0.0046    0.0092
      137 V      6g0        0.0008   -0.0447   -0.0000   -0.0015   -0.0000   -0.0168   -0.0000    0.0189    0.0181
      138 V      7g0       -0.0014   -0.0358   -0.0000   -0.0031   -0.0000   -0.0071   -0.0000    0.0261    0.0106
      139 V      8g0       -0.0027   -0.0182   -0.0000   -0.0037    0.0000    0.0017   -0.0000    0.0260    0.0027
      140 V      5g1+       0.0050   -0.0423   -0.0000    0.0025    0.0000    0.0022    0.0000   -0.0042   -0.0055
      141 V      6g1+       0.0127   -0.0914   -0.0000    0.0092    0.0000    0.0014    0.0000   -0.0138   -0.0130
      142 V      7g1+       0.0106   -0.0611   -0.0000    0.0124   -0.0000   -0.0030    0.0000   -0.0173   -0.0100
      143 V      8g1+       0.0057   -0.0198   -0.0000    0.0125   -0.0000   -0.0052    0.0000   -0.0168   -0.0046
      144 V      5g2+      -0.0018    0.0215    0.0000    0.0001    0.0000    0.0086    0.0000    0.0003   -0.0135
      145 V      6g2+      -0.0014    0.0512    0.0000    0.0027    0.0000    0.0160    0.0000    0.0009   -0.0259
      146 V      7g2+       0.0019    0.0398    0.0000    0.0053    0.0000    0.0083    0.0000    0.0013   -0.0144
      147 V      8g2+       0.0040    0.0190    0.0000    0.0061    0.0000    0.0006   -0.0000    0.0014   -0.0027
      148 V      5g3+       0.0059    0.0372    0.0000    0.0029   -0.0000   -0.0020   -0.0000    0.0040   -0.0060
      149 V      6g3+       0.0149    0.0801    0.0000    0.0109   -0.0000   -0.0014   -0.0000    0.0129   -0.0136
      150 V      7g3+       0.0123    0.0534    0.0000    0.0146    0.0000    0.0025   -0.0000    0.0157   -0.0099
      151 V      8g3+       0.0065    0.0170    0.0000    0.0148    0.0000    0.0046   -0.0000    0.0149   -0.0039
      152 V      5g4+       0.0026    0.0260    0.0000   -0.0001    0.0000    0.0113   -0.0000   -0.0032    0.0177
      153 V      6g4+       0.0025    0.0622    0.0000   -0.0035    0.0000    0.0205    0.0000   -0.0109    0.0340
      154 V      7g4+      -0.0022    0.0489    0.0000   -0.0070    0.0000    0.0098    0.0000   -0.0134    0.0189
      155 V      8g4+      -0.0052    0.0240    0.0000   -0.0081   -0.0000   -0.0003    0.0000   -0.0124    0.0034
      156 V      6h5-       0.0000   -0.0000    0.0080    0.0000    0.0010   -0.0000   -0.0006   -0.0000    0.0000
      157 V      7h5-      -0.0000   -0.0000    0.0200    0.0000    0.0017   -0.0000   -0.0017   -0.0000    0.0000
      158 V      6h4-       0.0000    0.0000   -0.0077   -0.0000    0.0026   -0.0000   -0.0006   -0.0000   -0.0000
      159 V      7h4-       0.0000    0.0000   -0.0211   -0.0000    0.0055   -0.0000   -0.0020   -0.0000   -0.0000
      160 V      6h3-       0.0000    0.0000   -0.0036    0.0000   -0.0005    0.0000    0.0003    0.0000    0.0000
      161 V      7h3-      -0.0000    0.0000   -0.0091    0.0000   -0.0009    0.0000    0.0007    0.0000    0.0000
[...]
         6   16       2.56312020E-02  4.90547909E+03  1.75729497E-13  5.09893715E+07  5.09942770E+07
         6   18       1.05694126E-03  1.15582278E-15  2.43093724E+06  2.71491150E-14  2.43093724E+06
         7    9       1.14576645E-03  1.78949886E-17  1.01385155E+05  4.75706904E-16  1.01385155E+05
         7   11       2.01897035E-03  8.76114800E-11  1.69185497E+06  8.75805136E-10  1.69185497E+06
         7   13       2.21076102E-03  1.69770085E+05  8.82116880E-10  1.68292502E+06  1.85269511E+06
         7   15       2.53665491E-02  3.79349071E-17  4.96963926E+07  1.58928956E-13  4.96963926E+07
         7   17       1.52072168E-03  8.68982764E+05  2.25458998E-13  2.57890479E+06  3.44788756E+06
         8   10       1.14576645E-03  1.78949886E-17  1.01385155E+05  4.75706904E-16  1.01385155E+05
         8   12       2.01897035E-03  8.76114800E-11  1.69185497E+06  8.75805136E-10  1.69185497E+06
         8   14       2.21076102E-03  1.69770085E+05  8.82116880E-10  1.68292502E+06  1.85269511E+06
         8   16       2.53665491E-02  3.79349071E-17  4.96963926E+07  1.58928956E-13  4.96963926E+07
         8   18       1.52072168E-03  8.68982764E+05  2.25458998E-13  2.57890479E+06  3.44788756E+06
         9   11       1.23503783E-03  4.29360138E+00  2.79274840E-10  4.71601964E+05  4.71606258E+05
         9   13       1.42153211E-03  1.79847106E-15  5.42873800E+05  2.44171676E-10  5.42873800E+05
         9   15       5.93766221E-05  6.18526347E+01  1.20784842E-14  7.20744588E+04  7.21363115E+04
         9   17       2.22055052E+00  6.48372646E-18  3.24186441E+09  4.49274652E-13  3.24186441E+09
        10   12       1.23503783E-03  4.29360138E+00  2.79274840E-10  4.71601964E+05  4.71606258E+05
        10   14       1.42153211E-03  1.79847106E-15  5.42873800E+05  2.44171676E-10  5.42873800E+05
        10   16       5.93766221E-05  6.18526347E+01  1.20784842E-14  7.20744588E+04  7.21363115E+04
        10   18       2.22055052E+00  6.48372646E-18  3.24186441E+09  4.49274652E-13  3.24186441E+09
        11   15       1.26136864E-04  6.30718528E-04  1.55001702E-11  2.95822237E+04  2.95822244E+04
        11   17       9.42886843E-04  1.58841618E-11  3.28590488E+05  1.95562531E-10  3.28590488E+05
        12   16       1.26136864E-04  6.30718528E-04  1.55001702E-11  2.95822237E+04  2.95822244E+04
        12   18       9.42886843E-04  1.58841618E-11  3.28590488E+05  1.95562531E-10  3.28590488E+05
        13   15       1.27361600E-04  1.91589479E-18  2.98656897E+04  1.53177950E-11  2.98656897E+04
        13   17       1.17701006E-03  3.08325792E+04  1.71220905E-10  3.79306044E+05  4.10138623E+05
        14   16       1.27361600E-04  1.91589479E-18  2.98656897E+04  1.53177950E-11  2.98656897E+04
        14   18       1.17701006E-03  3.08325792E+04  1.71220905E-10  3.79306044E+05  4.10138623E+05
        15   17       2.53233012E-04  2.15643553E-19  2.84834706E+03  5.41067236E-18  2.84834706E+03
        16   18       2.53233012E-04  2.15643553E-19  2.84834706E+03  5.41067236E-18  2.84834706E+03
     -----------------------------------------------------------------------------------------------
--

++ Velocity transition strengths (SO states):
   ------------------------------------------
    for osc. strength at least    1.0000000000000001E-005

      From   To        Osc. strength     Einstein coefficients Ax, Ay, Az (sec-1)    Total A (sec-1)
     -----------------------------------------------------------------------------------------------
         1    3       8.50744171E-04  9.06463652E+04  3.78460912E-21  1.77241381E+01  9.06640893E+04
         1    5       1.10113727E-01  7.99334562E+01  6.09624096E-13  1.80098061E+08  1.80098141E+08
         1    7       1.08931470E-01  1.67472918E-20  1.81192112E+08  6.15641666E-13  1.81192112E+08
         1    9       1.01161608E-04  2.54576935E+05  5.00869439E-15  2.63485524E+02  2.54840421E+05
         1   11       6.40685567E-04  2.10465614E+02  1.75134519E-09  3.11517546E+06  3.11538592E+06
         1   13       6.95315522E-04  1.14369851E-13  3.38112216E+06  1.61376507E-09  3.38112216E+06
         1   15       3.19807660E-02  2.31308988E+08  2.18146787E-16  4.61874474E+03  2.31313606E+08
         1   17       2.31262588E-03  8.56191773E-16  1.80722531E+07  5.17246988E-15  1.80722531E+07
         2    4       8.50744171E-04  9.06463652E+04  3.78460912E-21  1.77241381E+01  9.06640893E+04
         2    6       1.10113727E-01  7.99334562E+01  6.09624096E-13  1.80098061E+08  1.80098141E+08
         2    8       1.08931470E-01  1.67472918E-20  1.81192112E+08  6.15641666E-13  1.81192112E+08
         2   10       1.01161608E-04  2.54576935E+05  5.00869439E-15  2.63485524E+02  2.54840421E+05
         2   12       6.40685567E-04  2.10465614E+02  1.75134519E-09  3.11517546E+06  3.11538592E+06
         2   14       6.95315522E-04  1.14369851E-13  3.38112216E+06  1.61376507E-09  3.38112216E+06
         2   16       3.19807660E-02  2.31308988E+08  2.18146787E-16  4.61874474E+03  2.31313606E+08
         2   18       2.31262588E-03  8.56191773E-16  1.80722531E+07  5.17246988E-15  1.80722531E+07
         3    5       2.59741514E-02  1.63269508E+01  7.94293404E-14  2.35622717E+07  2.35622880E+07
         3    7       2.56017224E-02  4.33999121E-18  2.37551417E+07  8.01108867E-14  2.37551417E+07
         3    9       5.94423229E-04  9.44559509E+05  6.11833238E-16  2.39561328E+02  9.44799071E+05
         3   11       2.05519984E-04  2.65806459E+01  4.06739094E-10  7.25339801E+05  7.25366382E+05
         3   13       2.22282046E-04  1.39903984E-14  7.84552240E+05  3.75787963E-10  7.84552240E+05
         3   15       6.50215576E-03  3.63050072E+07  2.40263407E-17  1.02108371E+02  3.63051093E+07
         3   17       3.72079998E-05  1.10332251E-16  2.26820356E+05  1.78162283E-16  2.26820356E+05
         4    6       2.59741514E-02  1.63269508E+01  7.94293404E-14  2.35622717E+07  2.35622880E+07
         4    8       2.56017224E-02  4.33999121E-18  2.37551417E+07  8.01108867E-14  2.37551417E+07
         4   10       5.94423229E-04  9.44559509E+05  6.11833238E-16  2.39561328E+02  9.44799071E+05
         4   12       2.05519984E-04  2.65806459E+01  4.06739094E-10  7.25339801E+05  7.25366382E+05
         4   14       2.22282046E-04  1.39903984E-14  7.84552240E+05  3.75787963E-10  7.84552240E+05
         4   16       6.50215576E-03  3.63050072E+07  2.40263407E-17  1.02108371E+02  3.63051093E+07
         4   18       3.72079998E-05  1.10332251E-16  2.26820356E+05  1.78162283E-16  2.26820356E+05
         5    7       1.80092135E-04  3.02318710E-19  2.10862284E+01  4.37089280E-21  2.10862284E+01
         5    9       2.86908157E-03  1.87669861E+01  1.19273707E-15  2.72663675E+05  2.72682442E+05
         5   11       3.80225063E-03  1.07277480E+04  1.70276725E-09  3.25126028E+06  3.26198803E+06
         5   13       3.81131182E-03  5.50374727E-12  3.26997725E+06  1.69288743E-09  3.26997725E+06
         5   15       1.65775882E-02  9.28122962E+03  1.10671317E-13  3.29725925E+07  3.29818737E+07
         5   17       5.61335630E-05  6.98448218E-15  1.29106175E+05  2.09151101E-15  1.29106175E+05
         6    8       1.80092135E-04  3.02318710E-19  2.10862284E+01  4.37089280E-21  2.10862284E+01
         6   10       2.86908157E-03  1.87669861E+01  1.19273707E-15  2.72663675E+05  2.72682442E+05
         6   12       3.80225063E-03  1.07277480E+04  1.70276725E-09  3.25126028E+06  3.26198803E+06
         6   14       3.81131182E-03  5.50374727E-12  3.26997725E+06  1.69288743E-09  3.26997725E+06
         6   16       1.65775882E-02  9.28122962E+03  1.10671317E-13  3.29725925E+07  3.29818737E+07
         6   18       5.61335630E-05  6.98448218E-15  1.29106175E+05  2.09151101E-15  1.29106175E+05
         7    9       3.00910920E-03  1.38709933E-18  2.66267233E+05  8.24035337E-16  2.66267233E+05
         7   11       3.74816398E-03  4.48776430E-12  3.14089402E+06  1.65155704E-09  3.14089402E+06
         7   13       3.79460864E-03  8.66275909E+03  1.63526031E-09  3.17136314E+06  3.18002590E+06
         7   15       1.65893447E-02  6.04848876E-18  3.25008124E+07  1.04140880E-13  3.25008124E+07
         7   17       1.66322319E-03  3.65137734E+06  7.46144784E-16  1.19612808E+05  3.77099015E+06
         8   10       3.00910920E-03  1.38709933E-18  2.66267233E+05  8.24035337E-16  2.66267233E+05
         8   12       3.74816398E-03  4.48776430E-12  3.14089402E+06  1.65155704E-09  3.14089402E+06
         8   14       3.79460864E-03  8.66275909E+03  1.63526031E-09  3.17136314E+06  3.18002590E+06
         8   16       1.65893447E-02  6.04848876E-18  3.25008124E+07  1.04140880E-13  3.25008124E+07
         8   18       1.66322319E-03  3.65137734E+06  7.46144784E-16  1.19612808E+05  3.77099015E+06
         9   11       1.51630060E-03  5.90778840E+00  3.22007103E-10  5.79004161E+05  5.79010069E+05
         9   13       1.63015979E-03  3.01126740E-15  6.22549506E+05  3.00198175E-10  6.22549506E+05
         9   15       5.40935116E-04  6.56965507E+05  4.80461655E-16  2.15691190E+02  6.57181198E+05
         9   17       8.43127257E-03  9.75896142E-17  1.23091717E+07  1.64614179E-15  1.23091717E+07
        10   12       1.51630060E-03  5.90778840E+00  3.22007103E-10  5.79004161E+05  5.79010069E+05
        10   14       1.63015979E-03  3.01126740E-15  6.22549506E+05  3.00198175E-10  6.22549506E+05
        10   16       5.40935116E-04  6.56965507E+05  4.80461655E-16  2.15691190E+02  6.57181198E+05
        10   18       8.43127257E-03  9.75896142E-17  1.23091717E+07  1.64614179E-15  1.23091717E+07
        11   13       2.24187913E-02  3.37724938E-23  2.08930417E-02  5.95599723E-21  2.08930417E-02
        11   15       3.27735870E-04  1.01414106E+01  3.80983028E-11  7.68523193E+04  7.68624607E+04
        11   17       2.10017651E-03  2.14093488E-11  7.31901636E+05  3.76835337E-10  7.31901636E+05
        12   14       2.24187913E-02  3.37724938E-23  2.08930417E-02  5.95599723E-21  2.08930417E-02
        12   16       3.27735870E-04  1.01414106E+01  3.80983028E-11  7.68523193E+04  7.68624607E+04
        12   18       2.10017651E-03  2.14093488E-11  7.31901636E+05  3.76835337E-10  7.31901636E+05
        13   15       3.13069819E-04  5.05752772E-15  7.34136395E+04  3.98966788E-11  7.34136395E+04
        13   17       2.20425343E-03  4.14180870E+04  3.79592070E-10  7.26674419E+05  7.68092506E+05
        14   16       3.13069819E-04  5.05752772E-15  7.34136395E+04  3.98966788E-11  7.34136395E+04
        14   18       2.20425343E-03  4.14180870E+04  3.79592070E-10  7.26674419E+05  7.68092506E+05
        15   17       7.70404002E-02  1.24631705E-17  8.66548000E+05  8.82539207E-17  8.66548000E+05
        16   18       7.70404002E-02  1.24631705E-17  8.66548000E+05  8.82539207E-17  8.66548000E+05
     -----------------------------------------------------------------------------------------------
--

++ Length and velocity gauge comparison (SO states):

 --------------------------------------------------
 A comparison between the dipole oscillator strengths in 
 length and velocity gauge will be performed

 All dipole oscillator differences above the tolerance of   0.10000000000000001       will be printed 

 Due to basis set deficiency these oscillator may be problematic 

 The tolerance is defined as ABS(1-O_l/O_v) 
 O_l : dipole oscillator strength in length gauge
 O_p : dipole oscillator strength in velocity gauge
 --------------------------------------------------

  Problematic transitions have been found

      From   To       Difference (%) Osc. st. (len.) Osc. st. (vel.)
     ---------------------------------------------------------------
         1    3         32736.815731  2.79357296E-01  8.50744171E-04
         1    5            49.725865  5.53587236E-02  1.10113727E-01
         1    7            49.705449  5.47865939E-02  1.08931470E-01
         1    9         20008.705559  2.03422900E-02  1.01161608E-04
         1   11            87.691084  1.20250968E-03  6.40685567E-04
         1   13            84.590977  1.28348972E-03  6.95315522E-04
         1   15            41.340995  4.52019328E-02  3.19807660E-02
         1   17            98.081466  4.43685250E-05  2.31262588E-03
         2    4         32736.815731  2.79357296E-01  8.50744171E-04
         2    6            49.725865  5.53587236E-02  1.10113727E-01
         2    8            49.705449  5.47865939E-02  1.08931470E-01
         2   10         20008.705559  2.03422900E-02  1.01161608E-04
         2   12            87.691084  1.20250968E-03  6.40685567E-04
         2   14            84.590977  1.28348972E-03  6.95315522E-04
         2   16            41.340995  4.52019328E-02  3.19807660E-02
         2   18            98.081466  4.43685250E-05  2.31262588E-03
         3    5            49.480534  3.88263001E-02  2.59741514E-02
         3    7            51.737113  3.88473145E-02  2.56017224E-02
         3    9         10277.614984  6.16869540E-02  5.94423229E-04
         3   11            82.367137  3.62390573E-05  2.05519984E-04
         3   13            81.517372  4.10835642E-05  2.22282046E-04
         3   15            17.503814  7.64028102E-03  6.50215576E-03
         3   17        104596.221742  3.89553699E-02  3.72079998E-05
         4    6            49.480534  3.88263001E-02  2.59741514E-02
         4    8            51.737113  3.88473145E-02  2.56017224E-02
         4   10         10277.614984  6.16869540E-02  5.94423229E-04
         4   12            82.367137  3.62390573E-05  2.05519984E-04
         4   14            81.517372  4.10835642E-05  2.22282046E-04
         4   16            17.503814  7.64028102E-03  6.50215576E-03
         4   18        104596.221742  3.89553699E-02  3.72079998E-05
         5    7            11.343157  1.59664001E-04  1.80092135E-04
         5    9            61.124509  1.11536956E-03  2.86908157E-03
         5   11            41.346161  2.23016595E-03  3.80225063E-03
         5   13            46.776216  2.02852438E-03  3.81131182E-03
         5   15            54.613576  2.56312020E-02  1.65775882E-02
         5   17          1782.904276  1.05694126E-03  5.61335630E-05
         6    8            11.343157  1.59664001E-04  1.80092135E-04
         6   10            61.124509  1.11536956E-03  2.86908157E-03
         6   12            41.346161  2.23016595E-03  3.80225063E-03
         6   14            46.776216  2.02852438E-03  3.81131182E-03
         6   16            54.613576  2.56312020E-02  1.65775882E-02
         6   18          1782.904276  1.05694126E-03  5.61335630E-05
         7    9            61.923401  1.14576645E-03  3.00910920E-03
         7   11            46.134418  2.01897035E-03  3.74816398E-03
         7   13            41.739420  2.21076102E-03  3.79460864E-03
         7   15            52.908687  2.53665491E-02  1.65893447E-02
         8   10            61.923401  1.14576645E-03  3.00910920E-03
         8   12            46.134418  2.01897035E-03  3.74816398E-03
         8   14            41.739420  2.21076102E-03  3.79460864E-03
         8   16            52.908687  2.53665491E-02  1.65893447E-02
         9   11            18.549275  1.23503783E-03  1.51630060E-03
         9   13            12.797989  1.42153211E-03  1.63015979E-03
         9   15            89.023337  5.93766221E-05  5.40935116E-04
         9   17         26237.074269  2.22055052E+00  8.43127257E-03
        10   12            18.549275  1.23503783E-03  1.51630060E-03
        10   14            12.797989  1.42153211E-03  1.63015979E-03
        10   16            89.023337  5.93766221E-05  5.40935116E-04
        10   18         26237.074269  2.22055052E+00  8.43127257E-03
        11   13      --------------- below threshold  2.24187913E-02
        11   15            61.512646  1.26136864E-04  3.27735870E-04
        11   17            55.104400  9.42886843E-04  2.10017651E-03
        12   14      --------------- below threshold  2.24187913E-02
        12   16            61.512646  1.26136864E-04  3.27735870E-04
        12   18            55.104400  9.42886843E-04  2.10017651E-03
        13   15            59.318468  1.27361600E-04  3.13069819E-04
        13   17            46.602780  1.17701006E-03  2.20425343E-03
        14   16            59.318468  1.27361600E-04  3.13069819E-04
        14   18            46.602780  1.17701006E-03  2.20425343E-03
        15   17            99.671298  2.53233012E-04  7.70404002E-02
        16   18            99.671298  2.53233012E-04  7.70404002E-02
     ---------------------------------------------------------------

 Number of problematic transitions =                    70

--

 Electric-dipole - electric-octupole not included
++ I/O STATISTICS
 
  I. General I/O information
  - - - - - - - - - - - - - - - - - - - - - - - - - - - - - - - - - - - - - - - - - - -
  Unit  Name          Flsize      Write/Read            MBytes           Write/Read
                      (MBytes)       Calls              In/Out           Time, sec.
  - - - - - - - - - - - - - - - - - - - - - - - - - - - - - - - - - - - - - - - - - - -
   1  SCRATCH           0.00 .       9/      45 .      0.0/      0.0 .       0/       0
   2  ANNI              0.00 .       0/       0 .      0.0/      0.0 .       0/       0
   3  RUNFILE          14.82 .     322/   10733 .      2.3/     77.8 .       0/       0
   4  ONEINT            5.45 .       0/   23543 .      0.0/   3734.6 .       0/       0
   5  JOBIPH            6.30 .       0/      92 .      0.0/      0.8 .       0/       0
   6  ORDINT          473.53 .       1/    3789 .      0.0/    947.0 .       0/       0
  - - - - - - - - - - - - - - - - - - - - - - - - - - - - - - - - - - - - - - - - - - -
   *  TOTAL           500.11 .     332/   38202 .      2.3/   4760.2 .       0/       0
  - - - - - - - - - - - - - - - - - - - - - - - - - - - - - - - - - - - - - - - - - - -
 
  II. I/O Access Patterns
  - - - - - - - - - - - - - - - - - - - -
  Unit  Name               % of random
                         Write/Read calls
  - - - - - - - - - - - - - - - - - - - -
   1  SCRATCH             88.9/ 100.0
   2  ANNI                 0.0/   0.0
   3  RUNFILE             28.6/  10.8
   4  ONEINT               0.0/  16.4
   5  JOBIPH               0.0/  76.1
   6  ORDINT             100.0/   0.1
  - - - - - - - - - - - - - - - - - - - -
--
--- Stop Module: rassi at Wed Mar 26 12:30:33 2025 /rc=_RC_ALL_IS_WELL_ ---
*** files: xmldump
    saved to directory /home4/s4752295/Internship/Initial_simulations/Point_charge_model/1_electron/Madelung_charges_9_active_space/V
--- Module rassi spent 2 seconds ---

.##################.
.# Happy landing! #.
.##################.

    Timing: Wall=80.18 User=65.56 System=13.20

###############################################################################
Hbrk Cluster
Job 15906022 for user s4752295
Finished at: Wed Mar 26 12:30:37 CET 2025

Job details:
============

Job ID                         : 15906022
Name                           : V_no_SO
User                           : s4752295
Partition                      : regularmedium
Nodes                          : node100
Number of Nodes                : 1
Cores                          : 1
Number of Tasks                : 1
State                          : COMPLETED  
Submit                         : 2025-03-26T12:27:12
Start                          : 2025-03-26T12:29:09
End                            : 2025-03-26T12:30:33
Reserved walltime              : 15:00:00
Used walltime                  : 00:01:24
Used CPU time                  : 00:01:20 (Efficiency: 95.10%)
% User (Computation)           : 83.22%
% System (I/O)                 : 16.78%
Total memory reserved          : 25000M
Maximum memory used            : 1.90G

Acknowledgements:
=================

Please see this page for information about acknowledging Hbrk in your publications:

https://wiki.hpc.rug.nl/habrok/introduction/scientific_output

################################################################################
