   This run of MOLCAS is using the pymolcas driver

                             OPE
                             OPE          NMOL  CASOP  ENMOLC A   SO
                 OPE        NMOLC        AS  OP EN  MO LC     AS  OP
                OPENM       OL CA        SO  PE NM  OL CA     SOP EN
                OP EN      MO   LC       AS  OP ENMOL  CASO   PENMOL
                OP  EN     MO   LC       AS  OP EN     MO     LC ASO
               OP   E  NMOL  C  AS       OP  EN MO     LC     AS  OP
               OP  E   NMO   LC AS        OPEN  MO     LCASOP EN   M
               O  PEN   MO  LCA  SO
            OPE   NMO   L   CAS    OP
        OPENMOL  CASOP     ENMOL   CASOPE
     OPENMOLCA   SOPENMOLCASOPEN   MOLCASOPE
    OPENMOLCAS   OP           EN   MOL    CAS
    OPENMOLCAS       OP  ENM        O     LCA
    OPENMOLCAS    OPEN  MOLCASO     P  E  NMO
    OPENMOLCAS     OP               E  N  MOL
    OPENMOLCA   SO           PENM   O  L  CAS    OPEN    MO    LCAS
    OPENMOLCA   SOP           ENM   O  L  CAS   OP  EN  MOLC  AS   O
    OPENMOLCA   SOPE           NM      O  LCA   S      OP  EN MO
    OPENMOLC                AS         O  PEN   M      OL  CA  SOPE
    OPENMO        LCASOPE  NMOL        C  ASO   P      ENMOLC     AS
    OPE     NMO      LCA  SO     P     E   NM   OL  CA SO  PE N   MO
          OPENMOLCA            SOPE   NMO        LCAS  O    P  ENMO
     OPENMOLCASOPENMOLCASOPENMOLCASOPENMOLCA
        OPENMOLCASOPENMOLCASOPENMOLCASOPE
            OPENMOLCASOPENMOLCASOPENM
               OPENMOLCASOPENMOLCA        version: o91e1abe7de707b ?
                   OPENMOLCASO
                       OPE                tag:

 OpenMolcas is free software; you can redistribute it and/or modify it
 under the terms of the GNU Lesser General Public License version 2.1.
 OpenMolcas is distributed in the hope that it will be useful, but it
 is provided "as is" and without any express or implied warranties.
 For more details see the full text of the license in the file
 LICENSE or in <http://www.gnu.org/licenses/>.

                 Copyright (C) The OpenMolcas Authors
           For the author list and the recommended citation,
                   consult the file CONTRIBUTORS.md

           *************************************************
           * pymolcas version py2.10                       *
           *   build 3068ae8b88c9345ec6cfef6fef7f1169      *
           *   (after the EMIL interpreter by V. Veryazov) *
           *************************************************

configuration info
------------------
Host name: login1 (Linux)
C Compiler ID: GNU
C flags: -std=gnu99
Fortran Compiler ID: GNU
Fortran flags: -fno-aggressive-loop-optimizations -cpp -fdefault-integer-8 -fmax-stack-var-size=1048576
Definitions: _MOLCAS_;_I8_;_LINUX_;_MKL_
Parallel: OFF (GA=OFF)


   ----------------------------------------------------------------------------------------------------------------------------------
  |
  |           Project: vanadium_so_cf
  |    Submitted from: /home4/s4752295/Internship/Initial_simulations/Point_charge_model/1_electron/Madelung_charges_9_active_space/V
  |      Scratch area: /tmp/vanadium_so_cf
  |   Save outputs to: /home4/s4752295/Internship/Initial_simulations/Point_charge_model/1_electron/Madelung_charges_9_active_space/V
  |            Molcas: /home4/s4752295/Internship/Molcas/recomp_try/OpenMolcas-master/build
  |
  | Scratch area is empty
  |
  |    MOLCAS_DRIVER = /home4/s4752295/Internship/Molcas/bin/pymolcas
  |    MOLCAS_NPROCS = 1
  |    MOLCAS_SOURCE = /home4/s4752295/Internship/Molcas/recomp_try/OpenMolcas-master
  | MOLCAS_STRUCTURE = 0
  |
   ----------------------------------------------------------------------------------------------------------------------------------

++ ---------   Input file   ---------

&SEWARD
AMFi

CLIG
$R

Basis Set
V.ANO-rcc.Roos.21s15p10d6f4g2h.10s9p8d6f4g2h.
Spherical d
V            -1.0658140267135469e-14    -3.5527134223784897e-15 0.008753588724385739
End of Basis

Xfield

414
-1.200660324,-0.46199999999999997,0.26673569999999996   -0.625931
-1.200660324,-0.0,-0.5334717    -0.625931
-1.200660324,0.46199999999999997,0.26673569999999996    -0.625931
-1.198603821,0.0,0.0    1.892092
0.797753907,-0.46199999999999997,-0.26673569999999996   2.515516
0.797753907,0.0,0.5334717       2.515516
0.797753907,0.46199999999999997,-0.26673569999999996    2.515516
1.068896484,-0.9239999999999999,0.0     0.004632
1.068896484,-0.46199999999999997,-0.8002074     0.004632
1.068896484,-0.46199999999999997,0.8002074      0.004632
1.068896484,0.46199999999999997,-0.8002074      0.004632
1.068896484,0.46199999999999997,0.8002074       0.004632
1.068896484,0.9239999999999999,0.0      0.004632
1.2387451170000001,-0.46199999999999997,0.26673569999999996     -2.519484
1.2387451170000001,-0.0,-0.5334717      -2.519484
1.2387451170000001,0.46199999999999997,0.26673569999999996      -2.519484
-0.879931641,-0.0,-0.0  -3.142907
-1.492529298,-0.9239999999999999,-0.5334717     -0.625931
-1.492529298,0.0,1.0669431      -0.625931
-1.492529298,0.9239999999999999,-0.5334717      -0.625931
-1.9828124999999999,-0.9239999999999999,0.0     1.892092
-1.9828124999999999,-0.46199999999999997,-0.8002074     1.892092
-1.9828124999999999,-0.46199999999999997,0.8002074      1.892092
-1.9828124999999999,0.46199999999999997,-0.8002074      1.892092
-1.9828124999999999,0.46199999999999997,0.8002074       1.892092
-1.9828124999999999,0.9239999999999999,0.0      1.892092
7.551562499999999,-0.9239999999999999,0.5334717 2.515516
7.551562499999999,-0.0,-1.0669431       2.515516
7.551562499999999,0.9239999999999999,0.5334717  2.515516
1.0916015639999999,-0.9239999999999999,-0.5334717       -2.519484
1.0916015639999999,0.0,1.0669431        -2.519484
1.0916015639999999,0.9239999999999999,-0.5334717        -2.519484
-0.9697265639999999,-0.9239999999999999,-0.0    -3.142907
-0.9697265639999999,-0.46199999999999997,-0.8002074     -3.142907
-0.9697265639999999,-0.46199999999999997,0.8002074      -3.142907
-0.9697265639999999,0.46199999999999997,-0.8002074      -3.142907
-0.9697265639999999,0.46199999999999997,0.8002074       -3.142907
-0.9697265639999999,0.9239999999999999,-0.0     -3.142907
-2.85703125,-0.9239999999999999,1.0669431       -0.625931
-2.85703125,0.9239999999999999,1.0669431        -0.625931
-2.85703125,-1.386,0.26673569999999996  -0.625931
-2.85703125,1.386,0.26673569999999996   -0.625931
-2.85703125,-0.46199999999999997,-1.3336791000000001    -0.625931
-2.85703125,0.46199999999999997,-1.3336791000000001     -0.625931
1.80234375,-0.46199999999999997,-0.26673569999999996    4.409069
1.80234375,0.46199999999999997,-0.26673569999999996     4.409069
1.80234375,0.0,0.5334717        4.409069
-52.574999999999996,-0.0,-0.0   -5.030367
-52.574999999999996,0.0,0.0     5.039632
4.055273435999999,-0.9239999999999999,-1.0669431        2.515516
4.055273435999999,0.9239999999999999,-1.0669431 2.515516
4.055273435999999,-1.386,-0.26673569999999996   2.515516
4.055273435999999,1.386,-0.26673569999999996    2.515516
4.055273435999999,-0.46199999999999997,1.3336791000000001       2.515516
4.055273435999999,0.46199999999999997,1.3336791000000001        2.515516
5.71171875,-1.386,-0.8002074    0.004632
5.71171875,-1.386,0.8002074     0.004632
5.71171875,1.386,-0.8002074     0.004632
5.71171875,1.386,0.8002074      0.004632
5.71171875,-0.0,-1.6004148      0.004632
5.71171875,0.0,1.6004148        0.004632
14.423437499999999,-0.9239999999999999,1.0669431        -2.519484
14.423437499999999,0.9239999999999999,1.0669431 -2.519484
14.423437499999999,-1.386,0.26673569999999996   -2.519484
14.423437499999999,1.386,0.26673569999999996    -2.519484
14.423437499999999,-0.46199999999999997,-1.3336791000000001     -2.519484
14.423437499999999,0.46199999999999997,-1.3336791000000001      -2.519484
-43.762499999999996,-1.386,-0.8002074   1.892092
-43.762499999999996,-1.386,0.8002074    1.892092
-43.762499999999996,1.386,-0.8002074    1.892092
-43.762499999999996,1.386,0.8002074     1.892092
-43.762499999999996,-0.0,-1.6004148     1.892092
-43.762499999999996,0.0,1.6004148       1.892092
-35.324999999999996,-0.9239999999999999,0.5334717       4.409069
-35.324999999999996,-0.0,-1.0669431     4.409069
-35.324999999999996,0.9239999999999999,0.5334717        4.409069
-26.7,-0.9239999999999999,-0.0  -5.030367
-26.7,-0.46199999999999997,-0.8002074   -5.030367
-26.7,-0.46199999999999997,0.8002074    -5.030367
-26.7,0.46199999999999997,-0.8002074    -5.030367
-26.7,-0.9239999999999999,0.0   5.039632
-26.7,0.9239999999999999,-0.0   -5.030367
-26.7,0.46199999999999997,0.8002074     -5.030367
-26.7,-0.46199999999999997,-0.8002074   5.039632
-26.7,-0.46199999999999997,0.8002074    5.039632
-26.7,0.46199999999999997,-0.8002074    5.039632
-26.7,0.9239999999999999,0.0    5.039632
-26.7,0.46199999999999997,0.8002074     5.039632
-13.987499999999999,-0.46199999999999997,-0.26673569999999996   -5.660931
-13.987499999999999,0.0,0.5334717       -5.660931
-13.987499999999999,0.46199999999999997,-0.26673569999999996    -5.660931
0.26484375,-1.8479997,0.0       0.004632
0.26484375,-0.9239999999999999,-1.6004148       0.004632
0.26484375,-0.9239999999999999,1.6004148        0.004632
0.26484375,0.9239999999999999,-1.6004148        0.004632
0.26484375,1.8479997,0.0        0.004632
0.26484375,0.9239999999999999,1.6004148 0.004632
20.381249999999998,-1.386,0.8002074     -3.142907
20.381249999999998,-1.386,-0.8002074    -3.142907
20.381249999999998,1.386,-0.8002074     -3.142907
20.381249999999998,1.386,0.8002074      -3.142907
20.381249999999998,-0.0,-1.6004148      -3.142907
20.381249999999998,0.0,1.6004148        -3.142907
25.912499999999998,-1.8479997,-0.5334717        -0.625931
25.912499999999998,-1.386,-1.3336791000000001   -0.625931
25.912499999999998,-0.46199999999999997,1.8671505       -0.625931
25.912499999999998,1.386,-1.3336791000000001    -0.625931
25.912499999999998,1.8479997,-0.5334717 -0.625931
25.912499999999998,0.46199999999999997,1.8671505        -0.625931
0.359179686,-1.8479997,0.0      1.892092
0.359179686,-0.9239999999999999,-1.6004148      1.892092
0.359179686,-0.9239999999999999,1.6004148       1.892092
0.359179686,0.9239999999999999,-1.6004148       1.892092
0.359179686,1.8479997,0.0       1.892092
0.359179686,0.9239999999999999,1.6004148        1.892092
10.153125,-0.9239999999999999,-1.0669431        4.409069
10.153125,0.9239999999999999,-1.0669431 4.409069
10.153125,-1.386,-0.26673569999999996   4.409069
10.153125,1.386,-0.26673569999999996    4.409069
10.153125,-0.46199999999999997,1.3336791000000001       4.409069
10.153125,0.46199999999999997,1.3336791000000001        4.409069
48.721875,-0.9239999999999999,0.5334717 -5.660931
48.721875,-0.0,-1.0669431       -5.660931
48.721875,0.9239999999999999,0.5334717  -5.660931
0.103125,-1.8479997,0.5334717   2.515516
0.103125,-0.46199999999999997,-1.8671505        2.515516
0.103125,-1.386,1.3336791000000001      2.515516
0.103125,0.46199999999999997,-1.8671505 2.515516
0.103125,1.8479997,0.5334717    2.515516
0.103125,1.386,1.3336791000000001       2.515516
-28.256249999999998,-1.8479997,-0.5334717       -2.519484
-28.256249999999998,-1.386,-1.3336791000000001  -2.519484
-28.256249999999998,-0.46199999999999997,1.8671505      -2.519484
-28.256249999999998,1.386,-1.3336791000000001   -2.519484
-28.256249999999998,0.46199999999999997,1.8671505       -2.519484
-28.256249999999998,1.8479997,-0.5334717        -2.519484
-6.62109375,-1.8479997,-0.0     -3.142907
-6.62109375,-0.9239999999999999,-1.6004148      -3.142907
-6.62109375,-0.9239999999999999,1.6004148       -3.142907
-6.62109375,0.9239999999999999,-1.6004148       -3.142907
-6.62109375,0.9239999999999999,1.6004148        -3.142907
-6.62109375,1.8479997,-0.0      -3.142907
181.95,0.0,0.0  6.927092
96.975,-1.8479997,1.0669431     -0.625931
96.975,1.8479997,1.0669431      -0.625931
96.975,-0.0,-2.1338865  -0.625931
-1.6265625,-1.386,0.8002074     -5.030367
-1.6265625,-1.386,-0.8002074    -5.030367
-1.6265625,-1.386,0.8002074     5.039632
-1.6265625,-1.386,-0.8002074    5.039632
-1.6265625,1.386,-0.8002074     -5.030367
-1.6265625,1.386,0.8002074      -5.030367
-1.6265625,1.386,-0.8002074     5.039632
-1.6265625,1.386,0.8002074      5.039632
-1.6265625,-0.0,-1.6004148      -5.030367
-1.6265625,0.0,1.6004148        -5.030367
-1.6265625,-0.0,-1.6004148      5.039632
-1.6265625,0.0,1.6004148        5.039632
27.54375,-0.9239999999999999,-1.0669431 -5.660931
27.54375,0.9239999999999999,-1.0669431  -5.660931
27.54375,-1.386,-0.26673569999999996    -5.660931
27.54375,1.386,-0.26673569999999996     -5.660931
27.54375,-0.46199999999999997,1.3336791000000001        -5.660931
27.54375,0.46199999999999997,1.3336791000000001 -5.660931
90.14999999999999,-1.8479997,-1.0669431 2.515516
90.14999999999999,1.8479997,-1.0669431  2.515516
90.14999999999999,0.0,2.1338865 2.515516
-155.17499999999998,-1.8479997,1.0669431        -2.519484
-155.17499999999998,1.8479997,1.0669431 -2.519484
-155.17499999999998,-0.0,-2.1338865     -2.519484
16.068749999999998,-0.9239999999999999,0.0      6.927092
16.068749999999998,-0.46199999999999997,-0.8002074      6.927092
16.068749999999998,-0.46199999999999997,0.8002074       6.927092
16.068749999999998,0.46199999999999997,-0.8002074       6.927092
16.068749999999998,0.46199999999999997,0.8002074        6.927092
16.068749999999998,0.9239999999999999,0.0       6.927092
-16.575,-0.46199999999999997,0.26673569999999996        7.550516
-16.575,0.0,-0.5334717  7.550516
-16.575,0.46199999999999997,0.26673569999999996 7.550516
4.659375,-0.46199999999999997,-0.26673569999999996      -7.554483
4.659375,0.46199999999999997,-0.26673569999999996       -7.554483
4.659375,-0.0,0.5334717 -7.554483
-37.4625,-2.3099997,0.26673569999999996 -0.625931
-37.4625,-1.386,1.8671505       -0.625931
-37.4625,-0.9239999999999999,-2.1338865 -0.625931
-37.4625,0.9239999999999999,-2.1338865  -0.625931
-37.4625,2.3099997,0.26673569999999996  -0.625931
-37.4625,1.386,1.8671505        -0.625931
-20.23125,-1.8479997,0.5334717  4.409069
-20.23125,-1.386,1.3336791000000001     4.409069
-20.23125,-0.46199999999999997,-1.8671505       4.409069
-20.23125,0.46199999999999997,-1.8671505        4.409069
-20.23125,1.386,1.3336791000000001      4.409069
-20.23125,1.8479997,0.5334717   4.409069
14.746875,-1.8479997,-0.0       -5.030367
14.746875,-0.9239999999999999,-1.6004148        -5.030367
14.746875,-0.9239999999999999,1.6004148 -5.030367
14.746875,-1.8479997,0.0        5.039632
14.746875,-0.9239999999999999,-1.6004148        5.039632
14.746875,0.9239999999999999,-1.6004148 -5.030367
14.746875,0.9239999999999999,1.6004148  -5.030367
14.746875,1.8479997,-0.0        -5.030367
14.746875,-0.9239999999999999,1.6004148 5.039632
14.746875,0.9239999999999999,-1.6004148 5.039632
14.746875,1.8479997,0.0 5.039632
14.746875,0.9239999999999999,1.6004148  5.039632
54.225,-2.3099997,-0.26673569999999996  2.515516
54.225,-1.386,-1.8671505        2.515516
54.225,-0.9239999999999999,2.1338865    2.515516
54.225,1.386,-1.8671505 2.515516
54.225,2.3099997,-0.26673569999999996   2.515516
54.225,0.9239999999999999,2.1338865     2.515516
-7.003125,-2.3099997,-0.8002074 0.004632
-7.003125,-2.3099997,0.8002074  0.004632
-7.003125,-1.8479997,-1.6004148 0.004632
-7.003125,-1.8479997,1.6004148  0.004632
-7.003125,-0.46199999999999997,-2.4006222       0.004632
-7.003125,0.46199999999999997,-2.4006222        0.004632
-7.003125,-0.46199999999999997,2.4006222        0.004632
-7.003125,1.8479997,-1.6004148  0.004632
-7.003125,0.46199999999999997,2.4006222 0.004632
-7.003125,2.3099997,-0.8002074  0.004632
-7.003125,2.3099997,0.8002074   0.004632
-7.003125,1.8479997,1.6004148   0.004632
-42.9375,-2.3099997,0.26673569999999996 -2.519484
-42.9375,-1.386,1.8671505       -2.519484
-42.9375,-0.9239999999999999,-2.1338865 -2.519484
-42.9375,0.9239999999999999,-2.1338865  -2.519484
-42.9375,2.3099997,0.26673569999999996  -2.519484
-42.9375,1.386,1.8671505        -2.519484
909.6,-0.0,-0.0 -8.177907
-34.8,-0.9239999999999999,-0.5334717    7.550516
-34.8,0.0,1.0669431     7.550516
-34.8,0.9239999999999999,-0.5334717     7.550516
-181.04999999999998,-0.9239999999999999,0.5334717       -7.554483
-181.04999999999998,-0.0,-1.0669431     -7.554483
-181.04999999999998,0.9239999999999999,0.5334717        -7.554483
14.671875,-2.3099997,0.8002074  1.892092
14.671875,-2.3099997,-0.8002074 1.892092
14.671875,-1.8479997,-1.6004148 1.892092
14.671875,-1.8479997,1.6004148  1.892092
14.671875,-0.46199999999999997,-2.4006222       1.892092
14.671875,0.46199999999999997,-2.4006222        1.892092
14.671875,-0.46199999999999997,2.4006222        1.892092
14.671875,1.8479997,-1.6004148  1.892092
14.671875,0.46199999999999997,2.4006222 1.892092
14.671875,2.3099997,-0.8002074  1.892092
14.671875,2.3099997,0.8002074   1.892092
14.671875,1.8479997,1.6004148   1.892092
-151.5,-1.8479997,-1.0669431    4.409069
-151.5,1.8479997,-1.0669431     4.409069
-151.5,0.0,2.1338865    4.409069
7.74609375,-1.8479997,0.5334717 -5.660931
7.74609375,-0.46199999999999997,-1.8671505      -5.660931
7.74609375,-1.386,1.3336791000000001    -5.660931
7.74609375,0.46199999999999997,-1.8671505       -5.660931
7.74609375,1.386,1.3336791000000001     -5.660931
7.74609375,1.8479997,0.5334717  -5.660931
-17.45625,-1.8479997,-1.6004148 -3.142907
-17.45625,-2.3099997,0.8002074  -3.142907
-17.45625,-2.3099997,-0.8002074 -3.142907
-17.45625,-1.8479997,1.6004148  -3.142907
-17.45625,-0.46199999999999997,-2.4006222       -3.142907
-17.45625,0.46199999999999997,-2.4006222        -3.142907
-17.45625,-0.46199999999999997,2.4006222        -3.142907
-17.45625,2.3099997,-0.8002074  -3.142907
-17.45625,1.8479997,-1.6004148  -3.142907
-17.45625,0.46199999999999997,2.4006222 -3.142907
-17.45625,2.3099997,0.8002074   -3.142907
-17.45625,1.8479997,1.6004148   -3.142907
19.621875,-1.386,-0.8002074     6.927092
19.621875,-1.386,0.8002074      6.927092
19.621875,1.386,-0.8002074      6.927092
19.621875,1.386,0.8002074       6.927092
19.621875,-0.0,-1.6004148       6.927092
19.621875,0.0,1.6004148 6.927092
-24.974999999999998,-0.9239999999999999,-0.0    -8.177907
-24.974999999999998,-0.46199999999999997,0.8002074      -8.177907
-24.974999999999998,-0.46199999999999997,-0.8002074     -8.177907
-24.974999999999998,0.46199999999999997,-0.8002074      -8.177907
-24.974999999999998,0.9239999999999999,-0.0     -8.177907
-24.974999999999998,0.46199999999999997,0.8002074       -8.177907
-27.271874999999998,-0.9239999999999999,1.0669431       7.550516
-27.271874999999998,0.9239999999999999,1.0669431        7.550516
-27.271874999999998,-1.386,0.26673569999999996  7.550516
-27.271874999999998,1.386,0.26673569999999996   7.550516
-27.271874999999998,-0.46199999999999997,-1.3336791000000001    7.550516
-27.271874999999998,0.46199999999999997,-1.3336791000000001     7.550516
-13.706249999999999,-0.9239999999999999,-1.0669431      -7.554483
-13.706249999999999,0.9239999999999999,-1.0669431       -7.554483
-13.706249999999999,-1.386,-0.26673569999999996 -7.554483
-13.706249999999999,1.386,-0.26673569999999996  -7.554483
-13.706249999999999,-0.46199999999999997,1.3336791000000001     -7.554483
-13.706249999999999,0.46199999999999997,1.3336791000000001      -7.554483
-150.075,0.0,2.6673579  -0.625931
-150.075,-2.3099997,-1.3336791000000001 -0.625931
-150.075,2.3099997,-1.3336791000000001  -0.625931
-80.925,-2.3099997,-0.26673569999999996 4.409069
-80.925,-1.386,-1.8671505       4.409069
-80.925,-0.9239999999999999,2.1338865   4.409069
-80.925,1.386,-1.8671505        4.409069
-80.925,2.3099997,-0.26673569999999996  4.409069
-80.925,0.9239999999999999,2.1338865    4.409069
93.1125,-1.8479997,-1.0669431   -5.660931
93.1125,1.8479997,-1.0669431    -5.660931
93.1125,0.0,2.1338865   -5.660931
176.1,-0.0,-2.6673579   2.515516
176.1,-2.3099997,1.3336791000000001     2.515516
176.1,2.3099997,1.3336791000000001      2.515516
-28.162499999999998,-2.7719997,-0.0     0.004632
-28.162499999999998,1.386,-2.4006222    0.004632
-28.162499999999998,-1.386,2.4006222    0.004632
-28.162499999999998,2.7719997,-0.0      0.004632
-28.162499999999998,-1.386,-2.4006222   0.004632
-28.162499999999998,1.386,2.4006222     0.004632
-115.725,0.0,2.6673579  -2.519484
-115.725,-2.3099997,-1.3336791000000001 -2.519484
-115.725,2.3099997,-1.3336791000000001  -2.519484
68.39999999999999,-1.8479997,0.0        6.927092
68.39999999999999,-0.9239999999999999,-1.6004148        6.927092
68.39999999999999,-0.9239999999999999,1.6004148 6.927092
68.39999999999999,0.9239999999999999,-1.6004148 6.927092
68.39999999999999,1.8479997,0.0 6.927092
68.39999999999999,0.9239999999999999,1.6004148  6.927092
63.5625,-2.7719997,-0.5334717   -0.625931
63.5625,-0.9239999999999999,2.6673579   -0.625931
63.5625,-1.8479997,-2.1338865   -0.625931
63.5625,1.8479997,-2.1338865    -0.625931
63.5625,0.9239999999999999,2.6673579    -0.625931
63.5625,2.7719997,-0.5334717    -0.625931
33.58125,-2.7719997,0.0 1.892092
33.58125,-1.386,-2.4006222      1.892092
33.58125,-1.386,2.4006222       1.892092
33.58125,1.386,-2.4006222       1.892092
33.58125,2.7719997,0.0  1.892092
33.58125,1.386,2.4006222        1.892092
-1.29609375,-2.3099997,0.8002074        -5.030367
-1.29609375,-2.3099997,-0.8002074       -5.030367
-1.29609375,-1.8479997,-1.6004148       -5.030367
-1.29609375,-1.8479997,1.6004148        -5.030367
-1.29609375,-2.3099997,0.8002074        5.039632
-1.29609375,0.46199999999999997,-2.4006222      -5.030367
-1.29609375,-0.46199999999999997,-2.4006222     -5.030367
-1.29609375,-2.3099997,-0.8002074       5.039632
-1.29609375,-1.8479997,-1.6004148       5.039632
-1.29609375,-0.46199999999999997,2.4006222      -5.030367
-1.29609375,0.46199999999999997,-2.4006222      5.039632
-1.29609375,-1.8479997,1.6004148        5.039632
-1.29609375,-0.46199999999999997,-2.4006222     5.039632
-1.29609375,1.8479997,-1.6004148        -5.030367
-1.29609375,0.46199999999999997,2.4006222       -5.030367
-1.29609375,2.3099997,-0.8002074        -5.030367
-1.29609375,2.3099997,0.8002074 -5.030367
-1.29609375,1.8479997,1.6004148 -5.030367
-1.29609375,-0.46199999999999997,2.4006222      5.039632
-1.29609375,1.8479997,-1.6004148        5.039632
-1.29609375,2.3099997,-0.8002074        5.039632
-1.29609375,0.46199999999999997,2.4006222       5.039632
-1.29609375,2.3099997,0.8002074 5.039632
-1.29609375,1.8479997,1.6004148 5.039632
-0.20625,-2.3099997,-0.26673569999999996        -5.660931
-0.20625,-1.386,-1.8671505      -5.660931
-0.20625,-0.9239999999999999,2.1338865  -5.660931
-0.20625,1.386,-1.8671505       -5.660931
-0.20625,0.9239999999999999,2.1338865   -5.660931
-0.20625,2.3099997,-0.26673569999999996 -5.660931
34.8,-0.46199999999999997,0.26673569999999996   9.444068
34.8,0.0,-0.5334717     9.444068
34.8,0.46199999999999997,0.26673569999999996    9.444068
15.393749999999999,-2.7719997,0.5334717 2.515516
15.393749999999999,-0.9239999999999999,-2.6673579       2.515516
15.393749999999999,0.9239999999999999,-2.6673579        2.515516
15.393749999999999,-1.8479997,2.1338865 2.515516
15.393749999999999,2.7719997,0.5334717  2.515516
15.393749999999999,1.8479997,2.1338865  2.515516
47.0625,-2.7719997,-0.5334717   -2.519484
47.0625,-0.9239999999999999,2.6673579   -2.519484
47.0625,-1.8479997,-2.1338865   -2.519484
47.0625,1.8479997,-2.1338865    -2.519484
47.0625,2.7719997,-0.5334717    -2.519484
47.0625,0.9239999999999999,2.6673579    -2.519484
65.8875,-2.7719997,-0.0 -3.142907
65.8875,-1.386,-2.4006222       -3.142907
65.8875,-1.386,2.4006222        -3.142907
65.8875,1.386,-2.4006222        -3.142907
65.8875,2.7719997,-0.0  -3.142907
65.8875,1.386,2.4006222 -3.142907
2.593652343,-1.386,-0.8002074   -8.177907
2.593652343,-1.386,0.8002074    -8.177907
2.593652343,1.386,0.8002074     -8.177907
2.593652343,1.386,-0.8002074    -8.177907
2.593652343,-0.0,-1.6004148     -8.177907
2.593652343,0.0,1.6004148       -8.177907
75.5625,-1.386,-1.3336791000000001      7.550516
75.5625,-1.8479997,-0.5334717   7.550516
75.5625,-0.46199999999999997,1.8671505  7.550516
75.5625,1.386,-1.3336791000000001       7.550516
75.5625,0.46199999999999997,1.8671505   7.550516
75.5625,1.8479997,-0.5334717    7.550516
-104.39999999999999,-1.386,1.3336791000000001   -7.554483
-104.39999999999999,-1.8479997,0.5334717        -7.554483
-104.39999999999999,-0.46199999999999997,-1.8671505     -7.554483
-104.39999999999999,0.46199999999999997,-1.8671505      -7.554483
-104.39999999999999,1.8479997,0.5334717 -7.554483
-104.39999999999999,1.386,1.3336791000000001    -7.554483
21.3796875,-2.3099997,1.8671505 -0.625931
21.3796875,-2.7719997,1.0669431 -0.625931
21.3796875,-0.46199999999999997,-2.9340938999999997     -0.625931
21.3796875,0.46199999999999997,-2.9340938999999997      -0.625931
21.3796875,2.7719997,1.0669431  -0.625931
21.3796875,2.3099997,1.8671505  -0.625931
-145.125,-0.0,-2.6673579        4.409069
-145.125,-2.3099997,1.3336791000000001  4.409069
-145.125,2.3099997,1.3336791000000001   4.409069

End of input

&SCF
Occupied
9
Iterations
   50  100
End of Input

&RASSCF
LumOrb
Symmetry
1
Spin
2
Nactel
1 0 0
CIRoot
9 9 1
inactive
9
ras2
9
End of Input

>>> COPY vanadium_so_cf.JobIph $SLURM_SUBMIT_DIR/vanadium_so_cf.doublet.JobIph

>>> COPY $SLURM_SUBMIT_DIR/vanadium_so_cf.doublet.JobIph ./JOB002

&RASSI
NROFJobIph
1 All
SpinOrbit
End of Input

EOF

-- ----------------------------------

--- Start Module: seward at Tue Mar 25 16:52:46 2025 ---

()()()()()()()()()()()()()()()()()()()()()()()()()()()()()()()()()()()()()()()()()()()()()()()()()()

                                              &SEWARD

                                   only a single process is used
                       available to each process: 4.1 GB of memory, 1 thread?
                                            pid: 3452146
()()()()()()()()()()()()()()()()()()()()()()()()()()()()()()()()()()()()()()()()()()()()()()()()()()

 The speed of LIGHT in this CALCULATION =   137.03599917700001     
               SEWARD will generate:
                  Multipole Moment integrals up to order  2
                  Kinetic Energy integrals
                  Nuclear Attraction integrals (point charge)
                  One-Electron Hamiltonian integrals
                  Velocity integrals
                  Relativistic Douglas-Kroll-Hess integrals:
                    - Parametrization         : EXP
                    - DKH order of Hamiltonian: 2
                    - DKH order of Properties : 0
                         - multipole moment operators
                         - electric potential operators
                         - contact operators
                  External field from   414 point(s) added to the one-electron Hamiltonian
                  Orbital angular momentum around (-0.0000 -0.0000  0.0088 )
                  Velocity quadrupole around (-0.0000 -0.0000  0.0088 )
                  Atomic mean-field integrals
                  Two-Electron Repulsion integrals

                   Integrals are discarded if absolute value <: 0.10E-13
                   Integral cutoff threshold is set to       <: 0.10E-15

++    Symmetry information:
      ---------------------

                    Character Table for C1 

                             E  
                    a        1  x, y, xy, Rz, z, xz, Ry, yz, Rx, I
--


++    Basis set information:
      ----------------------


      Basis set label: V.ANO-RCC.ROOS.21S15P10D6F4G2H.10S9P8D6F4G2H......

      Electronic valence basis set:
      ------------------
      Associated Effective Charge  23.000000 au
      Associated Actual Charge     23.000000 au
      Nuclear Model: Point charge

      Shell  nPrim  nBasis  Cartesian Spherical Contaminant
         s      21      10        X                  
         p      15       9        X                  
         d      10       8                 X         
         f       6       6                 X         
         g       4       4                 X         
         h       2       2                 X         
--


++    Molecular structure info:
      -------------------------

                    ************************************************ 
                    **** Cartesian Coordinates / Bohr, Angstrom **** 
                    ************************************************ 

     Center  Label                x              y              z                     x              y              z
        1      V               -0.000000      -0.000000       0.008754             -0.000000      -0.000000       0.004632
--


++    Operator info:
      --------------


  Net charge from external field:   -39.268449999999902     
--


            Nuclear Potential Energy              0.00000000 au

                    Nuclear-External Field Potential Energy    -701.41753960 au
                    External Field Potential Energy            5352.12300462 au 


            Total Nuclear Potential Energy           -701.41753960 au


      Basis set specifications :
      Symmetry species         a  
      Basis functions          177

 Sorry, Molden does not know how to handle
 functions with angular momentum larger than g
Note: The following floating-point exceptions are signalling: IEEE_UNDERFLOW_FLAG IEEE_DENORMAL
--- Stop Module: seward at Tue Mar 25 16:52:55 2025 /rc=_RC_ALL_IS_WELL_ ---
*** files: vanadium_so_cf.GssOrb xmldump
    saved to directory /home4/s4752295/Internship/Initial_simulations/Point_charge_model/1_electron/Madelung_charges_9_active_space/V
--- Module seward spent 9 seconds ---

*** symbolic link created: INPORB -> vanadium_so_cf.GssOrb
--- Start Module: scf at Tue Mar 25 16:52:55 2025 ---

()()()()()()()()()()()()()()()()()()()()()()()()()()()()()()()()()()()()()()()()()()()()()()()()()()

                                                &SCF

                                   only a single process is used
                       available to each process: 4.1 GB of memory, 1 thread?
                                            pid: 3452171
()()()()()()()()()()()()()()()()()()()()()()()()()()()()()()()()()()()()()()()()()()()()()()()()()()

++    Input section:
      --------------

      Header of the integral files:
      
       Integrals generated by seward 4.2.0  , Tue Mar 25 16:52:47 2025


      Cartesian coordinates in Angstrom:
      -----------------------------------------------------
      No.  Label        X            Y            Z        
      -----------------------------------------------------
       1   V         -0.00000000  -0.00000000   0.00463220
      -----------------------------------------------------
      Nuclear repulsion energy = -701.41753960
--

++    Orbital specifications:
      -----------------------

      Symmetry species               1
                                     a
      Frozen orbitals                0
      Occupied orbitals              9
      Secondary orbitals           168
      Deleted orbitals               0
      Total number of orbitals     177
      Number of basis functions    177
--

      Molecular charge                           5.000

++    Optimization specifications:
      ----------------------------

      SCF Algorithm: Conventional
      Minimized density differences are used
      Number of density matrices in core                5
      Maximum number of NDDO SCF iterations            50
      Maximum number of HF SCF iterations             100
      Threshold for SCF energy change            0.10E-08
      Threshold for density matrix               0.10E-03
      Threshold for Fock matrix                  0.15E-03
      Threshold for linear dependence            0.10E-08
      Threshold at which DIIS is turned on       0.15E+00
      Threshold at which QNR/C2DIIS is turned on 0.75E-01
      Threshold for Norm(delta) (QNR/C2DIIS)     0.20E-04
      DIIS extrapolation of the SCF procedure
      All orbitals punched on: SCFORB
--

      Detected guessorb starting orbitals                                             


++ Convergence information
                                   SCF        iterations: Energy and convergence statistics

Iter     Tot. SCF        One-elec.       Two-elec.     Energy      Max Dij or  Max Fij      DNorm      TNorm      AccCon     Time
         Energy          Energy          Energy        Change      Delta Norm                                                in Sec.

 The total and one-electron energies are shifted by a value of      1000. a.u.

   1   -96.131263677   315.806508313   289.479767612   0.00E+00    0.54E-01*   0.22E+01*    0.60E+01   0.22E+03   None         1.
   2  -222.201912643   300.065075979   179.150550980  -0.13E+03*   0.20E+00*   0.26E+00*    0.61E+01   0.16E+03   EDIIS        1.
   3  -222.279296864   297.882208923   181.256033815  -0.77E-01*   0.16E-01*   0.42E-01*    0.43E+00   0.16E+03   EDIIS        1.
   4  -222.279902630   298.057310207   181.080326765  -0.61E-03*   0.24E-02*   0.31E-02*    0.21E-01   0.16E+03   c2DIIS       1.
   5  -222.279908437   298.038316822   181.099314343  -0.58E-05*   0.10E-03*   0.12E-03     0.71E-03   0.16E+03   QNRc2DIIS    1.
   6  -222.279908460   298.038584825   181.099046317  -0.22E-07*   0.96E-05    0.70E-05     0.13E-04   0.16E+03   QNRc2DIIS    1.
   7  -222.279908460   298.038531782   181.099099361  -0.16E-09    0.19E-06    0.87E-06     0.14E-03   0.16E+03   QNRc2DIIS    1.

       Convergence after  7 Macro Iterations
--

 *****************************************************************************************************************************
 *                                                                                                                           *
 *                                             SCF/KS-DFT Program, Final results                                             *
 *                                                                                                                           *
 *                                                                                                                           *
 *                                                                                                                           *
 *                                                       Final Results                                                       *
 *                                                                                                                           *
 *****************************************************************************************************************************

::    Total SCF energy                              -1222.2799084597
      One-electron energy                            -701.9614682184
      Two-electron energy                             181.0990993607
      Nuclear repulsion energy                       -701.4175396021
      Kinetic energy (interpolated)                   906.9120887221
      Virial theorem                                    1.3477380263
      Total spin, S(S+1)                                0.0000000000
      Total spin, S                                     0.0000000000
      Max non-diagonal density matrix element           0.0000003473
      Max non-diagonal Fock matrix element              0.0000000961


      All orbitals with orbital energies smaller than  E(LUMO)+0.5 are printed

++    Molecular orbitals:
      -------------------

      Title: SCF orbitals

      Molecular orbitals for symmetry species 1: a  

          Orbital            1         2         3         4         5         6         7         8         9        10    
          Energy         -185.5063   -6.4193   -1.9643   -1.9641   -1.2136    3.3605    7.1846    7.1847    9.4563   10.2688
          Occ. No.          2.0000    2.0000    2.0000    2.0000    2.0000    2.0000    2.0000    2.0000    2.0000    0.0000

        1 V      1s         1.0000    0.0000    0.0000   -0.0000   -0.0017   -0.0000   -0.0000   -0.0000    0.0000   -0.0000
        2 V      2s        -0.0006    0.9401    0.0006   -0.0000   -0.3382    0.0000    0.0000    0.0000   -0.0001    0.0000
        3 V      3s         0.0002   -0.0049   -0.0001    0.0000    0.0255   -0.0006    0.0000    0.0000   -0.0033   -0.0001
        4 V      4s        -0.0000    0.0003    0.0000    0.0000   -0.0046    0.0643    0.0003    0.0000   -0.1700   -0.1759
        5 V      5s         0.0001   -0.0004   -0.0000   -0.0000    0.0054    0.3796    0.0007    0.0000   -0.3308   -0.5047
        6 V      6s        -0.0002    0.0007    0.0000    0.0000   -0.0148    0.2685    0.0003    0.0000   -0.0689   -0.2290
        7 V      7s         0.0002   -0.0002   -0.0000   -0.0000    0.0092    0.3896    0.0001    0.0000    0.0971   -0.2141
        8 V      8s        -0.0002    0.0002    0.0000   -0.0000   -0.0075    0.2618   -0.0002   -0.0000    0.2352   -0.0684
        9 V      9s         0.0001   -0.0003   -0.0000   -0.0000    0.0024    0.4077   -0.0008   -0.0000    0.6345   -0.0208
       10 V     10s        -0.0002    0.0008    0.0000   -0.0000   -0.0024    0.1591   -0.0004   -0.0000    0.2884    0.0016
       11 V      2px        0.0016    0.3391   -0.0043    0.0000    0.9376   -0.0000    0.0000   -0.0000    0.0001   -0.0000
       12 V      3px       -0.0004    0.0183    0.0000    0.0000   -0.0196   -0.0019   -0.0000   -0.0000   -0.0012   -0.0021
       13 V      4px        0.0001   -0.0051   -0.0000   -0.0000    0.0046    0.0514    0.0001    0.0000   -0.1375    0.0623
       14 V      5px       -0.0004    0.0156    0.0000   -0.0000   -0.0131    0.0804    0.0000    0.0000   -0.1620    0.0942
       15 V      6px        0.0003   -0.0100   -0.0000   -0.0000    0.0080    0.2307   -0.0000   -0.0000   -0.3306    0.2396
       16 V      7px       -0.0005    0.0117    0.0000   -0.0000   -0.0093    0.2516   -0.0002   -0.0000   -0.2280    0.2331
       17 V      8px        0.0004   -0.0066   -0.0000   -0.0000    0.0058    0.3941   -0.0006   -0.0000   -0.2226    0.3427
       18 V      9px       -0.0004    0.0046    0.0000    0.0000   -0.0044    0.2664   -0.0005   -0.0000   -0.0767    0.2143
       19 V     10px        0.0005   -0.0028   -0.0000    0.0000    0.0032    0.0856   -0.0002   -0.0000   -0.0059    0.0618
       20 V      2py        0.0000   -0.0000    0.0000    0.9984   -0.0000    0.0000    0.0000   -0.0001    0.0000    0.0000
       21 V      3py        0.0000    0.0000   -0.0000   -0.0101   -0.0000   -0.0000    0.0000   -0.0007    0.0000    0.0000
       22 V      4py        0.0000    0.0000    0.0000    0.0021   -0.0000   -0.0000   -0.0000    0.1149    0.0000   -0.0000
       23 V      5py       -0.0000   -0.0000   -0.0000   -0.0052    0.0000    0.0000   -0.0000    0.1628    0.0000   -0.0000
       24 V      6py        0.0000    0.0000    0.0000    0.0028    0.0000   -0.0000   -0.0000    0.4369   -0.0000   -0.0000
       25 V      7py        0.0000   -0.0000   -0.0000   -0.0028    0.0000    0.0000   -0.0000    0.4366   -0.0000    0.0000
       26 V      8py        0.0000    0.0000    0.0000    0.0016    0.0000   -0.0000   -0.0000    0.6243   -0.0000    0.0000
       27 V      9py        0.0000   -0.0000   -0.0000   -0.0013   -0.0000    0.0000   -0.0000    0.3779   -0.0000    0.0000
       28 V     10py        0.0000    0.0000    0.0000    0.0014    0.0000   -0.0000   -0.0000    0.1067   -0.0000    0.0000
       29 V      2pz        0.0000    0.0009    0.9984   -0.0000    0.0043   -0.0000   -0.0001   -0.0000   -0.0000   -0.0000
       30 V      3pz       -0.0000    0.0000   -0.0100    0.0000   -0.0001    0.0000   -0.0007   -0.0000    0.0001    0.0000
       31 V      4pz        0.0000   -0.0000    0.0021   -0.0000    0.0000    0.0001    0.1149    0.0000   -0.0009   -0.0011
       32 V      5pz       -0.0000    0.0000   -0.0052    0.0000   -0.0001    0.0000    0.1628    0.0000   -0.0009   -0.0010
       33 V      6pz        0.0000   -0.0000    0.0028   -0.0000    0.0000    0.0002    0.4369    0.0000   -0.0011   -0.0013
       34 V      7pz       -0.0000    0.0000   -0.0028    0.0000   -0.0000    0.0002    0.4367    0.0000    0.0002   -0.0001
       35 V      8pz        0.0000   -0.0000    0.0016   -0.0000    0.0000    0.0003    0.6243    0.0000    0.0018    0.0013
       36 V      9pz       -0.0000    0.0000   -0.0013    0.0000   -0.0000    0.0002    0.3779    0.0000    0.0020    0.0015
       37 V     10pz        0.0000   -0.0000    0.0014   -0.0000    0.0000    0.0001    0.1067    0.0000    0.0008    0.0006
       38 V      3d2-       0.0000    0.0000    0.0000    0.0280    0.0000   -0.0000   -0.0000    0.0052    0.0000    0.0000
       39 V      4d2-      -0.0000   -0.0000   -0.0000   -0.0248   -0.0000    0.0000   -0.0000    0.0367   -0.0000    0.0000
       40 V      5d2-       0.0000    0.0000    0.0000    0.0239    0.0000   -0.0000   -0.0000    0.0754    0.0000    0.0000
       41 V      6d2-       0.0000   -0.0000   -0.0000   -0.0271   -0.0000   -0.0000   -0.0000    0.0821    0.0000    0.0000
       42 V      7d2-      -0.0000    0.0000    0.0000    0.0179    0.0000    0.0000   -0.0000    0.0952   -0.0000    0.0000
       43 V      8d2-       0.0000    0.0000   -0.0000   -0.0078   -0.0000   -0.0000   -0.0000    0.0868    0.0000    0.0000
       44 V      9d2-      -0.0000   -0.0000    0.0000    0.0027    0.0000    0.0000   -0.0000    0.0636    0.0000    0.0000
       45 V     10d2-      -0.0000   -0.0000   -0.0000   -0.0013   -0.0000    0.0000   -0.0000    0.0158   -0.0000    0.0000
       46 V      3d1-      -0.0000   -0.0000    0.0000   -0.0001    0.0000    0.0000    0.0000   -0.0006    0.0000   -0.0000
       47 V      4d1-       0.0000   -0.0000    0.0000    0.0001   -0.0000    0.0000    0.0000   -0.0005    0.0000   -0.0000
       48 V      5d1-      -0.0000    0.0000   -0.0000   -0.0001    0.0000    0.0000   -0.0000    0.0006   -0.0000   -0.0000
       49 V      6d1-       0.0000   -0.0000    0.0000    0.0000   -0.0000    0.0000    0.0000   -0.0002    0.0000   -0.0000
       50 V      7d1-      -0.0000    0.0000    0.0000    0.0001    0.0000    0.0000    0.0000   -0.0013    0.0000   -0.0000
       51 V      8d1-       0.0000   -0.0000    0.0000   -0.0001   -0.0000    0.0000    0.0000   -0.0011    0.0000   -0.0000
       52 V      9d1-      -0.0000    0.0000   -0.0000    0.0000    0.0000    0.0000   -0.0000    0.0003   -0.0000   -0.0000
       53 V     10d1-       0.0000    0.0000   -0.0000    0.0000   -0.0000    0.0000   -0.0000    0.0003   -0.0000   -0.0000
       54 V      3d0        0.0000   -0.0038    0.0003   -0.0000   -0.0173   -0.0004    0.0006    0.0000   -0.0010   -0.0099
       55 V      4d0       -0.0000    0.0034   -0.0003    0.0000    0.0153   -0.0074    0.0008    0.0000   -0.0158   -0.0626
       56 V      5d0        0.0000   -0.0033    0.0003   -0.0000   -0.0148   -0.0165    0.0001    0.0000   -0.0310   -0.1188
       57 V      6d0       -0.0000    0.0035   -0.0002    0.0000    0.0167   -0.0195    0.0008    0.0000   -0.0298   -0.1203
       58 V      7d0        0.0000   -0.0021    0.0001   -0.0000   -0.0108   -0.0243    0.0019    0.0000   -0.0327   -0.1361
       59 V      8d0       -0.0000    0.0008    0.0000    0.0000    0.0045   -0.0229    0.0017    0.0000   -0.0269   -0.1215
       60 V      9d0        0.0000   -0.0003    0.0000   -0.0000   -0.0014   -0.0165    0.0003    0.0000   -0.0167   -0.0862
       61 V     10d0       -0.0000    0.0003   -0.0000   -0.0000    0.0007   -0.0041   -0.0001   -0.0000   -0.0034   -0.0204
       62 V      3d1+      -0.0000   -0.0000    0.0281   -0.0000    0.0003    0.0000    0.0052    0.0000   -0.0001    0.0001
       63 V      4d1+       0.0000    0.0000   -0.0248    0.0000   -0.0002    0.0000    0.0367    0.0000   -0.0007    0.0007
       64 V      5d1+      -0.0000   -0.0000    0.0239   -0.0000    0.0002    0.0000    0.0754    0.0000   -0.0013    0.0013
       65 V      6d1+       0.0000   -0.0000   -0.0271    0.0000   -0.0003    0.0001    0.0821    0.0000   -0.0012    0.0013
       66 V      7d1+      -0.0000    0.0000    0.0179   -0.0000    0.0002    0.0001    0.0953    0.0000   -0.0013    0.0015
       67 V      8d1+       0.0000   -0.0000   -0.0078    0.0000   -0.0001    0.0001    0.0868    0.0000   -0.0011    0.0013
       68 V      9d1+      -0.0000   -0.0000    0.0027   -0.0000    0.0000    0.0001    0.0636    0.0000   -0.0007    0.0009
       69 V     10d1+       0.0000   -0.0000   -0.0013    0.0000   -0.0000    0.0000    0.0158    0.0000   -0.0002    0.0002
       70 V      3d2+      -0.0000    0.0066   -0.0001   -0.0000    0.0300    0.0006    0.0003    0.0000    0.0017    0.0179
       71 V      4d2+       0.0000   -0.0059    0.0000   -0.0000   -0.0266    0.0127    0.0003    0.0000    0.0274    0.1126
       72 V      5d2+      -0.0000    0.0057   -0.0000    0.0000    0.0257    0.0286   -0.0002   -0.0000    0.0537    0.2134
       73 V      6d2+       0.0000   -0.0062    0.0000   -0.0000   -0.0291    0.0337    0.0002    0.0000    0.0517    0.2156
       74 V      7d2+      -0.0000    0.0037   -0.0001    0.0000    0.0188    0.0421    0.0008    0.0000    0.0567    0.2437
       75 V      8d2+       0.0000   -0.0014    0.0001   -0.0000   -0.0078    0.0396    0.0006    0.0000    0.0467    0.2171
       76 V      9d2+      -0.0000    0.0005   -0.0000   -0.0000    0.0025    0.0287   -0.0001   -0.0000    0.0290    0.1538
       77 V     10d2+       0.0000   -0.0005   -0.0000   -0.0000   -0.0012    0.0071   -0.0001   -0.0000    0.0060    0.0363
       78 V      4f3-      -0.0000   -0.0000   -0.0000    0.0007    0.0000    0.0000    0.0000   -0.0007   -0.0000    0.0000
       79 V      5f3-      -0.0000   -0.0000   -0.0000   -0.0008   -0.0000    0.0000   -0.0000    0.0013   -0.0000    0.0000
       80 V      6f3-       0.0000    0.0000    0.0000    0.0007   -0.0000   -0.0000   -0.0000    0.0039    0.0000    0.0000
       81 V      7f3-      -0.0000   -0.0000    0.0000   -0.0002   -0.0000   -0.0000   -0.0000    0.0037    0.0000    0.0000
       82 V      8f3-       0.0000    0.0000   -0.0000   -0.0002    0.0000    0.0000    0.0000   -0.0016    0.0000    0.0000
       83 V      9f3-      -0.0000   -0.0000   -0.0000    0.0003    0.0000    0.0000    0.0000   -0.0066    0.0000    0.0000
       84 V      4f2-       0.0000   -0.0000    0.0000   -0.0007   -0.0000    0.0000    0.0000   -0.0000   -0.0000   -0.0000
       85 V      5f2-      -0.0000   -0.0000    0.0000    0.0007    0.0000   -0.0000    0.0000   -0.0003    0.0000   -0.0000
       86 V      6f2-       0.0000    0.0000   -0.0000   -0.0006   -0.0000    0.0000    0.0000   -0.0003   -0.0000   -0.0000
       87 V      7f2-      -0.0000   -0.0000    0.0000    0.0003    0.0000    0.0000    0.0000   -0.0008    0.0000   -0.0000
       88 V      8f2-       0.0000    0.0000    0.0000   -0.0001   -0.0000    0.0000    0.0000   -0.0007    0.0000   -0.0000
       89 V      9f2-      -0.0000   -0.0000    0.0000   -0.0000   -0.0000    0.0000    0.0000   -0.0006    0.0000   -0.0000
       90 V      4f1-       0.0000    0.0000   -0.0000   -0.0002    0.0000   -0.0000   -0.0000    0.0002    0.0000    0.0000
       91 V      5f1-       0.0000    0.0000    0.0000    0.0002   -0.0000   -0.0000    0.0000   -0.0003    0.0000    0.0000
       92 V      6f1-      -0.0000   -0.0000    0.0000   -0.0002   -0.0000   -0.0000    0.0000   -0.0010    0.0000    0.0000
       93 V      7f1-       0.0000    0.0000    0.0000    0.0001   -0.0000   -0.0000    0.0000   -0.0010    0.0000    0.0000
       94 V      8f1-      -0.0000   -0.0000   -0.0000    0.0001    0.0000   -0.0000   -0.0000    0.0004    0.0000    0.0000
       95 V      9f1-       0.0000    0.0000   -0.0000   -0.0001    0.0000   -0.0000   -0.0000    0.0017    0.0000    0.0000
       96 V      4f0        0.0000    0.0001   -0.0005   -0.0000    0.0004    0.0001    0.0004    0.0000    0.0012    0.0010
       97 V      5f0        0.0000   -0.0002    0.0005   -0.0000   -0.0004    0.0007   -0.0008   -0.0000    0.0036    0.0048
       98 V      6f0       -0.0000    0.0002   -0.0005    0.0000    0.0003   -0.0001   -0.0024   -0.0000    0.0014    0.0077
       99 V      7f0       -0.0000   -0.0001    0.0002   -0.0000   -0.0002   -0.0007   -0.0024   -0.0000    0.0003    0.0109
      100 V      8f0        0.0000    0.0000    0.0001   -0.0000    0.0001    0.0004    0.0010    0.0000    0.0050    0.0136
      101 V      9f0        0.0000    0.0000   -0.0002    0.0000    0.0000    0.0015    0.0042    0.0000    0.0102    0.0174
      102 V      4f1+      -0.0000   -0.0004    0.0005   -0.0000   -0.0000    0.0002    0.0000    0.0000   -0.0041   -0.0009
      103 V      5f1+       0.0000    0.0004   -0.0005    0.0000   -0.0001   -0.0015    0.0003    0.0000   -0.0176   -0.0097
      104 V      6f1+      -0.0000   -0.0005    0.0004   -0.0000    0.0002   -0.0039    0.0005    0.0000   -0.0301   -0.0214
      105 V      7f1+       0.0000    0.0004   -0.0002    0.0000   -0.0004   -0.0052    0.0009    0.0000   -0.0453   -0.0283
      106 V      8f1+      -0.0000   -0.0003    0.0000   -0.0000    0.0006   -0.0032    0.0010    0.0000   -0.0533   -0.0242
      107 V      9f1+       0.0000    0.0001    0.0000   -0.0000   -0.0003   -0.0016    0.0010    0.0000   -0.0645   -0.0241
      108 V      4f2+       0.0000    0.0001    0.0006   -0.0000    0.0003    0.0001   -0.0006   -0.0000    0.0009    0.0009
      109 V      5f2+       0.0000   -0.0001   -0.0007    0.0000   -0.0003    0.0005    0.0011    0.0000    0.0027    0.0044
      110 V      6f2+       0.0000    0.0002    0.0006   -0.0000    0.0002   -0.0000    0.0032    0.0000    0.0009    0.0074
      111 V      7f2+      -0.0000   -0.0001   -0.0002    0.0000   -0.0001   -0.0005    0.0031    0.0000   -0.0001    0.0107
      112 V      8f2+       0.0000    0.0000   -0.0002    0.0000    0.0000    0.0003   -0.0013   -0.0000    0.0035    0.0129
      113 V      9f2+       0.0000    0.0000    0.0002   -0.0000    0.0000    0.0012   -0.0054   -0.0000    0.0074    0.0162
      114 V      4f3+       0.0000    0.0005    0.0004    0.0000    0.0001   -0.0003    0.0000    0.0000    0.0053    0.0014
      115 V      5f3+      -0.0000   -0.0006   -0.0004    0.0000    0.0000    0.0019    0.0002    0.0000    0.0228    0.0135
      116 V      6f3+       0.0000    0.0007    0.0004   -0.0000   -0.0002    0.0050    0.0003    0.0000    0.0388    0.0296
      117 V      7f3+      -0.0000   -0.0006   -0.0002    0.0000    0.0005    0.0067    0.0006    0.0000    0.0585    0.0394
      118 V      8f3+       0.0000    0.0004    0.0000    0.0000   -0.0007    0.0042    0.0006    0.0000    0.0688    0.0344
      119 V      9f3+      -0.0000   -0.0001    0.0000    0.0000    0.0004    0.0021    0.0005    0.0000    0.0832    0.0347
      120 V      5g4-       0.0000    0.0000   -0.0000    0.0006   -0.0000    0.0000   -0.0000    0.0005   -0.0000   -0.0000
      121 V      6g4-      -0.0000   -0.0000   -0.0000   -0.0006   -0.0000    0.0000   -0.0000    0.0007   -0.0000   -0.0000
      122 V      7g4-       0.0000    0.0000    0.0000    0.0006   -0.0000   -0.0000    0.0000   -0.0005    0.0000    0.0000
      123 V      8g4-      -0.0000   -0.0000   -0.0000   -0.0003    0.0000   -0.0000    0.0000   -0.0010   -0.0000    0.0000
      124 V      5g3-      -0.0000   -0.0000   -0.0000   -0.0009    0.0000    0.0000   -0.0000    0.0004   -0.0000   -0.0000
      125 V      6g3-       0.0000   -0.0000    0.0000    0.0006    0.0000    0.0000   -0.0000    0.0005   -0.0000   -0.0000
      126 V      7g3-      -0.0000    0.0000   -0.0000   -0.0005   -0.0000   -0.0000    0.0000   -0.0004    0.0000   -0.0000
      127 V      8g3-       0.0000    0.0000    0.0000    0.0002   -0.0000   -0.0000    0.0000   -0.0012    0.0000   -0.0000
      128 V      5g2-       0.0000    0.0000   -0.0000   -0.0002   -0.0000   -0.0000    0.0000   -0.0002    0.0000    0.0000
      129 V      6g2-      -0.0000    0.0000   -0.0000    0.0002   -0.0000    0.0000    0.0000   -0.0003    0.0000   -0.0000
      130 V      7g2-       0.0000   -0.0000    0.0000   -0.0002   -0.0000   -0.0000   -0.0000    0.0002   -0.0000   -0.0000
      131 V      8g2-      -0.0000   -0.0000    0.0000    0.0001    0.0000    0.0000   -0.0000    0.0004   -0.0000   -0.0000
      132 V      5g1-      -0.0000   -0.0000   -0.0000    0.0002    0.0000    0.0000   -0.0000    0.0003   -0.0000   -0.0000
      133 V      6g1-       0.0000   -0.0000   -0.0000   -0.0002    0.0000    0.0000   -0.0000    0.0004   -0.0000    0.0000
      134 V      7g1-      -0.0000    0.0000    0.0000    0.0002   -0.0000   -0.0000    0.0000   -0.0005    0.0000    0.0000
      135 V      8g1-       0.0000    0.0000   -0.0000   -0.0001   -0.0000   -0.0000    0.0000   -0.0013    0.0000    0.0000
      136 V      5g0        0.0000   -0.0001   -0.0006    0.0000    0.0000    0.0001    0.0005    0.0000    0.0005    0.0001
      137 V      6g0       -0.0000    0.0001    0.0004   -0.0000   -0.0001    0.0003    0.0006    0.0000   -0.0001    0.0008
      138 V      7g0       -0.0000   -0.0001   -0.0003    0.0000    0.0002    0.0004   -0.0006   -0.0000    0.0002    0.0004
      139 V      8g0        0.0000    0.0001    0.0001   -0.0000   -0.0001    0.0005   -0.0016   -0.0000    0.0012   -0.0006
      140 V      5g1+       0.0000    0.0005   -0.0005    0.0000    0.0003   -0.0002   -0.0004   -0.0000   -0.0005    0.0001
      141 V      6g1+      -0.0000   -0.0005    0.0005   -0.0000   -0.0003    0.0002   -0.0006   -0.0000    0.0003    0.0003
      142 V      7g1+       0.0000    0.0004   -0.0005    0.0000    0.0002   -0.0000    0.0004    0.0000    0.0002    0.0001
      143 V      8g1+      -0.0000   -0.0002    0.0003   -0.0000   -0.0001   -0.0003    0.0008    0.0000   -0.0003   -0.0003
      144 V      5g2+      -0.0000    0.0002    0.0003   -0.0000   -0.0001   -0.0002    0.0001    0.0000   -0.0007   -0.0001
      145 V      6g2+       0.0000   -0.0002   -0.0003    0.0000    0.0002   -0.0005    0.0002    0.0000    0.0001   -0.0012
      146 V      7g2+       0.0000    0.0002    0.0003   -0.0000   -0.0003   -0.0006   -0.0003   -0.0000   -0.0003   -0.0007
      147 V      8g2+      -0.0000   -0.0001   -0.0001    0.0000    0.0002   -0.0007   -0.0007   -0.0000   -0.0017    0.0009
      148 V      5g3+       0.0000    0.0006    0.0004   -0.0000    0.0004   -0.0002    0.0003    0.0000   -0.0005    0.0001
      149 V      6g3+      -0.0000   -0.0005   -0.0005    0.0000   -0.0003    0.0002    0.0005    0.0000    0.0004    0.0003
      150 V      7g3+       0.0000    0.0005    0.0005   -0.0000    0.0003   -0.0000   -0.0004   -0.0000    0.0003    0.0002
      151 V      8g3+      -0.0000   -0.0002   -0.0002    0.0000   -0.0001   -0.0004   -0.0007   -0.0000   -0.0004   -0.0002
      152 V      5g4+       0.0000   -0.0002    0.0006   -0.0000    0.0001    0.0002   -0.0001   -0.0000    0.0009    0.0002
      153 V      6g4+      -0.0000    0.0002   -0.0004    0.0000   -0.0003    0.0006   -0.0001   -0.0000   -0.0001    0.0016
      154 V      7g4+      -0.0000   -0.0002    0.0003   -0.0000    0.0004    0.0007    0.0001    0.0000    0.0004    0.0009
      155 V      8g4+       0.0000    0.0001   -0.0001    0.0000   -0.0003    0.0009    0.0003    0.0000    0.0023   -0.0011
      156 V      6h5-       0.0000    0.0000    0.0000    0.0002    0.0000   -0.0000    0.0000   -0.0002    0.0000    0.0000
      157 V      7h5-      -0.0000   -0.0000   -0.0000   -0.0001   -0.0000   -0.0000    0.0000   -0.0012   -0.0000   -0.0000
      158 V      6h4-      -0.0000   -0.0000   -0.0000   -0.0003   -0.0000    0.0000   -0.0000    0.0001   -0.0000   -0.0000
      159 V      7h4-       0.0000    0.0000    0.0000    0.0001   -0.0000    0.0000    0.0000   -0.0001   -0.0000    0.0000
      160 V      6h3-      -0.0000    0.0000    0.0000   -0.0001    0.0000    0.0000   -0.0000    0.0002   -0.0000   -0.0000
      161 V      7h3-      -0.0000   -0.0000   -0.0000    0.0000   -0.0000    0.0000   -0.0000    0.0009   -0.0000    0.0000
      162 V      6h2-      -0.0000   -0.0000    0.0000    0.0003    0.0000    0.0000    0.0000   -0.0000    0.0000    0.0000
      163 V      7h2-      -0.0000   -0.0000   -0.0000   -0.0002    0.0000    0.0000    0.0000   -0.0001   -0.0000   -0.0000
      164 V      6h1-      -0.0000    0.0000   -0.0000   -0.0000    0.0000   -0.0000   -0.0000    0.0001   -0.0000   -0.0000
      165 V      7h1-      -0.0000    0.0000   -0.0000    0.0000   -0.0000    0.0000   -0.0000    0.0005   -0.0000    0.0000
      166 V      6h0       -0.0000   -0.0003    0.0001   -0.0000   -0.0002    0.0002   -0.0002   -0.0000    0.0004    0.0000
      167 V      7h0        0.0000    0.0002   -0.0001    0.0000    0.0001    0.0004   -0.0012   -0.0000    0.0012    0.0007
      168 V      6h1+      -0.0000   -0.0002   -0.0002    0.0000   -0.0002    0.0001    0.0000    0.0000    0.0000   -0.0001
      169 V      7h1+       0.0000    0.0001    0.0001   -0.0000    0.0001   -0.0009   -0.0001   -0.0000   -0.0014   -0.0010
      170 V      6h2+       0.0000    0.0002   -0.0002    0.0000    0.0001   -0.0001    0.0000    0.0000   -0.0003   -0.0000
      171 V      7h2+      -0.0000   -0.0001    0.0001    0.0000   -0.0001   -0.0002    0.0004    0.0000   -0.0008   -0.0005
      172 V      6h3+       0.0000    0.0002    0.0002   -0.0000    0.0002   -0.0001   -0.0000   -0.0000   -0.0000    0.0001
      173 V      7h3+      -0.0000   -0.0001   -0.0001    0.0000   -0.0001    0.0009   -0.0001   -0.0000    0.0015    0.0010
      174 V      6h4+       0.0000    0.0005    0.0001    0.0000    0.0004   -0.0003   -0.0002   -0.0000   -0.0007    0.0000
      175 V      7h4+      -0.0000   -0.0003   -0.0001    0.0000   -0.0002   -0.0005   -0.0009   -0.0000   -0.0018   -0.0012
      176 V      6h5+      -0.0000   -0.0002    0.0003   -0.0000   -0.0002    0.0002   -0.0000   -0.0000    0.0000   -0.0001
      177 V      7h5+       0.0000    0.0001   -0.0002    0.0000    0.0001   -0.0012   -0.0000   -0.0000   -0.0020   -0.0014

          Orbital           11        12    
          Energy           10.3229   10.3230
          Occ. No.          0.0000    0.0000

        1 V      1s        -0.0000    0.0000
        2 V      2s        -0.0000   -0.0000
        3 V      3s         0.0000    0.0000
        4 V      4s         0.0000    0.0017
        5 V      5s         0.0000    0.0048
        6 V      6s         0.0000    0.0022
        7 V      7s         0.0000    0.0020
        8 V      8s         0.0000    0.0006
        9 V      9s         0.0000    0.0001
       10 V     10s        -0.0000   -0.0001
       11 V      2px       -0.0000   -0.0000
       12 V      3px        0.0000    0.0001
       13 V      4px       -0.0000   -0.0005
       14 V      5px       -0.0000   -0.0008
       15 V      6px       -0.0000   -0.0021
       16 V      7px       -0.0000   -0.0022
       17 V      8px       -0.0000   -0.0032
       18 V      9px       -0.0000   -0.0021
       19 V     10px       -0.0000   -0.0006
       20 V      2py        0.0000   -0.0000
       21 V      3py       -0.0006    0.0000
       22 V      4py        0.0086   -0.0000
       23 V      5py        0.0067   -0.0000
       24 V      6py        0.0119   -0.0000
       25 V      7py        0.0066   -0.0000
       26 V      8py       -0.0026    0.0000
       27 V      9py       -0.0099    0.0000
       28 V     10py       -0.0051    0.0000
       29 V      2pz       -0.0000   -0.0000
       30 V      3pz        0.0000    0.0006
       31 V      4pz       -0.0000   -0.0053
       32 V      5pz       -0.0000   -0.0037
       33 V      6pz       -0.0000   -0.0081
       34 V      7pz       -0.0000   -0.0069
       35 V      8pz       -0.0000   -0.0022
       36 V      9pz        0.0000    0.0048
       37 V     10pz        0.0000    0.0031
       38 V      3d2-      -0.0012    0.0000
       39 V      4d2-      -0.0035    0.0000
       40 V      5d2-      -0.0076    0.0000
       41 V      6d2-      -0.0075    0.0000
       42 V      7d2-      -0.0074    0.0000
       43 V      8d2-      -0.0063    0.0000
       44 V      9d2-      -0.0047    0.0000
       45 V     10d2-      -0.0012    0.0000
       46 V      3d1-       0.0398   -0.0000
       47 V      4d1-       0.2372   -0.0000
       48 V      5d1-       0.4319   -0.0000
       49 V      6d1-       0.4136   -0.0000
       50 V      7d1-       0.4478   -0.0000
       51 V      8d1-       0.3765   -0.0000
       52 V      9d1-       0.2530   -0.0000
       53 V     10d1-       0.0575   -0.0000
       54 V      3d0        0.0000    0.0346
       55 V      4d0        0.0000    0.2060
       56 V      5d0        0.0000    0.3750
       57 V      6d0        0.0000    0.3593
       58 V      7d0        0.0000    0.3891
       59 V      8d0        0.0000    0.3272
       60 V      9d0        0.0000    0.2199
       61 V     10d0        0.0000    0.0500
       62 V      3d1+       0.0000    0.0016
       63 V      4d1+       0.0000    0.0053
       64 V      5d1+       0.0000    0.0108
       65 V      6d1+       0.0000    0.0105
       66 V      7d1+       0.0000    0.0105
       67 V      8d1+       0.0000    0.0088
       68 V      9d1+       0.0000    0.0063
       69 V     10d1+       0.0000    0.0015
       70 V      3d2+       0.0000    0.0197
       71 V      4d2+       0.0000    0.1176
       72 V      5d2+       0.0000    0.2139
       73 V      6d2+       0.0000    0.2048
       74 V      7d2+       0.0000    0.2217
       75 V      8d2+       0.0000    0.1863
       76 V      9d2+       0.0000    0.1251
       77 V     10d2+       0.0000    0.0284
       78 V      4f3-      -0.0016    0.0000
       79 V      5f3-      -0.0044    0.0000
       80 V      6f3-      -0.0071    0.0000
       81 V      7f3-      -0.0099    0.0000
       82 V      8f3-      -0.0121    0.0000
       83 V      9f3-      -0.0155    0.0000
       84 V      4f2-       0.0152   -0.0000
       85 V      5f2-       0.0707   -0.0000
       86 V      6f2-       0.1360   -0.0000
       87 V      7f2-       0.2019   -0.0000
       88 V      8f2-       0.2169   -0.0000
       89 V      9f2-       0.2487   -0.0000
       90 V      4f1-       0.0006   -0.0000
       91 V      5f1-       0.0024   -0.0000
       92 V      6f1-       0.0045   -0.0000
       93 V      7f1-       0.0065   -0.0000
       94 V      8f1-       0.0073   -0.0000
       95 V      9f1-       0.0087   -0.0000
       96 V      4f0       -0.0000   -0.0009
       97 V      5f0       -0.0000   -0.0019
       98 V      6f0       -0.0000   -0.0029
       99 V      7f0       -0.0000   -0.0038
      100 V      8f0       -0.0000   -0.0051
      101 V      9f0       -0.0000   -0.0071
      102 V      4f1+       0.0000    0.0120
      103 V      5f1+       0.0000    0.0560
      104 V      6f1+       0.0000    0.1078
      105 V      7f1+       0.0000    0.1600
      106 V      8f1+       0.0000    0.1718
      107 V      9f1+       0.0000    0.1969
      108 V      4f2+       0.0000    0.0015
      109 V      5f2+       0.0000    0.0045
      110 V      6f2+       0.0000    0.0077
      111 V      7f2+       0.0000    0.0109
      112 V      8f2+       0.0000    0.0130
      113 V      9f2+       0.0000    0.0163
      114 V      4f3+       0.0000    0.0093
      115 V      5f3+       0.0000    0.0432
      116 V      6f3+       0.0000    0.0830
      117 V      7f3+       0.0000    0.1233
      118 V      8f3+       0.0000    0.1325
      119 V      9f3+       0.0000    0.1520
      120 V      5g4-      -0.0002    0.0000
      121 V      6g4-      -0.0003    0.0000
      122 V      7g4-      -0.0004    0.0000
      123 V      8g4-       0.0003   -0.0000
      124 V      5g3-       0.0012   -0.0000
      125 V      6g3-       0.0026   -0.0000
      126 V      7g3-       0.0044   -0.0000
      127 V      8g3-       0.0056   -0.0000
      128 V      5g2-       0.0000   -0.0000
      129 V      6g2-       0.0002   -0.0000
      130 V      7g2-       0.0002   -0.0000
      131 V      8g2-      -0.0001    0.0000
      132 V      5g1-      -0.0015    0.0000
      133 V      6g1-      -0.0026    0.0000
      134 V      7g1-      -0.0017    0.0000
      135 V      8g1-      -0.0003    0.0000
      136 V      5g0       -0.0000   -0.0002
      137 V      6g0       -0.0000   -0.0008
      138 V      7g0       -0.0000   -0.0026
      139 V      8g0       -0.0000   -0.0042
      140 V      5g1+      -0.0000   -0.0002
      141 V      6g1+      -0.0000   -0.0003
      142 V      7g1+      -0.0000   -0.0003
      143 V      8g1+       0.0000    0.0003
      144 V      5g2+       0.0000    0.0015
      145 V      6g2+       0.0000    0.0027
      146 V      7g2+       0.0000    0.0023
      147 V      8g2+       0.0000    0.0015
      148 V      5g3+       0.0000    0.0001
      149 V      6g3+       0.0000    0.0003
      150 V      7g3+       0.0000    0.0003
      151 V      8g3+      -0.0000   -0.0002
      152 V      5g4+       0.0000    0.0012
      153 V      6g4+       0.0000    0.0024
      154 V      7g4+       0.0000    0.0031
      155 V      8g4+       0.0000    0.0033
      156 V      6h5-       0.0002   -0.0000
      157 V      7h5-       0.0008   -0.0000
      158 V      6h4-       0.0006   -0.0000
      159 V      7h4-      -0.0020    0.0000
      160 V      6h3-       0.0000   -0.0000
      161 V      7h3-      -0.0018    0.0000
      162 V      6h2-      -0.0005    0.0000
      163 V      7h2-       0.0016   -0.0000
      164 V      6h1-       0.0002   -0.0000
      165 V      7h1-      -0.0028    0.0000
      166 V      6h0        0.0000    0.0000
      167 V      7h0       -0.0000   -0.0029
      168 V      6h1+      -0.0000   -0.0004
      169 V      7h1+       0.0000    0.0015
      170 V      6h2+       0.0000    0.0003
      171 V      7h2+      -0.0000   -0.0015
      172 V      6h3+       0.0000    0.0004
      173 V      7h3+      -0.0000   -0.0011
      174 V      6h4+      -0.0000   -0.0001
      175 V      7h4+      -0.0000   -0.0013
      176 V      6h5+       0.0000    0.0006
      177 V      7h5+      -0.0000   -0.0018
--


++    Molecular charges:
      ------------------

      Mulliken charges per centre and basis function type
      ---------------------------------------------------

                V     
      1s       2.0000
      2s       1.9965
      2px      1.9881
      2pz      1.9935
      2py      1.9935
      3s       0.0014
      3px      0.0014
      3pz      0.0002
      3py      0.0002
      4s       0.0661
      3d2+     0.0019
      3d1+     0.0016
      3d0      0.0006
      3d1-     0.0000
      3d2-     0.0016
      4px      0.0432
      4pz      0.0264
      4py      0.0264
      5s       0.5072
      4d2+     0.0033
      4d1+     0.0039
      4d0      0.0011
      4d1-     0.0000
      4d2-     0.0039
      5px      0.0662
      5pz      0.0531
      5py      0.0531
      6s       0.1541
      4f3+     0.0001
      4f2+     0.0000
      4f1+     0.0000
      4f0      0.0000
      4f1-     0.0000
      4f2-     0.0000
      4f3-     0.0000
      5d2+     0.0088
      5d1+     0.0125
      5d0      0.0029
      5d1-     0.0000
      5d2-     0.0125
      6px      0.3254
      6pz      0.3817
      6py      0.3817
      7s       0.3225
      5f3+     0.0010
      5f2+     0.0000
      5f1+     0.0006
      5f0      0.0000
      5f1-     0.0000
      5f2-     0.0000
      5f3-     0.0000
      6d2+     0.0094
      6d1+     0.0150
      6d0      0.0031
      6d1-     0.0000
      6d2-     0.0149
      7px      0.2310
      7pz      0.3813
      7py      0.3813
      5g4+     0.0000
      5g3+     0.0000
      5g2+     0.0000
      5g1+     0.0000
      5g0      0.0000
      5g1-     0.0000
      5g2-     0.0000
      5g3-     0.0000
      5g4-     0.0000
      6f3+     0.0031
      6f2+     0.0000
      6f1+     0.0018
      6f0      0.0000
      6f1-     0.0000
      6f2-     0.0000
      6f3-     0.0000
      6g4+     0.0000
      6g3+     0.0000
      6g2+     0.0000
      6g1+     0.0000
      6g0      0.0000
      6g1-     0.0000
      6g2-     0.0000
      6g3-     0.0000
      6g4-     0.0000
      6h5+     0.0000
      6h4+     0.0000
      6h3+     0.0000
      6h2+     0.0000
      6h1+     0.0000
      6h0      0.0000
      6h1-     0.0000
      6h2-     0.0000
      6h3-     0.0000
      6h4-     0.0000
      6h5-     0.0000
      7d2+     0.0107
      7d1+     0.0188
      7d0      0.0036
      7d1-     0.0000
      7d2-     0.0188
      7f3+     0.0069
      7f2+     0.0000
      7f1+     0.0042
      7f0      0.0000
      7f1-     0.0000
      7f2-     0.0000
      7f3-     0.0000
      7g4+     0.0000
      7g3+     0.0000
      7g2+     0.0000
      7g1+     0.0000
      7g0      0.0000
      7g1-     0.0000
      7g2-     0.0000
      7g3-     0.0000
      7g4-     0.0000
      7h5+     0.0000
      7h4+     0.0000
      7h3+     0.0000
      7h2+     0.0000
      7h1+     0.0000
      7h0      0.0000
      7h1-     0.0000
      7h2-     0.0000
      7h3-     0.0000
      7h4-     0.0000
      7h5-     0.0000
      8s       0.2478
      8px      0.4098
      8pz      0.7795
      8py      0.7795
      8d2+     0.0076
      8d1+     0.0152
      8d0      0.0025
      8d1-     0.0000
      8d2-     0.0152
      8f3+     0.0095
      8f2+     0.0000
      8f1+     0.0057
      8f0      0.0001
      8f1-     0.0000
      8f2-     0.0000
      8f3-     0.0000
      8g4+     0.0000
      8g3+     0.0000
      8g2+     0.0000
      8g1+     0.0000
      8g0      0.0000
      8g1-     0.0000
      8g2-     0.0000
      8g3-     0.0000
      8g4-     0.0000
      9s       1.1378
      9px      0.1537
      9pz      0.2857
      9py      0.2857
      9d2+     0.0033
      9d1+     0.0081
      9d0      0.0011
      9d1-     0.0000
      9d2-     0.0081
      9f3+     0.0139
      9f2+     0.0002
      9f1+     0.0083
      9f0      0.0002
      9f1-     0.0000
      9f2-     0.0000
      9f3-     0.0001
     10s       0.2169
     10px      0.0148
     10pz      0.0228
     10py      0.0228
     10d2+     0.0002
     10d1+     0.0005
     10d0      0.0001
     10d1-     0.0000
     10d2-     0.0005
      Total   18.0000

      N-E      5.0000

      Total electronic charge=   18.000000

      Total            charge=    5.000000
--

 Sorry, Molden does not know how to handle
 functions with angular momentum larger than g

++    Static properties:
      ------------------


      LoProp Charges per center


                   V     
      Nuclear     23.0000
      Electronic -18.0000

      Total        5.0000
--


++    Molecular properties:
      ---------------------

      Charge (e):
                      =    5.0000
      Dipole Moment (Debye):
      Origin of the operator (Ang)=    0.0000    0.0000    0.0000
                   X= -4.0804E+01               Y=  6.6789E-14               Z= -1.1657E-01           Total=  4.0804E+01
      Center of Charge (Ang)
                     X=   -1.69903369               Y=    0.00000000               Z=   -0.00485398
      Quadrupole Moment (Debye*Ang):
      Origin of the operator (Ang)=   -0.0000   -0.0000    0.0046
                  XX= -3.7970E+02              XY=  3.9643E-13              XZ= -9.0241E-02              YY= -4.3802E+02
                  YZ= -3.6901E-13              ZZ= -4.3801E+02
      In traceless form (Debye*Ang)
                  XX=  5.8312E+01              XY=  5.9465E-13              XZ= -1.3536E-01              YY= -2.9165E+01
                  YZ= -5.5351E-13              ZZ= -2.9147E+01
--

 Sorry, Molden does not know how to handle
 functions with angular momentum larger than g
 ###############################################################################
 ###############################################################################
 ###                                                                         ###
 ###                                                                         ###
 ###    WARNING: RunFile label nBas                                          ###
 ###    was used       62 times                                              ###
 ###                                                                         ###
 ###                                                                         ###
 ###############################################################################
 ###############################################################################
Note: The following floating-point exceptions are signalling: IEEE_UNDERFLOW_FLAG IEEE_DENORMAL
--- Stop Module: scf at Tue Mar 25 16:53:02 2025 /rc=_RC_ALL_IS_WELL_ ---
*** files: vanadium_so_cf.LprOrb vanadium_so_cf.ScfOrb xmldump
    saved to directory /home4/s4752295/Internship/Initial_simulations/Point_charge_model/1_electron/Madelung_charges_9_active_space/V
--- Module scf spent 7 seconds ---

*** symbolic link created: INPORB -> vanadium_so_cf.ScfOrb
--- Start Module: rasscf at Tue Mar 25 16:53:02 2025 ---

()()()()()()()()()()()()()()()()()()()()()()()()()()()()()()()()()()()()()()()()()()()()()()()()()()

                                              &RASSCF

                                   only a single process is used
                       available to each process: 4.1 GB of memory, 1 thread?
                                            pid: 3452175
()()()()()()()()()()()()()()()()()()()()()()()()()()()()()()()()()()()()()()()()()()()()()()()()()()


      Header of the ONEINT file:
      --------------------------
      
      Integrals generated by seward 4.2.0  , Tue Mar 25 16:52:47 2025


      OrdInt status: non-squared


      Cartesian coordinates in Angstrom:
      -----------------------------------------------------
      No.  Label        X            Y            Z        
      -----------------------------------------------------
       1   V         -0.00000000  -0.00000000   0.00463220
      -----------------------------------------------------
      Nuclear repulsion energy = -701.41753960

++    Wave function specifications:
      -----------------------------

      Number of closed shell electrons          18
      Number of electrons in active shells       1
      Max number of holes in RAS1 space          0
      Max nr of electrons in RAS3 space          0
      Number of inactive orbitals                9
      Number of active orbitals                  9
      Number of secondary orbitals             159
      Spin quantum number                      0.5
      State symmetry                             1
--

++    Orbital specifications:
      -----------------------

      Symmetry species                           1
                                                 a
      Frozen orbitals                            0
      Inactive orbitals                          9
      Active orbitals                            9
      RAS1 orbitals                              0
      RAS2 orbitals                              9
      RAS3 orbitals                              0
      Secondary orbitals                       159
      Deleted orbitals                           0
      Number of basis functions                177
--

++    CI expansion specifications:
      ----------------------------

      Number of CSFs                             9
      Number of determinants                     9
      Number of root(s) required                 9
      Root chosen for geometry opt.              9
      CI roots used                              1     2     3     4     5     6     7     8     9
      weights                                0.111 0.111 0.111 0.111 0.111 0.111 0.111 0.111 0.111
      highest root included in the CI            9
      max. size of the explicit Hamiltonian      9
--

++    Optimization specifications:
      ----------------------------

      RASSCF algorithm: Conventional
      Maximum number of macro iterations       200
      Maximum number of SX iterations          100
      Threshold for RASSCF energy            0.100E-07
      Threshold for max MO rotation          0.100E+00
      Threshold for max BLB element          0.100E-03
      Level shift parameter                  0.500E+00
      Make Quasi-Newton update
--

      The MO-coefficients are taken from the file:
      INPORB                                                                                                                          
      Title: SCF orbitals                                                                  

      Total molecular charge    4.00

      ************************************************************************************************************************
      *                                                                                                                      *
      *                                            Wave function control section                                             *
      *                                                                                                                      *
      ************************************************************************************************************************


                                         RASSCF iterations: Energy and convergence statistics
                                         ----------------------------------------------------

      Iter CI   SX   CI       RASSCF       Energy    max ROT     max BLB   max BLB  Level Ln srch  Step   QN   Walltime
          iter iter root      energy       change     param      element    value   shift minimum  type update hh:mm:ss
 Nr of preliminary CI iterations:   1
      Total energies have been shifted. Add                -1000.00 au
        1   1    4    0  -211.27206301    0.00E+00  -0.17E-01    9  10 1  0.28E-01*  0.00   0.00    SX    NO    0:00:03
        2   1    4    0  -211.27273312   -0.67E-03*  0.21E-02    9  10 1  0.34E-02*  0.00   0.00    SX    NO    0:00:01
        3   1    3    0  -211.27274149   -0.84E-05*  0.27E-03    9  10 1  0.44E-03*  0.00   0.00    SX    NO    0:00:01
        4   1    3    0  -211.27274162   -0.14E-06* -0.43E-04    9  10 1  0.56E-04   0.00   0.00    SX    NO    0:00:01
        5   1    3    0  -211.27274163   -0.26E-08  -0.18E-04    9  10 1  0.72E-05   0.00   0.95    QN   YES    0:00:01
      Convergence after  5 iterations
        6   1    3    0  -211.27274163   -0.17E-09  -0.18E-04    9  10 1 -0.25E-05   0.00   0.95    QN   YES    0:00:01

      ************************************************************************************************************************
                                                      Wave function printout:
                       occupation of active orbitals, and spin coupling of open shells (u,d: Spin up or down)
      ************************************************************************************************************************

      Note: transformation to natural orbitals
      has been made, which may change the order of the CSFs.

      printout of CI-coefficients larger than  0.05 for root  1
      energy=   -1212.011121
      conf/sym  111111111     Coeff  Weight
             1  u00000000   0.66843 0.44680
             4  000u00000   0.20565 0.04229
             6  00000u000   0.66026 0.43594
             7  000000u00  -0.19713 0.03886
             8  0000000u0  -0.18749 0.03515

      printout of CI-coefficients larger than  0.05 for root  2
      energy=   -1211.957860
      conf/sym  111111111     Coeff  Weight
             1  u00000000   0.06432 0.00414
             2  0u0000000   0.79735 0.63576
             4  000u00000   0.23344 0.05450
             7  000000u00   0.16456 0.02708
             8  0000000u0   0.52585 0.27652

      printout of CI-coefficients larger than  0.05 for root  3
      energy=   -1211.957810
      conf/sym  111111111     Coeff  Weight
             1  u00000000  -0.25477 0.06491
             3  00u000000   0.93333 0.87111
             4  000u00000   0.13354 0.01783
[...]
         7   15       2.78698582E-03  1.32981221E+04  1.78139953E-13  2.42536537E+07  2.42669518E+07
         7   17       7.71627902E-03  2.83883370E-16  6.72831391E+07  1.33872649E-13  6.72831391E+07
         8   12       2.46503224E-03  2.11276817E+03  1.98400329E-14  1.95695959E+06  1.95907236E+06
         8   14       1.15706267E-03  1.85632207E-17  9.21609046E+05  5.79875217E-14  9.21609046E+05
         8   16       2.78698582E-03  1.32981221E+04  1.78139953E-13  2.42536537E+07  2.42669518E+07
         8   18       7.71627902E-03  2.83883370E-16  6.72831391E+07  1.33872649E-13  6.72831391E+07
         9   11       1.44792376E-03  1.57001294E-16  1.04994668E+06  4.30593772E-15  1.04994668E+06
         9   13       5.26153292E-04  1.24227830E+03  2.51111733E-14  3.81177990E+05  3.82420269E+05
         9   17       1.13844255E-03  1.55732805E+04  8.01812200E-14  9.64455587E+06  9.66012915E+06
        10   12       1.44792376E-03  1.57001294E-16  1.04994668E+06  4.30593772E-15  1.04994668E+06
        10   14       5.26153292E-04  1.24227830E+03  2.51111733E-14  3.81177990E+05  3.82420269E+05
        10   18       1.13844255E-03  1.55732805E+04  8.01812200E-14  9.64455587E+06  9.66012915E+06
        11   15       2.04607410E-01  8.66562881E+08  7.58480848E-15  1.13458326E+06  8.67697465E+08
        11   17       1.25167466E-04  5.04882149E-11  5.31892197E+05  4.14230641E-16  5.31892197E+05
        12   16       2.04607410E-01  8.66562881E+08  7.58480848E-15  1.13458326E+06  8.67697465E+08
        12   18       1.25167466E-04  5.04882149E-11  5.31892197E+05  4.14230641E-16  5.31892197E+05
        13   15       9.99297163E-05  5.02401647E-11  4.23374653E+05  3.47550834E-14  4.23374653E+05
        13   17       2.04838175E-01  8.69574344E+08  1.12629194E-14  4.00328888E+04  8.69614376E+08
        14   16       9.99297163E-05  5.02401647E-11  4.23374653E+05  3.47550834E-14  4.23374653E+05
        14   18       2.04838175E-01  8.69574344E+08  1.12629194E-14  4.00328888E+04  8.69614376E+08
     -----------------------------------------------------------------------------------------------
--

++ Velocity transition strengths (SO states):
   ------------------------------------------
    for osc. strength at least    1.0000000000000001E-005

      From   To        Osc. strength     Einstein coefficients Ax, Ay, Az (sec-1)    Total A (sec-1)
     -----------------------------------------------------------------------------------------------
         1    3       4.44814043E-04  8.78753724E-21  4.05421742E+04  5.83023391E-16  4.05421742E+04
         1    5       3.68450445E-04  2.36524168E+00  6.97732491E-16  3.36422443E+04  3.36446096E+04
         1   11       6.67725110E-04  3.27445938E+04  8.60746171E-13  2.22821303E+07  2.23148749E+07
         1   13       7.29812988E-04  1.26804880E-15  2.43981419E+07  8.13559809E-13  2.43981419E+07
         1   15       3.92646896E-03  1.16798053E+04  7.22946908E-13  2.41347144E+08  2.41358824E+08
         1   17       4.22698820E-03  1.93102184E-17  2.59970840E+08  6.04948223E-13  2.59970840E+08
         2    4       4.44814043E-04  8.78753724E-21  4.05421742E+04  5.83023391E-16  4.05421742E+04
         2    6       3.68450445E-04  2.36524168E+00  6.97732491E-16  3.36422443E+04  3.36446096E+04
         2   12       6.67725110E-04  3.27445938E+04  8.60746171E-13  2.22821303E+07  2.23148749E+07
         2   14       7.29812988E-04  1.26804880E-15  2.43981419E+07  8.13559809E-13  2.43981419E+07
         2   16       3.92646896E-03  1.16798053E+04  7.22946908E-13  2.41347144E+08  2.41358824E+08
         2   18       4.22698820E-03  1.93102184E-17  2.59970840E+08  6.04948223E-13  2.59970840E+08
         3    5       2.86075511E-01  1.18222746E-22  2.25766018E+01  4.26720949E-22  2.25766018E+01
         3    7       1.64325512E-02  3.70889639E-17  3.45833399E+08  1.03007435E-11  3.45833399E+08
         3    9       1.63169446E-02  1.28912023E+03  1.03919887E-11  3.49403569E+08  3.49404858E+08
         3   11       5.09828903E-03  5.02333059E-14  1.53049911E+08  4.33144748E-13  1.53049911E+08
         3   13       5.14783056E-03  8.52815707E+05  4.48667071E-13  1.53740057E+08  1.54592872E+08
         3   15       1.80715277E-02  5.66899543E-15  1.02694836E+09  3.59727970E-11  1.02694836E+09
         3   17       1.80676615E-02  1.91713811E+05  3.58605166E-11  1.02710900E+09  1.02730072E+09
         4    6       2.86075511E-01  1.18222746E-22  2.25766018E+01  4.26720949E-22  2.25766018E+01
         4    8       1.64325512E-02  3.70889639E-17  3.45833399E+08  1.03007435E-11  3.45833399E+08
         4   10       1.63169446E-02  1.28912023E+03  1.03919887E-11  3.49403569E+08  3.49404858E+08
         4   12       5.09828903E-03  5.02333059E-14  1.53049911E+08  4.33144748E-13  1.53049911E+08
         4   14       5.14783056E-03  8.52815707E+05  4.48667071E-13  1.53740057E+08  1.54592872E+08
         4   16       1.80715277E-02  5.66899543E-15  1.02694836E+09  3.59727970E-11  1.02694836E+09
         4   18       1.80676615E-02  1.91713811E+05  3.58605166E-11  1.02710900E+09  1.02730072E+09
         5    7       1.64387700E-02  1.12481499E+03  1.03192398E-11  3.45920783E+08  3.45921908E+08
         5    9       1.63132868E-02  3.62521776E-17  3.49284120E+08  1.04130451E-11  3.49284120E+08
         5   11       5.08670477E-03  1.32526988E+05  4.48841983E-13  1.52553968E+08  1.52686495E+08
         5   13       5.03375262E-03  3.76488604E-14  1.51151535E+08  4.36064374E-13  1.51151535E+08
         5   15       1.82662100E-02  5.24282187E+05  3.59568701E-11  1.03740991E+09  1.03793419E+09
         5   17       1.79170788E-02  4.34379791E-16  1.01866289E+09  3.60353206E-11  1.01866289E+09
         6    8       1.64387700E-02  1.12481499E+03  1.03192398E-11  3.45920783E+08  3.45921908E+08
         6   10       1.63132868E-02  3.62521776E-17  3.49284120E+08  1.04130451E-11  3.49284120E+08
         6   12       5.08670477E-03  1.32526988E+05  4.48841983E-13  1.52553968E+08  1.52686495E+08
         6   14       5.03375262E-03  3.76488604E-14  1.51151535E+08  4.36064374E-13  1.51151535E+08
         6   16       1.82662100E-02  5.24282187E+05  3.59568701E-11  1.03740991E+09  1.03793419E+09
         6   18       1.79170788E-02  4.34379791E-16  1.01866289E+09  3.60353206E-11  1.01866289E+09
         7    9       2.89204383E-04  2.95897032E-23  4.61192897E+02  1.64367162E-19  4.61192897E+02
         7   11       2.03964414E-04  1.98451724E+02  7.11659143E-16  1.61901836E+05  1.62100288E+05
         7   13       5.75353214E-05  5.83011782E-18  4.58274719E+04  4.78320772E-15  4.58274719E+04
         7   15       1.86288009E-05  2.87852165E+03  1.13081619E-15  1.59327465E+05  1.62205987E+05
         7   17       7.02380876E-05  6.15074458E-17  6.12452639E+05  6.91515542E-16  6.12452639E+05
         8   10       2.89204383E-04  2.95897032E-23  4.61192897E+02  1.64367162E-19  4.61192897E+02
         8   12       2.03964414E-04  1.98451724E+02  7.11659143E-16  1.61901836E+05  1.62100288E+05
         8   14       5.75353214E-05  5.83011782E-18  4.58274719E+04  4.78320772E-15  4.58274719E+04
         8   16       1.86288009E-05  2.87852165E+03  1.13081619E-15  1.59327465E+05  1.62205987E+05
         8   18       7.02380876E-05  6.15074458E-17  6.12452639E+05  6.91515542E-16  6.12452639E+05
         9   11       1.84485886E-04  9.52273921E-18  1.33778465E+05  4.42975563E-16  1.33778465E+05
         9   13       4.59666700E-05  1.54851174E+02  3.72065229E-15  3.32548940E+04  3.34097451E+04
        10   12       1.84485886E-04  9.52273921E-18  1.33778465E+05  4.42975563E-16  1.33778465E+05
        10   14       4.59666700E-05  1.54851174E+02  3.72065229E-15  3.32548940E+04  3.34097451E+04
        11   13       6.00365202E-03  1.70024330E-22  5.85899764E+00  6.89657895E-23  5.85899764E+00
        11   15       1.08429611E-01  4.59066736E+08  7.29925294E-15  7.62290335E+05  4.59829026E+08
        11   17       1.85831313E-04  2.66542807E-11  7.89682594E+05  9.96637011E-15  7.89682594E+05
        12   14       6.00365202E-03  1.70024330E-22  5.85899764E+00  6.89657895E-23  5.85899764E+00
        12   16       1.08429611E-01  4.59066736E+08  7.29925294E-15  7.62290335E+05  4.59829026E+08
        12   18       1.85831313E-04  2.66542807E-11  7.89682594E+05  9.96637011E-15  7.89682594E+05
        13   15       1.13779235E-04  2.66171763E-11  4.82052920E+05  1.57895300E-14  4.82052920E+05
        13   17       1.08316150E-01  4.59260934E+08  1.77097405E-14  5.83080049E+05  4.59844015E+08
        14   16       1.13779235E-04  2.66171763E-11  4.82052920E+05  1.57895300E-14  4.82052920E+05
        14   18       1.08316150E-01  4.59260934E+08  1.77097405E-14  5.83080049E+05  4.59844015E+08
        15   17       4.19951772E-04  2.18836954E-22  1.85154123E+00  2.04544351E-23  1.85154123E+00
        16   18       4.19951772E-04  2.18836954E-22  1.85154123E+00  2.04544351E-23  1.85154123E+00
     -----------------------------------------------------------------------------------------------
--

++ Length and velocity gauge comparison (SO states):

 --------------------------------------------------
 A comparison between the dipole oscillator strengths in 
 length and velocity gauge will be performed

 All dipole oscillator differences above the tolerance of   0.10000000000000001       will be printed 

 Due to basis set deficiency these oscillator may be problematic 

 The tolerance is defined as ABS(1-O_l/O_v) 
 O_l : dipole oscillator strength in length gauge
 O_p : dipole oscillator strength in velocity gauge
 --------------------------------------------------

  Problematic transitions have been found

      From   To       Difference (%) Osc. st. (len.) Osc. st. (vel.)
     ---------------------------------------------------------------
         1    3           280.648585  1.69317836E-03  4.44814043E-04
         1    5           338.887552  1.61708314E-03  3.68450445E-04
         1    7      ---------------  2.39679945E-03 below threshold
         1    9      ---------------  6.44377725E-04 below threshold
         1   11        461893.688063  3.08484786E+00  6.67725110E-04
         1   13        420514.805786  3.06970148E+00  7.29812988E-04
         1   15         70803.690778  2.78401141E+00  3.92646896E-03
         1   17         69045.888975  2.92278857E+00  4.22698820E-03
         2    4           280.648585  1.69317836E-03  4.44814043E-04
         2    6           338.887552  1.61708314E-03  3.68450445E-04
         2    8      ---------------  2.39679945E-03 below threshold
         2   10      ---------------  6.44377725E-04 below threshold
         2   12        461893.688063  3.08484786E+00  6.67725110E-04
         2   14        420514.805786  3.06970148E+00  7.29812988E-04
         2   16         70803.690778  2.78401141E+00  3.92646896E-03
         2   18         69045.888975  2.92278857E+00  4.22698820E-03
         3    5      --------------- below threshold  2.86075511E-01
         3    7         27984.784236  4.61504654E+00  1.64325512E-02
         3    9         28529.651219  4.67148433E+00  1.63169446E-02
         3   11          1426.870836  7.78442883E-02  5.09828903E-03
         3   13          1422.048264  7.83524657E-02  5.14783056E-03
         3   15         28932.739902  5.24665963E+00  1.80715277E-02
         3   17         28973.398226  5.25288319E+00  1.80676615E-02
         4    6      --------------- below threshold  2.86075511E-01
         4    8         27984.784236  4.61504654E+00  1.64325512E-02
         4   10         28529.651219  4.67148433E+00  1.63169446E-02
         4   12          1426.870836  7.78442883E-02  5.09828903E-03
         4   14          1422.048264  7.83524657E-02  5.14783056E-03
         4   16         28932.739902  5.24665963E+00  1.80715277E-02
         4   18         28973.398226  5.25288319E+00  1.80676615E-02
         5    7         28052.304875  4.62789264E+00  1.64387700E-02
         5    9         28598.497541  4.68166822E+00  1.63132868E-02
         5   11          1366.247794  7.45836964E-02  5.08670477E-03
         5   13          1739.692545  9.26055716E-02  5.03375262E-03
         5   15         28983.064677  5.31237368E+00  1.82662100E-02
         5   17         28673.905465  5.15544331E+00  1.79170788E-02
         6    8         28052.304875  4.62789264E+00  1.64387700E-02
         6   10         28598.497541  4.68166822E+00  1.63132868E-02
         6   12          1366.247794  7.45836964E-02  5.08670477E-03
         6   14          1739.692545  9.26055716E-02  5.03375262E-03
         6   16         28983.064677  5.31237368E+00  1.82662100E-02
         6   18         28673.905465  5.15544331E+00  1.79170788E-02
         7    9      --------------- below threshold  2.89204383E-04
         7   11          1108.559961  2.46503224E-03  2.03964414E-04
         7   13          1911.047546  1.15706267E-03  5.75353214E-05
         7   15         14860.629175  2.78698582E-03  1.86288009E-05
         7   17         10885.889961  7.71627902E-03  7.02380876E-05
         8   10      --------------- below threshold  2.89204383E-04
         8   12          1108.559961  2.46503224E-03  2.03964414E-04
         8   14          1911.047546  1.15706267E-03  5.75353214E-05
         8   16         14860.629175  2.78698582E-03  1.86288009E-05
         8   18         10885.889961  7.71627902E-03  7.02380876E-05
         9   11           684.842563  1.44792376E-03  1.84485886E-04
         9   13          1044.640873  5.26153292E-04  4.59666700E-05
         9   17      ---------------  1.13844255E-03 below threshold
        10   12           684.842563  1.44792376E-03  1.84485886E-04
        10   14          1044.640873  5.26153292E-04  4.59666700E-05
        10   18      ---------------  1.13844255E-03 below threshold
        11   13      --------------- below threshold  6.00365202E-03
        11   15            88.700676  2.04607410E-01  1.08429611E-01
        11   17            32.644578  1.25167466E-04  1.85831313E-04
        12   14      --------------- below threshold  6.00365202E-03
        12   16            88.700676  2.04607410E-01  1.08429611E-01
        12   18            32.644578  1.25167466E-04  1.85831313E-04
        13   15            12.172272  9.99297163E-05  1.13779235E-04
        13   17            89.111388  2.04838175E-01  1.08316150E-01
        14   16            12.172272  9.99297163E-05  1.13779235E-04
        14   18            89.111388  2.04838175E-01  1.08316150E-01
        15   17      --------------- below threshold  4.19951772E-04
        16   18      --------------- below threshold  4.19951772E-04
     ---------------------------------------------------------------

 Number of problematic transitions =                    70

--

 Electric-dipole - electric-octupole not included
++ Total transition strengths for the second-order expansion of the wave vector (SO states):
   -----------------------------------------------------------------------------------------
    for osc. strength at least    1.0000000000000001E-005

      From   To        Osc. strength
     -------------------------------
         1   11       1.43392585E-04
         1   13       1.50197225E-04
         1   15       2.80519067E-04
         1   17       2.86827475E-04
         2   12       1.43392585E-04
         2   14       1.50197225E-04
         2   16       2.80519067E-04
         2   18       2.86827475E-04
         3    7       2.40902913E-05
         3    9       2.47495630E-05
         3   11       2.35884020E-04
         3   13       2.36400502E-04
         3   15       1.01981912E-04
         3   17       1.01759867E-04
         4    8       2.40902913E-05
         4   10       2.47495630E-05
         4   12       2.35884020E-04
         4   14       2.36400502E-04
         4   16       1.01981912E-04
         4   18       1.01759867E-04
         5    7       2.38660877E-05
         5    9       2.43142105E-05
         5   11       2.40337031E-04
         5   13       2.33519227E-04
         5   15       1.04543787E-04
         5   17       9.85017881E-05
         6    8       2.38660877E-05
         6   10       2.43142105E-05
         6   12       2.40337031E-04
         6   14       2.33519227E-04
         6   16       1.04543787E-04
         6   18       9.85017881E-05
         7   15       5.61393903E-05
         7   17       5.60362677E-05
         8   16       5.61393903E-05
         8   18       5.60362677E-05
         9   15       5.35652600E-05
         9   17       5.39147066E-05
        10   16       5.35652600E-05
        10   18       5.39147066E-05
     -------------------------------
--

++ I/O STATISTICS
 
  I. General I/O information
  - - - - - - - - - - - - - - - - - - - - - - - - - - - - - - - - - - - - - - - - - - -
  Unit  Name          Flsize      Write/Read            MBytes           Write/Read
                      (MBytes)       Calls              In/Out           Time, sec.
  - - - - - - - - - - - - - - - - - - - - - - - - - - - - - - - - - - - - - - - - - - -
   1  SCRATCH           0.00 .       9/      45 .      0.0/      0.0 .       0/       0
   2  ANNI              0.00 .       0/       0 .      0.0/      0.0 .       0/       0
   3  RUNFILE          14.82 .     322/   10733 .      2.3/     77.8 .       0/       0
   4  ONEINT            5.45 .       0/   23543 .      0.0/   3734.6 .       0/       0
   5  JOBIPH            6.30 .       0/      92 .      0.0/      0.8 .       0/       0
   6  ORDINT          473.53 .       1/    3789 .      0.0/    947.0 .       0/       0
  - - - - - - - - - - - - - - - - - - - - - - - - - - - - - - - - - - - - - - - - - - -
   *  TOTAL           500.11 .     332/   38202 .      2.3/   4760.2 .       0/       0
  - - - - - - - - - - - - - - - - - - - - - - - - - - - - - - - - - - - - - - - - - - -
 
  II. I/O Access Patterns
  - - - - - - - - - - - - - - - - - - - -
  Unit  Name               % of random
                         Write/Read calls
  - - - - - - - - - - - - - - - - - - - -
   1  SCRATCH             88.9/ 100.0
   2  ANNI                 0.0/   0.0
   3  RUNFILE             28.6/  10.8
   4  ONEINT               0.0/  16.4
   5  JOBIPH               0.0/  76.1
   6  ORDINT             100.0/   0.1
  - - - - - - - - - - - - - - - - - - - -
--
--- Stop Module: rassi at Tue Mar 25 16:53:30 2025 /rc=_RC_ALL_IS_WELL_ ---
*** files: xmldump
    saved to directory /home4/s4752295/Internship/Initial_simulations/Point_charge_model/1_electron/Madelung_charges_9_active_space/V
--- Module rassi spent 3 seconds ---

.##################.
.# Happy landing! #.
.##################.

    Timing: Wall=43.00 User=33.32 System=6.95

###############################################################################
Hbrk Cluster
Job 15899270 for user s4752295
Finished at: Tue Mar 25 16:53:34 CET 2025

Job details:
============

Job ID                         : 15899270
Name                           : V_no_SO
User                           : s4752295
Partition                      : regularmedium
Nodes                          : node29
Number of Nodes                : 1
Cores                          : 1
Number of Tasks                : 1
State                          : COMPLETED  
Submit                         : 2025-03-25T16:51:33
Start                          : 2025-03-25T16:52:42
End                            : 2025-03-25T16:53:30
Reserved walltime              : 15:00:00
Used walltime                  : 00:00:48
Used CPU time                  : 00:00:42 (Efficiency: 86.57%)
% User (Computation)           : 82.71%
% System (I/O)                 : 17.29%
Total memory reserved          : 25000M
Maximum memory used            : 1.90G

Acknowledgements:
=================

Please see this page for information about acknowledging Hbrk in your publications:

https://wiki.hpc.rug.nl/habrok/introduction/scientific_output

################################################################################
