   This run of MOLCAS is using the pymolcas driver

                             OPE
                             OPE          NMOL  CASOP  ENMOLC A   SO
                 OPE        NMOLC        AS  OP EN  MO LC     AS  OP
                OPENM       OL CA        SO  PE NM  OL CA     SOP EN
                OP EN      MO   LC       AS  OP ENMOL  CASO   PENMOL
                OP  EN     MO   LC       AS  OP EN     MO     LC ASO
               OP   E  NMOL  C  AS       OP  EN MO     LC     AS  OP
               OP  E   NMO   LC AS        OPEN  MO     LCASOP EN   M
               O  PEN   MO  LCA  SO
            OPE   NMO   L   CAS    OP
        OPENMOL  CASOP     ENMOL   CASOPE
     OPENMOLCA   SOPENMOLCASOPEN   MOLCASOPE
    OPENMOLCAS   OP           EN   MOL    CAS
    OPENMOLCAS       OP  ENM        O     LCA
    OPENMOLCAS    OPEN  MOLCASO     P  E  NMO
    OPENMOLCAS     OP               E  N  MOL
    OPENMOLCA   SO           PENM   O  L  CAS    OPEN    MO    LCAS
    OPENMOLCA   SOP           ENM   O  L  CAS   OP  EN  MOLC  AS   O
    OPENMOLCA   SOPE           NM      O  LCA   S      OP  EN MO
    OPENMOLC                AS         O  PEN   M      OL  CA  SOPE
    OPENMO        LCASOPE  NMOL        C  ASO   P      ENMOLC     AS
    OPE     NMO      LCA  SO     P     E   NM   OL  CA SO  PE N   MO
          OPENMOLCA            SOPE   NMO        LCAS  O    P  ENMO
     OPENMOLCASOPENMOLCASOPENMOLCASOPENMOLCA
        OPENMOLCASOPENMOLCASOPENMOLCASOPE
            OPENMOLCASOPENMOLCASOPENM
               OPENMOLCASOPENMOLCA        version: o91e1abe7de707b ?
                   OPENMOLCASO
                       OPE                tag:

 OpenMolcas is free software; you can redistribute it and/or modify it
 under the terms of the GNU Lesser General Public License version 2.1.
 OpenMolcas is distributed in the hope that it will be useful, but it
 is provided "as is" and without any express or implied warranties.
 For more details see the full text of the license in the file
 LICENSE or in <http://www.gnu.org/licenses/>.

                 Copyright (C) The OpenMolcas Authors
           For the author list and the recommended citation,
                   consult the file CONTRIBUTORS.md

           *************************************************
           * pymolcas version py2.10                       *
           *   build 3068ae8b88c9345ec6cfef6fef7f1169      *
           *   (after the EMIL interpreter by V. Veryazov) *
           *************************************************

configuration info
------------------
Host name: login1 (Linux)
C Compiler ID: GNU
C flags: -std=gnu99
Fortran Compiler ID: GNU
Fortran flags: -fno-aggressive-loop-optimizations -cpp -fdefault-integer-8 -fmax-stack-var-size=1048576
Definitions: _MOLCAS_;_I8_;_LINUX_;_MKL_
Parallel: OFF (GA=OFF)


   ----------------------------------------------------------------------------------------------------------------------------------
  |
  |           Project: vanadium_so_cf
  |    Submitted from: /home4/s4752295/Internship/Initial_simulations/Point_charge_model/1_electron/Madelung_charges_9_active_space/V
  |      Scratch area: /tmp/vanadium_so_cf
  |   Save outputs to: /home4/s4752295/Internship/Initial_simulations/Point_charge_model/1_electron/Madelung_charges_9_active_space/V
  |            Molcas: /home4/s4752295/Internship/Molcas/recomp_try/OpenMolcas-master/build
  |
  | Scratch area is empty
  |
  |    MOLCAS_DRIVER = /home4/s4752295/Internship/Molcas/bin/pymolcas
  |    MOLCAS_NPROCS = 1
  |    MOLCAS_SOURCE = /home4/s4752295/Internship/Molcas/recomp_try/OpenMolcas-master
  | MOLCAS_STRUCTURE = 0
  |
   ----------------------------------------------------------------------------------------------------------------------------------

++ ---------   Input file   ---------

&SEWARD
AMFi

CLIG
$R

Basis Set
V.ANO-rcc.Roos.21s15p10d6f4g2h.10s9p8d6f4g2h.
Spherical d
V            -1.0658140267135469e-14    -3.5527134223784897e-15 0.008753588724385739
End of Basis

Xfield

414
-5.603081511999999,-2.1559999999999997,1.2447666        -0.625931
-5.603081511999999,-0.0,-2.4895346      -0.625931
-5.603081511999999,2.1559999999999997,1.2447666 -0.625931
-5.593484498,0.0,0.0    1.892092
3.722851566,-2.1559999999999997,-1.2447666      2.515516
3.722851566,0.0,2.4895346       2.515516
3.722851566,2.1559999999999997,-1.2447666       2.515516
4.9881835919999995,-4.311999999999999,0.0       0.004632
4.9881835919999995,-2.1559999999999997,-3.7343012       0.004632
4.9881835919999995,-2.1559999999999997,3.7343012        0.004632
4.9881835919999995,2.1559999999999997,-3.7343012        0.004632
4.9881835919999995,2.1559999999999997,3.7343012 0.004632
4.9881835919999995,4.311999999999999,0.0        0.004632
5.7808105460000005,-2.1559999999999997,1.2447666        -2.519484
5.7808105460000005,-0.0,-2.4895346      -2.519484
5.7808105460000005,2.1559999999999997,1.2447666 -2.519484
-4.106347658,-0.0,-0.0  -3.142907
-6.965136724,-4.311999999999999,-2.4895346      -0.625931
-6.965136724,0.0,4.9790678      -0.625931
-6.965136724,4.311999999999999,-2.4895346       -0.625931
-9.253124999999999,-4.311999999999999,0.0       1.892092
-9.253124999999999,-2.1559999999999997,-3.7343012       1.892092
-9.253124999999999,-2.1559999999999997,3.7343012        1.892092
-9.253124999999999,2.1559999999999997,-3.7343012        1.892092
-9.253124999999999,2.1559999999999997,3.7343012 1.892092
-9.253124999999999,4.311999999999999,0.0        1.892092
35.240624999999994,-4.311999999999999,2.4895346 2.515516
35.240624999999994,-0.0,-4.9790678      2.515516
35.240624999999994,4.311999999999999,2.4895346  2.515516
5.094140631999999,-4.311999999999999,-2.4895346 -2.519484
5.094140631999999,0.0,4.9790678 -2.519484
5.094140631999999,4.311999999999999,-2.4895346  -2.519484
-4.525390632,-4.311999999999999,-0.0    -3.142907
-4.525390632,-2.1559999999999997,-3.7343012     -3.142907
-4.525390632,-2.1559999999999997,3.7343012      -3.142907
-4.525390632,2.1559999999999997,-3.7343012      -3.142907
-4.525390632,2.1559999999999997,3.7343012       -3.142907
-4.525390632,4.311999999999999,-0.0     -3.142907
-13.3328125,-4.311999999999999,4.9790678        -0.625931
-13.3328125,4.311999999999999,4.9790678 -0.625931
-13.3328125,-6.468,1.2447666    -0.625931
-13.3328125,6.468,1.2447666     -0.625931
-13.3328125,-2.1559999999999997,-6.2238358      -0.625931
-13.3328125,2.1559999999999997,-6.2238358       -0.625931
8.4109375,-2.1559999999999997,-1.2447666        4.409069
8.4109375,2.1559999999999997,-1.2447666 4.409069
8.4109375,0.0,2.4895346 4.409069
-245.35,-0.0,-0.0       -5.030367
-245.35,0.0,0.0 5.039632
18.924609368,-4.311999999999999,-4.9790678      2.515516
18.924609368,4.311999999999999,-4.9790678       2.515516
18.924609368,-6.468,-1.2447666  2.515516
18.924609368,6.468,-1.2447666   2.515516
18.924609368,-2.1559999999999997,6.2238358      2.515516
18.924609368,2.1559999999999997,6.2238358       2.515516
26.654687499999998,-6.468,-3.7343012    0.004632
26.654687499999998,-6.468,3.7343012     0.004632
26.654687499999998,6.468,-3.7343012     0.004632
26.654687499999998,6.468,3.7343012      0.004632
26.654687499999998,-0.0,-7.4686024      0.004632
26.654687499999998,0.0,7.4686024        0.004632
67.30937499999999,-4.311999999999999,4.9790678  -2.519484
67.30937499999999,4.311999999999999,4.9790678   -2.519484
67.30937499999999,-6.468,1.2447666      -2.519484
67.30937499999999,6.468,1.2447666       -2.519484
67.30937499999999,-2.1559999999999997,-6.2238358        -2.519484
67.30937499999999,2.1559999999999997,-6.2238358 -2.519484
-204.225,-6.468,-3.7343012      1.892092
-204.225,-6.468,3.7343012       1.892092
-204.225,6.468,-3.7343012       1.892092
-204.225,6.468,3.7343012        1.892092
-204.225,-0.0,-7.4686024        1.892092
-204.225,0.0,7.4686024  1.892092
-164.85,-4.311999999999999,2.4895346    4.409069
-164.85,-0.0,-4.9790678 4.409069
-164.85,4.311999999999999,2.4895346     4.409069
-124.6,-4.311999999999999,-0.0  -5.030367
-124.6,-2.1559999999999997,-3.7343012   -5.030367
-124.6,-2.1559999999999997,3.7343012    -5.030367
-124.6,2.1559999999999997,-3.7343012    -5.030367
-124.6,-4.311999999999999,0.0   5.039632
-124.6,4.311999999999999,-0.0   -5.030367
-124.6,2.1559999999999997,3.7343012     -5.030367
-124.6,-2.1559999999999997,-3.7343012   5.039632
-124.6,-2.1559999999999997,3.7343012    5.039632
-124.6,2.1559999999999997,-3.7343012    5.039632
-124.6,4.311999999999999,0.0    5.039632
-124.6,2.1559999999999997,3.7343012     5.039632
-65.27499999999999,-2.1559999999999997,-1.2447666       -5.660931
-65.27499999999999,0.0,2.4895346        -5.660931
-65.27499999999999,2.1559999999999997,-1.2447666        -5.660931
1.2359375,-8.6239986,0.0        0.004632
1.2359375,-4.311999999999999,-7.4686024 0.004632
1.2359375,-4.311999999999999,7.4686024  0.004632
1.2359375,4.311999999999999,-7.4686024  0.004632
1.2359375,8.6239986,0.0 0.004632
1.2359375,4.311999999999999,7.4686024   0.004632
95.1125,-6.468,3.7343012        -3.142907
95.1125,-6.468,-3.7343012       -3.142907
95.1125,6.468,-3.7343012        -3.142907
95.1125,6.468,3.7343012 -3.142907
95.1125,-0.0,-7.4686024 -3.142907
95.1125,0.0,7.4686024   -3.142907
120.925,-8.6239986,-2.4895346   -0.625931
120.925,-6.468,-6.2238358       -0.625931
120.925,-2.1559999999999997,8.713369    -0.625931
120.925,6.468,-6.2238358        -0.625931
120.925,8.6239986,-2.4895346    -0.625931
120.925,2.1559999999999997,8.713369     -0.625931
1.676171868,-8.6239986,0.0      1.892092
1.676171868,-4.311999999999999,-7.4686024       1.892092
1.676171868,-4.311999999999999,7.4686024        1.892092
1.676171868,4.311999999999999,-7.4686024        1.892092
1.676171868,8.6239986,0.0       1.892092
1.676171868,4.311999999999999,7.4686024 1.892092
47.381249999999994,-4.311999999999999,-4.9790678        4.409069
47.381249999999994,4.311999999999999,-4.9790678 4.409069
47.381249999999994,-6.468,-1.2447666    4.409069
47.381249999999994,6.468,-1.2447666     4.409069
47.381249999999994,-2.1559999999999997,6.2238358        4.409069
47.381249999999994,2.1559999999999997,6.2238358 4.409069
227.36874999999998,-4.311999999999999,2.4895346 -5.660931
227.36874999999998,-0.0,-4.9790678      -5.660931
227.36874999999998,4.311999999999999,2.4895346  -5.660931
0.48124999999999996,-8.6239986,2.4895346        2.515516
0.48124999999999996,-2.1559999999999997,-8.713369       2.515516
0.48124999999999996,-6.468,6.2238358    2.515516
0.48124999999999996,2.1559999999999997,-8.713369        2.515516
0.48124999999999996,8.6239986,2.4895346 2.515516
0.48124999999999996,6.468,6.2238358     2.515516
-131.86249999999998,-8.6239986,-2.4895346       -2.519484
-131.86249999999998,-6.468,-6.2238358   -2.519484
-131.86249999999998,-2.1559999999999997,8.713369        -2.519484
-131.86249999999998,6.468,-6.2238358    -2.519484
-131.86249999999998,2.1559999999999997,8.713369 -2.519484
-131.86249999999998,8.6239986,-2.4895346        -2.519484
-30.898437499999996,-8.6239986,-0.0     -3.142907
-30.898437499999996,-4.311999999999999,-7.4686024       -3.142907
-30.898437499999996,-4.311999999999999,7.4686024        -3.142907
-30.898437499999996,4.311999999999999,-7.4686024        -3.142907
-30.898437499999996,4.311999999999999,7.4686024 -3.142907
-30.898437499999996,8.6239986,-0.0      -3.142907
849.0999999999999,0.0,0.0       6.927092
452.54999999999995,-8.6239986,4.9790678 -0.625931
452.54999999999995,8.6239986,4.9790678  -0.625931
452.54999999999995,-0.0,-9.958137       -0.625931
-7.590624999999999,-6.468,3.7343012     -5.030367
-7.590624999999999,-6.468,-3.7343012    -5.030367
-7.590624999999999,-6.468,3.7343012     5.039632
-7.590624999999999,-6.468,-3.7343012    5.039632
-7.590624999999999,6.468,-3.7343012     -5.030367
-7.590624999999999,6.468,3.7343012      -5.030367
-7.590624999999999,6.468,-3.7343012     5.039632
-7.590624999999999,6.468,3.7343012      5.039632
-7.590624999999999,-0.0,-7.4686024      -5.030367
-7.590624999999999,0.0,7.4686024        -5.030367
-7.590624999999999,-0.0,-7.4686024      5.039632
-7.590624999999999,0.0,7.4686024        5.039632
128.5375,-4.311999999999999,-4.9790678  -5.660931
128.5375,4.311999999999999,-4.9790678   -5.660931
128.5375,-6.468,-1.2447666      -5.660931
128.5375,6.468,-1.2447666       -5.660931
128.5375,-2.1559999999999997,6.2238358  -5.660931
128.5375,2.1559999999999997,6.2238358   -5.660931
420.7,-8.6239986,-4.9790678     2.515516
420.7,8.6239986,-4.9790678      2.515516
420.7,0.0,9.958137      2.515516
-724.15,-8.6239986,4.9790678    -2.519484
-724.15,8.6239986,4.9790678     -2.519484
-724.15,-0.0,-9.958137  -2.519484
74.9875,-4.311999999999999,0.0  6.927092
74.9875,-2.1559999999999997,-3.7343012  6.927092
74.9875,-2.1559999999999997,3.7343012   6.927092
74.9875,2.1559999999999997,-3.7343012   6.927092
74.9875,2.1559999999999997,3.7343012    6.927092
74.9875,4.311999999999999,0.0   6.927092
-77.35,-2.1559999999999997,1.2447666    7.550516
-77.35,0.0,-2.4895346   7.550516
-77.35,2.1559999999999997,1.2447666     7.550516
21.74375,-2.1559999999999997,-1.2447666 -7.554483
21.74375,2.1559999999999997,-1.2447666  -7.554483
21.74375,-0.0,2.4895346 -7.554483
-174.825,-10.779998599999999,1.2447666  -0.625931
-174.825,-6.468,8.713369        -0.625931
-174.825,-4.311999999999999,-9.958137   -0.625931
-174.825,4.311999999999999,-9.958137    -0.625931
-174.825,10.779998599999999,1.2447666   -0.625931
-174.825,6.468,8.713369 -0.625931
-94.4125,-8.6239986,2.4895346   4.409069
-94.4125,-6.468,6.2238358       4.409069
-94.4125,-2.1559999999999997,-8.713369  4.409069
-94.4125,2.1559999999999997,-8.713369   4.409069
-94.4125,6.468,6.2238358        4.409069
-94.4125,8.6239986,2.4895346    4.409069
68.81875,-8.6239986,-0.0        -5.030367
68.81875,-4.311999999999999,-7.4686024  -5.030367
68.81875,-4.311999999999999,7.4686024   -5.030367
68.81875,-8.6239986,0.0 5.039632
68.81875,-4.311999999999999,-7.4686024  5.039632
68.81875,4.311999999999999,-7.4686024   -5.030367
68.81875,4.311999999999999,7.4686024    -5.030367
68.81875,8.6239986,-0.0 -5.030367
68.81875,-4.311999999999999,7.4686024   5.039632
68.81875,4.311999999999999,-7.4686024   5.039632
68.81875,8.6239986,0.0  5.039632
68.81875,4.311999999999999,7.4686024    5.039632
253.04999999999998,-10.779998599999999,-1.2447666       2.515516
253.04999999999998,-6.468,-8.713369     2.515516
253.04999999999998,-4.311999999999999,9.958137  2.515516
253.04999999999998,6.468,-8.713369      2.515516
253.04999999999998,10.779998599999999,-1.2447666        2.515516
253.04999999999998,4.311999999999999,9.958137   2.515516
-32.68125,-10.779998599999999,-3.7343012        0.004632
-32.68125,-10.779998599999999,3.7343012 0.004632
-32.68125,-8.6239986,-7.4686024 0.004632
-32.68125,-8.6239986,7.4686024  0.004632
-32.68125,-2.1559999999999997,-11.202903599999999       0.004632
-32.68125,2.1559999999999997,-11.202903599999999        0.004632
-32.68125,-2.1559999999999997,11.202903599999999        0.004632
-32.68125,8.6239986,-7.4686024  0.004632
-32.68125,2.1559999999999997,11.202903599999999 0.004632
-32.68125,10.779998599999999,-3.7343012 0.004632
-32.68125,10.779998599999999,3.7343012  0.004632
-32.68125,8.6239986,7.4686024   0.004632
-200.375,-10.779998599999999,1.2447666  -2.519484
-200.375,-6.468,8.713369        -2.519484
-200.375,-4.311999999999999,-9.958137   -2.519484
-200.375,4.311999999999999,-9.958137    -2.519484
-200.375,10.779998599999999,1.2447666   -2.519484
-200.375,6.468,8.713369 -2.519484
4244.8,-0.0,-0.0        -8.177907
-162.39999999999998,-4.311999999999999,-2.4895346       7.550516
-162.39999999999998,0.0,4.9790678       7.550516
-162.39999999999998,4.311999999999999,-2.4895346        7.550516
-844.9,-4.311999999999999,2.4895346     -7.554483
-844.9,-0.0,-4.9790678  -7.554483
-844.9,4.311999999999999,2.4895346      -7.554483
68.46875,-10.779998599999999,3.7343012  1.892092
68.46875,-10.779998599999999,-3.7343012 1.892092
68.46875,-8.6239986,-7.4686024  1.892092
68.46875,-8.6239986,7.4686024   1.892092
68.46875,-2.1559999999999997,-11.202903599999999        1.892092
68.46875,2.1559999999999997,-11.202903599999999 1.892092
68.46875,-2.1559999999999997,11.202903599999999 1.892092
68.46875,8.6239986,-7.4686024   1.892092
68.46875,2.1559999999999997,11.202903599999999  1.892092
68.46875,10.779998599999999,-3.7343012  1.892092
68.46875,10.779998599999999,3.7343012   1.892092
68.46875,8.6239986,7.4686024    1.892092
-707.0,-8.6239986,-4.9790678    4.409069
-707.0,8.6239986,-4.9790678     4.409069
-707.0,0.0,9.958137     4.409069
36.1484375,-8.6239986,2.4895346 -5.660931
36.1484375,-2.1559999999999997,-8.713369        -5.660931
36.1484375,-6.468,6.2238358     -5.660931
36.1484375,2.1559999999999997,-8.713369 -5.660931
36.1484375,6.468,6.2238358      -5.660931
36.1484375,8.6239986,2.4895346  -5.660931
-81.46249999999999,-8.6239986,-7.4686024        -3.142907
-81.46249999999999,-10.779998599999999,3.7343012        -3.142907
-81.46249999999999,-10.779998599999999,-3.7343012       -3.142907
-81.46249999999999,-8.6239986,7.4686024 -3.142907
-81.46249999999999,-2.1559999999999997,-11.202903599999999      -3.142907
-81.46249999999999,2.1559999999999997,-11.202903599999999       -3.142907
-81.46249999999999,-2.1559999999999997,11.202903599999999       -3.142907
-81.46249999999999,10.779998599999999,-3.7343012        -3.142907
-81.46249999999999,8.6239986,-7.4686024 -3.142907
-81.46249999999999,2.1559999999999997,11.202903599999999        -3.142907
-81.46249999999999,10.779998599999999,3.7343012 -3.142907
-81.46249999999999,8.6239986,7.4686024  -3.142907
91.56875,-6.468,-3.7343012      6.927092
91.56875,-6.468,3.7343012       6.927092
91.56875,6.468,-3.7343012       6.927092
91.56875,6.468,3.7343012        6.927092
91.56875,-0.0,-7.4686024        6.927092
91.56875,0.0,7.4686024  6.927092
-116.55,-4.311999999999999,-0.0 -8.177907
-116.55,-2.1559999999999997,3.7343012   -8.177907
-116.55,-2.1559999999999997,-3.7343012  -8.177907
-116.55,2.1559999999999997,-3.7343012   -8.177907
-116.55,4.311999999999999,-0.0  -8.177907
-116.55,2.1559999999999997,3.7343012    -8.177907
-127.26875,-4.311999999999999,4.9790678 7.550516
-127.26875,4.311999999999999,4.9790678  7.550516
-127.26875,-6.468,1.2447666     7.550516
-127.26875,6.468,1.2447666      7.550516
-127.26875,-2.1559999999999997,-6.2238358       7.550516
-127.26875,2.1559999999999997,-6.2238358        7.550516
-63.9625,-4.311999999999999,-4.9790678  -7.554483
-63.9625,4.311999999999999,-4.9790678   -7.554483
-63.9625,-6.468,-1.2447666      -7.554483
-63.9625,6.468,-1.2447666       -7.554483
-63.9625,-2.1559999999999997,6.2238358  -7.554483
-63.9625,2.1559999999999997,6.2238358   -7.554483
-700.3499999999999,0.0,12.4476702       -0.625931
-700.3499999999999,-10.779998599999999,-6.2238358       -0.625931
-700.3499999999999,10.779998599999999,-6.2238358        -0.625931
-377.65,-10.779998599999999,-1.2447666  4.409069
-377.65,-6.468,-8.713369        4.409069
-377.65,-4.311999999999999,9.958137     4.409069
-377.65,6.468,-8.713369 4.409069
-377.65,10.779998599999999,-1.2447666   4.409069
-377.65,4.311999999999999,9.958137      4.409069
434.525,-8.6239986,-4.9790678   -5.660931
434.525,8.6239986,-4.9790678    -5.660931
434.525,0.0,9.958137    -5.660931
821.8,-0.0,-12.4476702  2.515516
821.8,-10.779998599999999,6.2238358     2.515516
821.8,10.779998599999999,6.2238358      2.515516
-131.42499999999998,-12.935998599999998,-0.0    0.004632
-131.42499999999998,6.468,-11.202903599999999   0.004632
-131.42499999999998,-6.468,11.202903599999999   0.004632
-131.42499999999998,12.935998599999998,-0.0     0.004632
-131.42499999999998,-6.468,-11.202903599999999  0.004632
-131.42499999999998,6.468,11.202903599999999    0.004632
-540.05,0.0,12.4476702  -2.519484
-540.05,-10.779998599999999,-6.2238358  -2.519484
-540.05,10.779998599999999,-6.2238358   -2.519484
319.2,-8.6239986,0.0    6.927092
319.2,-4.311999999999999,-7.4686024     6.927092
319.2,-4.311999999999999,7.4686024      6.927092
319.2,4.311999999999999,-7.4686024      6.927092
319.2,8.6239986,0.0     6.927092
319.2,4.311999999999999,7.4686024       6.927092
296.625,-12.935998599999998,-2.4895346  -0.625931
296.625,-4.311999999999999,12.4476702   -0.625931
296.625,-8.6239986,-9.958137    -0.625931
296.625,8.6239986,-9.958137     -0.625931
296.625,4.311999999999999,12.4476702    -0.625931
296.625,12.935998599999998,-2.4895346   -0.625931
156.71249999999998,-12.935998599999998,0.0      1.892092
156.71249999999998,-6.468,-11.202903599999999   1.892092
156.71249999999998,-6.468,11.202903599999999    1.892092
156.71249999999998,6.468,-11.202903599999999    1.892092
156.71249999999998,12.935998599999998,0.0       1.892092
156.71249999999998,6.468,11.202903599999999     1.892092
-6.0484374999999995,-10.779998599999999,3.7343012       -5.030367
-6.0484374999999995,-10.779998599999999,-3.7343012      -5.030367
-6.0484374999999995,-8.6239986,-7.4686024       -5.030367
-6.0484374999999995,-8.6239986,7.4686024        -5.030367
-6.0484374999999995,-10.779998599999999,3.7343012       5.039632
-6.0484374999999995,2.1559999999999997,-11.202903599999999      -5.030367
-6.0484374999999995,-2.1559999999999997,-11.202903599999999     -5.030367
-6.0484374999999995,-10.779998599999999,-3.7343012      5.039632
-6.0484374999999995,-8.6239986,-7.4686024       5.039632
-6.0484374999999995,-2.1559999999999997,11.202903599999999      -5.030367
-6.0484374999999995,2.1559999999999997,-11.202903599999999      5.039632
-6.0484374999999995,-8.6239986,7.4686024        5.039632
-6.0484374999999995,-2.1559999999999997,-11.202903599999999     5.039632
-6.0484374999999995,8.6239986,-7.4686024        -5.030367
-6.0484374999999995,2.1559999999999997,11.202903599999999       -5.030367
-6.0484374999999995,10.779998599999999,-3.7343012       -5.030367
-6.0484374999999995,10.779998599999999,3.7343012        -5.030367
-6.0484374999999995,8.6239986,7.4686024 -5.030367
-6.0484374999999995,-2.1559999999999997,11.202903599999999      5.039632
-6.0484374999999995,8.6239986,-7.4686024        5.039632
-6.0484374999999995,10.779998599999999,-3.7343012       5.039632
-6.0484374999999995,2.1559999999999997,11.202903599999999       5.039632
-6.0484374999999995,10.779998599999999,3.7343012        5.039632
-6.0484374999999995,8.6239986,7.4686024 5.039632
-0.9624999999999999,-10.779998599999999,-1.2447666      -5.660931
-0.9624999999999999,-6.468,-8.713369    -5.660931
-0.9624999999999999,-4.311999999999999,9.958137 -5.660931
-0.9624999999999999,6.468,-8.713369     -5.660931
-0.9624999999999999,4.311999999999999,9.958137  -5.660931
-0.9624999999999999,10.779998599999999,-1.2447666       -5.660931
162.39999999999998,-2.1559999999999997,1.2447666        9.444068
162.39999999999998,0.0,-2.4895346       9.444068
162.39999999999998,2.1559999999999997,1.2447666 9.444068
71.83749999999999,-12.935998599999998,2.4895346 2.515516
71.83749999999999,-4.311999999999999,-12.4476702        2.515516
71.83749999999999,4.311999999999999,-12.4476702 2.515516
71.83749999999999,-8.6239986,9.958137   2.515516
71.83749999999999,12.935998599999998,2.4895346  2.515516
71.83749999999999,8.6239986,9.958137    2.515516
219.625,-12.935998599999998,-2.4895346  -2.519484
219.625,-4.311999999999999,12.4476702   -2.519484
219.625,-8.6239986,-9.958137    -2.519484
219.625,8.6239986,-9.958137     -2.519484
219.625,12.935998599999998,-2.4895346   -2.519484
219.625,4.311999999999999,12.4476702    -2.519484
307.47499999999997,-12.935998599999998,-0.0     -3.142907
307.47499999999997,-6.468,-11.202903599999999   -3.142907
307.47499999999997,-6.468,11.202903599999999    -3.142907
307.47499999999997,6.468,-11.202903599999999    -3.142907
307.47499999999997,12.935998599999998,-0.0      -3.142907
307.47499999999997,6.468,11.202903599999999     -3.142907
12.103710933999999,-6.468,-3.7343012    -8.177907
12.103710933999999,-6.468,3.7343012     -8.177907
12.103710933999999,6.468,3.7343012      -8.177907
12.103710933999999,6.468,-3.7343012     -8.177907
12.103710933999999,-0.0,-7.4686024      -8.177907
12.103710933999999,0.0,7.4686024        -8.177907
352.625,-6.468,-6.2238358       7.550516
352.625,-8.6239986,-2.4895346   7.550516
352.625,-2.1559999999999997,8.713369    7.550516
352.625,6.468,-6.2238358        7.550516
352.625,2.1559999999999997,8.713369     7.550516
352.625,8.6239986,-2.4895346    7.550516
-487.2,-6.468,6.2238358 -7.554483
-487.2,-8.6239986,2.4895346     -7.554483
-487.2,-2.1559999999999997,-8.713369    -7.554483
-487.2,2.1559999999999997,-8.713369     -7.554483
-487.2,8.6239986,2.4895346      -7.554483
-487.2,6.468,6.2238358  -7.554483
99.771875,-10.779998599999999,8.713369  -0.625931
99.771875,-12.935998599999998,4.9790678 -0.625931
99.771875,-2.1559999999999997,-13.692438199999998       -0.625931
99.771875,2.1559999999999997,-13.692438199999998        -0.625931
99.771875,12.935998599999998,4.9790678  -0.625931
99.771875,10.779998599999999,8.713369   -0.625931
-677.25,-0.0,-12.4476702        4.409069
-677.25,-10.779998599999999,6.2238358   4.409069
-677.25,10.779998599999999,6.2238358    4.409069

End of input

&SCF
Occupied
9
Iterations
   50  100
End of Input

&RASSCF
LumOrb
Symmetry
1
Spin
2
Nactel
1 0 0
CIRoot
9 9 1
inactive
9
ras2
9
End of Input

>>> COPY vanadium_so_cf.JobIph $SLURM_SUBMIT_DIR/vanadium_so_cf.doublet.JobIph

>>> COPY $SLURM_SUBMIT_DIR/vanadium_so_cf.doublet.JobIph ./JOB002

&RASSI
NROFJobIph
1 All
SpinOrbit
End of Input

EOF

-- ----------------------------------

--- Start Module: seward at Wed Mar 26 15:55:57 2025 ---

()()()()()()()()()()()()()()()()()()()()()()()()()()()()()()()()()()()()()()()()()()()()()()()()()()

                                              &SEWARD

                                   only a single process is used
                       available to each process: 4.1 GB of memory, 1 thread?
                                            pid: 2202198
()()()()()()()()()()()()()()()()()()()()()()()()()()()()()()()()()()()()()()()()()()()()()()()()()()

 The speed of LIGHT in this CALCULATION =   137.03599917700001     
               SEWARD will generate:
                  Multipole Moment integrals up to order  2
                  Kinetic Energy integrals
                  Nuclear Attraction integrals (point charge)
                  One-Electron Hamiltonian integrals
                  Velocity integrals
                  Relativistic Douglas-Kroll-Hess integrals:
                    - Parametrization         : EXP
                    - DKH order of Hamiltonian: 2
                    - DKH order of Properties : 0
                         - multipole moment operators
                         - electric potential operators
                         - contact operators
                  External field from   414 point(s) added to the one-electron Hamiltonian
                  Orbital angular momentum around (-0.0000 -0.0000  0.0088 )
                  Velocity quadrupole around (-0.0000 -0.0000  0.0088 )
                  Atomic mean-field integrals
                  Two-Electron Repulsion integrals

                   Integrals are discarded if absolute value <: 0.10E-13
                   Integral cutoff threshold is set to       <: 0.10E-15

++    Symmetry information:
      ---------------------

                    Character Table for C1 

                             E  
                    a        1  x, y, xy, Rz, z, xz, Ry, yz, Rx, I
--


++    Basis set information:
      ----------------------


      Basis set label: V.ANO-RCC.ROOS.21S15P10D6F4G2H.10S9P8D6F4G2H......

      Electronic valence basis set:
      ------------------
      Associated Effective Charge  23.000000 au
      Associated Actual Charge     23.000000 au
      Nuclear Model: Point charge

      Shell  nPrim  nBasis  Cartesian Spherical Contaminant
         s      21      10        X                  
         p      15       9        X                  
         d      10       8                 X         
         f       6       6                 X         
         g       4       4                 X         
         h       2       2                 X         
--


++    Molecular structure info:
      -------------------------

                    ************************************************ 
                    **** Cartesian Coordinates / Bohr, Angstrom **** 
                    ************************************************ 

     Center  Label                x              y              z                     x              y              z
        1      V               -0.000000      -0.000000       0.008754             -0.000000      -0.000000       0.004632
--


++    Operator info:
      --------------


  Net charge from external field:   -39.268449999999902     
--


            Nuclear Potential Energy              0.00000000 au

                    Nuclear-External Field Potential Energy    -150.30449055 au
                    External Field Potential Energy            1146.88350099 au 


            Total Nuclear Potential Energy           -150.30449055 au


      Basis set specifications :
      Symmetry species         a  
      Basis functions          177

 Sorry, Molden does not know how to handle
 functions with angular momentum larger than g
Note: The following floating-point exceptions are signalling: IEEE_UNDERFLOW_FLAG IEEE_DENORMAL
--- Stop Module: seward at Wed Mar 26 15:56:06 2025 /rc=_RC_ALL_IS_WELL_ ---
*** files: vanadium_so_cf.GssOrb xmldump
    saved to directory /home4/s4752295/Internship/Initial_simulations/Point_charge_model/1_electron/Madelung_charges_9_active_space/V
--- Module seward spent 9 seconds ---

*** symbolic link created: INPORB -> vanadium_so_cf.GssOrb
--- Start Module: scf at Wed Mar 26 15:56:07 2025 ---

()()()()()()()()()()()()()()()()()()()()()()()()()()()()()()()()()()()()()()()()()()()()()()()()()()

                                                &SCF

                                   only a single process is used
                       available to each process: 4.1 GB of memory, 1 thread?
                                            pid: 2202805
()()()()()()()()()()()()()()()()()()()()()()()()()()()()()()()()()()()()()()()()()()()()()()()()()()

++    Input section:
      --------------

      Header of the integral files:
      
       Integrals generated by seward 4.2.0  , Wed Mar 26 15:55:57 2025


      Cartesian coordinates in Angstrom:
      -----------------------------------------------------
      No.  Label        X            Y            Z        
      -----------------------------------------------------
       1   V         -0.00000000  -0.00000000   0.00463220
      -----------------------------------------------------
      Nuclear repulsion energy = -150.30449055
--

++    Orbital specifications:
      -----------------------

      Symmetry species               1
                                     a
      Frozen orbitals                0
      Occupied orbitals              9
      Secondary orbitals           168
      Deleted orbitals               0
      Total number of orbitals     177
      Number of basis functions    177
--

      Molecular charge                           5.000

++    Optimization specifications:
      ----------------------------

      SCF Algorithm: Conventional
      Minimized density differences are used
      Number of density matrices in core                5
      Maximum number of NDDO SCF iterations            50
      Maximum number of HF SCF iterations             100
      Threshold for SCF energy change            0.10E-08
      Threshold for density matrix               0.10E-03
      Threshold for Fock matrix                  0.15E-03
      Threshold for linear dependence            0.10E-08
      Threshold at which DIIS is turned on       0.15E+00
      Threshold at which QNR/C2DIIS is turned on 0.75E-01
      Threshold for Norm(delta) (QNR/C2DIIS)     0.20E-04
      DIIS extrapolation of the SCF procedure
      All orbitals punched on: SCFORB
--

      Detected guessorb starting orbitals                                             


++ Convergence information
                                   SCF        iterations: Energy and convergence statistics

Iter     Tot. SCF        One-elec.       Two-elec.     Energy      Max Dij or  Max Fij      DNorm      TNorm      AccCon     Time
         Energy          Energy          Energy        Change      Delta Norm                                                in Sec.
   1  -974.698660371 -1113.873937432   289.479767612   0.00E+00    0.15E+00*   0.26E+00*    0.60E+01   0.22E+03   None         1.
   2  -975.163647118 -1122.712616921   297.853460354  -0.46E+00*   0.32E-01*   0.53E-01*    0.11E+01   0.22E+03   EDIIS        1.
   3  -975.174640393 -1121.602348295   296.732198454  -0.11E-01*   0.84E-02*   0.15E-01*    0.12E+00   0.22E+03   EDIIS        1.
   4  -975.175102367 -1121.786694471   296.916082655  -0.46E-03*   0.47E-03*   0.27E-02*    0.14E-01   0.22E+03   c2DIIS       1.
   5  -975.175128304 -1121.763550171   296.892912419  -0.26E-04*   0.15E-03*   0.23E-03*    0.15E-02   0.22E+03   QNRc2DIIS    1.
   6  -975.175128468 -1121.762277225   296.891639309  -0.16E-06*   0.43E-04*   0.44E-04     0.19E-03   0.22E+03   QNRc2DIIS    1.
   7  -975.175128478 -1121.762447071   296.891809145  -0.10E-07*   0.72E-05    0.94E-05     0.35E-04   0.22E+03   QNRc2DIIS    1.
   8  -975.175128478 -1121.762475780   296.891837853  -0.31E-09    0.30E-05    0.34E-05     0.59E-04   0.22E+03   QNRc2DIIS    1.

       Convergence after  8 Macro Iterations
--

 *****************************************************************************************************************************
 *                                                                                                                           *
 *                                             SCF/KS-DFT Program, Final results                                             *
 *                                                                                                                           *
 *                                                                                                                           *
 *                                                                                                                           *
 *                                                       Final Results                                                       *
 *                                                                                                                           *
 *****************************************************************************************************************************

::    Total SCF energy                               -975.1751284784
      One-electron energy                           -1121.7624757797
      Two-electron energy                             296.8918378527
      Nuclear repulsion energy                       -150.3044905514
      Kinetic energy (interpolated)                   973.8925602246
      Virial theorem                                    1.0013169505
      Total spin, S(S+1)                                0.0000000000
      Total spin, S                                     0.0000000000
      Max non-diagonal density matrix element           0.0000041128
      Max non-diagonal Fock matrix element              0.0000015854


      All orbitals with orbital energies smaller than  E(LUMO)+0.5 are printed

++    Molecular orbitals:
      -------------------

      Title: SCF orbitals

      Molecular orbitals for symmetry species 1: a  

          Orbital            1         2         3         4         5         6         7         8         9        10    
          Energy         -199.3355  -20.7120  -16.6100  -16.6100  -16.6091    0.5106    1.7795    1.7795    1.8175    4.0421
          Occ. No.          2.0000    2.0000    2.0000    2.0000    2.0000    2.0000    2.0000    2.0000    2.0000    0.0000

        1 V      1s         1.0000   -0.0001    0.0000   -0.0000   -0.0000    0.0001   -0.0000   -0.0000    0.0000   -0.0000
        2 V      2s         0.0001    1.0000    0.0000   -0.0000   -0.0037    0.0014    0.0000    0.0000   -0.0010    0.0001
        3 V      3s        -0.0000   -0.0015   -0.0000    0.0000    0.0012    0.9884    0.0001    0.0000   -0.1299    0.0233
        4 V      4s         0.0000    0.0000    0.0000   -0.0000   -0.0001   -0.0381   -0.0000   -0.0000    0.0327    0.4353
        5 V      5s        -0.0000   -0.0001   -0.0000    0.0000    0.0001    0.0311    0.0000    0.0000   -0.0283   -0.1633
        6 V      6s         0.0000    0.0003    0.0000   -0.0000   -0.0003   -0.0467   -0.0000   -0.0000    0.0390    0.0077
        7 V      7s        -0.0000   -0.0001   -0.0000    0.0000    0.0001    0.0032   -0.0000   -0.0000   -0.0001    0.0441
        8 V      8s         0.0000   -0.0000    0.0000   -0.0000   -0.0000    0.0068    0.0000    0.0000   -0.0063    0.0293
        9 V      9s        -0.0000    0.0001    0.0000   -0.0000   -0.0000    0.0006    0.0000    0.0000   -0.0012    0.0216
       10 V     10s         0.0000   -0.0002   -0.0000    0.0000    0.0000   -0.0009   -0.0000   -0.0000    0.0009    0.0037
       11 V      2px        0.0000    0.0037   -0.0020    0.0000    1.0000   -0.0009   -0.0000   -0.0000    0.0024   -0.0005
       12 V      3px       -0.0000    0.0008    0.0000   -0.0000   -0.0022    0.1356   -0.0014   -0.0000    0.9792   -0.0322
       13 V      4px        0.0000   -0.0001   -0.0000    0.0000    0.0003    0.0011    0.0001    0.0000   -0.0579    0.5486
       14 V      5px       -0.0000    0.0003    0.0000   -0.0000   -0.0006   -0.0076   -0.0001   -0.0000    0.0795   -0.1474
       15 V      6px        0.0000   -0.0001   -0.0000    0.0000    0.0002    0.0045    0.0000    0.0000   -0.0077   -0.1587
       16 V      7px       -0.0000    0.0001   -0.0000    0.0000    0.0000   -0.0013    0.0000    0.0000   -0.0108   -0.0170
       17 V      8px        0.0000   -0.0000    0.0000   -0.0000   -0.0002   -0.0011   -0.0000   -0.0000    0.0016    0.0340
       18 V      9px       -0.0000    0.0000   -0.0000    0.0000    0.0002    0.0006   -0.0000   -0.0000    0.0031    0.0339
       19 V     10px        0.0000   -0.0000    0.0000   -0.0000   -0.0003    0.0004   -0.0000    0.0000    0.0004    0.0110
       20 V      2py       -0.0000    0.0000    0.0000    1.0000    0.0000   -0.0000   -0.0000    0.0022   -0.0000   -0.0000
       21 V      3py       -0.0000   -0.0000   -0.0000   -0.0022   -0.0000   -0.0000   -0.0000    0.9912    0.0000    0.0000
       22 V      4py        0.0000    0.0000    0.0000    0.0003    0.0000    0.0000    0.0000   -0.0612   -0.0000   -0.0000
       23 V      5py       -0.0000   -0.0000   -0.0000   -0.0006   -0.0000   -0.0000   -0.0000    0.0795    0.0000    0.0000
       24 V      6py        0.0000    0.0000    0.0000    0.0002    0.0000    0.0000    0.0000   -0.0049    0.0000    0.0000
       25 V      7py       -0.0000   -0.0000    0.0000    0.0000   -0.0000    0.0000    0.0000   -0.0121   -0.0000   -0.0000
       26 V      8py        0.0000    0.0000   -0.0000   -0.0001   -0.0000   -0.0000   -0.0000    0.0007   -0.0000   -0.0000
       27 V      9py       -0.0000   -0.0000    0.0000    0.0002    0.0000   -0.0000   -0.0000    0.0035    0.0000   -0.0000
       28 V     10py        0.0000    0.0000   -0.0000   -0.0003   -0.0000    0.0000   -0.0000    0.0006    0.0000    0.0000
       29 V      2pz        0.0000    0.0000    1.0000   -0.0000    0.0020   -0.0000    0.0022    0.0000    0.0000   -0.0000
       30 V      3pz       -0.0000    0.0000   -0.0022    0.0000   -0.0000    0.0001    0.9912    0.0000    0.0014   -0.0001
       31 V      4pz        0.0000   -0.0000    0.0003   -0.0000    0.0000   -0.0000   -0.0612   -0.0000   -0.0001    0.0006
       32 V      5pz       -0.0000    0.0000   -0.0006    0.0000   -0.0000   -0.0000    0.0795    0.0000    0.0001   -0.0002
       33 V      6pz        0.0000   -0.0000    0.0002   -0.0000    0.0000    0.0000   -0.0049   -0.0000   -0.0000   -0.0002
       34 V      7pz       -0.0000    0.0000    0.0000   -0.0000    0.0000   -0.0000   -0.0121   -0.0000   -0.0000    0.0000
       35 V      8pz        0.0000   -0.0000   -0.0001    0.0000   -0.0000   -0.0000    0.0007    0.0000    0.0000    0.0001
       36 V      9pz       -0.0000    0.0000    0.0002   -0.0000    0.0000    0.0000    0.0035    0.0000    0.0000    0.0001
       37 V     10pz        0.0000   -0.0000   -0.0003    0.0000   -0.0000    0.0000    0.0006    0.0000    0.0000    0.0000
       38 V      3d2-      -0.0000   -0.0000    0.0000    0.0004    0.0000   -0.0000   -0.0000    0.0828    0.0000   -0.0000
       39 V      4d2-      -0.0000    0.0000   -0.0000   -0.0003   -0.0000    0.0000    0.0000   -0.0170   -0.0000    0.0000
       40 V      5d2-       0.0000   -0.0000    0.0000    0.0002    0.0000   -0.0000    0.0000   -0.0083   -0.0000    0.0000
       41 V      6d2-      -0.0000    0.0000   -0.0000   -0.0001   -0.0000    0.0000   -0.0000    0.0081    0.0000    0.0000
       42 V      7d2-       0.0000   -0.0000    0.0000    0.0001    0.0000   -0.0000   -0.0000    0.0028    0.0000   -0.0000
       43 V      8d2-      -0.0000   -0.0000   -0.0000   -0.0000   -0.0000    0.0000    0.0000   -0.0000   -0.0000   -0.0000
       44 V      9d2-       0.0000    0.0000    0.0000    0.0000    0.0000   -0.0000    0.0000   -0.0012   -0.0000   -0.0000
       45 V     10d2-      -0.0000   -0.0000   -0.0000   -0.0001   -0.0000    0.0000    0.0000   -0.0003   -0.0000   -0.0000
       46 V      3d1-      -0.0000   -0.0000    0.0000    0.0000   -0.0000   -0.0000    0.0000   -0.0001   -0.0000   -0.0000
       47 V      4d1-       0.0000    0.0000   -0.0000   -0.0000    0.0000   -0.0000    0.0000   -0.0001   -0.0000    0.0000
       48 V      5d1-      -0.0000   -0.0000    0.0000    0.0000   -0.0000    0.0000   -0.0000    0.0000    0.0000   -0.0000
       49 V      6d1-       0.0000    0.0000   -0.0000   -0.0000   -0.0000   -0.0000   -0.0000    0.0000    0.0000   -0.0000
       50 V      7d1-      -0.0000   -0.0000    0.0000    0.0000    0.0000    0.0000   -0.0000    0.0000    0.0000   -0.0000
       51 V      8d1-       0.0000    0.0000   -0.0000   -0.0000    0.0000   -0.0000    0.0000   -0.0000    0.0000    0.0000
       52 V      9d1-      -0.0000    0.0000    0.0000    0.0000    0.0000    0.0000    0.0000   -0.0000    0.0000    0.0000
       53 V     10d1-       0.0000    0.0000   -0.0000   -0.0000    0.0000   -0.0000    0.0000   -0.0000   -0.0000    0.0000
       54 V      3d0       -0.0000    0.0000    0.0000   -0.0000   -0.0002   -0.0015    0.0003    0.0000   -0.0510   -0.2992
       55 V      4d0        0.0000   -0.0000   -0.0000    0.0000    0.0002   -0.0004    0.0001    0.0000    0.0103   -0.0737
       56 V      5d0       -0.0000    0.0000    0.0000   -0.0000   -0.0001    0.0007   -0.0000   -0.0000    0.0050   -0.0152
       57 V      6d0       -0.0000    0.0000   -0.0000    0.0000    0.0001   -0.0001   -0.0000   -0.0000   -0.0048    0.0334
       58 V      7d0        0.0000   -0.0000    0.0000   -0.0000   -0.0000   -0.0002   -0.0000   -0.0000   -0.0017    0.0352
       59 V      8d0       -0.0000    0.0000   -0.0000    0.0000    0.0000   -0.0001    0.0000    0.0000   -0.0000    0.0249
       60 V      9d0        0.0000   -0.0000    0.0000   -0.0000   -0.0000    0.0000    0.0000    0.0000    0.0007    0.0094
       61 V     10d0       -0.0000   -0.0000   -0.0000    0.0000    0.0000    0.0000    0.0000    0.0000    0.0001    0.0013
       62 V      3d1+      -0.0000   -0.0000    0.0004   -0.0000    0.0000   -0.0000    0.0828    0.0000    0.0002    0.0013
       63 V      4d1+       0.0000    0.0000   -0.0003    0.0000   -0.0000    0.0000   -0.0170   -0.0000   -0.0000    0.0004
       64 V      5d1+      -0.0000   -0.0000    0.0002   -0.0000    0.0000    0.0000   -0.0083   -0.0000   -0.0000    0.0001
       65 V      6d1+       0.0000    0.0000   -0.0001    0.0000   -0.0000   -0.0000    0.0081    0.0000    0.0000   -0.0002
       66 V      7d1+      -0.0000   -0.0000    0.0001   -0.0000    0.0000   -0.0000    0.0028    0.0000    0.0000   -0.0002
       67 V      8d1+       0.0000   -0.0000   -0.0000    0.0000   -0.0000    0.0000   -0.0000   -0.0000   -0.0000   -0.0001
       68 V      9d1+      -0.0000    0.0000    0.0000   -0.0000    0.0000    0.0000   -0.0012   -0.0000   -0.0000   -0.0000
       69 V     10d1+       0.0000   -0.0000   -0.0001    0.0000   -0.0000    0.0000   -0.0003   -0.0000   -0.0000   -0.0000
       70 V      3d2+       0.0000   -0.0000   -0.0000    0.0000    0.0004    0.0026   -0.0000   -0.0000    0.0883    0.5201
       71 V      4d2+      -0.0000    0.0000    0.0000   -0.0000   -0.0003    0.0008    0.0001    0.0000   -0.0178    0.1282
       72 V      5d2+       0.0000   -0.0000   -0.0000    0.0000    0.0002   -0.0012    0.0000    0.0000   -0.0086    0.0265
       73 V      6d2+       0.0000   -0.0000    0.0000   -0.0000   -0.0001    0.0001   -0.0000   -0.0000    0.0083   -0.0580
       74 V      7d2+      -0.0000    0.0000   -0.0000    0.0000    0.0001    0.0003   -0.0000   -0.0000    0.0029   -0.0612
       75 V      8d2+       0.0000   -0.0000    0.0000   -0.0000   -0.0000    0.0002    0.0000    0.0000    0.0000   -0.0435
       76 V      9d2+      -0.0000    0.0000   -0.0000    0.0000    0.0000   -0.0000    0.0000    0.0000   -0.0013   -0.0165
       77 V     10d2+       0.0000    0.0000    0.0000   -0.0000   -0.0001   -0.0000    0.0000    0.0000   -0.0003   -0.0023
       78 V      4f3-       0.0000    0.0000   -0.0000   -0.0000   -0.0000   -0.0000   -0.0000    0.0019    0.0000   -0.0000
       79 V      5f3-      -0.0000   -0.0000    0.0000    0.0000    0.0000    0.0000   -0.0000    0.0018    0.0000   -0.0000
       80 V      6f3-       0.0000    0.0000   -0.0000   -0.0000   -0.0000   -0.0000    0.0000   -0.0003   -0.0000   -0.0000
       81 V      7f3-      -0.0000   -0.0000    0.0000    0.0000    0.0000    0.0000    0.0000   -0.0006   -0.0000   -0.0000
       82 V      8f3-       0.0000    0.0000   -0.0000   -0.0000   -0.0000   -0.0000    0.0000   -0.0001   -0.0000   -0.0000
       83 V      9f3-      -0.0000   -0.0000    0.0000    0.0000    0.0000   -0.0000   -0.0000    0.0002   -0.0000   -0.0000
       84 V      4f2-       0.0000    0.0000   -0.0000   -0.0000    0.0000    0.0000    0.0000   -0.0003   -0.0000   -0.0000
       85 V      5f2-      -0.0000   -0.0000    0.0000    0.0000   -0.0000   -0.0000    0.0000   -0.0003   -0.0000    0.0000
       86 V      6f2-       0.0000    0.0000   -0.0000   -0.0000    0.0000    0.0000    0.0000   -0.0000    0.0000    0.0000
       87 V      7f2-      -0.0000   -0.0000    0.0000    0.0000   -0.0000    0.0000   -0.0000    0.0001    0.0000    0.0000
       88 V      8f2-      -0.0000    0.0000   -0.0000   -0.0000    0.0000   -0.0000   -0.0000    0.0000    0.0000    0.0000
       89 V      9f2-       0.0000    0.0000   -0.0000   -0.0000   -0.0000    0.0000   -0.0000    0.0000    0.0000    0.0000
       90 V      4f1-       0.0000    0.0000    0.0000    0.0000    0.0000   -0.0000    0.0000   -0.0005    0.0000    0.0000
       91 V      5f1-      -0.0000   -0.0000   -0.0000   -0.0000   -0.0000    0.0000    0.0000   -0.0005   -0.0000   -0.0000
       92 V      6f1-       0.0000    0.0000    0.0000    0.0000   -0.0000   -0.0000   -0.0000    0.0001    0.0000   -0.0000
       93 V      7f1-      -0.0000   -0.0000   -0.0000   -0.0000   -0.0000    0.0000   -0.0000    0.0002    0.0000   -0.0000
       94 V      8f1-       0.0000    0.0000    0.0000    0.0000   -0.0000    0.0000   -0.0000    0.0000    0.0000    0.0000
       95 V      9f1-      -0.0000   -0.0000   -0.0000   -0.0000    0.0000    0.0000    0.0000   -0.0001    0.0000    0.0000
       96 V      4f0       -0.0000    0.0000    0.0000   -0.0000    0.0000    0.0000   -0.0012   -0.0000    0.0002    0.0069
       97 V      5f0        0.0000    0.0000   -0.0000    0.0000   -0.0000    0.0000   -0.0012   -0.0000    0.0002    0.0151
       98 V      6f0       -0.0000   -0.0000    0.0000   -0.0000    0.0000   -0.0000    0.0002    0.0000    0.0000    0.0119
       99 V      7f0        0.0000   -0.0000   -0.0000    0.0000   -0.0000   -0.0000    0.0004    0.0000   -0.0000    0.0027
      100 V      8f0       -0.0000   -0.0000    0.0000   -0.0000    0.0000    0.0000    0.0001    0.0000   -0.0000   -0.0055
      101 V      9f0        0.0000   -0.0000   -0.0000    0.0000   -0.0000    0.0000   -0.0001   -0.0000   -0.0000   -0.0103
      102 V      4f1+       0.0000   -0.0000    0.0000   -0.0000    0.0000   -0.0004    0.0003    0.0000   -0.0014   -0.0671
      103 V      5f1+      -0.0000    0.0000   -0.0000    0.0000   -0.0000   -0.0001    0.0002    0.0000   -0.0013   -0.0727
      104 V      6f1+       0.0000   -0.0000   -0.0000    0.0000    0.0000    0.0001    0.0000    0.0000    0.0002   -0.0234
      105 V      7f1+      -0.0000   -0.0000    0.0000   -0.0000   -0.0000    0.0000   -0.0000   -0.0000    0.0005    0.0086
      106 V      8f1+       0.0000    0.0000   -0.0000    0.0000    0.0000   -0.0000   -0.0000   -0.0000    0.0001    0.0179
      107 V      9f1+      -0.0000   -0.0000    0.0000   -0.0000   -0.0000   -0.0000   -0.0000   -0.0000   -0.0002    0.0194
      108 V      4f2+      -0.0000    0.0000   -0.0000    0.0000    0.0000    0.0000    0.0015    0.0000    0.0002    0.0059
      109 V      5f2+       0.0000   -0.0000    0.0000   -0.0000   -0.0000    0.0000    0.0015    0.0000    0.0002    0.0125
      110 V      6f2+      -0.0000   -0.0000   -0.0000    0.0000   -0.0000   -0.0000   -0.0003   -0.0000    0.0000    0.0097
      111 V      7f2+       0.0000   -0.0000    0.0000   -0.0000    0.0000   -0.0000   -0.0005   -0.0000   -0.0000    0.0021
      112 V      8f2+      -0.0000   -0.0000   -0.0000    0.0000   -0.0000    0.0000   -0.0001   -0.0000   -0.0000   -0.0045
      113 V      9f2+       0.0000   -0.0000    0.0000   -0.0000   -0.0000    0.0000    0.0002    0.0000   -0.0000   -0.0084
      114 V      4f3+      -0.0000    0.0000    0.0000   -0.0000   -0.0000    0.0005    0.0002    0.0000    0.0018    0.0874
      115 V      5f3+       0.0000   -0.0000   -0.0000    0.0000    0.0000    0.0002    0.0002    0.0000    0.0017    0.0951
      116 V      6f3+      -0.0000    0.0000    0.0000   -0.0000   -0.0000   -0.0001    0.0000    0.0000   -0.0003    0.0311
      117 V      7f3+       0.0000    0.0000   -0.0000    0.0000    0.0000   -0.0001   -0.0000   -0.0000   -0.0007   -0.0110
      118 V      8f3+      -0.0000   -0.0000    0.0000   -0.0000   -0.0000    0.0000   -0.0000   -0.0000   -0.0001   -0.0234
      119 V      9f3+       0.0000    0.0000    0.0000   -0.0000    0.0000    0.0000   -0.0000   -0.0000    0.0002   -0.0257
      120 V      5g4-       0.0000    0.0000    0.0000    0.0000    0.0000    0.0000   -0.0000    0.0005    0.0000   -0.0000
      121 V      6g4-      -0.0000   -0.0000   -0.0000   -0.0000   -0.0000   -0.0000   -0.0000    0.0005    0.0000   -0.0000
      122 V      7g4-       0.0000    0.0000    0.0000    0.0000   -0.0000    0.0000   -0.0000    0.0001   -0.0000   -0.0000
      123 V      8g4-      -0.0000   -0.0000    0.0000    0.0000    0.0000   -0.0000    0.0000   -0.0000    0.0000   -0.0000
      124 V      5g3-      -0.0000   -0.0000   -0.0000   -0.0000   -0.0000   -0.0000    0.0000   -0.0002   -0.0000    0.0000
      125 V      6g3-       0.0000    0.0000    0.0000    0.0000   -0.0000    0.0000    0.0000   -0.0003   -0.0000    0.0000
      126 V      7g3-      -0.0000   -0.0000   -0.0000   -0.0000   -0.0000   -0.0000    0.0000   -0.0001    0.0000    0.0000
      127 V      8g3-       0.0000    0.0000    0.0000    0.0000    0.0000    0.0000    0.0000   -0.0000    0.0000    0.0000
      128 V      5g2-      -0.0000    0.0000   -0.0000   -0.0000   -0.0000    0.0000    0.0000   -0.0002   -0.0000   -0.0000
      129 V      6g2-       0.0000    0.0000    0.0000    0.0000    0.0000   -0.0000    0.0000   -0.0002   -0.0000    0.0000
      130 V      7g2-      -0.0000   -0.0000   -0.0000   -0.0000    0.0000    0.0000    0.0000   -0.0000   -0.0000    0.0000
      131 V      8g2-       0.0000    0.0000   -0.0000   -0.0000    0.0000   -0.0000   -0.0000    0.0000    0.0000   -0.0000
      132 V      5g1-      -0.0000    0.0000    0.0000    0.0000   -0.0000   -0.0000   -0.0000    0.0001    0.0000    0.0000
      133 V      6g1-       0.0000   -0.0000    0.0000    0.0000   -0.0000    0.0000   -0.0000    0.0001   -0.0000    0.0000
      134 V      7g1-      -0.0000    0.0000   -0.0000   -0.0000    0.0000   -0.0000   -0.0000    0.0001    0.0000   -0.0000
      135 V      8g1-       0.0000   -0.0000    0.0000    0.0000   -0.0000    0.0000   -0.0000    0.0000   -0.0000   -0.0000
      136 V      5g0        0.0000   -0.0000   -0.0000    0.0000    0.0000   -0.0000   -0.0001   -0.0000    0.0002    0.0034
      137 V      6g0       -0.0000    0.0000    0.0000   -0.0000   -0.0000   -0.0000   -0.0001   -0.0000    0.0001    0.0070
      138 V      7g0       -0.0000   -0.0000   -0.0000    0.0000    0.0000    0.0000   -0.0001   -0.0000   -0.0000    0.0043
      139 V      8g0       -0.0000    0.0000    0.0000   -0.0000   -0.0000    0.0000   -0.0000   -0.0000   -0.0001    0.0009
      140 V      5g1+      -0.0000    0.0000   -0.0000    0.0000    0.0000    0.0001   -0.0004   -0.0000    0.0001    0.0045
      141 V      6g1+      -0.0000   -0.0000    0.0000   -0.0000    0.0000    0.0001   -0.0004   -0.0000    0.0002    0.0143
      142 V      7g1+       0.0000    0.0000   -0.0000    0.0000   -0.0000    0.0000   -0.0001   -0.0000    0.0001    0.0162
      143 V      8g1+       0.0000   -0.0000   -0.0000    0.0000   -0.0000   -0.0000    0.0000    0.0000    0.0000    0.0136
      144 V      5g2+      -0.0000    0.0000    0.0000   -0.0000   -0.0000    0.0000    0.0001    0.0000   -0.0003   -0.0051
      145 V      6g2+       0.0000   -0.0000   -0.0000    0.0000    0.0000    0.0000    0.0002    0.0000   -0.0002   -0.0107
      146 V      7g2+       0.0000    0.0000   -0.0000    0.0000   -0.0000   -0.0000    0.0001    0.0000    0.0000   -0.0066
      147 V      8g2+       0.0000   -0.0000    0.0000   -0.0000    0.0000   -0.0000    0.0000    0.0000    0.0001   -0.0015
      148 V      5g3+      -0.0000    0.0000    0.0000   -0.0000    0.0000    0.0001    0.0003    0.0000    0.0001    0.0053
      149 V      6g3+      -0.0000   -0.0000   -0.0000    0.0000    0.0000    0.0001    0.0004    0.0000    0.0003    0.0168
      150 V      7g3+       0.0000    0.0000    0.0000   -0.0000   -0.0000    0.0000    0.0001    0.0000    0.0002    0.0189
      151 V      8g3+       0.0000   -0.0000    0.0000   -0.0000   -0.0000   -0.0000   -0.0000   -0.0000    0.0000    0.0158
      152 V      5g4+       0.0000   -0.0000    0.0000   -0.0000    0.0000   -0.0000    0.0001    0.0000    0.0004    0.0070
      153 V      6g4+      -0.0000    0.0000   -0.0000    0.0000   -0.0000   -0.0000    0.0002    0.0000    0.0003    0.0149
      154 V      7g4+      -0.0000   -0.0000   -0.0000    0.0000    0.0000    0.0000    0.0001    0.0000   -0.0001    0.0095
      155 V      8g4+      -0.0000    0.0000   -0.0000    0.0000   -0.0000    0.0000    0.0000    0.0000   -0.0001    0.0026
      156 V      6h5-      -0.0000   -0.0000   -0.0000   -0.0000    0.0000    0.0000    0.0000   -0.0000    0.0000    0.0000
      157 V      7h5-       0.0000    0.0000    0.0000    0.0000   -0.0000   -0.0000   -0.0000    0.0000   -0.0000   -0.0000
      158 V      6h4-       0.0000   -0.0000    0.0000    0.0000    0.0000   -0.0000   -0.0000    0.0000    0.0000    0.0000
      159 V      7h4-      -0.0000    0.0000   -0.0000   -0.0000    0.0000   -0.0000   -0.0000    0.0000    0.0000   -0.0000
      160 V      6h3-      -0.0000   -0.0000    0.0000    0.0000    0.0000   -0.0000   -0.0000    0.0000    0.0000    0.0000
      161 V      7h3-       0.0000    0.0000   -0.0000   -0.0000   -0.0000   -0.0000    0.0000   -0.0000   -0.0000   -0.0000
      162 V      6h2-      -0.0000   -0.0000    0.0000    0.0000    0.0000   -0.0000   -0.0000    0.0001    0.0000   -0.0000
      163 V      7h2-      -0.0000    0.0000   -0.0000   -0.0000    0.0000   -0.0000   -0.0000    0.0002    0.0000   -0.0000
      164 V      6h1-       0.0000    0.0000   -0.0000   -0.0000    0.0000    0.0000    0.0000   -0.0000    0.0000    0.0000
      165 V      7h1-      -0.0000   -0.0000    0.0000    0.0000   -0.0000   -0.0000    0.0000   -0.0000   -0.0000   -0.0000
      166 V      6h0        0.0000   -0.0000   -0.0000    0.0000   -0.0000   -0.0000   -0.0000   -0.0000   -0.0001   -0.0010
      167 V      7h0        0.0000   -0.0000    0.0000   -0.0000    0.0000   -0.0001    0.0000    0.0000   -0.0002   -0.0028
      168 V      6h1+       0.0000   -0.0000    0.0000   -0.0000   -0.0000   -0.0000    0.0000    0.0000   -0.0001    0.0000
      169 V      7h1+       0.0000   -0.0000   -0.0000    0.0000    0.0000   -0.0000    0.0000    0.0000   -0.0001   -0.0003
      170 V      6h2+      -0.0000    0.0000    0.0000   -0.0000    0.0000    0.0000    0.0000    0.0000    0.0001    0.0006
      171 V      7h2+      -0.0000    0.0000   -0.0000    0.0000   -0.0000    0.0000   -0.0000   -0.0000    0.0001    0.0016
      172 V      6h3+      -0.0000    0.0000    0.0000   -0.0000    0.0000    0.0000    0.0001    0.0000    0.0001   -0.0000
      173 V      7h3+      -0.0000    0.0000   -0.0000    0.0000   -0.0000    0.0000    0.0001    0.0000    0.0001    0.0003
      174 V      6h4+      -0.0000    0.0000   -0.0000    0.0000    0.0000    0.0001   -0.0000   -0.0000    0.0001    0.0015
      175 V      7h4+      -0.0000    0.0000    0.0000   -0.0000   -0.0000    0.0001    0.0000    0.0000    0.0002    0.0044
      176 V      6h5+       0.0000   -0.0000    0.0000   -0.0000   -0.0000   -0.0000    0.0000    0.0000   -0.0001    0.0001
      177 V      7h5+       0.0000   -0.0000    0.0000   -0.0000    0.0000   -0.0000    0.0001    0.0000   -0.0002   -0.0003

          Orbital           11        12        13        14        15        16        17    
          Energy            4.1350    4.1354    4.1641    4.1642    4.2365    4.3828    4.3846
          Occ. No.          0.0000    0.0000    0.0000    0.0000    0.0000    0.0000    0.0000

        1 V      1s         0.0000   -0.0000    0.0000   -0.0000   -0.0000    0.0000    0.0000
        2 V      2s        -0.0000   -0.0000   -0.0000   -0.0000   -0.0001   -0.0000    0.0000
        3 V      3s        -0.0000   -0.0000   -0.0000   -0.0000    0.0093   -0.0001   -0.0000
        4 V      4s        -0.0007    0.0000   -0.0001   -0.0000    0.3737   -0.0017   -0.0000
        5 V      5s         0.0002    0.0000    0.0001    0.0000   -0.1277    0.0003    0.0000
        6 V      6s        -0.0000   -0.0000   -0.0000   -0.0000    0.0120    0.0000   -0.0000
        7 V      7s        -0.0000   -0.0000   -0.0000   -0.0000    0.0238    0.0001   -0.0000
        8 V      8s        -0.0000   -0.0000   -0.0000   -0.0000    0.0203    0.0000    0.0000
        9 V      9s        -0.0001    0.0000    0.0000    0.0000    0.0252   -0.0002    0.0000
       10 V     10s        -0.0000    0.0000    0.0000    0.0000    0.0075   -0.0001    0.0000
       11 V      2px        0.0000   -0.0000    0.0000    0.0000    0.0006    0.0000    0.0000
       12 V      3px        0.0001    0.0000    0.0001    0.0000    0.0852   -0.0000    0.0000
       13 V      4px       -0.0008    0.0000   -0.0002   -0.0000    0.3129   -0.0014   -0.0000
       14 V      5px        0.0002    0.0000    0.0001    0.0000    0.0291    0.0001    0.0000
       15 V      6px        0.0002   -0.0000    0.0000    0.0000   -0.1005    0.0001   -0.0000
       16 V      7px        0.0000   -0.0000   -0.0000   -0.0000   -0.0568    0.0001   -0.0000
       17 V      8px        0.0000   -0.0000   -0.0000   -0.0000    0.0090    0.0002   -0.0000
       18 V      9px        0.0000   -0.0000    0.0000    0.0000    0.0388    0.0001    0.0000
       19 V     10px       -0.0000   -0.0000    0.0000    0.0000    0.0153    0.0000    0.0000
       20 V      2py        0.0000   -0.0006    0.0000   -0.0001    0.0000   -0.0000    0.0002
       21 V      3py        0.0000   -0.0547    0.0000   -0.0125   -0.0000   -0.0000    0.0492
       22 V      4py       -0.0000    0.2336   -0.0000    0.0305   -0.0000   -0.0000    0.3913
       23 V      5py        0.0000   -0.0993    0.0000   -0.0219    0.0000   -0.0000    0.0326
       24 V      6py        0.0000   -0.0540    0.0000   -0.0066    0.0000    0.0000   -0.0894
       25 V      7py       -0.0000    0.0078   -0.0000    0.0050    0.0000    0.0000   -0.0684
       26 V      8py       -0.0000    0.0125   -0.0000    0.0024   -0.0000   -0.0000   -0.0020
       27 V      9py       -0.0000    0.0063    0.0000   -0.0013   -0.0000   -0.0000    0.0440
       28 V     10py       -0.0000    0.0022    0.0000   -0.0007   -0.0000   -0.0000    0.0203
       29 V      2pz       -0.0006   -0.0000    0.0001    0.0000    0.0000    0.0002    0.0000
       30 V      3pz       -0.0546   -0.0000    0.0122    0.0000    0.0001    0.0493    0.0000
       31 V      4pz        0.2348    0.0000   -0.0296   -0.0000    0.0001    0.3899    0.0000
       32 V      5pz       -0.0993   -0.0000    0.0214    0.0000    0.0000    0.0332    0.0000
       33 V      6pz       -0.0544   -0.0000    0.0064    0.0000   -0.0000   -0.0893   -0.0000
       34 V      7pz        0.0076    0.0000   -0.0049   -0.0000    0.0000   -0.0685   -0.0000
       35 V      8pz        0.0126    0.0000   -0.0024   -0.0000    0.0001   -0.0019   -0.0000
       36 V      9pz        0.0065    0.0000    0.0012    0.0000    0.0000    0.0442    0.0000
       37 V     10pz        0.0022    0.0000    0.0007    0.0000    0.0000    0.0204    0.0000
       38 V      3d2-      -0.0000    0.9075   -0.0000    0.1868   -0.0000    0.0000   -0.2104
       39 V      4d2-       0.0000   -0.0570    0.0000   -0.0388    0.0000   -0.0000    0.5979
       40 V      5d2-      -0.0000    0.0402   -0.0000    0.0010    0.0000   -0.0000    0.1395
       41 V      6d2-       0.0000   -0.0188   -0.0000    0.0004    0.0000    0.0000   -0.0843
       42 V      7d2-       0.0000   -0.0266   -0.0000    0.0015    0.0000    0.0000   -0.1331
       43 V      8d2-       0.0000   -0.0296   -0.0000    0.0006    0.0000    0.0000   -0.1242
       44 V      9d2-       0.0000   -0.0145   -0.0000    0.0007    0.0000    0.0000   -0.0681
       45 V     10d2-       0.0000   -0.0023   -0.0000    0.0002    0.0000    0.0000   -0.0131
       46 V      3d1-       0.0000   -0.1881   -0.0000    0.9434   -0.0000   -0.0000    0.0265
       47 V      4d1-      -0.0000    0.0150    0.0000   -0.2432    0.0000    0.0000   -0.1476
       48 V      5d1-       0.0000   -0.0147   -0.0000    0.0170    0.0000    0.0000   -0.0504
       49 V      6d1-      -0.0000    0.0007   -0.0000    0.0187   -0.0000   -0.0000    0.0160
       50 V      7d1-      -0.0000    0.0061   -0.0000    0.0145   -0.0000   -0.0000    0.0358
       51 V      8d1-      -0.0000    0.0101    0.0000   -0.0007   -0.0000   -0.0000    0.0411
       52 V      9d1-      -0.0000    0.0065    0.0000   -0.0020   -0.0000   -0.0000    0.0259
       53 V     10d1-      -0.0000    0.0013    0.0000   -0.0002   -0.0000   -0.0000    0.0053
       54 V      3d0        0.1603    0.0000    0.8181    0.0000    0.3657   -0.0234   -0.0000
       55 V      4d0       -0.0122   -0.0000   -0.2108   -0.0000   -0.2000    0.1261    0.0000
       56 V      5d0        0.0127    0.0000    0.0147    0.0000   -0.0105    0.0428    0.0000
       57 V      6d0       -0.0007   -0.0000    0.0162    0.0000    0.0309   -0.0138   -0.0000
       58 V      7d0       -0.0053   -0.0000    0.0125    0.0000    0.0370   -0.0306   -0.0000
       59 V      8d0       -0.0087   -0.0000   -0.0007   -0.0000    0.0252   -0.0350   -0.0000
       60 V      9d0       -0.0056   -0.0000   -0.0017   -0.0000    0.0116   -0.0221   -0.0000
       61 V     10d0       -0.0011   -0.0000   -0.0002   -0.0000    0.0021   -0.0046   -0.0000
       62 V      3d1+       0.9076    0.0000   -0.1830   -0.0000   -0.0009   -0.2135   -0.0000
       63 V      4d1+      -0.0551   -0.0000    0.0383    0.0000    0.0004    0.5984    0.0000
       64 V      5d1+       0.0407    0.0000   -0.0009   -0.0000   -0.0000    0.1395    0.0000
       65 V      6d1+      -0.0191   -0.0000   -0.0005   -0.0000   -0.0001   -0.0844   -0.0000
       66 V      7d1+      -0.0271   -0.0000   -0.0015   -0.0000   -0.0001   -0.1333   -0.0000
       67 V      8d1+      -0.0300   -0.0000   -0.0006   -0.0000   -0.0000   -0.1244   -0.0000
       68 V      9d1+      -0.0147   -0.0000   -0.0007   -0.0000   -0.0000   -0.0682   -0.0000
       69 V     10d1+      -0.0024   -0.0000   -0.0002   -0.0000    0.0000   -0.0132   -0.0000
       70 V      3d2+       0.0905    0.0000    0.4715    0.0000   -0.6347   -0.0134   -0.0000
       71 V      4d2+      -0.0068   -0.0000   -0.1216   -0.0000    0.3476    0.0730    0.0000
       72 V      5d2+       0.0073    0.0000    0.0085    0.0000    0.0183    0.0248    0.0000
       73 V      6d2+      -0.0004   -0.0000    0.0094    0.0000   -0.0538   -0.0081   -0.0000
       74 V      7d2+      -0.0031   -0.0000    0.0072    0.0000   -0.0643   -0.0179   -0.0000
       75 V      8d2+      -0.0051   -0.0000   -0.0004   -0.0000   -0.0439   -0.0204   -0.0000
       76 V      9d2+      -0.0033   -0.0000   -0.0010   -0.0000   -0.0202   -0.0129   -0.0000
       77 V     10d2+      -0.0006   -0.0000   -0.0001   -0.0000   -0.0037   -0.0026   -0.0000
       78 V      4f3-      -0.0000    0.1433   -0.0000    0.0220   -0.0000   -0.0000    0.1134
       79 V      5f3-      -0.0000    0.1439   -0.0000    0.0126   -0.0000   -0.0000    0.2961
       80 V      6f3-      -0.0000    0.0514    0.0000   -0.0028   -0.0000   -0.0000    0.2415
       81 V      7f3-       0.0000   -0.0014    0.0000   -0.0041   -0.0000   -0.0000    0.0691
       82 V      8f3-       0.0000   -0.0257    0.0000   -0.0014   -0.0000    0.0000   -0.0694
       83 V      9f3-       0.0000   -0.0352   -0.0000    0.0008   -0.0000    0.0000   -0.1425
       84 V      4f2-       0.0000   -0.0353   -0.0000    0.0890    0.0000    0.0000   -0.0652
       85 V      5f2-       0.0000   -0.0500   -0.0000    0.0530    0.0000    0.0000   -0.1518
       86 V      6f2-       0.0000   -0.0311    0.0000   -0.0061    0.0000    0.0000   -0.1283
       87 V      7f2-       0.0000   -0.0087    0.0000   -0.0118    0.0000    0.0000   -0.0472
       88 V      8f2-      -0.0000    0.0092    0.0000   -0.0052   -0.0000   -0.0000    0.0293
       89 V      9f2-      -0.0000    0.0188   -0.0000    0.0003   -0.0000   -0.0000    0.0722
       90 V      4f1-       0.0000   -0.0369    0.0000   -0.0056   -0.0000    0.0000   -0.0291
       91 V      5f1-       0.0000   -0.0370    0.0000   -0.0032   -0.0000    0.0000   -0.0760
       92 V      6f1-       0.0000   -0.0132   -0.0000    0.0007   -0.0000    0.0000   -0.0620
       93 V      7f1-      -0.0000    0.0004   -0.0000    0.0011   -0.0000    0.0000   -0.0177
       94 V      8f1-      -0.0000    0.0066   -0.0000    0.0004    0.0000   -0.0000    0.0178
       95 V      9f1-      -0.0000    0.0090    0.0000   -0.0002    0.0000   -0.0000    0.0366
       96 V      4f0       -0.0910   -0.0000    0.0137    0.0000    0.0059   -0.0717   -0.0000
       97 V      5f0       -0.0919   -0.0000    0.0077    0.0000    0.0125   -0.1878   -0.0000
       98 V      6f0       -0.0332   -0.0000   -0.0018   -0.0000    0.0097   -0.1534   -0.0000
       99 V      7f0        0.0007    0.0000   -0.0026   -0.0000    0.0016   -0.0439   -0.0000
      100 V      8f0        0.0165    0.0000   -0.0008   -0.0000   -0.0056    0.0440    0.0000
      101 V      9f0        0.0227    0.0000    0.0005    0.0000   -0.0098    0.0905    0.0000
      102 V      4f1+       0.0278    0.0000    0.0705    0.0000    0.0436    0.0505    0.0000
      103 V      5f1+       0.0394    0.0000    0.0420    0.0000   -0.0021    0.1179    0.0000
      104 V      6f1+       0.0245    0.0000   -0.0048   -0.0000   -0.0289    0.0997    0.0000
      105 V      7f1+       0.0068    0.0000   -0.0093   -0.0000   -0.0083    0.0366    0.0000
      106 V      8f1+      -0.0073   -0.0000   -0.0041   -0.0000    0.0096   -0.0228   -0.0000
      107 V      9f1+      -0.0148   -0.0000    0.0002    0.0000    0.0191   -0.0562   -0.0000
      108 V      4f2+       0.1175    0.0000   -0.0175   -0.0000    0.0045    0.0925    0.0000
      109 V      5f2+       0.1185    0.0000   -0.0099   -0.0000    0.0099    0.2420    0.0000
      110 V      6f2+       0.0427    0.0000    0.0023    0.0000    0.0077    0.1976    0.0000
      111 V      7f2+      -0.0010   -0.0000    0.0033    0.0000    0.0012    0.0564    0.0000
      112 V      8f2+      -0.0213   -0.0000    0.0011    0.0000   -0.0045   -0.0569   -0.0000
      113 V      9f2+      -0.0293   -0.0000   -0.0007   -0.0000   -0.0078   -0.1168   -0.0000
      114 V      4f3+       0.0213    0.0000    0.0544    0.0000   -0.0560    0.0397    0.0000
      115 V      5f3+       0.0306    0.0000    0.0324    0.0000    0.0034    0.0924    0.0000
      116 V      6f3+       0.0192    0.0000   -0.0037   -0.0000    0.0379    0.0781    0.0000
      117 V      7f3+       0.0054    0.0000   -0.0072   -0.0000    0.0109    0.0286    0.0000
      118 V      8f3+      -0.0057   -0.0000   -0.0032   -0.0000   -0.0126   -0.0180   -0.0000
      119 V      9f3+      -0.0116   -0.0000    0.0001    0.0000   -0.0251   -0.0441   -0.0000
      120 V      5g4-      -0.0000    0.0181   -0.0000    0.0016   -0.0000   -0.0000    0.0401
      121 V      6g4-      -0.0000    0.0473   -0.0000    0.0030   -0.0000   -0.0000    0.1206
      122 V      7g4-      -0.0000    0.0435   -0.0000    0.0013   -0.0000   -0.0000    0.1303
      123 V      8g4-      -0.0000    0.0296    0.0000   -0.0003   -0.0000   -0.0000    0.1046
      124 V      5g3-       0.0000   -0.0087   -0.0000    0.0057   -0.0000    0.0000   -0.0262
      125 V      6g3-       0.0000   -0.0262   -0.0000    0.0119    0.0000    0.0000   -0.0844
      126 V      7g3-       0.0000   -0.0282   -0.0000    0.0076    0.0000    0.0000   -0.0966
      127 V      8g3-       0.0000   -0.0229   -0.0000    0.0026    0.0000    0.0000   -0.0819
      128 V      5g2-       0.0000   -0.0068    0.0000   -0.0006   -0.0000    0.0000   -0.0150
      129 V      6g2-       0.0000   -0.0177    0.0000   -0.0011    0.0000    0.0000   -0.0452
      130 V      7g2-       0.0000   -0.0163    0.0000   -0.0005    0.0000    0.0000   -0.0488
      131 V      8g2-       0.0000   -0.0111   -0.0000    0.0001    0.0000    0.0000   -0.0391
      132 V      5g1-      -0.0000    0.0045    0.0000   -0.0021    0.0000   -0.0000    0.0123
      133 V      6g1-      -0.0000    0.0132    0.0000   -0.0044   -0.0000   -0.0000    0.0400
      134 V      7g1-      -0.0000    0.0140    0.0000   -0.0029   -0.0000   -0.0000    0.0463
      135 V      8g1-      -0.0000    0.0112    0.0000   -0.0010   -0.0000   -0.0000    0.0396
      136 V      5g0       -0.0046   -0.0000   -0.0034   -0.0000   -0.0012   -0.0143   -0.0000
      137 V      6g0       -0.0140   -0.0000   -0.0072   -0.0000   -0.0025   -0.0457   -0.0000
      138 V      7g0       -0.0152   -0.0000   -0.0046   -0.0000   -0.0013   -0.0520   -0.0000
      139 V      8g0       -0.0123   -0.0000   -0.0016   -0.0000   -0.0002   -0.0440   -0.0000
      140 V      5g1+      -0.0147   -0.0000    0.0013    0.0000    0.0038   -0.0323   -0.0000
      141 V      6g1+      -0.0384   -0.0000    0.0023    0.0000    0.0122   -0.0972   -0.0000
      142 V      7g1+      -0.0354   -0.0000    0.0009    0.0000    0.0138   -0.1052   -0.0000
      143 V      8g1+      -0.0242   -0.0000   -0.0003   -0.0000    0.0116   -0.0845   -0.0000
      144 V      5g2+       0.0056    0.0000    0.0030    0.0000    0.0018    0.0157    0.0000
      145 V      6g2+       0.0166    0.0000    0.0063    0.0000    0.0035    0.0509    0.0000
      146 V      7g2+       0.0177    0.0000    0.0041    0.0000    0.0017    0.0586    0.0000
      147 V      8g2+       0.0143    0.0000    0.0014    0.0000    0.0002    0.0499    0.0000
      148 V      5g3+       0.0129    0.0000   -0.0011   -0.0000    0.0044    0.0284    0.0000
      149 V      6g3+       0.0338    0.0000   -0.0020   -0.0000    0.0141    0.0855    0.0000
      150 V      7g3+       0.0311    0.0000   -0.0008   -0.0000    0.0159    0.0924    0.0000
      151 V      8g3+       0.0212    0.0000    0.0003    0.0000    0.0134    0.0742    0.0000
      152 V      5g4+       0.0066    0.0000    0.0040    0.0000   -0.0022    0.0193    0.0000
      153 V      6g4+       0.0198    0.0000    0.0084    0.0000   -0.0042    0.0623    0.0000
      154 V      7g4+       0.0213    0.0000    0.0054    0.0000   -0.0018    0.0714    0.0000
      155 V      8g4+       0.0172    0.0000    0.0019    0.0000    0.0002    0.0607    0.0000
      156 V      6h5-      -0.0000    0.0020   -0.0000    0.0004   -0.0000   -0.0000    0.0036
      157 V      7h5-      -0.0000    0.0048   -0.0000    0.0007   -0.0000   -0.0000    0.0105
      158 V      6h4-       0.0000   -0.0011   -0.0000    0.0008   -0.0000    0.0000   -0.0028
      159 V      7h4-       0.0000   -0.0030   -0.0000    0.0016   -0.0000    0.0000   -0.0082
      160 V      6h3-       0.0000   -0.0009    0.0000   -0.0002   -0.0000    0.0000   -0.0016
      161 V      7h3-       0.0000   -0.0022    0.0000   -0.0003   -0.0000    0.0000   -0.0048
      162 V      6h2-      -0.0000    0.0013    0.0000   -0.0004    0.0000   -0.0000    0.0025
      163 V      7h2-      -0.0000    0.0034    0.0000   -0.0007   -0.0000   -0.0000    0.0073
      164 V      6h1-      -0.0000    0.0002   -0.0000    0.0000   -0.0000   -0.0000    0.0004
      165 V      7h1-      -0.0000    0.0006   -0.0000    0.0001   -0.0000   -0.0000    0.0011
      166 V      6h0        0.0011    0.0000   -0.0002   -0.0000   -0.0007    0.0020    0.0000
      167 V      7h0        0.0027    0.0000   -0.0004   -0.0000   -0.0021    0.0059    0.0000
      168 V      6h1+      -0.0007   -0.0000   -0.0006   -0.0000   -0.0007   -0.0020   -0.0000
      169 V      7h1+      -0.0020   -0.0000   -0.0012   -0.0000   -0.0014   -0.0058   -0.0000
      170 V      6h2+      -0.0015   -0.0000    0.0002    0.0000    0.0004   -0.0026   -0.0000
      171 V      7h2+      -0.0035   -0.0000    0.0005    0.0000    0.0012   -0.0075   -0.0000
      172 V      6h3+       0.0009    0.0000    0.0002    0.0000    0.0007    0.0017    0.0000
      173 V      7h3+       0.0025    0.0000    0.0004    0.0000    0.0015    0.0050    0.0000
      174 V      6h4+       0.0013    0.0000   -0.0002   -0.0000    0.0011    0.0023    0.0000
      175 V      7h4+       0.0031    0.0000   -0.0004   -0.0000    0.0032    0.0067    0.0000
      176 V      6h5+       0.0012    0.0000    0.0006    0.0000   -0.0009    0.0027    0.0000
      177 V      7h5+       0.0033    0.0000    0.0011    0.0000   -0.0020    0.0078    0.0000
--


++    Molecular charges:
      ------------------

      Mulliken charges per centre and basis function type
      ---------------------------------------------------

                V     
      1s       2.0000
      2s       2.0000
      2px      2.0000
      2pz      2.0000
      2py      2.0000
      3s       1.9875
      3px      1.9544
      3pz      1.9649
      3py      1.9649
      4s       0.0050
      3d2+     0.0156
      3d1+     0.0137
      3d0      0.0052
      3d1-     0.0000
      3d2-     0.0137
      4px      0.0067
      4pz      0.0075
      4py      0.0075
      5s       0.0035
      4d2+     0.0006
      4d1+     0.0006
      4d0      0.0002
      4d1-     0.0000
      4d2-     0.0006
      5px      0.0128
      5pz      0.0126
      5py      0.0126
      6s       0.0074
      4f3+     0.0000
      4f2+     0.0000
      4f1+     0.0000
      4f0      0.0000
      4f1-     0.0000
      4f2-     0.0000
      4f3-     0.0000
      5d2+     0.0002
      5d1+     0.0001
      5d0      0.0001
      5d1-     0.0000
      5d2-     0.0001
      6px      0.0002
      6pz      0.0000
      6py      0.0000
      7s       0.0000
      5f3+     0.0000
      5f2+     0.0000
      5f1+     0.0000
      5f0      0.0000
      5f1-     0.0000
      5f2-     0.0000
      5f3-     0.0000
      6d2+     0.0001
      6d1+     0.0001
      6d0      0.0000
      6d1-     0.0000
      6d2-     0.0001
      7px      0.0002
      7pz      0.0003
      7py      0.0003
      5g4+     0.0000
      5g3+     0.0000
      5g2+     0.0000
      5g1+     0.0000
      5g0      0.0000
      5g1-     0.0000
      5g2-     0.0000
      5g3-     0.0000
      5g4-     0.0000
      6f3+     0.0000
      6f2+     0.0000
      6f1+     0.0000
      6f0      0.0000
      6f1-     0.0000
      6f2-     0.0000
      6f3-     0.0000
      6g4+     0.0000
      6g3+     0.0000
      6g2+     0.0000
      6g1+     0.0000
      6g0      0.0000
      6g1-     0.0000
      6g2-     0.0000
      6g3-     0.0000
      6g4-     0.0000
      6h5+     0.0000
      6h4+     0.0000
      6h3+     0.0000
      6h2+     0.0000
      6h1+     0.0000
      6h0      0.0000
      6h1-     0.0000
      6h2-     0.0000
      6h3-     0.0000
      6h4-     0.0000
      6h5-     0.0000
      7d2+     0.0000
      7d1+     0.0000
      7d0      0.0000
      7d1-     0.0000
      7d2-     0.0000
      7f3+     0.0000
      7f2+     0.0000
      7f1+     0.0000
      7f0      0.0000
      7f1-     0.0000
      7f2-     0.0000
      7f3-     0.0000
      7g4+     0.0000
      7g3+     0.0000
      7g2+     0.0000
      7g1+     0.0000
      7g0      0.0000
      7g1-     0.0000
      7g2-     0.0000
      7g3-     0.0000
      7g4-     0.0000
      7h5+     0.0000
      7h4+     0.0000
      7h3+     0.0000
      7h2+     0.0000
      7h1+     0.0000
      7h0      0.0000
      7h1-     0.0000
      7h2-     0.0000
      7h3-     0.0000
      7h4-     0.0000
      7h5-     0.0000
      8s       0.0002
      8px      0.0000
      8pz      0.0000
      8py      0.0000
      8d2+     0.0000
      8d1+     0.0000
      8d0      0.0000
      8d1-     0.0000
      8d2-     0.0000
      8f3+     0.0000
      8f2+     0.0000
      8f1+     0.0000
      8f0      0.0000
      8f1-     0.0000
      8f2-     0.0000
      8f3-     0.0000
      8g4+     0.0000
      8g3+     0.0000
      8g2+     0.0000
      8g1+     0.0000
      8g0      0.0000
      8g1-     0.0000
      8g2-     0.0000
      8g3-     0.0000
      8g4-     0.0000
      9s       0.0000
      9px      0.0000
      9pz      0.0000
      9py      0.0000
      9d2+     0.0000
      9d1+     0.0000
      9d0      0.0000
      9d1-     0.0000
      9d2-     0.0000
      9f3+     0.0000
      9f2+     0.0000
      9f1+     0.0000
      9f0      0.0000
      9f1-     0.0000
      9f2-     0.0000
      9f3-     0.0000
     10s       0.0000
     10px      0.0000
     10pz      0.0000
     10py      0.0000
     10d2+     0.0000
     10d1+     0.0000
     10d0      0.0000
     10d1-     0.0000
     10d2-     0.0000
      Total   18.0000

      N-E      5.0000

      Total electronic charge=   18.000000

      Total            charge=    5.000000
--

 Sorry, Molden does not know how to handle
 functions with angular momentum larger than g

++    Static properties:
      ------------------


      LoProp Charges per center


                   V     
      Nuclear     23.0000
      Electronic -18.0000

      Total        5.0000
--


++    Molecular properties:
      ---------------------

      Charge (e):
                      =    5.0000
      Dipole Moment (Debye):
      Origin of the operator (Ang)=    0.0000    0.0000    0.0000
[...]
         6   14       9.42496232E-03  7.79269783E-13  2.22538954E+07  4.60698352E-13  2.22538954E+07
         6   16       1.45971007E-01  3.26621643E+08  4.56858296E-13  2.28009554E+07  3.49422598E+08
         6   18       7.82232544E-03  6.99183208E-17  8.88625343E+07  2.33062325E-13  8.88625343E+07
         7   11       8.95445658E-05  6.71521752E-01  1.31426347E-12  1.95382647E+04  1.95389362E+04
         7   13       1.47266995E-03  3.85319145E+05  1.57948882E-10  2.56694695E+06  2.95226610E+06
         7   15       1.30136950E-03  2.82710933E-11  2.64798071E+06  1.63645868E-10  2.64798071E+06
         7   17       1.19156346E-03  2.29050811E+03  8.89289667E-10  1.25816180E+07  1.25839085E+07
         8   12       8.95445658E-05  6.71521752E-01  1.31426347E-12  1.95382647E+04  1.95389362E+04
         8   14       1.47266995E-03  3.85319145E+05  1.57948882E-10  2.56694695E+06  2.95226610E+06
         8   16       1.30136950E-03  2.82710933E-11  2.64798071E+06  1.63645868E-10  2.64798071E+06
         8   18       1.19156346E-03  2.29050811E+03  8.89289667E-10  1.25816180E+07  1.25839085E+07
         9   11       9.65555161E-05  3.54623788E-17  2.10578885E+04  1.25508632E-12  2.10578885E+04
         9   13       1.25199344E-03  2.56548082E-11  2.50944828E+06  1.60165970E-10  2.50944828E+06
         9   15       1.50594139E-03  4.65019440E+05  1.64969808E-10  2.59869958E+06  3.06371902E+06
         9   17       1.32424345E-03  1.59276392E-13  1.39840840E+07  8.07054021E-10  1.39840840E+07
        10   12       9.65555161E-05  3.54623788E-17  2.10578885E+04  1.25508632E-12  2.10578885E+04
        10   14       1.25199344E-03  2.56548082E-11  2.50944828E+06  1.60165970E-10  2.50944828E+06
        10   16       1.50594139E-03  4.65019440E+05  1.64969808E-10  2.59869958E+06  3.06371902E+06
        10   18       1.32424345E-03  1.59276392E-13  1.39840840E+07  8.07054021E-10  1.39840840E+07
        11   13       5.96742662E-02  1.42691472E-01  5.32156322E-13  5.37147141E+07  5.37147142E+07
        11   15       6.00522208E-02  2.46567163E-16  5.52668136E+07  5.37899762E-13  5.52668136E+07
        11   17       1.37964406E-01  1.06824876E+09  4.67775158E-17  7.37664177E+03  1.06825614E+09
        12   14       5.96742662E-02  1.42691472E-01  5.32156322E-13  5.37147141E+07  5.37147142E+07
        12   16       6.00522208E-02  2.46567163E-16  5.52668136E+07  5.37899762E-13  5.52668136E+07
        12   18       1.37964406E-01  1.06824876E+09  4.67775158E-17  7.37664177E+03  1.06825614E+09
        13   15       5.53356506E-04  1.25946563E-22  6.18984054E+01  2.39827164E-18  6.18984054E+01
        13   17       1.48958682E-02  2.99242727E+02  4.67487675E-13  5.00956238E+07  5.00959231E+07
        14   16       5.53356506E-04  1.25946563E-22  6.18984054E+01  2.39827164E-18  6.18984054E+01
        14   18       1.48958682E-02  2.99242727E+02  4.67487675E-13  5.00956238E+07  5.00959231E+07
        15   17       1.40020357E-02  2.63978040E-16  4.65483050E+07  4.81828222E-13  4.65483050E+07
        16   18       1.40020357E-02  2.63978040E-16  4.65483050E+07  4.81828222E-13  4.65483050E+07
     -----------------------------------------------------------------------------------------------
--

++ Velocity transition strengths (SO states):
   ------------------------------------------
    for osc. strength at least    1.0000000000000001E-005

      From   To        Osc. strength     Einstein coefficients Ax, Ay, Az (sec-1)    Total A (sec-1)
     -----------------------------------------------------------------------------------------------
         1    3       2.76449037E-02  2.90292957E-02  9.54837712E-15  4.86582041E+06  4.86582044E+06
         1    5       2.70573622E-02  1.08562604E-16  4.80216823E+06  1.20449030E-14  4.80216823E+06
         1    7       2.01851311E-04  2.26700300E+00  4.08298532E-12  5.92983626E+04  5.93006296E+04
         1    9       2.23718249E-04  7.40613006E-20  6.57539881E+04  3.79455470E-12  6.57539881E+04
         1   11       1.24286927E-01  1.26569506E+08  3.13566955E-16  1.60810873E+02  1.26569667E+08
         1   13       2.11278150E-01  5.38080773E+03  7.91698754E-12  8.09899190E+08  8.09904570E+08
         1   15       2.09917169E-01  3.11731223E-17  8.13404643E+08  7.97796128E-12  8.13404643E+08
         1   17       1.77369837E-01  2.55012192E+09  8.13893992E-18  1.38913022E+04  2.55013581E+09
         2    4       2.76449037E-02  2.90292957E-02  9.54837712E-15  4.86582041E+06  4.86582044E+06
         2    6       2.70573622E-02  1.08562604E-16  4.80216823E+06  1.20449030E-14  4.80216823E+06
         2    8       2.01851311E-04  2.26700300E+00  4.08298532E-12  5.92983626E+04  5.93006296E+04
         2   10       2.23718249E-04  7.40613006E-20  6.57539881E+04  3.79455470E-12  6.57539881E+04
         2   12       1.24286927E-01  1.26569506E+08  3.13566955E-16  1.60810873E+02  1.26569667E+08
         2   14       2.11278150E-01  5.38080773E+03  7.91698754E-12  8.09899190E+08  8.09904570E+08
         2   16       2.09917169E-01  3.11731223E-17  8.13404643E+08  7.97796128E-12  8.13404643E+08
         2   18       1.77369837E-01  2.55012192E+09  8.13893992E-18  1.38913022E+04  2.55013581E+09
         3    5       2.22284493E-05  1.26957713E-19  6.78989252E-02  5.45025031E-20  6.78989252E-02
         3    7       2.41602729E-03  1.47983622E+00  2.27931209E-12  3.62427678E+04  3.62442476E+04
         3    9       2.39800116E-03  1.36547486E-16  3.60446000E+04  2.30014181E-12  3.60446000E+04
         3   11       4.05945026E-03  2.14507271E+01  4.05844459E-15  1.41117856E+06  1.41120001E+06
         3   13       1.32535919E-01  2.93885414E+08  4.65006246E-13  1.97671873E+07  3.13652602E+08
         3   15       8.86458409E-03  7.76853223E-13  2.12679135E+07  4.45272475E-13  2.12679135E+07
         3   17       9.56485463E-03  1.27248603E+04  2.50094352E-13  1.08758240E+08  1.08770965E+08
         4    6       2.22284493E-05  1.26957713E-19  6.78989252E-02  5.45025031E-20  6.78989252E-02
         4    8       2.41602729E-03  1.47983622E+00  2.27931209E-12  3.62427678E+04  3.62442476E+04
         4   10       2.39800116E-03  1.36547486E-16  3.60446000E+04  2.30014181E-12  3.60446000E+04
         4   12       4.05945026E-03  2.14507271E+01  4.05844459E-15  1.41117856E+06  1.41120001E+06
         4   14       1.32535919E-01  2.93885414E+08  4.65006246E-13  1.97671873E+07  3.13652602E+08
         4   16       8.86458409E-03  7.76853223E-13  2.12679135E+07  4.45272475E-13  2.12679135E+07
         4   18       9.56485463E-03  1.27248603E+04  2.50094352E-13  1.08758240E+08  1.08770965E+08
         5    7       2.42800059E-03  7.58685229E-17  3.53917831E+04  2.25145917E-12  3.53917831E+04
         5    9       2.43565121E-03  8.33512449E-01  2.23994953E-12  3.55733279E+04  3.55741615E+04
         5   11       4.03563688E-03  1.85650539E-17  1.39461677E+06  3.15426930E-15  1.39461677E+06
         5   13       8.65401974E-03  7.39487059E-13  2.04336435E+07  4.28229366E-13  2.04336435E+07
         5   15       1.31934997E-01  2.94881158E+08  4.24740817E-13  2.09434073E+07  3.15824565E+08
         5   17       9.83255892E-03  3.26973073E-17  1.11699411E+08  2.98656211E-13  1.11699411E+08
         6    8       2.42800059E-03  7.58685229E-17  3.53917831E+04  2.25145917E-12  3.53917831E+04
         6   10       2.43565121E-03  8.33512449E-01  2.23994953E-12  3.55733279E+04  3.55741615E+04
         6   12       4.03563688E-03  1.85650539E-17  1.39461677E+06  3.15426930E-15  1.39461677E+06
         6   14       8.65401974E-03  7.39487059E-13  2.04336435E+07  4.28229366E-13  2.04336435E+07
         6   16       1.31934997E-01  2.94881158E+08  4.24740817E-13  2.09434073E+07  3.15824565E+08
         6   18       9.83255892E-03  3.26973073E-17  1.11699411E+08  2.98656211E-13  1.11699411E+08
         7    9       7.15238566E-05  3.80869487E-21  1.03720300E-03  1.06515122E-20  1.03720300E-03
         7   11       2.66610958E-04  1.56339428E+00  3.87647051E-12  5.81740786E+04  5.81756420E+04
         7   13       1.72194146E-03  5.40648148E+05  1.79240512E-10  2.91134534E+06  3.45199348E+06
         7   15       1.46766276E-03  3.88723797E-11  2.98635876E+06  1.83960016E-10  2.98635876E+06
         7   17       9.47309900E-04  1.84225823E+03  7.08926633E-10  1.00025788E+07  1.00044211E+07
         8   10       7.15238566E-05  3.80869487E-21  1.03720300E-03  1.06515122E-20  1.03720300E-03
         8   12       2.66610958E-04  1.56339428E+00  3.87647051E-12  5.81740786E+04  5.81756420E+04
         8   14       1.72194146E-03  5.40648148E+05  1.79240512E-10  2.91134534E+06  3.45199348E+06
         8   16       1.46766276E-03  3.88723797E-11  2.98635876E+06  1.83960016E-10  2.98635876E+06
         8   18       9.47309900E-04  1.84225823E+03  7.08926633E-10  1.00025788E+07  1.00044211E+07
         9   11       2.80673348E-04  2.22749981E-16  6.12125424E+04  3.74935175E-12  6.12125424E+04
         9   13       1.42337478E-03  3.61616489E-11  2.85296847E+06  1.81194762E-10  2.85296847E+06
         9   15       1.74926490E-03  6.31284120E+05  1.85915145E-10  2.92746979E+06  3.55875391E+06
         9   17       1.05842543E-03  1.18326924E-13  1.11770699E+07  6.41393352E-10  1.11770699E+07
        10   12       2.80673348E-04  2.22749981E-16  6.12125424E+04  3.74935175E-12  6.12125424E+04
        10   14       1.42337478E-03  3.61616489E-11  2.85296847E+06  1.81194762E-10  2.85296847E+06
        10   16       1.74926490E-03  6.31284120E+05  1.85915145E-10  2.92746979E+06  3.55875391E+06
        10   18       1.05842543E-03  1.18326924E-13  1.11770699E+07  6.41393352E-10  1.11770699E+07
        11   13       1.30839291E-01  1.90882096E+01  1.18014861E-12  1.17773017E+08  1.17773037E+08
        11   15       1.30218575E-01  1.75665059E-16  1.19842208E+08  1.18178332E-12  1.19842208E+08
        11   17       9.24618317E-02  7.15926677E+08  6.55986240E-20  6.26522977E+03  7.15932943E+08
        12   14       1.30839291E-01  1.90882096E+01  1.18014861E-12  1.17773017E+08  1.17773037E+08
        12   16       1.30218575E-01  1.75665059E-16  1.19842208E+08  1.18178332E-12  1.19842208E+08
        12   18       9.24618317E-02  7.15926677E+08  6.55986240E-20  6.26522977E+03  7.15932943E+08
        13   15       3.74698867E-04  1.58342570E-19  4.19139249E+01  2.10892370E-18  4.19139249E+01
        13   17       6.05798942E-04  9.20352847E+01  1.52983704E-14  2.03726237E+06  2.03735441E+06
        14   16       3.74698867E-04  1.58342570E-19  4.19139249E+01  2.10892370E-18  4.19139249E+01
        14   18       6.05798942E-04  9.20352847E+01  1.52983704E-14  2.03726237E+06  2.03735441E+06
        15   17       4.73185762E-04  1.13082503E-15  1.57306210E+06  2.04533927E-14  1.57306210E+06
        16   18       4.73185762E-04  1.13082503E-15  1.57306210E+06  2.04533927E-14  1.57306210E+06
     -----------------------------------------------------------------------------------------------
--

++ Length and velocity gauge comparison (SO states):

 --------------------------------------------------
 A comparison between the dipole oscillator strengths in 
 length and velocity gauge will be performed

 All dipole oscillator differences above the tolerance of   0.10000000000000001       will be printed 

 Due to basis set deficiency these oscillator may be problematic 

 The tolerance is defined as ABS(1-O_l/O_v) 
 O_l : dipole oscillator strength in length gauge
 O_p : dipole oscillator strength in velocity gauge
 --------------------------------------------------

  Problematic transitions have been found

      From   To       Difference (%) Osc. st. (len.) Osc. st. (vel.)
     ---------------------------------------------------------------
         1    3            72.000697  7.74038028E-03  2.76449037E-02
         1    5            71.895071  7.60445239E-03  2.70573622E-02
         1    7            36.122669  1.28937230E-04  2.01851311E-04
         1    9            37.315090  1.40237584E-04  2.23718249E-04
         1   11            18.055413  1.46727445E-01  1.24286927E-01
         1   13            26.365129  1.55574394E-01  2.11278150E-01
         1   15            26.192663  1.54934271E-01  2.09917169E-01
         1   17            36.719742  2.42499583E-01  1.77369837E-01
         2    4            72.000697  7.74038028E-03  2.76449037E-02
         2    6            71.895071  7.60445239E-03  2.70573622E-02
         2    8            36.122669  1.28937230E-04  2.01851311E-04
         2   10            37.315090  1.40237584E-04  2.23718249E-04
         2   12            18.055413  1.46727445E-01  1.24286927E-01
         2   14            26.365129  1.55574394E-01  2.11278150E-01
         2   16            26.192663  1.54934271E-01  2.09917169E-01
         2   18            36.719742  2.42499583E-01  1.77369837E-01
         3    5      --------------- below threshold  2.22284493E-05
         3    7            97.273331  6.58770598E-05  2.41602729E-03
         3    9            97.935105  4.95161942E-05  2.39800116E-03
         3   11           108.872942  8.47909318E-03  4.05945026E-03
         3   13            10.678476  1.46688735E-01  1.32535919E-01
         3   17            21.533316  7.50522423E-03  9.56485463E-03
         4    6      --------------- below threshold  2.22284493E-05
         4    8            97.273331  6.58770598E-05  2.41602729E-03
         4   10            97.935105  4.95161942E-05  2.39800116E-03
         4   12           108.872942  8.47909318E-03  4.05945026E-03
         4   14            10.678476  1.46688735E-01  1.32535919E-01
         4   18            21.533316  7.50522423E-03  9.56485463E-03
         5    7            97.979833  4.90496728E-05  2.42800059E-03
         5    9            97.317302  6.53411648E-05  2.43565121E-03
         5   11           105.656668  8.29955636E-03  4.03563688E-03
         5   15            10.638580  1.45971007E-01  1.31934997E-01
         5   17            20.444663  7.82232544E-03  9.83255892E-03
         6    8            97.979833  4.90496728E-05  2.42800059E-03
         6   10            97.317302  6.53411648E-05  2.43565121E-03
         6   12           105.656668  8.29955636E-03  4.03563688E-03
         6   16            10.638580  1.45971007E-01  1.31934997E-01
         6   18            20.444663  7.82232544E-03  9.83255892E-03
         7    9      --------------- below threshold  7.15238566E-05
         7   11            66.413771  8.95445658E-05  2.66610958E-04
         7   13            14.476190  1.47266995E-03  1.72194146E-03
         7   15            11.330482  1.30136950E-03  1.46766276E-03
         7   17            25.783913  1.19156346E-03  9.47309900E-04
         8   10      --------------- below threshold  7.15238566E-05
         8   12            66.413771  8.95445658E-05  2.66610958E-04
         8   14            14.476190  1.47266995E-03  1.72194146E-03
         8   16            11.330482  1.30136950E-03  1.46766276E-03
         8   18            25.783913  1.19156346E-03  9.47309900E-04
         9   11            65.598616  9.65555161E-05  2.80673348E-04
         9   13            12.040493  1.25199344E-03  1.42337478E-03
         9   15            13.910044  1.50594139E-03  1.74926490E-03
         9   17            25.114478  1.32424345E-03  1.05842543E-03
        10   12            65.598616  9.65555161E-05  2.80673348E-04
        10   14            12.040493  1.25199344E-03  1.42337478E-03
        10   16            13.910044  1.50594139E-03  1.74926490E-03
        10   18            25.114478  1.32424345E-03  1.05842543E-03
        11   13            54.391173  5.96742662E-02  1.30839291E-01
        11   15            53.883522  6.00522208E-02  1.30218575E-01
        11   17            49.212278  1.37964406E-01  9.24618317E-02
        12   14            54.391173  5.96742662E-02  1.30839291E-01
        12   16            53.883522  6.00522208E-02  1.30218575E-01
        12   18            49.212278  1.37964406E-01  9.24618317E-02
        13   15            47.680325  5.53356506E-04  3.74698867E-04
        13   17          2358.879864  1.48958682E-02  6.05798942E-04
        14   16            47.680325  5.53356506E-04  3.74698867E-04
        14   18          2358.879864  1.48958682E-02  6.05798942E-04
        15   17          2859.099125  1.40020357E-02  4.73185762E-04
        16   18          2859.099125  1.40020357E-02  4.73185762E-04
     ---------------------------------------------------------------

 Number of problematic transitions =                    68

--

 Electric-dipole - electric-octupole not included
++ I/O STATISTICS
 
  I. General I/O information
  - - - - - - - - - - - - - - - - - - - - - - - - - - - - - - - - - - - - - - - - - - -
  Unit  Name          Flsize      Write/Read            MBytes           Write/Read
                      (MBytes)       Calls              In/Out           Time, sec.
  - - - - - - - - - - - - - - - - - - - - - - - - - - - - - - - - - - - - - - - - - - -
   1  SCRATCH           0.00 .       9/      45 .      0.0/      0.0 .       0/       0
   2  ANNI              0.00 .       0/       0 .      0.0/      0.0 .       0/       0
   3  RUNFILE          14.82 .     322/   10733 .      2.3/     77.8 .       0/       0
   4  ONEINT            5.45 .       0/   23543 .      0.0/   3734.6 .       0/       0
   5  JOBIPH            6.30 .       0/      92 .      0.0/      0.8 .       0/       0
   6  ORDINT          473.53 .       1/    3789 .      0.0/    947.0 .       0/       0
  - - - - - - - - - - - - - - - - - - - - - - - - - - - - - - - - - - - - - - - - - - -
   *  TOTAL           500.11 .     332/   38202 .      2.3/   4760.2 .       0/       0
  - - - - - - - - - - - - - - - - - - - - - - - - - - - - - - - - - - - - - - - - - - -
 
  II. I/O Access Patterns
  - - - - - - - - - - - - - - - - - - - -
  Unit  Name               % of random
                         Write/Read calls
  - - - - - - - - - - - - - - - - - - - -
   1  SCRATCH             88.9/ 100.0
   2  ANNI                 0.0/   0.0
   3  RUNFILE             28.6/  10.8
   4  ONEINT               0.0/  16.4
   5  JOBIPH               0.0/  76.1
   6  ORDINT             100.0/   0.1
  - - - - - - - - - - - - - - - - - - - -
--
--- Stop Module: rassi at Wed Mar 26 15:56:56 2025 /rc=_RC_ALL_IS_WELL_ ---
*** files: xmldump
    saved to directory /home4/s4752295/Internship/Initial_simulations/Point_charge_model/1_electron/Madelung_charges_9_active_space/V
--- Module rassi spent 4 seconds ---

.##################.
.# Happy landing! #.
.##################.

    Timing: Wall=57.68 User=43.67 System=11.34

###############################################################################
Hbrk Cluster
Job 15909459 for user s4752295
Finished at: Wed Mar 26 15:57:00 CET 2025

Job details:
============

Job ID                         : 15909459
Name                           : V_no_SO
User                           : s4752295
Partition                      : regularmedium
Nodes                          : node72
Number of Nodes                : 1
Cores                          : 1
Number of Tasks                : 1
State                          : COMPLETED  
Submit                         : 2025-03-26T15:54:27
Start                          : 2025-03-26T15:55:52
End                            : 2025-03-26T15:56:56
Reserved walltime              : 15:00:00
Used walltime                  : 00:01:04
Used CPU time                  : 00:00:56 (Efficiency: 88.04%)
% User (Computation)           : 79.42%
% System (I/O)                 : 20.58%
Total memory reserved          : 25000M
Maximum memory used            : 1.90G

Acknowledgements:
=================

Please see this page for information about acknowledging Hbrk in your publications:

https://wiki.hpc.rug.nl/habrok/introduction/scientific_output

################################################################################
