   This run of MOLCAS is using the pymolcas driver

                             OPE
                             OPE          NMOL  CASOP  ENMOLC A   SO
                 OPE        NMOLC        AS  OP EN  MO LC     AS  OP
                OPENM       OL CA        SO  PE NM  OL CA     SOP EN
                OP EN      MO   LC       AS  OP ENMOL  CASO   PENMOL
                OP  EN     MO   LC       AS  OP EN     MO     LC ASO
               OP   E  NMOL  C  AS       OP  EN MO     LC     AS  OP
               OP  E   NMO   LC AS        OPEN  MO     LCASOP EN   M
               O  PEN   MO  LCA  SO
            OPE   NMO   L   CAS    OP
        OPENMOL  CASOP     ENMOL   CASOPE
     OPENMOLCA   SOPENMOLCASOPEN   MOLCASOPE
    OPENMOLCAS   OP           EN   MOL    CAS
    OPENMOLCAS       OP  ENM        O     LCA
    OPENMOLCAS    OPEN  MOLCASO     P  E  NMO
    OPENMOLCAS     OP               E  N  MOL
    OPENMOLCA   SO           PENM   O  L  CAS    OPEN    MO    LCAS
    OPENMOLCA   SOP           ENM   O  L  CAS   OP  EN  MOLC  AS   O
    OPENMOLCA   SOPE           NM      O  LCA   S      OP  EN MO
    OPENMOLC                AS         O  PEN   M      OL  CA  SOPE
    OPENMO        LCASOPE  NMOL        C  ASO   P      ENMOLC     AS
    OPE     NMO      LCA  SO     P     E   NM   OL  CA SO  PE N   MO
          OPENMOLCA            SOPE   NMO        LCAS  O    P  ENMO
     OPENMOLCASOPENMOLCASOPENMOLCASOPENMOLCA
        OPENMOLCASOPENMOLCASOPENMOLCASOPE
            OPENMOLCASOPENMOLCASOPENM
               OPENMOLCASOPENMOLCA        version: o91e1abe7de707b ?
                   OPENMOLCASO
                       OPE                tag:

 OpenMolcas is free software; you can redistribute it and/or modify it
 under the terms of the GNU Lesser General Public License version 2.1.
 OpenMolcas is distributed in the hope that it will be useful, but it
 is provided "as is" and without any express or implied warranties.
 For more details see the full text of the license in the file
 LICENSE or in <http://www.gnu.org/licenses/>.

                 Copyright (C) The OpenMolcas Authors
           For the author list and the recommended citation,
                   consult the file CONTRIBUTORS.md

           *************************************************
           * pymolcas version py2.10                       *
           *   build 3068ae8b88c9345ec6cfef6fef7f1169      *
           *   (after the EMIL interpreter by V. Veryazov) *
           *************************************************

configuration info
------------------
Host name: login1 (Linux)
C Compiler ID: GNU
C flags: -std=gnu99
Fortran Compiler ID: GNU
Fortran flags: -fno-aggressive-loop-optimizations -cpp -fdefault-integer-8 -fmax-stack-var-size=1048576
Definitions: _MOLCAS_;_I8_;_LINUX_;_MKL_
Parallel: OFF (GA=OFF)


   ----------------------------------------------------------------------------------------------------------------------------------
  |
  |           Project: vanadium_so_cf
  |    Submitted from: /home4/s4752295/Internship/Initial_simulations/Point_charge_model/1_electron/Madelung_charges_9_active_space/V
  |      Scratch area: /tmp/vanadium_so_cf
  |   Save outputs to: /home4/s4752295/Internship/Initial_simulations/Point_charge_model/1_electron/Madelung_charges_9_active_space/V
  |            Molcas: /home4/s4752295/Internship/Molcas/recomp_try/OpenMolcas-master/build
  |
  | Scratch area is empty
  |
  |    MOLCAS_DRIVER = /home4/s4752295/Internship/Molcas/bin/pymolcas
  |    MOLCAS_NPROCS = 1
  |    MOLCAS_SOURCE = /home4/s4752295/Internship/Molcas/recomp_try/OpenMolcas-master
  | MOLCAS_STRUCTURE = 0
  |
   ----------------------------------------------------------------------------------------------------------------------------------

++ ---------   Input file   ---------

&SEWARD
AMFi

CLIG
$R

Basis Set
V.ANO-rcc.Roos.21s15p10d6f4g2h.10s9p8d6f4g2h.
Spherical d
V            -1.0658140267135469e-14    -3.5527134223784897e-15 0.008753588724385739
End of Basis

Xfield

414
-7.604182052,-2.9259999999999997,1.6893261      -0.625931
-7.604182052,-0.0,-3.3786540999999994   -0.625931
-7.604182052,2.9259999999999997,1.6893261       -0.625931
-7.591157533,0.0,0.0    1.892092
5.052441411,-2.9259999999999997,-1.6893261      2.515516
5.052441411,0.0,3.3786540999999994      2.515516
5.052441411,2.9259999999999997,-1.6893261       2.515516
6.769677732,-5.851999999999999,0.0      0.004632
6.769677732,-2.9259999999999997,-5.0679802      0.004632
6.769677732,-2.9259999999999997,5.0679802       0.004632
6.769677732,2.9259999999999997,-5.0679802       0.004632
6.769677732,2.9259999999999997,5.0679802        0.004632
6.769677732,5.851999999999999,0.0       0.004632
7.845385741,-2.9259999999999997,1.6893261       -2.519484
7.845385741,-0.0,-3.3786540999999994    -2.519484
7.845385741,2.9259999999999997,1.6893261        -2.519484
-5.572900393,-0.0,-0.0  -3.142907
-9.452685554,-5.851999999999999,-3.3786540999999994     -0.625931
-9.452685554,0.0,6.7573063      -0.625931
-9.452685554,5.851999999999999,-3.3786540999999994      -0.625931
-12.557812499999999,-5.851999999999999,0.0      1.892092
-12.557812499999999,-2.9259999999999997,-5.0679802      1.892092
-12.557812499999999,-2.9259999999999997,5.0679802       1.892092
-12.557812499999999,2.9259999999999997,-5.0679802       1.892092
-12.557812499999999,2.9259999999999997,5.0679802        1.892092
-12.557812499999999,5.851999999999999,0.0       1.892092
47.826562499999994,-5.851999999999999,3.3786540999999994        2.515516
47.826562499999994,-0.0,-6.7573063      2.515516
47.826562499999994,5.851999999999999,3.3786540999999994 2.515516
6.9134765719999995,-5.851999999999999,-3.3786540999999994       -2.519484
6.9134765719999995,0.0,6.7573063        -2.519484
6.9134765719999995,5.851999999999999,-3.3786540999999994        -2.519484
-6.141601572,-5.851999999999999,-0.0    -3.142907
-6.141601572,-2.9259999999999997,-5.0679802     -3.142907
-6.141601572,-2.9259999999999997,5.0679802      -3.142907
-6.141601572,2.9259999999999997,-5.0679802      -3.142907
-6.141601572,2.9259999999999997,5.0679802       -3.142907
-6.141601572,5.851999999999999,-0.0     -3.142907
-18.09453125,-5.851999999999999,6.7573063       -0.625931
-18.09453125,5.851999999999999,6.7573063        -0.625931
-18.09453125,-8.778,1.6893261   -0.625931
-18.09453125,8.778,1.6893261    -0.625931
-18.09453125,-2.9259999999999997,-8.4466343     -0.625931
-18.09453125,2.9259999999999997,-8.4466343      -0.625931
11.41484375,-2.9259999999999997,-1.6893261      4.409069
11.41484375,2.9259999999999997,-1.6893261       4.409069
11.41484375,0.0,3.3786540999999994      4.409069
-332.97499999999997,-0.0,-0.0   -5.030367
-332.97499999999997,0.0,0.0     5.039632
25.683398427999997,-5.851999999999999,-6.7573063        2.515516
25.683398427999997,5.851999999999999,-6.7573063 2.515516
25.683398427999997,-8.778,-1.6893261    2.515516
25.683398427999997,8.778,-1.6893261     2.515516
25.683398427999997,-2.9259999999999997,8.4466343        2.515516
25.683398427999997,2.9259999999999997,8.4466343 2.515516
36.17421875,-8.778,-5.0679802   0.004632
36.17421875,-8.778,5.0679802    0.004632
36.17421875,8.778,-5.0679802    0.004632
36.17421875,8.778,5.0679802     0.004632
36.17421875,-0.0,-10.1359604    0.004632
36.17421875,0.0,10.1359604      0.004632
91.34843749999999,-5.851999999999999,6.7573063  -2.519484
91.34843749999999,5.851999999999999,6.7573063   -2.519484
91.34843749999999,-8.778,1.6893261      -2.519484
91.34843749999999,8.778,1.6893261       -2.519484
91.34843749999999,-2.9259999999999997,-8.4466343        -2.519484
91.34843749999999,2.9259999999999997,-8.4466343 -2.519484
-277.16249999999997,-8.778,-5.0679802   1.892092
-277.16249999999997,-8.778,5.0679802    1.892092
-277.16249999999997,8.778,-5.0679802    1.892092
-277.16249999999997,8.778,5.0679802     1.892092
-277.16249999999997,-0.0,-10.1359604    1.892092
-277.16249999999997,0.0,10.1359604      1.892092
-223.725,-5.851999999999999,3.3786540999999994  4.409069
-223.725,-0.0,-6.7573063        4.409069
-223.725,5.851999999999999,3.3786540999999994   4.409069
-169.1,-5.851999999999999,-0.0  -5.030367
-169.1,-2.9259999999999997,-5.0679802   -5.030367
-169.1,-2.9259999999999997,5.0679802    -5.030367
-169.1,2.9259999999999997,-5.0679802    -5.030367
-169.1,-5.851999999999999,0.0   5.039632
-169.1,5.851999999999999,-0.0   -5.030367
-169.1,2.9259999999999997,5.0679802     -5.030367
-169.1,-2.9259999999999997,-5.0679802   5.039632
-169.1,-2.9259999999999997,5.0679802    5.039632
-169.1,2.9259999999999997,-5.0679802    5.039632
-169.1,5.851999999999999,0.0    5.039632
-169.1,2.9259999999999997,5.0679802     5.039632
-88.58749999999999,-2.9259999999999997,-1.6893261       -5.660931
-88.58749999999999,0.0,3.3786540999999994       -5.660931
-88.58749999999999,2.9259999999999997,-1.6893261        -5.660931
1.67734375,-11.7039981,0.0      0.004632
1.67734375,-5.851999999999999,-10.1359604       0.004632
1.67734375,-5.851999999999999,10.1359604        0.004632
1.67734375,5.851999999999999,-10.1359604        0.004632
1.67734375,11.7039981,0.0       0.004632
1.67734375,5.851999999999999,10.1359604 0.004632
129.08124999999998,-8.778,5.0679802     -3.142907
129.08124999999998,-8.778,-5.0679802    -3.142907
129.08124999999998,8.778,-5.0679802     -3.142907
129.08124999999998,8.778,5.0679802      -3.142907
129.08124999999998,-0.0,-10.1359604     -3.142907
129.08124999999998,0.0,10.1359604       -3.142907
164.11249999999998,-11.7039981,-3.3786540999999994      -0.625931
164.11249999999998,-8.778,-8.4466343    -0.625931
164.11249999999998,-2.9259999999999997,11.8252865       -0.625931
164.11249999999998,8.778,-8.4466343     -0.625931
164.11249999999998,11.7039981,-3.3786540999999994       -0.625931
164.11249999999998,2.9259999999999997,11.8252865        -0.625931
2.2748046779999997,-11.7039981,0.0      1.892092
2.2748046779999997,-5.851999999999999,-10.1359604       1.892092
2.2748046779999997,-5.851999999999999,10.1359604        1.892092
2.2748046779999997,5.851999999999999,-10.1359604        1.892092
2.2748046779999997,11.7039981,0.0       1.892092
2.2748046779999997,5.851999999999999,10.1359604 1.892092
64.303125,-5.851999999999999,-6.7573063 4.409069
64.303125,5.851999999999999,-6.7573063  4.409069
64.303125,-8.778,-1.6893261     4.409069
64.303125,8.778,-1.6893261      4.409069
64.303125,-2.9259999999999997,8.4466343 4.409069
64.303125,2.9259999999999997,8.4466343  4.409069
308.571875,-5.851999999999999,3.3786540999999994        -5.660931
308.571875,-0.0,-6.7573063      -5.660931
308.571875,5.851999999999999,3.3786540999999994 -5.660931
0.653125,-11.7039981,3.3786540999999994 2.515516
0.653125,-2.9259999999999997,-11.8252865        2.515516
0.653125,-8.778,8.4466343       2.515516
0.653125,2.9259999999999997,-11.8252865 2.515516
0.653125,11.7039981,3.3786540999999994  2.515516
0.653125,8.778,8.4466343        2.515516
-178.95624999999998,-11.7039981,-3.3786540999999994     -2.519484
-178.95624999999998,-8.778,-8.4466343   -2.519484
-178.95624999999998,-2.9259999999999997,11.8252865      -2.519484
-178.95624999999998,8.778,-8.4466343    -2.519484
-178.95624999999998,2.9259999999999997,11.8252865       -2.519484
-178.95624999999998,11.7039981,-3.3786540999999994      -2.519484
-41.93359375,-11.7039981,-0.0   -3.142907
-41.93359375,-5.851999999999999,-10.1359604     -3.142907
-41.93359375,-5.851999999999999,10.1359604      -3.142907
-41.93359375,5.851999999999999,-10.1359604      -3.142907
-41.93359375,5.851999999999999,10.1359604       -3.142907
-41.93359375,11.7039981,-0.0    -3.142907
1152.35,0.0,0.0 6.927092
614.175,-11.7039981,6.7573063   -0.625931
614.175,11.7039981,6.7573063    -0.625931
614.175,-0.0,-13.5146145        -0.625931
-10.3015625,-8.778,5.0679802    -5.030367
-10.3015625,-8.778,-5.0679802   -5.030367
-10.3015625,-8.778,5.0679802    5.039632
-10.3015625,-8.778,-5.0679802   5.039632
-10.3015625,8.778,-5.0679802    -5.030367
-10.3015625,8.778,5.0679802     -5.030367
-10.3015625,8.778,-5.0679802    5.039632
-10.3015625,8.778,5.0679802     5.039632
-10.3015625,-0.0,-10.1359604    -5.030367
-10.3015625,0.0,10.1359604      -5.030367
-10.3015625,-0.0,-10.1359604    5.039632
-10.3015625,0.0,10.1359604      5.039632
174.44375,-5.851999999999999,-6.7573063 -5.660931
174.44375,5.851999999999999,-6.7573063  -5.660931
174.44375,-8.778,-1.6893261     -5.660931
174.44375,8.778,-1.6893261      -5.660931
174.44375,-2.9259999999999997,8.4466343 -5.660931
174.44375,2.9259999999999997,8.4466343  -5.660931
570.9499999999999,-11.7039981,-6.7573063        2.515516
570.9499999999999,11.7039981,-6.7573063 2.515516
570.9499999999999,0.0,13.5146145        2.515516
-982.775,-11.7039981,6.7573063  -2.519484
-982.775,11.7039981,6.7573063   -2.519484
-982.775,-0.0,-13.5146145       -2.519484
101.76875,-5.851999999999999,0.0        6.927092
101.76875,-2.9259999999999997,-5.0679802        6.927092
101.76875,-2.9259999999999997,5.0679802 6.927092
101.76875,2.9259999999999997,-5.0679802 6.927092
101.76875,2.9259999999999997,5.0679802  6.927092
101.76875,5.851999999999999,0.0 6.927092
-104.975,-2.9259999999999997,1.6893261  7.550516
-104.975,0.0,-3.3786540999999994        7.550516
-104.975,2.9259999999999997,1.6893261   7.550516
29.509375,-2.9259999999999997,-1.6893261        -7.554483
29.509375,2.9259999999999997,-1.6893261 -7.554483
29.509375,-0.0,3.3786540999999994       -7.554483
-237.2625,-14.6299981,1.6893261 -0.625931
-237.2625,-8.778,11.8252865     -0.625931
-237.2625,-5.851999999999999,-13.5146145        -0.625931
-237.2625,5.851999999999999,-13.5146145 -0.625931
-237.2625,14.6299981,1.6893261  -0.625931
-237.2625,8.778,11.8252865      -0.625931
-128.13125,-11.7039981,3.3786540999999994       4.409069
-128.13125,-8.778,8.4466343     4.409069
-128.13125,-2.9259999999999997,-11.8252865      4.409069
-128.13125,2.9259999999999997,-11.8252865       4.409069
-128.13125,8.778,8.4466343      4.409069
-128.13125,11.7039981,3.3786540999999994        4.409069
93.396875,-11.7039981,-0.0      -5.030367
93.396875,-5.851999999999999,-10.1359604        -5.030367
93.396875,-5.851999999999999,10.1359604 -5.030367
93.396875,-11.7039981,0.0       5.039632
93.396875,-5.851999999999999,-10.1359604        5.039632
93.396875,5.851999999999999,-10.1359604 -5.030367
93.396875,5.851999999999999,10.1359604  -5.030367
93.396875,11.7039981,-0.0       -5.030367
93.396875,-5.851999999999999,10.1359604 5.039632
93.396875,5.851999999999999,-10.1359604 5.039632
93.396875,11.7039981,0.0        5.039632
93.396875,5.851999999999999,10.1359604  5.039632
343.425,-14.6299981,-1.6893261  2.515516
343.425,-8.778,-11.8252865      2.515516
343.425,-5.851999999999999,13.5146145   2.515516
343.425,8.778,-11.8252865       2.515516
343.425,14.6299981,-1.6893261   2.515516
343.425,5.851999999999999,13.5146145    2.515516
-44.353125,-14.6299981,-5.0679802       0.004632
-44.353125,-14.6299981,5.0679802        0.004632
-44.353125,-11.7039981,-10.1359604      0.004632
-44.353125,-11.7039981,10.1359604       0.004632
-44.353125,-2.9259999999999997,-15.2039406      0.004632
-44.353125,2.9259999999999997,-15.2039406       0.004632
-44.353125,-2.9259999999999997,15.2039406       0.004632
-44.353125,11.7039981,-10.1359604       0.004632
-44.353125,2.9259999999999997,15.2039406        0.004632
-44.353125,14.6299981,-5.0679802        0.004632
-44.353125,14.6299981,5.0679802 0.004632
-44.353125,11.7039981,10.1359604        0.004632
-271.9375,-14.6299981,1.6893261 -2.519484
-271.9375,-8.778,11.8252865     -2.519484
-271.9375,-5.851999999999999,-13.5146145        -2.519484
-271.9375,5.851999999999999,-13.5146145 -2.519484
-271.9375,14.6299981,1.6893261  -2.519484
-271.9375,8.778,11.8252865      -2.519484
5760.8,-0.0,-0.0        -8.177907
-220.39999999999998,-5.851999999999999,-3.3786540999999994      7.550516
-220.39999999999998,0.0,6.7573063       7.550516
-220.39999999999998,5.851999999999999,-3.3786540999999994       7.550516
-1146.6499999999999,-5.851999999999999,3.3786540999999994       -7.554483
-1146.6499999999999,-0.0,-6.7573063     -7.554483
-1146.6499999999999,5.851999999999999,3.3786540999999994        -7.554483
92.921875,-14.6299981,5.0679802 1.892092
92.921875,-14.6299981,-5.0679802        1.892092
92.921875,-11.7039981,-10.1359604       1.892092
92.921875,-11.7039981,10.1359604        1.892092
92.921875,-2.9259999999999997,-15.2039406       1.892092
92.921875,2.9259999999999997,-15.2039406        1.892092
92.921875,-2.9259999999999997,15.2039406        1.892092
92.921875,11.7039981,-10.1359604        1.892092
92.921875,2.9259999999999997,15.2039406 1.892092
92.921875,14.6299981,-5.0679802 1.892092
92.921875,14.6299981,5.0679802  1.892092
92.921875,11.7039981,10.1359604 1.892092
-959.5,-11.7039981,-6.7573063   4.409069
-959.5,11.7039981,-6.7573063    4.409069
-959.5,0.0,13.5146145   4.409069
49.05859375,-11.7039981,3.3786540999999994      -5.660931
49.05859375,-2.9259999999999997,-11.8252865     -5.660931
49.05859375,-8.778,8.4466343    -5.660931
49.05859375,2.9259999999999997,-11.8252865      -5.660931
49.05859375,8.778,8.4466343     -5.660931
49.05859375,11.7039981,3.3786540999999994       -5.660931
-110.55624999999999,-11.7039981,-10.1359604     -3.142907
-110.55624999999999,-14.6299981,5.0679802       -3.142907
-110.55624999999999,-14.6299981,-5.0679802      -3.142907
-110.55624999999999,-11.7039981,10.1359604      -3.142907
-110.55624999999999,-2.9259999999999997,-15.2039406     -3.142907
-110.55624999999999,2.9259999999999997,-15.2039406      -3.142907
-110.55624999999999,-2.9259999999999997,15.2039406      -3.142907
-110.55624999999999,14.6299981,-5.0679802       -3.142907
-110.55624999999999,11.7039981,-10.1359604      -3.142907
-110.55624999999999,2.9259999999999997,15.2039406       -3.142907
-110.55624999999999,14.6299981,5.0679802        -3.142907
-110.55624999999999,11.7039981,10.1359604       -3.142907
124.271875,-8.778,-5.0679802    6.927092
124.271875,-8.778,5.0679802     6.927092
124.271875,8.778,-5.0679802     6.927092
124.271875,8.778,5.0679802      6.927092
124.271875,-0.0,-10.1359604     6.927092
124.271875,0.0,10.1359604       6.927092
-158.17499999999998,-5.851999999999999,-0.0     -8.177907
-158.17499999999998,-2.9259999999999997,5.0679802       -8.177907
-158.17499999999998,-2.9259999999999997,-5.0679802      -8.177907
-158.17499999999998,2.9259999999999997,-5.0679802       -8.177907
-158.17499999999998,5.851999999999999,-0.0      -8.177907
-158.17499999999998,2.9259999999999997,5.0679802        -8.177907
-172.72187499999998,-5.851999999999999,6.7573063        7.550516
-172.72187499999998,5.851999999999999,6.7573063 7.550516
-172.72187499999998,-8.778,1.6893261    7.550516
-172.72187499999998,8.778,1.6893261     7.550516
-172.72187499999998,-2.9259999999999997,-8.4466343      7.550516
-172.72187499999998,2.9259999999999997,-8.4466343       7.550516
-86.80624999999999,-5.851999999999999,-6.7573063        -7.554483
-86.80624999999999,5.851999999999999,-6.7573063 -7.554483
-86.80624999999999,-8.778,-1.6893261    -7.554483
-86.80624999999999,8.778,-1.6893261     -7.554483
-86.80624999999999,-2.9259999999999997,8.4466343        -7.554483
-86.80624999999999,2.9259999999999997,8.4466343 -7.554483
-950.4749999999999,0.0,16.893266699999998       -0.625931
-950.4749999999999,-14.6299981,-8.4466343       -0.625931
-950.4749999999999,14.6299981,-8.4466343        -0.625931
-512.525,-14.6299981,-1.6893261 4.409069
-512.525,-8.778,-11.8252865     4.409069
-512.525,-5.851999999999999,13.5146145  4.409069
-512.525,8.778,-11.8252865      4.409069
-512.525,14.6299981,-1.6893261  4.409069
-512.525,5.851999999999999,13.5146145   4.409069
589.7125,-11.7039981,-6.7573063 -5.660931
589.7125,11.7039981,-6.7573063  -5.660931
589.7125,0.0,13.5146145 -5.660931
1115.3,-0.0,-16.893266699999998 2.515516
1115.3,-14.6299981,8.4466343    2.515516
1115.3,14.6299981,8.4466343     2.515516
-178.36249999999998,-17.555998099999996,-0.0    0.004632
-178.36249999999998,8.778,-15.2039406   0.004632
-178.36249999999998,-8.778,15.2039406   0.004632
-178.36249999999998,17.555998099999996,-0.0     0.004632
-178.36249999999998,-8.778,-15.2039406  0.004632
-178.36249999999998,8.778,15.2039406    0.004632
-732.925,0.0,16.893266699999998 -2.519484
-732.925,-14.6299981,-8.4466343 -2.519484
-732.925,14.6299981,-8.4466343  -2.519484
433.2,-11.7039981,0.0   6.927092
433.2,-5.851999999999999,-10.1359604    6.927092
433.2,-5.851999999999999,10.1359604     6.927092
433.2,5.851999999999999,-10.1359604     6.927092
433.2,11.7039981,0.0    6.927092
433.2,5.851999999999999,10.1359604      6.927092
402.5625,-17.555998099999996,-3.3786540999999994        -0.625931
402.5625,-5.851999999999999,16.893266699999998  -0.625931
402.5625,-11.7039981,-13.5146145        -0.625931
402.5625,11.7039981,-13.5146145 -0.625931
402.5625,5.851999999999999,16.893266699999998   -0.625931
402.5625,17.555998099999996,-3.3786540999999994 -0.625931
212.68124999999998,-17.555998099999996,0.0      1.892092
212.68124999999998,-8.778,-15.2039406   1.892092
212.68124999999998,-8.778,15.2039406    1.892092
212.68124999999998,8.778,-15.2039406    1.892092
212.68124999999998,17.555998099999996,0.0       1.892092
212.68124999999998,8.778,15.2039406     1.892092
-8.20859375,-14.6299981,5.0679802       -5.030367
-8.20859375,-14.6299981,-5.0679802      -5.030367
-8.20859375,-11.7039981,-10.1359604     -5.030367
-8.20859375,-11.7039981,10.1359604      -5.030367
-8.20859375,-14.6299981,5.0679802       5.039632
-8.20859375,2.9259999999999997,-15.2039406      -5.030367
-8.20859375,-2.9259999999999997,-15.2039406     -5.030367
-8.20859375,-14.6299981,-5.0679802      5.039632
-8.20859375,-11.7039981,-10.1359604     5.039632
-8.20859375,-2.9259999999999997,15.2039406      -5.030367
-8.20859375,2.9259999999999997,-15.2039406      5.039632
-8.20859375,-11.7039981,10.1359604      5.039632
-8.20859375,-2.9259999999999997,-15.2039406     5.039632
-8.20859375,11.7039981,-10.1359604      -5.030367
-8.20859375,2.9259999999999997,15.2039406       -5.030367
-8.20859375,14.6299981,-5.0679802       -5.030367
-8.20859375,14.6299981,5.0679802        -5.030367
-8.20859375,11.7039981,10.1359604       -5.030367
-8.20859375,-2.9259999999999997,15.2039406      5.039632
-8.20859375,11.7039981,-10.1359604      5.039632
-8.20859375,14.6299981,-5.0679802       5.039632
-8.20859375,2.9259999999999997,15.2039406       5.039632
-8.20859375,14.6299981,5.0679802        5.039632
-8.20859375,11.7039981,10.1359604       5.039632
-1.30625,-14.6299981,-1.6893261 -5.660931
-1.30625,-8.778,-11.8252865     -5.660931
-1.30625,-5.851999999999999,13.5146145  -5.660931
-1.30625,8.778,-11.8252865      -5.660931
-1.30625,5.851999999999999,13.5146145   -5.660931
-1.30625,14.6299981,-1.6893261  -5.660931
220.39999999999998,-2.9259999999999997,1.6893261        9.444068
220.39999999999998,0.0,-3.3786540999999994      9.444068
220.39999999999998,2.9259999999999997,1.6893261 9.444068
97.49374999999999,-17.555998099999996,3.3786540999999994        2.515516
97.49374999999999,-5.851999999999999,-16.893266699999998        2.515516
97.49374999999999,5.851999999999999,-16.893266699999998 2.515516
97.49374999999999,-11.7039981,13.5146145        2.515516
97.49374999999999,17.555998099999996,3.3786540999999994 2.515516
97.49374999999999,11.7039981,13.5146145 2.515516
298.0625,-17.555998099999996,-3.3786540999999994        -2.519484
298.0625,-5.851999999999999,16.893266699999998  -2.519484
298.0625,-11.7039981,-13.5146145        -2.519484
298.0625,11.7039981,-13.5146145 -2.519484
298.0625,17.555998099999996,-3.3786540999999994 -2.519484
298.0625,5.851999999999999,16.893266699999998   -2.519484
417.28749999999997,-17.555998099999996,-0.0     -3.142907
417.28749999999997,-8.778,-15.2039406   -3.142907
417.28749999999997,-8.778,15.2039406    -3.142907
417.28749999999997,8.778,-15.2039406    -3.142907
417.28749999999997,17.555998099999996,-0.0      -3.142907
417.28749999999997,8.778,15.2039406     -3.142907
16.426464838999998,-8.778,-5.0679802    -8.177907
16.426464838999998,-8.778,5.0679802     -8.177907
16.426464838999998,8.778,5.0679802      -8.177907
16.426464838999998,8.778,-5.0679802     -8.177907
16.426464838999998,-0.0,-10.1359604     -8.177907
16.426464838999998,0.0,10.1359604       -8.177907
478.5625,-8.778,-8.4466343      7.550516
478.5625,-11.7039981,-3.3786540999999994        7.550516
478.5625,-2.9259999999999997,11.8252865 7.550516
478.5625,8.778,-8.4466343       7.550516
478.5625,2.9259999999999997,11.8252865  7.550516
478.5625,11.7039981,-3.3786540999999994 7.550516
-661.1999999999999,-8.778,8.4466343     -7.554483
-661.1999999999999,-11.7039981,3.3786540999999994       -7.554483
-661.1999999999999,-2.9259999999999997,-11.8252865      -7.554483
-661.1999999999999,2.9259999999999997,-11.8252865       -7.554483
-661.1999999999999,11.7039981,3.3786540999999994        -7.554483
-661.1999999999999,8.778,8.4466343      -7.554483
135.4046875,-14.6299981,11.8252865      -0.625931
135.4046875,-17.555998099999996,6.7573063       -0.625931
135.4046875,-2.9259999999999997,-18.582594699999998     -0.625931
135.4046875,2.9259999999999997,-18.582594699999998      -0.625931
135.4046875,17.555998099999996,6.7573063        -0.625931
135.4046875,14.6299981,11.8252865       -0.625931
-919.125,-0.0,-16.893266699999998       4.409069
-919.125,-14.6299981,8.4466343  4.409069
-919.125,14.6299981,8.4466343   4.409069

End of input

&SCF
Occupied
9
Iterations
   50  100
End of Input

&RASSCF
LumOrb
Symmetry
1
Spin
2
Nactel
1 0 0
CIRoot
9 9 1
inactive
9
ras2
9
End of Input

>>> COPY vanadium_so_cf.JobIph $SLURM_SUBMIT_DIR/vanadium_so_cf.doublet.JobIph

>>> COPY $SLURM_SUBMIT_DIR/vanadium_so_cf.doublet.JobIph ./JOB002

&RASSI
NROFJobIph
1 All
SpinOrbit
End of Input

EOF

-- ----------------------------------

--- Start Module: seward at Wed Mar 26 23:44:19 2025 ---

()()()()()()()()()()()()()()()()()()()()()()()()()()()()()()()()()()()()()()()()()()()()()()()()()()

                                              &SEWARD

                                   only a single process is used
                       available to each process: 4.1 GB of memory, 1 thread?
                                            pid: 828714
()()()()()()()()()()()()()()()()()()()()()()()()()()()()()()()()()()()()()()()()()()()()()()()()()()

 The speed of LIGHT in this CALCULATION =   137.03599917700001     
               SEWARD will generate:
                  Multipole Moment integrals up to order  2
                  Kinetic Energy integrals
                  Nuclear Attraction integrals (point charge)
                  One-Electron Hamiltonian integrals
                  Velocity integrals
                  Relativistic Douglas-Kroll-Hess integrals:
                    - Parametrization         : EXP
                    - DKH order of Hamiltonian: 2
                    - DKH order of Properties : 0
                         - multipole moment operators
                         - electric potential operators
                         - contact operators
                  External field from   414 point(s) added to the one-electron Hamiltonian
                  Orbital angular momentum around (-0.0000 -0.0000  0.0088 )
                  Velocity quadrupole around (-0.0000 -0.0000  0.0088 )
                  Atomic mean-field integrals
                  Two-Electron Repulsion integrals

                   Integrals are discarded if absolute value <: 0.10E-13
                   Integral cutoff threshold is set to       <: 0.10E-15

++    Symmetry information:
      ---------------------

                    Character Table for C1 

                             E  
                    a        1  x, y, xy, Rz, z, xz, Ry, yz, Rx, I
--


++    Basis set information:
      ----------------------


      Basis set label: V.ANO-RCC.ROOS.21S15P10D6F4G2H.10S9P8D6F4G2H......

      Electronic valence basis set:
      ------------------
      Associated Effective Charge  23.000000 au
      Associated Actual Charge     23.000000 au
      Nuclear Model: Point charge

      Shell  nPrim  nBasis  Cartesian Spherical Contaminant
         s      21      10        X                  
         p      15       9        X                  
         d      10       8                 X         
         f       6       6                 X         
         g       4       4                 X         
         h       2       2                 X         
--


++    Molecular structure info:
      -------------------------

                    ************************************************ 
                    **** Cartesian Coordinates / Bohr, Angstrom **** 
                    ************************************************ 

     Center  Label                x              y              z                     x              y              z
        1      V               -0.000000      -0.000000       0.008754             -0.000000      -0.000000       0.004632
--


++    Operator info:
      --------------


  Net charge from external field:   -39.268449999999902     
--


            Nuclear Potential Energy              0.00000000 au

                    Nuclear-External Field Potential Energy    -110.75068912 au
                    External Field Potential Energy             845.07205336 au 


            Total Nuclear Potential Energy           -110.75068912 au


      Basis set specifications :
      Symmetry species         a  
      Basis functions          177

 Sorry, Molden does not know how to handle
 functions with angular momentum larger than g
Note: The following floating-point exceptions are signalling: IEEE_UNDERFLOW_FLAG IEEE_DENORMAL
--- Stop Module: seward at Wed Mar 26 23:44:27 2025 /rc=_RC_ALL_IS_WELL_ ---
*** files: vanadium_so_cf.GssOrb xmldump
    saved to directory /home4/s4752295/Internship/Initial_simulations/Point_charge_model/1_electron/Madelung_charges_9_active_space/V
--- Module seward spent 8 seconds ---

*** symbolic link created: INPORB -> vanadium_so_cf.GssOrb
--- Start Module: scf at Wed Mar 26 23:44:28 2025 ---

()()()()()()()()()()()()()()()()()()()()()()()()()()()()()()()()()()()()()()()()()()()()()()()()()()

                                                &SCF

                                   only a single process is used
                       available to each process: 4.1 GB of memory, 1 thread?
                                            pid: 828729
()()()()()()()()()()()()()()()()()()()()()()()()()()()()()()()()()()()()()()()()()()()()()()()()()()

++    Input section:
      --------------

      Header of the integral files:
      
       Integrals generated by seward 4.2.0  , Wed Mar 26 23:44:20 2025


      Cartesian coordinates in Angstrom:
      -----------------------------------------------------
      No.  Label        X            Y            Z        
      -----------------------------------------------------
       1   V         -0.00000000  -0.00000000   0.00463220
      -----------------------------------------------------
      Nuclear repulsion energy = -110.75068912
--

++    Orbital specifications:
      -----------------------

      Symmetry species               1
                                     a
      Frozen orbitals                0
      Occupied orbitals              9
      Secondary orbitals           168
      Deleted orbitals               0
      Total number of orbitals     177
      Number of basis functions    177
--

      Molecular charge                           5.000

++    Optimization specifications:
      ----------------------------

      SCF Algorithm: Conventional
      Minimized density differences are used
      Number of density matrices in core                5
      Maximum number of NDDO SCF iterations            50
      Maximum number of HF SCF iterations             100
      Threshold for SCF energy change            0.10E-08
      Threshold for density matrix               0.10E-03
      Threshold for Fock matrix                  0.15E-03
      Threshold for linear dependence            0.10E-08
      Threshold at which DIIS is turned on       0.15E+00
      Threshold at which QNR/C2DIIS is turned on 0.75E-01
      Threshold for Norm(delta) (QNR/C2DIIS)     0.20E-04
      DIIS extrapolation of the SCF procedure
      All orbitals punched on: SCFORB
--

      Detected guessorb starting orbitals                                             


++ Convergence information
                                   SCF        iterations: Energy and convergence statistics

Iter     Tot. SCF        One-elec.       Two-elec.     Energy      Max Dij or  Max Fij      DNorm      TNorm      AccCon     Time
         Energy          Energy          Energy        Change      Delta Norm                                                in Sec.
   1  -966.100003516 -1144.829082013   289.479767612   0.00E+00    0.13E+00*   0.26E+00*    0.60E+01   0.22E+03   None         1.
   2  -966.459379179 -1153.894958000   298.186267937  -0.36E+00*   0.14E-01*   0.54E-01*    0.90E+00   0.22E+03   EDIIS        1.
   3  -966.466237805 -1152.755929168   297.040380479  -0.69E-02*   0.51E-02*   0.10E-01*    0.83E-01   0.22E+03   EDIIS        1.
   4  -966.466463253 -1152.952890267   297.237116129  -0.23E-03*   0.32E-03*   0.15E-02*    0.93E-02   0.22E+03   c2DIIS       1.
   5  -966.466473485 -1152.927190520   297.211406151  -0.10E-04*   0.87E-04*   0.13E-03     0.90E-03   0.22E+03   QNRc2DIIS    1.
   6  -966.466473538 -1152.926568709   297.210784286  -0.53E-07*   0.19E-04    0.25E-04     0.11E-03   0.22E+03   QNRc2DIIS    1.
   7  -966.466473540 -1152.926684026   297.210899601  -0.27E-08*   0.27E-05    0.37E-05     0.16E-04   0.22E+03   QNRc2DIIS    1.
   8  -966.466473541 -1152.926701444   297.210917019  -0.47E-10    0.12E-05    0.15E-05     0.48E-03   0.22E+03   QNRc2DIIS    1.

       Convergence after  8 Macro Iterations
--

 *****************************************************************************************************************************
 *                                                                                                                           *
 *                                             SCF/KS-DFT Program, Final results                                             *
 *                                                                                                                           *
 *                                                                                                                           *
 *                                                                                                                           *
 *                                                       Final Results                                                       *
 *                                                                                                                           *
 *****************************************************************************************************************************

::    Total SCF energy                               -966.4664735405
      One-electron energy                           -1152.9267014439
      Two-electron energy                             297.2109170188
      Nuclear repulsion energy                       -110.7506891155
      Kinetic energy (interpolated)                   974.2274937851
      Virial theorem                                    0.9920336674
      Total spin, S(S+1)                                0.0000000000
      Total spin, S                                     0.0000000000
      Max non-diagonal density matrix element           0.0000018419
      Max non-diagonal Fock matrix element              0.0000007316


      All orbitals with orbital energies smaller than  E(LUMO)+0.5 are printed

++    Molecular orbitals:
      -------------------

      Title: SCF orbitals

      Molecular orbitals for symmetry species 1: a  

          Orbital            1         2         3         4         5         6         7         8         9        10    
          Energy         -201.0227  -22.4066  -18.3040  -18.3040  -18.3036   -1.1806    0.0850    0.0850    0.0989    2.4766
          Occ. No.          2.0000    2.0000    2.0000    2.0000    2.0000    2.0000    2.0000    2.0000    2.0000    0.0000

        1 V      1s         1.0000   -0.0001    0.0000   -0.0000   -0.0000    0.0001   -0.0000   -0.0000    0.0000   -0.0000
        2 V      2s         0.0001    1.0000    0.0000   -0.0000   -0.0020    0.0013    0.0000    0.0000   -0.0005    0.0001
        3 V      3s        -0.0000   -0.0014   -0.0000    0.0000    0.0006    0.9945    0.0000    0.0000   -0.0722    0.0057
        4 V      4s         0.0000    0.0000    0.0000   -0.0000   -0.0001   -0.0408   -0.0000   -0.0000    0.0175    0.0531
        5 V      5s        -0.0000   -0.0001   -0.0000    0.0000    0.0001    0.0334    0.0000    0.0000   -0.0154   -0.0199
        6 V      6s         0.0000    0.0002    0.0000   -0.0000   -0.0002   -0.0493   -0.0000   -0.0000    0.0215    0.0029
        7 V      7s        -0.0000   -0.0001   -0.0000    0.0000    0.0001    0.0028   -0.0000   -0.0000   -0.0002    0.0063
        8 V      8s         0.0000   -0.0001    0.0000   -0.0000   -0.0000    0.0074    0.0000    0.0000   -0.0036    0.0021
        9 V      9s        -0.0000    0.0001    0.0000   -0.0000   -0.0000    0.0007    0.0000    0.0000   -0.0005    0.0006
       10 V     10s         0.0000   -0.0002   -0.0000    0.0000    0.0000   -0.0010   -0.0000   -0.0000    0.0006   -0.0000
       11 V      2px        0.0000    0.0020   -0.0015    0.0000    1.0000   -0.0005   -0.0000   -0.0000    0.0022   -0.0004
       12 V      3px       -0.0000    0.0004    0.0000   -0.0000   -0.0021    0.0752   -0.0011   -0.0000    0.9896   -0.0417
       13 V      4px        0.0000   -0.0001   -0.0000    0.0000    0.0003    0.0004    0.0001    0.0000   -0.0639    0.1238
       14 V      5px       -0.0000    0.0001    0.0000   -0.0000   -0.0005   -0.0040   -0.0001   -0.0000    0.0832   -0.0742
       15 V      6px        0.0000   -0.0001   -0.0000    0.0000    0.0002    0.0026    0.0000    0.0000   -0.0052   -0.0251
       16 V      7px       -0.0000    0.0000   -0.0000    0.0000    0.0001   -0.0008    0.0000    0.0000   -0.0128    0.0142
       17 V      8px        0.0000   -0.0000    0.0000   -0.0000   -0.0002   -0.0007   -0.0000   -0.0000    0.0008    0.0065
       18 V      9px       -0.0000    0.0000   -0.0000    0.0000    0.0002    0.0003   -0.0000   -0.0000    0.0037   -0.0035
       19 V     10px        0.0000   -0.0000    0.0000   -0.0000   -0.0003    0.0002   -0.0000   -0.0000    0.0006   -0.0017
       20 V      2py       -0.0000    0.0000    0.0000    1.0000    0.0000   -0.0000   -0.0000    0.0021   -0.0000   -0.0000
       21 V      3py       -0.0000   -0.0000   -0.0000   -0.0021   -0.0000   -0.0000   -0.0000    0.9933    0.0000   -0.0000
       22 V      4py        0.0000    0.0000    0.0000    0.0003    0.0000    0.0000    0.0000   -0.0642   -0.0000    0.0000
       23 V      5py       -0.0000   -0.0000   -0.0000   -0.0005   -0.0000   -0.0000   -0.0000    0.0825    0.0000   -0.0000
       24 V      6py        0.0000    0.0000    0.0000    0.0002    0.0000    0.0000    0.0000   -0.0044    0.0000   -0.0000
       25 V      7py       -0.0000   -0.0000    0.0000    0.0001    0.0000    0.0000    0.0000   -0.0130   -0.0000    0.0000
       26 V      8py        0.0000    0.0000   -0.0000   -0.0002   -0.0000   -0.0000   -0.0000    0.0006   -0.0000    0.0000
       27 V      9py       -0.0000   -0.0000    0.0000    0.0002    0.0000   -0.0000   -0.0000    0.0037    0.0000   -0.0000
       28 V     10py        0.0000    0.0000   -0.0000   -0.0003   -0.0000    0.0000   -0.0000    0.0007    0.0000   -0.0000
       29 V      2pz        0.0000    0.0000    1.0000   -0.0000    0.0015   -0.0000    0.0021    0.0000    0.0000   -0.0000
       30 V      3pz       -0.0000    0.0000   -0.0021    0.0000   -0.0000    0.0000    0.9933    0.0000    0.0011   -0.0001
       31 V      4pz        0.0000   -0.0000    0.0003   -0.0000    0.0000   -0.0000   -0.0642   -0.0000   -0.0001    0.0003
       32 V      5pz       -0.0000    0.0000   -0.0005    0.0000   -0.0000   -0.0000    0.0825    0.0000    0.0001   -0.0002
       33 V      6pz        0.0000   -0.0000    0.0002   -0.0000    0.0000    0.0000   -0.0044   -0.0000   -0.0000   -0.0001
       34 V      7pz       -0.0000    0.0000    0.0001   -0.0000    0.0000   -0.0000   -0.0130   -0.0000   -0.0000    0.0000
       35 V      8pz        0.0000   -0.0000   -0.0002    0.0000   -0.0000   -0.0000    0.0006    0.0000    0.0000    0.0000
       36 V      9pz       -0.0000    0.0000    0.0002   -0.0000    0.0000    0.0000    0.0037    0.0000    0.0000   -0.0000
       37 V     10pz        0.0000   -0.0000   -0.0003    0.0000   -0.0000    0.0000    0.0007    0.0000    0.0000   -0.0000
       38 V      3d2-       0.0000   -0.0000    0.0000    0.0002    0.0000   -0.0000   -0.0000    0.0455    0.0000    0.0000
       39 V      4d2-      -0.0000    0.0000   -0.0000   -0.0001   -0.0000    0.0000    0.0000   -0.0096   -0.0000   -0.0000
       40 V      5d2-       0.0000   -0.0000    0.0000    0.0001    0.0000   -0.0000    0.0000   -0.0046   -0.0000    0.0000
       41 V      6d2-      -0.0000    0.0000   -0.0000   -0.0001   -0.0000    0.0000   -0.0000    0.0046    0.0000    0.0000
       42 V      7d2-       0.0000   -0.0000    0.0000    0.0000    0.0000   -0.0000   -0.0000    0.0016    0.0000    0.0000
       43 V      8d2-      -0.0000   -0.0000   -0.0000   -0.0000   -0.0000    0.0000    0.0000   -0.0000   -0.0000   -0.0000
       44 V      9d2-       0.0000    0.0000    0.0000    0.0000    0.0000   -0.0000    0.0000   -0.0007   -0.0000   -0.0000
       45 V     10d2-      -0.0000   -0.0000   -0.0000   -0.0000   -0.0000    0.0000    0.0000   -0.0002   -0.0000   -0.0000
       46 V      3d1-      -0.0000   -0.0000    0.0000    0.0000   -0.0000    0.0000   -0.0000    0.0000   -0.0000   -0.0000
       47 V      4d1-       0.0000    0.0000   -0.0000   -0.0000    0.0000   -0.0000    0.0000   -0.0000   -0.0000    0.0000
       48 V      5d1-      -0.0000   -0.0000    0.0000    0.0000   -0.0000    0.0000   -0.0000    0.0000    0.0000   -0.0000
       49 V      6d1-       0.0000    0.0000   -0.0000   -0.0000   -0.0000   -0.0000   -0.0000    0.0000    0.0000   -0.0000
       50 V      7d1-      -0.0000   -0.0000    0.0000    0.0000    0.0000    0.0000   -0.0000    0.0000    0.0000   -0.0000
       51 V      8d1-       0.0000    0.0000   -0.0000   -0.0000    0.0000   -0.0000    0.0000   -0.0000   -0.0000    0.0000
       52 V      9d1-      -0.0000    0.0000    0.0000    0.0000    0.0000    0.0000    0.0000   -0.0000   -0.0000    0.0000
       53 V     10d1-       0.0000    0.0000   -0.0000   -0.0000    0.0000   -0.0000    0.0000   -0.0000   -0.0000    0.0000
       54 V      3d0        0.0000    0.0000    0.0000   -0.0000   -0.0001   -0.0001    0.0001    0.0000   -0.0272   -0.4591
       55 V      4d0       -0.0000   -0.0000   -0.0000    0.0000    0.0001   -0.0002   -0.0000   -0.0000    0.0057    0.1111
       56 V      5d0        0.0000    0.0000    0.0000   -0.0000   -0.0001    0.0002   -0.0000   -0.0000    0.0027   -0.0113
       57 V      6d0       -0.0000   -0.0000   -0.0000    0.0000    0.0000    0.0000    0.0000    0.0000   -0.0027   -0.0079
       58 V      7d0        0.0000   -0.0000    0.0000   -0.0000   -0.0000   -0.0000    0.0000    0.0000   -0.0009   -0.0056
       59 V      8d0       -0.0000    0.0000   -0.0000    0.0000    0.0000   -0.0000    0.0000    0.0000    0.0000    0.0015
       60 V      9d0        0.0000   -0.0000    0.0000   -0.0000   -0.0000   -0.0000   -0.0000   -0.0000    0.0004    0.0014
       61 V     10d0       -0.0000   -0.0000   -0.0000    0.0000    0.0000   -0.0000   -0.0000   -0.0000    0.0001    0.0002
       62 V      3d1+      -0.0000   -0.0000    0.0002   -0.0000    0.0000   -0.0000    0.0455    0.0000    0.0001    0.0029
       63 V      4d1+       0.0000    0.0000   -0.0001    0.0000   -0.0000    0.0000   -0.0096   -0.0000   -0.0000   -0.0007
       64 V      5d1+      -0.0000   -0.0000    0.0001   -0.0000    0.0000    0.0000   -0.0046   -0.0000   -0.0000    0.0001
       65 V      6d1+       0.0000    0.0000   -0.0001    0.0000   -0.0000   -0.0000    0.0046    0.0000    0.0000    0.0001
       66 V      7d1+      -0.0000   -0.0000    0.0000   -0.0000    0.0000   -0.0000    0.0016    0.0000    0.0000    0.0000
       67 V      8d1+       0.0000   -0.0000   -0.0000    0.0000   -0.0000    0.0000   -0.0000   -0.0000   -0.0000   -0.0000
       68 V      9d1+      -0.0000    0.0000    0.0000   -0.0000    0.0000    0.0000   -0.0007   -0.0000   -0.0000   -0.0000
       69 V     10d1+       0.0000   -0.0000   -0.0000    0.0000   -0.0000    0.0000   -0.0002   -0.0000   -0.0000   -0.0000
       70 V      3d2+      -0.0000   -0.0000   -0.0000    0.0000    0.0002    0.0002   -0.0000   -0.0000    0.0471    0.8371
       71 V      4d2+       0.0000    0.0000    0.0000   -0.0000   -0.0002    0.0003    0.0000    0.0000   -0.0099   -0.2043
       72 V      5d2+      -0.0000   -0.0000   -0.0000    0.0000    0.0001   -0.0003    0.0000    0.0000   -0.0047    0.0205
       73 V      6d2+       0.0000    0.0000    0.0000   -0.0000   -0.0001   -0.0000   -0.0000   -0.0000    0.0046    0.0148
       74 V      7d2+      -0.0000    0.0000   -0.0000    0.0000    0.0000    0.0001   -0.0000   -0.0000    0.0016    0.0106
       75 V      8d2+       0.0000   -0.0000    0.0000   -0.0000   -0.0000    0.0001    0.0000    0.0000   -0.0000   -0.0026
       76 V      9d2+      -0.0000    0.0000   -0.0000    0.0000    0.0000    0.0000    0.0000    0.0000   -0.0008   -0.0026
       77 V     10d2+       0.0000    0.0000    0.0000   -0.0000   -0.0000    0.0000    0.0000    0.0000   -0.0002   -0.0003
       78 V      4f3-       0.0000    0.0000   -0.0000   -0.0000   -0.0000   -0.0000   -0.0000    0.0002    0.0000    0.0000
       79 V      5f3-      -0.0000   -0.0000    0.0000    0.0000    0.0000    0.0000   -0.0000    0.0004    0.0000    0.0000
       80 V      6f3-       0.0000    0.0000   -0.0000   -0.0000   -0.0000   -0.0000    0.0000   -0.0000    0.0000    0.0000
       81 V      7f3-      -0.0000   -0.0000    0.0000    0.0000    0.0000    0.0000    0.0000   -0.0002   -0.0000   -0.0000
       82 V      8f3-       0.0000    0.0000   -0.0000   -0.0000   -0.0000   -0.0000    0.0000   -0.0000   -0.0000   -0.0000
       83 V      9f3-      -0.0000   -0.0000    0.0000    0.0000    0.0000   -0.0000   -0.0000    0.0001   -0.0000   -0.0000
       84 V      4f2-       0.0000    0.0000   -0.0000   -0.0000    0.0000    0.0000    0.0000   -0.0001   -0.0000   -0.0000
       85 V      5f2-      -0.0000   -0.0000    0.0000    0.0000   -0.0000   -0.0000    0.0000   -0.0000   -0.0000   -0.0000
       86 V      6f2-       0.0000    0.0000   -0.0000   -0.0000    0.0000    0.0000   -0.0000    0.0000   -0.0000    0.0000
       87 V      7f2-      -0.0000   -0.0000   -0.0000   -0.0000   -0.0000    0.0000   -0.0000    0.0000    0.0000    0.0000
       88 V      8f2-      -0.0000    0.0000   -0.0000   -0.0000    0.0000   -0.0000   -0.0000    0.0000    0.0000    0.0000
       89 V      9f2-       0.0000    0.0000   -0.0000   -0.0000   -0.0000    0.0000   -0.0000    0.0000    0.0000   -0.0000
       90 V      4f1-       0.0000    0.0000    0.0000    0.0000    0.0000   -0.0000    0.0000   -0.0000    0.0000   -0.0000
       91 V      5f1-      -0.0000   -0.0000   -0.0000   -0.0000   -0.0000    0.0000    0.0000   -0.0001   -0.0000   -0.0000
       92 V      6f1-       0.0000    0.0000    0.0000    0.0000   -0.0000   -0.0000   -0.0000    0.0000    0.0000   -0.0000
       93 V      7f1-      -0.0000   -0.0000   -0.0000   -0.0000   -0.0000    0.0000   -0.0000    0.0000    0.0000    0.0000
       94 V      8f1-       0.0000    0.0000    0.0000    0.0000   -0.0000   -0.0000   -0.0000    0.0000    0.0000    0.0000
       95 V      9f1-      -0.0000   -0.0000   -0.0000   -0.0000    0.0000   -0.0000    0.0000   -0.0000    0.0000    0.0000
       96 V      4f0       -0.0000    0.0000    0.0000   -0.0000    0.0000    0.0000   -0.0001   -0.0000    0.0000    0.0001
       97 V      5f0        0.0000    0.0000   -0.0000    0.0000   -0.0000    0.0000   -0.0003   -0.0000    0.0000    0.0005
       98 V      6f0       -0.0000   -0.0000    0.0000   -0.0000    0.0000    0.0000    0.0000    0.0000   -0.0000    0.0005
       99 V      7f0        0.0000    0.0000   -0.0000    0.0000   -0.0000    0.0000    0.0001    0.0000   -0.0000    0.0003
      100 V      8f0       -0.0000   -0.0000    0.0000   -0.0000    0.0000    0.0000    0.0000    0.0000   -0.0000    0.0001
      101 V      9f0        0.0000    0.0000   -0.0000    0.0000    0.0000    0.0000   -0.0000   -0.0000   -0.0000   -0.0001
      102 V      4f1+       0.0000   -0.0000    0.0000   -0.0000    0.0000   -0.0001    0.0000    0.0000   -0.0001   -0.0414
      103 V      5f1+      -0.0000    0.0000   -0.0000    0.0000   -0.0000   -0.0000    0.0000    0.0000   -0.0003   -0.0256
      104 V      6f1+       0.0000   -0.0000   -0.0000    0.0000    0.0000    0.0000   -0.0000   -0.0000    0.0000    0.0016
      105 V      7f1+      -0.0000   -0.0000    0.0000   -0.0000   -0.0000   -0.0000   -0.0000   -0.0000    0.0001    0.0046
      106 V      8f1+       0.0000    0.0000   -0.0000    0.0000    0.0000   -0.0000   -0.0000   -0.0000    0.0000    0.0022
      107 V      9f1+      -0.0000   -0.0000    0.0000   -0.0000   -0.0000   -0.0000   -0.0000   -0.0000   -0.0000    0.0000
      108 V      4f2+      -0.0000    0.0000   -0.0000    0.0000    0.0000    0.0000    0.0001    0.0000    0.0000    0.0004
      109 V      5f2+       0.0000   -0.0000    0.0000   -0.0000    0.0000    0.0000    0.0003    0.0000    0.0000    0.0006
      110 V      6f2+      -0.0000   -0.0000   -0.0000    0.0000   -0.0000    0.0000   -0.0000   -0.0000   -0.0000    0.0004
      111 V      7f2+       0.0000    0.0000    0.0000   -0.0000    0.0000    0.0000   -0.0001   -0.0000   -0.0000    0.0002
      112 V      8f2+      -0.0000   -0.0000   -0.0000    0.0000   -0.0000    0.0000   -0.0000   -0.0000   -0.0000    0.0000
      113 V      9f2+       0.0000    0.0000    0.0000   -0.0000    0.0000    0.0000    0.0001    0.0000   -0.0000   -0.0001
      114 V      4f3+      -0.0000    0.0000    0.0000   -0.0000   -0.0000    0.0002    0.0000    0.0000    0.0001    0.0552
      115 V      5f3+       0.0000   -0.0000   -0.0000    0.0000    0.0000    0.0000    0.0000    0.0000    0.0004    0.0340
      116 V      6f3+      -0.0000    0.0000    0.0000   -0.0000   -0.0000   -0.0000   -0.0000   -0.0000   -0.0000   -0.0022
      117 V      7f3+       0.0000    0.0000    0.0000   -0.0000    0.0000    0.0000   -0.0000   -0.0000   -0.0002   -0.0062
      118 V      8f3+      -0.0000   -0.0000    0.0000   -0.0000   -0.0000    0.0000   -0.0000   -0.0000   -0.0000   -0.0029
      119 V      9f3+       0.0000    0.0000    0.0000   -0.0000    0.0000    0.0000   -0.0000   -0.0000    0.0000   -0.0000
      120 V      5g4-       0.0000    0.0000    0.0000    0.0000    0.0000    0.0000   -0.0000    0.0001    0.0000    0.0000
      121 V      6g4-      -0.0000   -0.0000   -0.0000   -0.0000   -0.0000   -0.0000   -0.0000    0.0001    0.0000    0.0000
      122 V      7g4-       0.0000    0.0000    0.0000    0.0000   -0.0000    0.0000   -0.0000    0.0000   -0.0000    0.0000
      123 V      8g4-      -0.0000   -0.0000    0.0000    0.0000    0.0000   -0.0000    0.0000   -0.0000    0.0000    0.0000
      124 V      5g3-      -0.0000   -0.0000   -0.0000   -0.0000   -0.0000   -0.0000    0.0000   -0.0000    0.0000   -0.0000
      125 V      6g3-       0.0000    0.0000    0.0000    0.0000   -0.0000    0.0000    0.0000   -0.0000   -0.0000   -0.0000
      126 V      7g3-      -0.0000   -0.0000   -0.0000   -0.0000   -0.0000   -0.0000    0.0000   -0.0000    0.0000   -0.0000
      127 V      8g3-       0.0000    0.0000    0.0000    0.0000    0.0000    0.0000    0.0000   -0.0000   -0.0000   -0.0000
      128 V      5g2-      -0.0000    0.0000   -0.0000   -0.0000   -0.0000    0.0000    0.0000   -0.0001   -0.0000   -0.0000
      129 V      6g2-       0.0000    0.0000    0.0000    0.0000    0.0000   -0.0000    0.0000   -0.0000   -0.0000   -0.0000
      130 V      7g2-      -0.0000   -0.0000   -0.0000   -0.0000    0.0000    0.0000    0.0000   -0.0000   -0.0000   -0.0000
      131 V      8g2-       0.0000    0.0000   -0.0000   -0.0000    0.0000   -0.0000   -0.0000    0.0000    0.0000   -0.0000
      132 V      5g1-      -0.0000    0.0000    0.0000    0.0000   -0.0000   -0.0000   -0.0000    0.0000    0.0000    0.0000
      133 V      6g1-       0.0000   -0.0000    0.0000    0.0000   -0.0000    0.0000   -0.0000    0.0000   -0.0000    0.0000
      134 V      7g1-      -0.0000    0.0000   -0.0000   -0.0000    0.0000   -0.0000   -0.0000    0.0000    0.0000    0.0000
      135 V      8g1-       0.0000   -0.0000    0.0000    0.0000   -0.0000    0.0000    0.0000   -0.0000   -0.0000    0.0000
      136 V      5g0        0.0000   -0.0000   -0.0000    0.0000    0.0000   -0.0000   -0.0000   -0.0000    0.0001    0.0008
      137 V      6g0        0.0000    0.0000    0.0000   -0.0000   -0.0000   -0.0000   -0.0000   -0.0000    0.0001    0.0020
      138 V      7g0       -0.0000   -0.0000   -0.0000    0.0000    0.0000    0.0000   -0.0000   -0.0000   -0.0000    0.0015
      139 V      8g0        0.0000    0.0000    0.0000   -0.0000    0.0000    0.0000   -0.0000   -0.0000   -0.0000    0.0007
      140 V      5g1+      -0.0000    0.0000   -0.0000    0.0000    0.0000    0.0000   -0.0001   -0.0000    0.0000    0.0001
      141 V      6g1+      -0.0000   -0.0000    0.0000   -0.0000    0.0000    0.0000   -0.0001   -0.0000    0.0000    0.0004
      142 V      7g1+       0.0000    0.0000   -0.0000    0.0000   -0.0000    0.0000   -0.0000   -0.0000    0.0000    0.0005
      143 V      8g1+       0.0000   -0.0000   -0.0000    0.0000    0.0000   -0.0000    0.0000    0.0000    0.0000    0.0004
      144 V      5g2+      -0.0000    0.0000    0.0000   -0.0000   -0.0000    0.0000    0.0000    0.0000   -0.0001   -0.0012
      145 V      6g2+      -0.0000   -0.0000   -0.0000    0.0000    0.0000    0.0000    0.0000    0.0000   -0.0001   -0.0030
      146 V      7g2+       0.0000    0.0000   -0.0000    0.0000   -0.0000   -0.0000    0.0000    0.0000    0.0000   -0.0023
      147 V      8g2+      -0.0000   -0.0000    0.0000   -0.0000   -0.0000   -0.0000    0.0000    0.0000    0.0000   -0.0010
      148 V      5g3+      -0.0000    0.0000    0.0000   -0.0000    0.0000    0.0000    0.0001    0.0000    0.0000    0.0001
      149 V      6g3+      -0.0000   -0.0000   -0.0000    0.0000   -0.0000    0.0000    0.0001    0.0000    0.0000    0.0005
      150 V      7g3+       0.0000    0.0000    0.0000   -0.0000   -0.0000    0.0000    0.0000    0.0000    0.0000    0.0006
      151 V      8g3+       0.0000   -0.0000    0.0000   -0.0000    0.0000   -0.0000   -0.0000   -0.0000    0.0000    0.0005
      152 V      5g4+       0.0000   -0.0000    0.0000   -0.0000    0.0000   -0.0000    0.0000    0.0000    0.0001    0.0016
      153 V      6g4+       0.0000    0.0000   -0.0000    0.0000   -0.0000   -0.0000    0.0000    0.0000    0.0001    0.0041
      154 V      7g4+      -0.0000   -0.0000   -0.0000    0.0000    0.0000    0.0000    0.0000    0.0000   -0.0000    0.0031
      155 V      8g4+       0.0000    0.0000    0.0000   -0.0000    0.0000    0.0000    0.0000    0.0000   -0.0000    0.0014
      156 V      6h5-      -0.0000   -0.0000   -0.0000   -0.0000    0.0000    0.0000    0.0000   -0.0000    0.0000    0.0000
      157 V      7h5-       0.0000    0.0000    0.0000    0.0000   -0.0000   -0.0000    0.0000   -0.0000   -0.0000    0.0000
      158 V      6h4-      -0.0000   -0.0000    0.0000    0.0000    0.0000   -0.0000   -0.0000    0.0000    0.0000   -0.0000
      159 V      7h4-      -0.0000    0.0000   -0.0000   -0.0000    0.0000   -0.0000   -0.0000    0.0000    0.0000   -0.0000
      160 V      6h3-      -0.0000   -0.0000    0.0000    0.0000    0.0000   -0.0000   -0.0000    0.0000    0.0000    0.0000
      161 V      7h3-       0.0000    0.0000   -0.0000   -0.0000   -0.0000    0.0000   -0.0000    0.0000   -0.0000   -0.0000
      162 V      6h2-      -0.0000   -0.0000    0.0000    0.0000    0.0000   -0.0000   -0.0000    0.0000    0.0000    0.0000
      163 V      7h2-       0.0000    0.0000   -0.0000   -0.0000    0.0000   -0.0000   -0.0000    0.0000    0.0000    0.0000
      164 V      6h1-       0.0000    0.0000   -0.0000   -0.0000    0.0000    0.0000    0.0000   -0.0000    0.0000    0.0000
      165 V      7h1-      -0.0000   -0.0000    0.0000    0.0000   -0.0000   -0.0000    0.0000   -0.0000   -0.0000    0.0000
      166 V      6h0        0.0000   -0.0000   -0.0000    0.0000   -0.0000   -0.0000   -0.0000   -0.0000   -0.0000   -0.0000
      167 V      7h0        0.0000   -0.0000    0.0000   -0.0000    0.0000   -0.0000   -0.0000   -0.0000   -0.0000   -0.0001
      168 V      6h1+       0.0000    0.0000    0.0000   -0.0000   -0.0000   -0.0000    0.0000    0.0000   -0.0000    0.0001
      169 V      7h1+       0.0000   -0.0000   -0.0000    0.0000    0.0000   -0.0000    0.0000    0.0000   -0.0000    0.0002
      170 V      6h2+      -0.0000    0.0000    0.0000   -0.0000    0.0000    0.0000    0.0000    0.0000    0.0000    0.0000
      171 V      7h2+      -0.0000    0.0000   -0.0000    0.0000   -0.0000    0.0000    0.0000    0.0000    0.0000    0.0000
      172 V      6h3+      -0.0000   -0.0000    0.0000   -0.0000    0.0000    0.0000    0.0000    0.0000    0.0000   -0.0002
      173 V      7h3+      -0.0000    0.0000   -0.0000    0.0000   -0.0000    0.0000    0.0000    0.0000    0.0000   -0.0003
      174 V      6h4+      -0.0000    0.0000   -0.0000    0.0000    0.0000    0.0000   -0.0000   -0.0000    0.0000    0.0000
      175 V      7h4+      -0.0000    0.0000    0.0000   -0.0000   -0.0000    0.0000   -0.0000   -0.0000    0.0000    0.0001
      176 V      6h5+       0.0000    0.0000    0.0000   -0.0000   -0.0000   -0.0000    0.0000    0.0000   -0.0000    0.0002
      177 V      7h5+       0.0000   -0.0000    0.0000   -0.0000    0.0000   -0.0000    0.0000    0.0000   -0.0000    0.0004

          Orbital           11        12        13        14        15    
          Energy            2.4767    2.4767    2.4777    2.4777    2.8020
          Occ. No.          0.0000    0.0000    0.0000    0.0000    0.0000

        1 V      1s         0.0000    0.0000   -0.0000   -0.0000   -0.0000
        2 V      2s         0.0000   -0.0000    0.0000   -0.0000    0.0000
        3 V      3s         0.0000   -0.0001    0.0000    0.0000    0.0353
        4 V      4s         0.0000   -0.0011    0.0002    0.0000    0.6457
        5 V      5s        -0.0000    0.0004   -0.0001   -0.0000   -0.2386
        6 V      6s         0.0000   -0.0001    0.0000    0.0000    0.0901
        7 V      7s         0.0000   -0.0001    0.0000    0.0000    0.0477
        8 V      8s         0.0000   -0.0000    0.0000    0.0000   -0.0001
        9 V      9s         0.0000   -0.0000    0.0000   -0.0000    0.0040
       10 V     10s        -0.0000    0.0000    0.0000   -0.0000    0.0040
       11 V      2px       -0.0000    0.0000   -0.0000   -0.0000   -0.0000
       12 V      3px       -0.0000    0.0009   -0.0002   -0.0000    0.0402
       13 V      4px        0.0000   -0.0026    0.0006    0.0000    0.6054
       14 V      5px       -0.0000    0.0016   -0.0003   -0.0000   -0.1074
       15 V      6px       -0.0000    0.0005   -0.0001   -0.0000   -0.1136
       16 V      7px        0.0000   -0.0003    0.0001    0.0000   -0.0168
       17 V      8px        0.0000   -0.0001    0.0000    0.0000   -0.0010
       18 V      9px       -0.0000    0.0001   -0.0000   -0.0000    0.0031
       19 V     10px       -0.0000    0.0000   -0.0000   -0.0000    0.0021
       20 V      2py        0.0001    0.0000   -0.0000   -0.0003   -0.0000
       21 V      3py        0.0121    0.0000   -0.0000   -0.0341    0.0000
       22 V      4py       -0.0278   -0.0000    0.0000    0.0763   -0.0000
       23 V      5py        0.0197    0.0000   -0.0000   -0.0558    0.0000
       24 V      6py        0.0054    0.0000   -0.0000   -0.0151    0.0000
       25 V      7py       -0.0043   -0.0000    0.0000    0.0124   -0.0000
       26 V      8py       -0.0016   -0.0000    0.0000    0.0049   -0.0000
       27 V      9py        0.0012    0.0000   -0.0000   -0.0033   -0.0000
       28 V     10py        0.0005    0.0000   -0.0000   -0.0016   -0.0000
       29 V      2pz        0.0000   -0.0001   -0.0003    0.0000   -0.0000
       30 V      3pz        0.0000   -0.0117   -0.0342    0.0000    0.0000
       31 V      4pz       -0.0000    0.0270    0.0767   -0.0000    0.0002
       32 V      5pz        0.0000   -0.0191   -0.0560    0.0000   -0.0001
       33 V      6pz        0.0000   -0.0053   -0.0151    0.0000   -0.0001
       34 V      7pz       -0.0000    0.0041    0.0124   -0.0000   -0.0000
       35 V      8pz       -0.0000    0.0016    0.0049   -0.0000   -0.0000
       36 V      9pz        0.0000   -0.0011   -0.0033    0.0000    0.0000
       37 V     10pz        0.0000   -0.0005   -0.0016    0.0000    0.0000
       38 V      3d2-      -0.3209   -0.0000    0.0000    0.9034    0.0000
       39 V      4d2-       0.0823    0.0000   -0.0000   -0.2354    0.0000
       40 V      5d2-      -0.0076   -0.0000    0.0000    0.0202    0.0000
       41 V      6d2-      -0.0066   -0.0000    0.0000    0.0186    0.0000
       42 V      7d2-      -0.0048   -0.0000    0.0000    0.0138   -0.0000
       43 V      8d2-       0.0007    0.0000   -0.0000   -0.0015   -0.0000
       44 V      9d2-       0.0010    0.0000   -0.0000   -0.0024   -0.0000
       45 V     10d2-       0.0001    0.0000   -0.0000   -0.0003    0.0000
       46 V      3d1-       0.9048    0.0000    0.0000    0.3209    0.0000
       47 V      4d1-      -0.2558   -0.0000   -0.0000   -0.0922    0.0000
       48 V      5d1-       0.0198    0.0000    0.0000    0.0065   -0.0000
       49 V      6d1-       0.0233    0.0000    0.0000    0.0082   -0.0000
       50 V      7d1-       0.0171    0.0000    0.0000    0.0062   -0.0000
       51 V      8d1-      -0.0006   -0.0000   -0.0000   -0.0000   -0.0000
       52 V      9d1-      -0.0027   -0.0000   -0.0000   -0.0008   -0.0000
       53 V     10d1-      -0.0004   -0.0000   -0.0000   -0.0001    0.0000
       54 V      3d0       -0.0000    0.7968   -0.2708    0.0000    0.0292
       55 V      4d0        0.0000   -0.2249    0.0778   -0.0000   -0.1576
       56 V      5d0       -0.0000    0.0174   -0.0054    0.0000   -0.0327
       57 V      6d0       -0.0000    0.0205   -0.0069    0.0000    0.0136
       58 V      7d0       -0.0000    0.0150   -0.0052    0.0000    0.0196
       59 V      8d0        0.0000   -0.0005    0.0000    0.0000    0.0166
       60 V      9d0        0.0000   -0.0023    0.0007   -0.0000    0.0087
       61 V     10d0        0.0000   -0.0003    0.0001   -0.0000    0.0017
       62 V      3d1+      -0.0000    0.3105    0.9070   -0.0000   -0.0000
       63 V      4d1+       0.0000   -0.0796   -0.2362    0.0000    0.0002
       64 V      5d1+      -0.0000    0.0073    0.0203   -0.0000    0.0001
       65 V      6d1+      -0.0000    0.0063    0.0187   -0.0000   -0.0000
       66 V      7d1+      -0.0000    0.0046    0.0139   -0.0000   -0.0001
       67 V      8d1+       0.0000   -0.0007   -0.0015    0.0000   -0.0001
       68 V      9d1+       0.0000   -0.0009   -0.0024    0.0000   -0.0000
       69 V     10d1+       0.0000   -0.0001   -0.0003    0.0000   -0.0000
       70 V      3d2+      -0.0000    0.4362   -0.1517    0.0000   -0.0506
       71 V      4d2+       0.0000   -0.1240    0.0438   -0.0000    0.2734
       72 V      5d2+      -0.0000    0.0095   -0.0030    0.0000    0.0569
       73 V      6d2+      -0.0000    0.0114   -0.0039    0.0000   -0.0236
       74 V      7d2+      -0.0000    0.0084   -0.0029    0.0000   -0.0339
       75 V      8d2+      -0.0000   -0.0002    0.0000   -0.0000   -0.0289
       76 V      9d2+       0.0000   -0.0013    0.0004   -0.0000   -0.0151
       77 V     10d2+       0.0000   -0.0002    0.0000   -0.0000   -0.0030
       78 V      4f3-      -0.0211   -0.0000    0.0000    0.0585    0.0000
       79 V      5f3-      -0.0131   -0.0000    0.0000    0.0349    0.0000
       80 V      6f3-       0.0006    0.0000   -0.0000   -0.0034    0.0000
       81 V      7f3-       0.0021    0.0000   -0.0000   -0.0067    0.0000
       82 V      8f3-       0.0010    0.0000   -0.0000   -0.0027    0.0000
       83 V      9f3-      -0.0000   -0.0000    0.0000    0.0005    0.0000
       84 V      4f2-       0.0457    0.0000    0.0000    0.0155    0.0000
       85 V      5f2-       0.0253    0.0000    0.0000    0.0075    0.0000
       86 V      6f2-      -0.0046   -0.0000   -0.0000   -0.0029   -0.0000
       87 V      7f2-      -0.0058   -0.0000   -0.0000   -0.0027   -0.0000
       88 V      8f2-      -0.0018   -0.0000   -0.0000   -0.0007   -0.0000
       89 V      9f2-       0.0011    0.0000    0.0000    0.0007   -0.0000
       90 V      4f1-       0.0055    0.0000   -0.0000   -0.0151   -0.0000
       91 V      5f1-       0.0034    0.0000   -0.0000   -0.0090   -0.0000
       92 V      6f1-      -0.0002   -0.0000    0.0000    0.0009   -0.0000
       93 V      7f1-      -0.0005   -0.0000    0.0000    0.0017   -0.0000
       94 V      8f1-      -0.0002   -0.0000    0.0000    0.0007   -0.0000
       95 V      9f1-       0.0000    0.0000   -0.0000   -0.0001    0.0000
       96 V      4f0        0.0000   -0.0129   -0.0372    0.0000    0.0025
       97 V      5f0        0.0000   -0.0080   -0.0222    0.0000    0.0061
       98 V      6f0       -0.0000    0.0004    0.0021   -0.0000    0.0063
       99 V      7f0       -0.0000    0.0013    0.0042   -0.0000    0.0044
      100 V      8f0       -0.0000    0.0006    0.0017   -0.0000    0.0015
      101 V      9f0       -0.0000   -0.0000   -0.0003    0.0000   -0.0002
      102 V      4f1+      -0.0000    0.0372   -0.0120    0.0000   -0.0167
      103 V      5f1+      -0.0000    0.0206   -0.0058    0.0000   -0.0426
      104 V      6f1+       0.0000   -0.0037    0.0022   -0.0000   -0.0355
      105 V      7f1+       0.0000   -0.0047    0.0021   -0.0000   -0.0146
      106 V      8f1+       0.0000   -0.0015    0.0005   -0.0000    0.0027
      107 V      9f1+      -0.0000    0.0009   -0.0005    0.0000    0.0114
      108 V      4f2+      -0.0000    0.0167    0.0480   -0.0000    0.0020
      109 V      5f2+      -0.0000    0.0104    0.0287   -0.0000    0.0049
      110 V      6f2+       0.0000   -0.0005   -0.0027    0.0000    0.0050
      111 V      7f2+       0.0000   -0.0017   -0.0055    0.0000    0.0035
      112 V      8f2+       0.0000   -0.0008   -0.0022    0.0000    0.0011
      113 V      9f2+      -0.0000    0.0000    0.0004   -0.0000   -0.0003
      114 V      4f3+      -0.0000    0.0269   -0.0089    0.0000    0.0218
      115 V      5f3+      -0.0000    0.0148   -0.0042    0.0000    0.0553
      116 V      6f3+       0.0000   -0.0028    0.0017   -0.0000    0.0461
      117 V      7f3+       0.0000   -0.0035    0.0016   -0.0000    0.0191
      118 V      8f3+       0.0000   -0.0011    0.0004   -0.0000   -0.0034
      119 V      9f3+      -0.0000    0.0007   -0.0004    0.0000   -0.0147
      120 V      5g4-      -0.0007   -0.0000    0.0000    0.0019   -0.0000
      121 V      6g4-      -0.0018   -0.0000    0.0000    0.0049    0.0000
      122 V      7g4-      -0.0015   -0.0000    0.0000    0.0038    0.0000
      123 V      8g4-      -0.0009   -0.0000    0.0000    0.0019    0.0000
      124 V      5g3-       0.0012    0.0000    0.0000    0.0001   -0.0000
      125 V      6g3-       0.0031    0.0000    0.0000    0.0003    0.0000
      126 V      7g3-       0.0023    0.0000   -0.0000   -0.0001    0.0000
      127 V      8g3-       0.0011    0.0000   -0.0000   -0.0003    0.0000
      128 V      5g2-       0.0003    0.0000   -0.0000   -0.0007   -0.0000
      129 V      6g2-       0.0007    0.0000   -0.0000   -0.0018   -0.0000
      130 V      7g2-       0.0006    0.0000   -0.0000   -0.0014    0.0000
      131 V      8g2-       0.0003    0.0000   -0.0000   -0.0007   -0.0000
      132 V      5g1-      -0.0005   -0.0000    0.0000    0.0001    0.0000
      133 V      6g1-      -0.0013   -0.0000    0.0000    0.0001    0.0000
      134 V      7g1-      -0.0010   -0.0000    0.0000    0.0002    0.0000
      135 V      8g1-      -0.0005   -0.0000    0.0000    0.0002    0.0000
      136 V      5g0        0.0000   -0.0007    0.0001   -0.0000    0.0016
      137 V      6g0        0.0000   -0.0019    0.0003   -0.0000    0.0043
      138 V      7g0        0.0000   -0.0014    0.0001   -0.0000    0.0043
      139 V      8g0        0.0000   -0.0006   -0.0001    0.0000    0.0031
      140 V      5g1+       0.0000   -0.0005   -0.0015    0.0000    0.0015
      141 V      6g1+       0.0000   -0.0014   -0.0040    0.0000    0.0049
      142 V      7g1+       0.0000   -0.0012   -0.0031    0.0000    0.0057
      143 V      8g1+       0.0000   -0.0007   -0.0016    0.0000    0.0050
      144 V      5g2+      -0.0000    0.0007    0.0000   -0.0000   -0.0024
      145 V      6g2+      -0.0000    0.0018    0.0001   -0.0000   -0.0065
      146 V      7g2+      -0.0000    0.0014    0.0002   -0.0000   -0.0064
      147 V      8g2+      -0.0000    0.0006    0.0003   -0.0000   -0.0047
      148 V      5g3+      -0.0000    0.0005    0.0013   -0.0000    0.0017
      149 V      6g3+      -0.0000    0.0013    0.0035   -0.0000    0.0056
      150 V      7g3+      -0.0000    0.0010    0.0027   -0.0000    0.0066
      151 V      8g3+      -0.0000    0.0006    0.0014   -0.0000    0.0058
      152 V      5g4+      -0.0000    0.0009   -0.0000    0.0000    0.0032
      153 V      6g4+      -0.0000    0.0022   -0.0001    0.0000    0.0087
      154 V      7g4+      -0.0000    0.0016    0.0001   -0.0000    0.0087
      155 V      8g4+      -0.0000    0.0008    0.0003   -0.0000    0.0064
      156 V      6h5-      -0.0001   -0.0000    0.0000    0.0003   -0.0000
      157 V      7h5-      -0.0001   -0.0000    0.0000    0.0005   -0.0000
      158 V      6h4-       0.0002    0.0000    0.0000    0.0000    0.0000
      159 V      7h4-       0.0003    0.0000    0.0000    0.0000    0.0000
      160 V      6h3-       0.0000    0.0000   -0.0000   -0.0001   -0.0000
      161 V      7h3-       0.0001    0.0000   -0.0000   -0.0002   -0.0000
      162 V      6h2-      -0.0001   -0.0000    0.0000    0.0000    0.0000
      163 V      7h2-      -0.0002   -0.0000    0.0000    0.0001   -0.0000
      164 V      6h1-      -0.0000   -0.0000    0.0000    0.0000   -0.0000
      165 V      7h1-      -0.0000   -0.0000    0.0000    0.0001   -0.0000
      166 V      6h0       -0.0000    0.0000    0.0002   -0.0000   -0.0002
      167 V      7h0       -0.0000    0.0001    0.0003   -0.0000   -0.0006
      168 V      6h1+       0.0000   -0.0001    0.0000   -0.0000    0.0000
      169 V      7h1+       0.0000   -0.0002    0.0001   -0.0000    0.0000
      170 V      6h2+       0.0000   -0.0001   -0.0002    0.0000    0.0001
      171 V      7h2+       0.0000   -0.0001   -0.0004    0.0000    0.0003
      172 V      6h3+      -0.0000    0.0001    0.0000   -0.0000   -0.0000
      173 V      7h3+      -0.0000    0.0002    0.0001   -0.0000   -0.0000
      174 V      6h4+      -0.0000    0.0000    0.0002   -0.0000    0.0003
      175 V      7h4+      -0.0000    0.0001    0.0003   -0.0000    0.0009
      176 V      6h5+      -0.0000    0.0001    0.0000   -0.0000    0.0000
      177 V      7h5+      -0.0000    0.0003    0.0000   -0.0000    0.0001
--


++    Molecular charges:
      ------------------

      Mulliken charges per centre and basis function type
      ---------------------------------------------------

                V     
      1s       2.0000
      2s       2.0000
      2px      2.0000
      2pz      2.0000
      2py      2.0000
      3s       1.9885
      3px      1.9701
      3pz      1.9733
      3py      1.9733
      4s       0.0039
      3d2+     0.0044
      3d1+     0.0041
      3d0      0.0015
      3d1-     0.0000
      3d2-     0.0041
      4px      0.0082
      4pz      0.0083
      4py      0.0083
      5s       0.0027
      4d2+     0.0002
      4d1+     0.0002
      4d0      0.0001
      4d1-     0.0000
      4d2-     0.0002
      5px      0.0139
      5pz      0.0136
      5py      0.0136
      6s       0.0058
      4f3+     0.0000
      4f2+     0.0000
      4f1+     0.0000
      4f0      0.0000
      4f1-     0.0000
      4f2-     0.0000
      4f3-     0.0000
      5d2+     0.0000
      5d1+     0.0000
      5d0      0.0000
      5d1-     0.0000
      5d2-     0.0000
      6px      0.0001
      6pz      0.0000
      6py      0.0000
      7s       0.0000
      5f3+     0.0000
      5f2+     0.0000
      5f1+     0.0000
      5f0      0.0000
      5f1-     0.0000
      5f2-     0.0000
      5f3-     0.0000
      6d2+     0.0000
      6d1+     0.0000
      6d0      0.0000
      6d1-     0.0000
      6d2-     0.0000
      7px      0.0003
      7pz      0.0003
      7py      0.0003
      5g4+     0.0000
      5g3+     0.0000
      5g2+     0.0000
      5g1+     0.0000
      5g0      0.0000
      5g1-     0.0000
      5g2-     0.0000
      5g3-     0.0000
      5g4-     0.0000
      6f3+     0.0000
      6f2+     0.0000
      6f1+     0.0000
      6f0      0.0000
      6f1-     0.0000
      6f2-     0.0000
      6f3-     0.0000
      6g4+     0.0000
      6g3+     0.0000
      6g2+     0.0000
      6g1+     0.0000
      6g0      0.0000
      6g1-     0.0000
      6g2-     0.0000
      6g3-     0.0000
      6g4-     0.0000
      6h5+     0.0000
      6h4+     0.0000
      6h3+     0.0000
      6h2+     0.0000
      6h1+     0.0000
      6h0      0.0000
      6h1-     0.0000
      6h2-     0.0000
      6h3-     0.0000
      6h4-     0.0000
      6h5-     0.0000
      7d2+     0.0000
      7d1+     0.0000
      7d0      0.0000
      7d1-     0.0000
      7d2-     0.0000
      7f3+     0.0000
      7f2+     0.0000
      7f1+     0.0000
      7f0      0.0000
      7f1-     0.0000
      7f2-     0.0000
      7f3-     0.0000
      7g4+     0.0000
      7g3+     0.0000
      7g2+     0.0000
      7g1+     0.0000
      7g0      0.0000
      7g1-     0.0000
      7g2-     0.0000
      7g3-     0.0000
      7g4-     0.0000
      7h5+     0.0000
      7h4+     0.0000
      7h3+     0.0000
      7h2+     0.0000
      7h1+     0.0000
      7h0      0.0000
      7h1-     0.0000
      7h2-     0.0000
      7h3-     0.0000
      7h4-     0.0000
      7h5-     0.0000
      8s       0.0001
      8px      0.0000
      8pz      0.0000
      8py      0.0000
      8d2+     0.0000
      8d1+     0.0000
      8d0      0.0000
      8d1-     0.0000
      8d2-     0.0000
      8f3+     0.0000
      8f2+     0.0000
      8f1+     0.0000
      8f0      0.0000
      8f1-     0.0000
      8f2-     0.0000
      8f3-     0.0000
      8g4+     0.0000
      8g3+     0.0000
      8g2+     0.0000
      8g1+     0.0000
      8g0      0.0000
      8g1-     0.0000
      8g2-     0.0000
      8g3-     0.0000
      8g4-     0.0000
      9s       0.0000
      9px      0.0000
      9pz      0.0000
      9py      0.0000
      9d2+     0.0000
      9d1+     0.0000
      9d0      0.0000
      9d1-     0.0000
      9d2-     0.0000
      9f3+     0.0000
      9f2+     0.0000
      9f1+     0.0000
      9f0      0.0000
      9f1-     0.0000
      9f2-     0.0000
      9f3-     0.0000
     10s       0.0000
     10px      0.0000
     10pz      0.0000
     10py      0.0000
     10d2+     0.0000
     10d1+     0.0000
     10d0      0.0000
     10d1-     0.0000
     10d2-     0.0000
      Total   18.0000

      N-E      5.0000

      Total electronic charge=   18.000000

      Total            charge=    5.000000
--

 Sorry, Molden does not know how to handle
 functions with angular momentum larger than g

++    Static properties:
      ------------------


      LoProp Charges per center


                   V     
      Nuclear     23.0000
      Electronic -18.0000

      Total        5.0000
--


++    Molecular properties:
      ---------------------

      Charge (e):
                      =    5.0000
      Dipole Moment (Debye):
      Origin of the operator (Ang)=    0.0000    0.0000    0.0000
                   X= -8.0000E-01               Y= -1.0672E-13               Z=  1.1087E-01           Total=  8.0764E-01
      Center of Charge (Ang)
                     X=   -0.03331094               Y=   -0.00000000               Z=    0.00461658
      Quadrupole Moment (Debye*Ang):
      Origin of the operator (Ang)=   -0.0000   -0.0000    0.0046
                  XX= -4.0031E+00              XY=  1.3164E-14              XZ=  2.2240E-05              YY= -3.9992E+00
                  YZ=  7.1980E-15              ZZ= -3.9992E+00
      In traceless form (Debye*Ang)
                  XX= -3.8123E-03              XY=  1.9746E-14              XZ=  3.3360E-05              YY=  1.9084E-03
                  YZ=  1.0797E-14              ZZ=  1.9039E-03
--

 Sorry, Molden does not know how to handle
 functions with angular momentum larger than g
 ###############################################################################
 ###############################################################################
 ###                                                                         ###
 ###                                                                         ###
 ###    WARNING: RunFile label nBas                                          ###
 ###    was used       62 times                                              ###
 ###                                                                         ###
 ###                                                                         ###
 ###############################################################################
 ###############################################################################
Note: The following floating-point exceptions are signalling: IEEE_UNDERFLOW_FLAG IEEE_DENORMAL
--- Stop Module: scf at Wed Mar 26 23:44:35 2025 /rc=_RC_ALL_IS_WELL_ ---
*** files: vanadium_so_cf.LprOrb vanadium_so_cf.ScfOrb xmldump
    saved to directory /home4/s4752295/Internship/Initial_simulations/Point_charge_model/1_electron/Madelung_charges_9_active_space/V
--- Module scf spent 7 seconds ---

*** symbolic link created: INPORB -> vanadium_so_cf.ScfOrb
--- Start Module: rasscf at Wed Mar 26 23:44:35 2025 ---

()()()()()()()()()()()()()()()()()()()()()()()()()()()()()()()()()()()()()()()()()()()()()()()()()()

                                              &RASSCF

                                   only a single process is used
                       available to each process: 4.1 GB of memory, 1 thread?
                                            pid: 828732
()()()()()()()()()()()()()()()()()()()()()()()()()()()()()()()()()()()()()()()()()()()()()()()()()()


      Header of the ONEINT file:
      --------------------------
      
      Integrals generated by seward 4.2.0  , Wed Mar 26 23:44:20 2025


      OrdInt status: non-squared


      Cartesian coordinates in Angstrom:
      -----------------------------------------------------
      No.  Label        X            Y            Z        
      -----------------------------------------------------
       1   V         -0.00000000  -0.00000000   0.00463220
      -----------------------------------------------------
      Nuclear repulsion energy = -110.75068912

++    Wave function specifications:
      -----------------------------

      Number of closed shell electrons          18
[...]
         4   18       7.10061290E-05  1.27650048E+02  1.15056811E-10  1.09993826E+06  1.10006591E+06
         5   11       5.17414900E-02  2.13551391E+08  5.67384098E-14  1.06663195E+04  2.13562058E+08
         5   13       2.77182627E-03  1.45091297E+05  2.32053850E-12  3.88082865E+07  3.89533778E+07
         5   15       2.75995212E-03  7.67319751E-13  3.88653025E+07  6.86514343E-15  3.88653025E+07
         5   17       4.93339088E-03  7.61275490E+07  8.06308974E-14  1.14597540E+04  7.61390088E+07
         6   12       5.17414900E-02  2.13551391E+08  5.67384098E-14  1.06663195E+04  2.13562058E+08
         6   14       2.77182627E-03  1.45091297E+05  2.32053850E-12  3.88082865E+07  3.89533778E+07
         6   16       2.75995212E-03  7.67319751E-13  3.88653025E+07  6.86514343E-15  3.88653025E+07
         6   18       4.93339088E-03  7.61275490E+07  8.06308974E-14  1.14597540E+04  7.61390088E+07
         7   11       1.27873626E-02  4.58377084E+04  1.16705762E-09  5.26343453E+07  5.26801831E+07
         7   13       5.22759848E-02  7.33559728E+08  1.27344050E-11  3.41565588E+05  7.33901294E+08
         7   15       3.88388029E-05  1.72436827E-08  5.46365294E+05  1.41001760E-11  5.46365294E+05
         7   17       3.76439422E-03  2.59849131E+03  1.30318621E-09  5.80382045E+07  5.80408029E+07
         8   12       1.27873626E-02  4.58377084E+04  1.16705762E-09  5.26343453E+07  5.26801831E+07
         8   14       5.22759848E-02  7.33559728E+08  1.27344050E-11  3.41565588E+05  7.33901294E+08
         8   16       3.88388029E-05  1.72436827E-08  5.46365294E+05  1.41001760E-11  5.46365294E+05
         8   18       3.76439422E-03  2.59849131E+03  1.30318621E-09  5.80382045E+07  5.80408029E+07
         9   11       1.27030422E-02  1.31831909E-13  5.23275970E+07  1.17854773E-09  5.23275970E+07
         9   13       3.99292462E-05  1.73484508E-08  5.60535492E+05  6.02882181E-12  5.60535492E+05
         9   15       5.21072651E-02  7.32366280E+08  6.94078604E-12  6.13757730E+05  7.32980038E+08
         9   17       3.78926185E-03  1.84090670E-14  5.84212142E+07  1.29836172E-09  5.84212142E+07
        10   12       1.27030422E-02  1.31831909E-13  5.23275970E+07  1.17854773E-09  5.23275970E+07
        10   14       3.99292462E-05  1.73484508E-08  5.60535492E+05  6.02882181E-12  5.60535492E+05
        10   16       5.21072651E-02  7.32366280E+08  6.94078604E-12  6.13757730E+05  7.32980038E+08
        10   18       3.78926185E-03  1.84090670E-14  5.84212142E+07  1.29836172E-09  5.84212142E+07
        11   13       3.39960877E-01  5.71763624E+03  1.69102272E-11  1.00241144E+09  1.00241716E+09
        11   15       3.40106799E-01  3.72970162E-16  1.00729783E+09  1.70730408E-11  1.00729783E+09
        11   17       3.17687189E-01  1.14312329E+09  2.56046578E-16  8.04834732E+03  1.14313134E+09
        12   14       3.39960877E-01  5.71763624E+03  1.69102272E-11  1.00241144E+09  1.00241716E+09
        12   16       3.40106799E-01  3.72970162E-16  1.00729783E+09  1.70730408E-11  1.00729783E+09
        12   18       3.17687189E-01  1.14312329E+09  2.56046578E-16  8.04834732E+03  1.14313134E+09
        13   15       4.64799279E-05  1.40365458E-24  6.73273167E-01  4.55634686E-20  6.73273167E-01
        13   17       2.04023779E-03  1.48324145E+00  1.07931455E-15  6.59263612E+04  6.59278444E+04
        14   16       4.64799279E-05  1.40365458E-24  6.73273167E-01  4.55634686E-20  6.73273167E-01
        14   18       2.04023779E-03  1.48324145E+00  1.07931455E-15  6.59263612E+04  6.59278444E+04
        15   17       1.94842797E-03  2.55296323E-19  6.03232745E+04  1.05850904E-15  6.03232745E+04
        16   18       1.94842797E-03  2.55296323E-19  6.03232745E+04  1.05850904E-15  6.03232745E+04
     -----------------------------------------------------------------------------------------------
--

++ Velocity transition strengths (SO states):
   ------------------------------------------
    for osc. strength at least    1.0000000000000001E-005

      From   To        Osc. strength     Einstein coefficients Ax, Ay, Az (sec-1)    Total A (sec-1)
     -----------------------------------------------------------------------------------------------
         1    3       3.94757471E-04  3.30546163E-21  8.75957120E-04  1.03077021E-20  8.75957120E-04
         1    5       2.59240189E-03  6.67547796E-19  1.48464516E+02  1.31407901E-14  1.48464516E+02
         1    7       1.73296120E-02  2.73041314E-18  1.55809853E+03  5.61994989E-14  1.55809853E+03
         1    9       1.73146454E-02  6.34555241E-03  5.40193515E-14  1.59010304E+03  1.59010938E+03
         1   11       4.40879281E-04  1.84272261E-13  1.83330946E+06  1.89512770E-10  1.83330946E+06
         1   13       9.99558835E-03  3.86086797E-09  1.41039459E+08  1.61912426E-08  1.41039459E+08
         1   15       1.27513356E-02  3.82270139E+07  1.64113778E-08  1.42061293E+08  1.80288307E+08
         1   17       5.52952992E-05  1.23177654E-13  8.56688596E+05  9.96046933E-11  8.56688596E+05
         2    4       3.94757471E-04  3.30546163E-21  8.75957120E-04  1.03077021E-20  8.75957120E-04
         2    6       2.59240189E-03  6.67547796E-19  1.48464516E+02  1.31407901E-14  1.48464516E+02
         2    8       1.73296120E-02  2.73041314E-18  1.55809853E+03  5.61994989E-14  1.55809853E+03
         2   10       1.73146454E-02  6.34555241E-03  5.40193515E-14  1.59010304E+03  1.59010938E+03
         2   12       4.40879281E-04  1.84272261E-13  1.83330946E+06  1.89512770E-10  1.83330946E+06
         2   14       9.99558835E-03  3.86086797E-09  1.41039459E+08  1.61912426E-08  1.41039459E+08
         2   16       1.27513356E-02  3.82270139E+07  1.64113778E-08  1.42061293E+08  1.80288307E+08
         2   18       5.52952992E-05  1.23177654E-13  8.56688596E+05  9.96046933E-11  8.56688596E+05
         3    5       1.95313127E-03  2.44821681E-06  1.54898733E-14  1.10465888E+02  1.10465890E+02
         3    7       1.76353970E-02  7.95902275E-03  5.28588610E-14  1.56986858E+03  1.56987654E+03
         3    9       1.75066468E-02  3.06874379E-18  1.59197511E+03  5.47748485E-14  1.59197511E+03
         3   11       4.01107351E-04  8.00523310E+02  1.98648737E-10  1.66704815E+06  1.66784868E+06
         3   13       1.24898071E-02  3.49209116E+07  1.62527425E-08  1.41307979E+08  1.76228891E+08
         3   15       1.00255785E-02  4.07463422E-09  1.41745880E+08  1.63684369E-08  1.41745880E+08
         3   17       5.65251785E-05  1.42722814E+02  9.14097476E-11  8.75579401E+05  8.75722123E+05
         4    6       1.95313127E-03  2.44821681E-06  1.54898733E-14  1.10465888E+02  1.10465890E+02
         4    8       1.76353970E-02  7.95902275E-03  5.28588610E-14  1.56986858E+03  1.56987654E+03
         4   10       1.75066468E-02  3.06874379E-18  1.59197511E+03  5.47748485E-14  1.59197511E+03
         4   12       4.01107351E-04  8.00523310E+02  1.98648737E-10  1.66704815E+06  1.66784868E+06
         4   14       1.24898071E-02  3.49209116E+07  1.62527425E-08  1.41307979E+08  1.76228891E+08
         4   16       1.00255785E-02  4.07463422E-09  1.41745880E+08  1.63684369E-08  1.41745880E+08
         4   18       5.65251785E-05  1.42722814E+02  9.14097476E-11  8.75579401E+05  8.75722123E+05
         5    7       2.64534522E-01  2.27885353E-05  2.17026229E-14  9.69532791E+02  9.69532813E+02
         5    9       2.49211767E-01  5.74753304E-20  1.01233811E+03  2.26903465E-14  1.01233811E+03
         5   11       4.43368687E-02  1.82991428E+08  5.05666991E-14  8.82685182E+03  1.83000255E+08
         5   13       2.82730072E-03  1.26996065E+05  2.18608157E-12  3.96061204E+07  3.97331164E+07
         5   15       2.81708098E-03  7.17959860E-13  3.96699219E+07  2.05268216E-14  3.96699219E+07
         5   17       5.17481791E-03  7.98561254E+07  6.63011034E-14  9.20165270E+03  7.98653271E+07
         6    8       2.64534522E-01  2.27885353E-05  2.17026229E-14  9.69532791E+02  9.69532813E+02
         6   10       2.49211767E-01  5.74753304E-20  1.01233811E+03  2.26903465E-14  1.01233811E+03
         6   12       4.43368687E-02  1.82991428E+08  5.05666991E-14  8.82685182E+03  1.83000255E+08
         6   14       2.82730072E-03  1.26996065E+05  2.18608157E-12  3.96061204E+07  3.97331164E+07
         6   16       2.81708098E-03  7.17959860E-13  3.96699219E+07  2.05268216E-14  3.96699219E+07
         6   18       5.17481791E-03  7.98561254E+07  6.63011034E-14  9.20165270E+03  7.98653271E+07
         7    9       2.04057052E-03  4.24620109E-20  2.08354611E-02  2.71793418E-19  2.08354611E-02
         7   11       1.06092157E-02  3.92833153E+04  9.67802804E-10  4.36677251E+07  4.37070084E+07
         7   13       4.65244206E-02  6.52959884E+08  8.38858599E-12  1.97609605E+05  6.53157494E+08
         7   15       2.58351076E-05  1.53357254E-08  3.63436929E+05  9.39035236E-12  3.63436929E+05
         7   17       3.07721444E-03  3.43685474E+03  1.06519151E-09  4.74423425E+07  4.74457794E+07
         8   10       2.04057052E-03  4.24620109E-20  2.08354611E-02  2.71793418E-19  2.08354611E-02
         8   12       1.06092157E-02  3.92833153E+04  9.67802804E-10  4.36677251E+07  4.37070084E+07
         8   14       4.65244206E-02  6.52959884E+08  8.38858599E-12  1.97609605E+05  6.53157494E+08
         8   16       2.58351076E-05  1.53357254E-08  3.63436929E+05  9.39035236E-12  3.63436929E+05
         8   18       3.07721444E-03  3.43685474E+03  1.06519151E-09  4.74423425E+07  4.74457794E+07
         9   11       1.05392853E-02  1.16398490E-13  4.34145918E+07  9.77670159E-10  4.34145918E+07
         9   13       2.60752780E-05  1.54360474E-08  3.66051729E+05  3.41759115E-12  3.66051729E+05
         9   15       4.63628202E-02  6.51771648E+08  4.16324345E-12  4.04968234E+05  6.52176616E+08
         9   17       3.09851984E-03  1.04754134E-14  4.77718162E+07  1.06107877E-09  4.77718162E+07
        10   12       1.05392853E-02  1.16398490E-13  4.34145918E+07  9.77670159E-10  4.34145918E+07
        10   14       2.60752780E-05  1.54360474E-08  3.66051729E+05  3.41759115E-12  3.66051729E+05
        10   16       4.63628202E-02  6.51771648E+08  4.16324345E-12  4.04968234E+05  6.52176616E+08
        10   18       3.09851984E-03  1.04754134E-14  4.77718162E+07  1.06107877E-09  4.77718162E+07
        11   13       3.18637899E-01  6.03389224E+03  1.59239061E-11  9.39540925E+08  9.39546959E+08
        11   15       3.18464871E-01  5.22088731E-16  9.43203984E+08  1.59129735E-11  9.43203984E+08
        11   17       3.01603552E-01  1.08525452E+09  1.93661034E-16  6.96753634E+03  1.08526149E+09
        12   14       3.18637899E-01  6.03389224E+03  1.59239061E-11  9.39540925E+08  9.39546959E+08
        12   16       3.18464871E-01  5.22088731E-16  9.43203984E+08  1.59129735E-11  9.43203984E+08
        12   18       3.01603552E-01  1.08525452E+09  1.93661034E-16  6.96753634E+03  1.08526149E+09
        13   15       6.87494796E-05  4.49732922E-19  9.95856555E-01  4.55530099E-20  9.95856555E-01
        13   17       5.91546576E-02  2.40434655E-01  3.18400280E-14  1.91151843E+06  1.91151867E+06
        14   16       6.87494796E-05  4.49732922E-19  9.95856555E-01  4.55530099E-20  9.95856555E-01
        14   18       5.91546576E-02  2.40434655E-01  3.18400280E-14  1.91151843E+06  1.91151867E+06
        15   17       6.01203015E-02  8.43855371E-19  1.86132930E+06  3.13105494E-14  1.86132930E+06
        16   18       6.01203015E-02  8.43855371E-19  1.86132930E+06  3.13105494E-14  1.86132930E+06
     -----------------------------------------------------------------------------------------------
--

++ Length and velocity gauge comparison (SO states):

 --------------------------------------------------
 A comparison between the dipole oscillator strengths in 
 length and velocity gauge will be performed

 All dipole oscillator differences above the tolerance of   0.10000000000000001       will be printed 

 Due to basis set deficiency these oscillator may be problematic 

 The tolerance is defined as ABS(1-O_l/O_v) 
 O_l : dipole oscillator strength in length gauge
 O_p : dipole oscillator strength in velocity gauge
 --------------------------------------------------

  Problematic transitions have been found

      From   To       Difference (%) Osc. st. (len.) Osc. st. (vel.)
     ---------------------------------------------------------------
         1    3      --------------- below threshold  3.94757471E-04
         1    5      --------------- below threshold  2.59240189E-03
         1    7      --------------- below threshold  1.73296120E-02
         1    9      --------------- below threshold  1.73146454E-02
         1   11            21.336072  5.34945602E-04  4.40879281E-04
         1   13            16.509487  1.16458087E-02  9.99558835E-03
         1   15            15.435053  1.47195111E-02  1.27513356E-02
         1   17            26.043418  6.96960848E-05  5.52952992E-05
         2    4      --------------- below threshold  3.94757471E-04
         2    6      --------------- below threshold  2.59240189E-03
         2    8      --------------- below threshold  1.73296120E-02
         2   10      --------------- below threshold  1.73146454E-02
         2   12            21.336072  5.34945602E-04  4.40879281E-04
         2   14            16.509487  1.16458087E-02  9.99558835E-03
         2   16            15.435053  1.47195111E-02  1.27513356E-02
         2   18            26.043418  6.96960848E-05  5.52952992E-05
         3    5      --------------- below threshold  1.95313127E-03
         3    7      --------------- below threshold  1.76353970E-02
         3    9      --------------- below threshold  1.75066468E-02
         3   11            21.361084  4.86788227E-04  4.01107351E-04
         3   13            15.485939  1.44239710E-02  1.24898071E-02
         3   15            16.557133  1.16855269E-02  1.00255785E-02
         3   17            25.618584  7.10061290E-05  5.65251785E-05
         4    6      --------------- below threshold  1.95313127E-03
         4    8      --------------- below threshold  1.76353970E-02
         4   10      --------------- below threshold  1.75066468E-02
         4   12            21.361084  4.86788227E-04  4.01107351E-04
         4   14            15.485939  1.44239710E-02  1.24898071E-02
         4   16            16.557133  1.16855269E-02  1.00255785E-02
         4   18            25.618584  7.10061290E-05  5.65251785E-05
         5    7      --------------- below threshold  2.64534522E-01
         5    9      --------------- below threshold  2.49211767E-01
         5   11            16.700821  5.17414900E-02  4.43368687E-02
         6    8      --------------- below threshold  2.64534522E-01
         6   10      --------------- below threshold  2.49211767E-01
         6   12            16.700821  5.17414900E-02  4.43368687E-02
         7    9      --------------- below threshold  2.04057052E-03
         7   11            20.530707  1.27873626E-02  1.06092157E-02
         7   13            12.362463  5.22759848E-02  4.65244206E-02
         7   15            50.333428  3.88388029E-05  2.58351076E-05
         7   17            22.331228  3.76439422E-03  3.07721444E-03
         8   10      --------------- below threshold  2.04057052E-03
         8   12            20.530707  1.27873626E-02  1.06092157E-02
         8   14            12.362463  5.22759848E-02  4.65244206E-02
         8   16            50.333428  3.88388029E-05  2.58351076E-05
         8   18            22.331228  3.76439422E-03  3.07721444E-03
         9   11            20.530395  1.27030422E-02  1.05392853E-02
         9   13            53.130663  3.99292462E-05  2.60752780E-05
         9   15            12.390197  5.21072651E-02  4.63628202E-02
         9   17            22.292644  3.78926185E-03  3.09851984E-03
        10   12            20.530395  1.27030422E-02  1.05392853E-02
        10   14            53.130663  3.99292462E-05  2.60752780E-05
        10   16            12.390197  5.21072651E-02  4.63628202E-02
        10   18            22.292644  3.78926185E-03  3.09851984E-03
        13   15            32.392320  4.64799279E-05  6.87494796E-05
        13   17            96.551011  2.04023779E-03  5.91546576E-02
        14   16            32.392320  4.64799279E-05  6.87494796E-05
        14   18            96.551011  2.04023779E-03  5.91546576E-02
        15   17            96.759118  1.94842797E-03  6.01203015E-02
        16   18            96.759118  1.94842797E-03  6.01203015E-02
     ---------------------------------------------------------------

 Number of problematic transitions =                    60

--

 Electric-dipole - electric-octupole not included
++ I/O STATISTICS
 
  I. General I/O information
  - - - - - - - - - - - - - - - - - - - - - - - - - - - - - - - - - - - - - - - - - - -
  Unit  Name          Flsize      Write/Read            MBytes           Write/Read
                      (MBytes)       Calls              In/Out           Time, sec.
  - - - - - - - - - - - - - - - - - - - - - - - - - - - - - - - - - - - - - - - - - - -
   1  SCRATCH           0.00 .       9/      45 .      0.0/      0.0 .       0/       0
   2  ANNI              0.00 .       0/       0 .      0.0/      0.0 .       0/       0
   3  RUNFILE          14.82 .     322/   10733 .      2.3/     77.8 .       0/       0
   4  ONEINT            5.45 .       0/   23543 .      0.0/   3734.6 .       0/       0
   5  JOBIPH            6.30 .       0/      92 .      0.0/      0.8 .       0/       0
   6  ORDINT          473.53 .       1/    3789 .      0.0/    947.0 .       0/       0
  - - - - - - - - - - - - - - - - - - - - - - - - - - - - - - - - - - - - - - - - - - -
   *  TOTAL           500.11 .     332/   38202 .      2.3/   4760.2 .       0/       0
  - - - - - - - - - - - - - - - - - - - - - - - - - - - - - - - - - - - - - - - - - - -
 
  II. I/O Access Patterns
  - - - - - - - - - - - - - - - - - - - -
  Unit  Name               % of random
                         Write/Read calls
  - - - - - - - - - - - - - - - - - - - -
   1  SCRATCH             88.9/ 100.0
   2  ANNI                 0.0/   0.0
   3  RUNFILE             28.6/  10.8
   4  ONEINT               0.0/  16.4
   5  JOBIPH               0.0/  76.1
   6  ORDINT             100.0/   0.1
  - - - - - - - - - - - - - - - - - - - -
--
--- Stop Module: rassi at Wed Mar 26 23:45:12 2025 /rc=_RC_ALL_IS_WELL_ ---
*** files: xmldump
    saved to directory /home4/s4752295/Internship/Initial_simulations/Point_charge_model/1_electron/Madelung_charges_9_active_space/V
--- Module rassi spent 4 seconds ---

.##################.
.# Happy landing! #.
.##################.

    Timing: Wall=51.35 User=38.34 System=7.67

###############################################################################
Hbrk Cluster
Job 15913393 for user s4752295
Finished at: Wed Mar 26 23:45:16 CET 2025

Job details:
============

Job ID                         : 15913393
Name                           : V_no_SO
User                           : s4752295
Partition                      : regularmedium
Nodes                          : node93
Number of Nodes                : 1
Cores                          : 1
Number of Tasks                : 1
State                          : COMPLETED  
Submit                         : 2025-03-26T23:42:36
Start                          : 2025-03-26T23:44:14
End                            : 2025-03-26T23:45:12
Reserved walltime              : 15:00:00
Used walltime                  : 00:00:58
Used CPU time                  : 00:00:47 (Efficiency: 81.32%)
% User (Computation)           : 83.38%
% System (I/O)                 : 16.62%
Total memory reserved          : 25000M
Maximum memory used            : 52.09M

Acknowledgements:
=================

Please see this page for information about acknowledging Hbrk in your publications:

https://wiki.hpc.rug.nl/habrok/introduction/scientific_output

################################################################################
