   This run of MOLCAS is using the pymolcas driver

                             OPE
                             OPE          NMOL  CASOP  ENMOLC A   SO
                 OPE        NMOLC        AS  OP EN  MO LC     AS  OP
                OPENM       OL CA        SO  PE NM  OL CA     SOP EN
                OP EN      MO   LC       AS  OP ENMOL  CASO   PENMOL
                OP  EN     MO   LC       AS  OP EN     MO     LC ASO
               OP   E  NMOL  C  AS       OP  EN MO     LC     AS  OP
               OP  E   NMO   LC AS        OPEN  MO     LCASOP EN   M
               O  PEN   MO  LCA  SO
            OPE   NMO   L   CAS    OP
        OPENMOL  CASOP     ENMOL   CASOPE
     OPENMOLCA   SOPENMOLCASOPEN   MOLCASOPE
    OPENMOLCAS   OP           EN   MOL    CAS
    OPENMOLCAS       OP  ENM        O     LCA
    OPENMOLCAS    OPEN  MOLCASO     P  E  NMO
    OPENMOLCAS     OP               E  N  MOL
    OPENMOLCA   SO           PENM   O  L  CAS    OPEN    MO    LCAS
    OPENMOLCA   SOP           ENM   O  L  CAS   OP  EN  MOLC  AS   O
    OPENMOLCA   SOPE           NM      O  LCA   S      OP  EN MO
    OPENMOLC                AS         O  PEN   M      OL  CA  SOPE
    OPENMO        LCASOPE  NMOL        C  ASO   P      ENMOLC     AS
    OPE     NMO      LCA  SO     P     E   NM   OL  CA SO  PE N   MO
          OPENMOLCA            SOPE   NMO        LCAS  O    P  ENMO
     OPENMOLCASOPENMOLCASOPENMOLCASOPENMOLCA
        OPENMOLCASOPENMOLCASOPENMOLCASOPE
            OPENMOLCASOPENMOLCASOPENM
               OPENMOLCASOPENMOLCA        version: o91e1abe7de707b ?
                   OPENMOLCASO
                       OPE                tag:

 OpenMolcas is free software; you can redistribute it and/or modify it
 under the terms of the GNU Lesser General Public License version 2.1.
 OpenMolcas is distributed in the hope that it will be useful, but it
 is provided "as is" and without any express or implied warranties.
 For more details see the full text of the license in the file
 LICENSE or in <http://www.gnu.org/licenses/>.

                 Copyright (C) The OpenMolcas Authors
           For the author list and the recommended citation,
                   consult the file CONTRIBUTORS.md

           *************************************************
           * pymolcas version py2.10                       *
           *   build 3068ae8b88c9345ec6cfef6fef7f1169      *
           *   (after the EMIL interpreter by V. Veryazov) *
           *************************************************

configuration info
------------------
Host name: login1 (Linux)
C Compiler ID: GNU
C flags: -std=gnu99
Fortran Compiler ID: GNU
Fortran flags: -fno-aggressive-loop-optimizations -cpp -fdefault-integer-8 -fmax-stack-var-size=1048576
Definitions: _MOLCAS_;_I8_;_LINUX_;_MKL_
Parallel: OFF (GA=OFF)


   ----------------------------------------------------------------------------------------------------------------------------------
  |
  |           Project: vanadium_so_cf
  |    Submitted from: /home4/s4752295/Internship/Initial_simulations/Point_charge_model/1_electron/Madelung_charges_9_active_space/V
  |      Scratch area: /tmp/vanadium_so_cf
  |   Save outputs to: /home4/s4752295/Internship/Initial_simulations/Point_charge_model/1_electron/Madelung_charges_9_active_space/V
  |            Molcas: /home4/s4752295/Internship/Molcas/recomp_try/OpenMolcas-master/build
  |
  | Scratch area is empty
  |
  |    MOLCAS_DRIVER = /home4/s4752295/Internship/Molcas/bin/pymolcas
  |    MOLCAS_NPROCS = 1
  |    MOLCAS_SOURCE = /home4/s4752295/Internship/Molcas/recomp_try/OpenMolcas-master
  | MOLCAS_STRUCTURE = 0
  |
   ----------------------------------------------------------------------------------------------------------------------------------

++ ---------   Input file   ---------

&SEWARD
AMFi

CLIG
$R

Basis Set
V.ANO-rcc.Roos.21s15p10d6f4g2h.10s9p8d6f4g2h.
Spherical d
V            -1.0658140267135469e-14    -3.5527134223784897e-15 0.008753588724385739
End of Basis

Xfield

414
-2.401320648,-0.9239999999999999,0.5334713999999999     -0.625931
-2.401320648,-0.0,-1.0669434    -0.625931
-2.401320648,0.9239999999999999,0.5334713999999999      -0.625931
-2.397207642,0.0,0.0    1.892092
1.595507814,-0.9239999999999999,-0.5334713999999999     2.515516
1.595507814,0.0,1.0669434       2.515516
1.595507814,0.9239999999999999,-0.5334713999999999      2.515516
2.137792968,-1.8479999999999999,0.0     0.004632
2.137792968,-0.9239999999999999,-1.6004148      0.004632
2.137792968,-0.9239999999999999,1.6004148       0.004632
2.137792968,0.9239999999999999,-1.6004148       0.004632
2.137792968,0.9239999999999999,1.6004148        0.004632
2.137792968,1.8479999999999999,0.0      0.004632
2.4774902340000002,-0.9239999999999999,0.5334713999999999       -2.519484
2.4774902340000002,-0.0,-1.0669434      -2.519484
2.4774902340000002,0.9239999999999999,0.5334713999999999        -2.519484
-1.759863282,-0.0,-0.0  -3.142907
-2.985058596,-1.8479999999999999,-1.0669434     -0.625931
-2.985058596,0.0,2.1338862      -0.625931
-2.985058596,1.8479999999999999,-1.0669434      -0.625931
-3.9656249999999997,-1.8479999999999999,0.0     1.892092
-3.9656249999999997,-0.9239999999999999,-1.6004148      1.892092
-3.9656249999999997,-0.9239999999999999,1.6004148       1.892092
-3.9656249999999997,0.9239999999999999,-1.6004148       1.892092
-3.9656249999999997,0.9239999999999999,1.6004148        1.892092
-3.9656249999999997,1.8479999999999999,0.0      1.892092
15.103124999999999,-1.8479999999999999,1.0669434        2.515516
15.103124999999999,-0.0,-2.1338862      2.515516
15.103124999999999,1.8479999999999999,1.0669434 2.515516
2.1832031279999997,-1.8479999999999999,-1.0669434       -2.519484
2.1832031279999997,0.0,2.1338862        -2.519484
2.1832031279999997,1.8479999999999999,-1.0669434        -2.519484
-1.9394531279999998,-1.8479999999999999,-0.0    -3.142907
-1.9394531279999998,-0.9239999999999999,-1.6004148      -3.142907
-1.9394531279999998,-0.9239999999999999,1.6004148       -3.142907
-1.9394531279999998,0.9239999999999999,-1.6004148       -3.142907
-1.9394531279999998,0.9239999999999999,1.6004148        -3.142907
-1.9394531279999998,1.8479999999999999,-0.0     -3.142907
-5.7140625,-1.8479999999999999,2.1338862        -0.625931
-5.7140625,1.8479999999999999,2.1338862 -0.625931
-5.7140625,-2.772,0.5334713999999999    -0.625931
-5.7140625,2.772,0.5334713999999999     -0.625931
-5.7140625,-0.9239999999999999,-2.6673582000000002      -0.625931
-5.7140625,0.9239999999999999,-2.6673582000000002       -0.625931
3.6046875,-0.9239999999999999,-0.5334713999999999       4.409069
3.6046875,0.9239999999999999,-0.5334713999999999        4.409069
3.6046875,0.0,1.0669434 4.409069
-105.14999999999999,-0.0,-0.0   -5.030367
-105.14999999999999,0.0,0.0     5.039632
8.110546871999999,-1.8479999999999999,-2.1338862        2.515516
8.110546871999999,1.8479999999999999,-2.1338862 2.515516
8.110546871999999,-2.772,-0.5334713999999999    2.515516
8.110546871999999,2.772,-0.5334713999999999     2.515516
8.110546871999999,-0.9239999999999999,2.6673582000000002        2.515516
8.110546871999999,0.9239999999999999,2.6673582000000002 2.515516
11.4234375,-2.772,-1.6004148    0.004632
11.4234375,-2.772,1.6004148     0.004632
11.4234375,2.772,-1.6004148     0.004632
11.4234375,2.772,1.6004148      0.004632
11.4234375,-0.0,-3.2008296      0.004632
11.4234375,0.0,3.2008296        0.004632
28.846874999999997,-1.8479999999999999,2.1338862        -2.519484
28.846874999999997,1.8479999999999999,2.1338862 -2.519484
28.846874999999997,-2.772,0.5334713999999999    -2.519484
28.846874999999997,2.772,0.5334713999999999     -2.519484
28.846874999999997,-0.9239999999999999,-2.6673582000000002      -2.519484
28.846874999999997,0.9239999999999999,-2.6673582000000002       -2.519484
-87.52499999999999,-2.772,-1.6004148    1.892092
-87.52499999999999,-2.772,1.6004148     1.892092
-87.52499999999999,2.772,-1.6004148     1.892092
-87.52499999999999,2.772,1.6004148      1.892092
-87.52499999999999,-0.0,-3.2008296      1.892092
-87.52499999999999,0.0,3.2008296        1.892092
-70.64999999999999,-1.8479999999999999,1.0669434        4.409069
-70.64999999999999,-0.0,-2.1338862      4.409069
-70.64999999999999,1.8479999999999999,1.0669434 4.409069
-53.4,-1.8479999999999999,-0.0  -5.030367
-53.4,-0.9239999999999999,-1.6004148    -5.030367
-53.4,-0.9239999999999999,1.6004148     -5.030367
-53.4,0.9239999999999999,-1.6004148     -5.030367
-53.4,-1.8479999999999999,0.0   5.039632
-53.4,1.8479999999999999,-0.0   -5.030367
-53.4,0.9239999999999999,1.6004148      -5.030367
-53.4,-0.9239999999999999,-1.6004148    5.039632
-53.4,-0.9239999999999999,1.6004148     5.039632
-53.4,0.9239999999999999,-1.6004148     5.039632
-53.4,1.8479999999999999,0.0    5.039632
-53.4,0.9239999999999999,1.6004148      5.039632
-27.974999999999998,-0.9239999999999999,-0.5334713999999999     -5.660931
-27.974999999999998,0.0,1.0669434       -5.660931
-27.974999999999998,0.9239999999999999,-0.5334713999999999      -5.660931
0.5296875,-3.6959994,0.0        0.004632
0.5296875,-1.8479999999999999,-3.2008296        0.004632
0.5296875,-1.8479999999999999,3.2008296 0.004632
0.5296875,1.8479999999999999,-3.2008296 0.004632
0.5296875,3.6959994,0.0 0.004632
0.5296875,1.8479999999999999,3.2008296  0.004632
40.762499999999996,-2.772,1.6004148     -3.142907
40.762499999999996,-2.772,-1.6004148    -3.142907
40.762499999999996,2.772,-1.6004148     -3.142907
40.762499999999996,2.772,1.6004148      -3.142907
40.762499999999996,-0.0,-3.2008296      -3.142907
40.762499999999996,0.0,3.2008296        -3.142907
51.824999999999996,-3.6959994,-1.0669434        -0.625931
51.824999999999996,-2.772,-2.6673582000000002   -0.625931
51.824999999999996,-0.9239999999999999,3.734301 -0.625931
51.824999999999996,2.772,-2.6673582000000002    -0.625931
51.824999999999996,3.6959994,-1.0669434 -0.625931
51.824999999999996,0.9239999999999999,3.734301  -0.625931
0.718359372,-3.6959994,0.0      1.892092
0.718359372,-1.8479999999999999,-3.2008296      1.892092
0.718359372,-1.8479999999999999,3.2008296       1.892092
0.718359372,1.8479999999999999,-3.2008296       1.892092
0.718359372,3.6959994,0.0       1.892092
0.718359372,1.8479999999999999,3.2008296        1.892092
20.30625,-1.8479999999999999,-2.1338862 4.409069
20.30625,1.8479999999999999,-2.1338862  4.409069
20.30625,-2.772,-0.5334713999999999     4.409069
20.30625,2.772,-0.5334713999999999      4.409069
20.30625,-0.9239999999999999,2.6673582000000002 4.409069
20.30625,0.9239999999999999,2.6673582000000002  4.409069
97.44375,-1.8479999999999999,1.0669434  -5.660931
97.44375,-0.0,-2.1338862        -5.660931
97.44375,1.8479999999999999,1.0669434   -5.660931
0.20625,-3.6959994,1.0669434    2.515516
0.20625,-0.9239999999999999,-3.734301   2.515516
0.20625,-2.772,2.6673582000000002       2.515516
0.20625,0.9239999999999999,-3.734301    2.515516
0.20625,3.6959994,1.0669434     2.515516
0.20625,2.772,2.6673582000000002        2.515516
-56.512499999999996,-3.6959994,-1.0669434       -2.519484
-56.512499999999996,-2.772,-2.6673582000000002  -2.519484
-56.512499999999996,-0.9239999999999999,3.734301        -2.519484
-56.512499999999996,2.772,-2.6673582000000002   -2.519484
-56.512499999999996,0.9239999999999999,3.734301 -2.519484
-56.512499999999996,3.6959994,-1.0669434        -2.519484
-13.2421875,-3.6959994,-0.0     -3.142907
-13.2421875,-1.8479999999999999,-3.2008296      -3.142907
-13.2421875,-1.8479999999999999,3.2008296       -3.142907
-13.2421875,1.8479999999999999,-3.2008296       -3.142907
-13.2421875,1.8479999999999999,3.2008296        -3.142907
-13.2421875,3.6959994,-0.0      -3.142907
363.9,0.0,0.0   6.927092
193.95,-3.6959994,2.1338862     -0.625931
193.95,3.6959994,2.1338862      -0.625931
193.95,-0.0,-4.267773   -0.625931
-3.253125,-2.772,1.6004148      -5.030367
-3.253125,-2.772,-1.6004148     -5.030367
-3.253125,-2.772,1.6004148      5.039632
-3.253125,-2.772,-1.6004148     5.039632
-3.253125,2.772,-1.6004148      -5.030367
-3.253125,2.772,1.6004148       -5.030367
-3.253125,2.772,-1.6004148      5.039632
-3.253125,2.772,1.6004148       5.039632
-3.253125,-0.0,-3.2008296       -5.030367
-3.253125,0.0,3.2008296 -5.030367
-3.253125,-0.0,-3.2008296       5.039632
-3.253125,0.0,3.2008296 5.039632
55.0875,-1.8479999999999999,-2.1338862  -5.660931
55.0875,1.8479999999999999,-2.1338862   -5.660931
55.0875,-2.772,-0.5334713999999999      -5.660931
55.0875,2.772,-0.5334713999999999       -5.660931
55.0875,-0.9239999999999999,2.6673582000000002  -5.660931
55.0875,0.9239999999999999,2.6673582000000002   -5.660931
180.29999999999998,-3.6959994,-2.1338862        2.515516
180.29999999999998,3.6959994,-2.1338862 2.515516
180.29999999999998,0.0,4.267773 2.515516
-310.34999999999997,-3.6959994,2.1338862        -2.519484
-310.34999999999997,3.6959994,2.1338862 -2.519484
-310.34999999999997,-0.0,-4.267773      -2.519484
32.137499999999996,-1.8479999999999999,0.0      6.927092
32.137499999999996,-0.9239999999999999,-1.6004148       6.927092
32.137499999999996,-0.9239999999999999,1.6004148        6.927092
32.137499999999996,0.9239999999999999,-1.6004148        6.927092
32.137499999999996,0.9239999999999999,1.6004148 6.927092
32.137499999999996,1.8479999999999999,0.0       6.927092
-33.15,-0.9239999999999999,0.5334713999999999   7.550516
-33.15,0.0,-1.0669434   7.550516
-33.15,0.9239999999999999,0.5334713999999999    7.550516
9.31875,-0.9239999999999999,-0.5334713999999999 -7.554483
9.31875,0.9239999999999999,-0.5334713999999999  -7.554483
9.31875,-0.0,1.0669434  -7.554483
-74.925,-4.6199994,0.5334713999999999   -0.625931
-74.925,-2.772,3.734301 -0.625931
-74.925,-1.8479999999999999,-4.267773   -0.625931
-74.925,1.8479999999999999,-4.267773    -0.625931
-74.925,4.6199994,0.5334713999999999    -0.625931
-74.925,2.772,3.734301  -0.625931
-40.4625,-3.6959994,1.0669434   4.409069
-40.4625,-2.772,2.6673582000000002      4.409069
-40.4625,-0.9239999999999999,-3.734301  4.409069
-40.4625,0.9239999999999999,-3.734301   4.409069
-40.4625,2.772,2.6673582000000002       4.409069
-40.4625,3.6959994,1.0669434    4.409069
29.49375,-3.6959994,-0.0        -5.030367
29.49375,-1.8479999999999999,-3.2008296 -5.030367
29.49375,-1.8479999999999999,3.2008296  -5.030367
29.49375,-3.6959994,0.0 5.039632
29.49375,-1.8479999999999999,-3.2008296 5.039632
29.49375,1.8479999999999999,-3.2008296  -5.030367
29.49375,1.8479999999999999,3.2008296   -5.030367
29.49375,3.6959994,-0.0 -5.030367
29.49375,-1.8479999999999999,3.2008296  5.039632
29.49375,1.8479999999999999,-3.2008296  5.039632
29.49375,3.6959994,0.0  5.039632
29.49375,1.8479999999999999,3.2008296   5.039632
108.45,-4.6199994,-0.5334713999999999   2.515516
108.45,-2.772,-3.734301 2.515516
108.45,-1.8479999999999999,4.267773     2.515516
108.45,2.772,-3.734301  2.515516
108.45,4.6199994,-0.5334713999999999    2.515516
108.45,1.8479999999999999,4.267773      2.515516
-14.00625,-4.6199994,-1.6004148 0.004632
-14.00625,-4.6199994,1.6004148  0.004632
-14.00625,-3.6959994,-3.2008296 0.004632
-14.00625,-3.6959994,3.2008296  0.004632
-14.00625,-0.9239999999999999,-4.8012444        0.004632
-14.00625,0.9239999999999999,-4.8012444 0.004632
-14.00625,-0.9239999999999999,4.8012444 0.004632
-14.00625,3.6959994,-3.2008296  0.004632
-14.00625,0.9239999999999999,4.8012444  0.004632
-14.00625,4.6199994,-1.6004148  0.004632
-14.00625,4.6199994,1.6004148   0.004632
-14.00625,3.6959994,3.2008296   0.004632
-85.875,-4.6199994,0.5334713999999999   -2.519484
-85.875,-2.772,3.734301 -2.519484
-85.875,-1.8479999999999999,-4.267773   -2.519484
-85.875,1.8479999999999999,-4.267773    -2.519484
-85.875,4.6199994,0.5334713999999999    -2.519484
-85.875,2.772,3.734301  -2.519484
1819.2,-0.0,-0.0        -8.177907
-69.6,-1.8479999999999999,-1.0669434    7.550516
-69.6,0.0,2.1338862     7.550516
-69.6,1.8479999999999999,-1.0669434     7.550516
-362.09999999999997,-1.8479999999999999,1.0669434       -7.554483
-362.09999999999997,-0.0,-2.1338862     -7.554483
-362.09999999999997,1.8479999999999999,1.0669434        -7.554483
29.34375,-4.6199994,1.6004148   1.892092
29.34375,-4.6199994,-1.6004148  1.892092
29.34375,-3.6959994,-3.2008296  1.892092
29.34375,-3.6959994,3.2008296   1.892092
29.34375,-0.9239999999999999,-4.8012444 1.892092
29.34375,0.9239999999999999,-4.8012444  1.892092
29.34375,-0.9239999999999999,4.8012444  1.892092
29.34375,3.6959994,-3.2008296   1.892092
29.34375,0.9239999999999999,4.8012444   1.892092
29.34375,4.6199994,-1.6004148   1.892092
29.34375,4.6199994,1.6004148    1.892092
29.34375,3.6959994,3.2008296    1.892092
-303.0,-3.6959994,-2.1338862    4.409069
-303.0,3.6959994,-2.1338862     4.409069
-303.0,0.0,4.267773     4.409069
15.4921875,-3.6959994,1.0669434 -5.660931
15.4921875,-0.9239999999999999,-3.734301        -5.660931
15.4921875,-2.772,2.6673582000000002    -5.660931
15.4921875,0.9239999999999999,-3.734301 -5.660931
15.4921875,2.772,2.6673582000000002     -5.660931
15.4921875,3.6959994,1.0669434  -5.660931
-34.9125,-3.6959994,-3.2008296  -3.142907
-34.9125,-4.6199994,1.6004148   -3.142907
-34.9125,-4.6199994,-1.6004148  -3.142907
-34.9125,-3.6959994,3.2008296   -3.142907
-34.9125,-0.9239999999999999,-4.8012444 -3.142907
-34.9125,0.9239999999999999,-4.8012444  -3.142907
-34.9125,-0.9239999999999999,4.8012444  -3.142907
-34.9125,4.6199994,-1.6004148   -3.142907
-34.9125,3.6959994,-3.2008296   -3.142907
-34.9125,0.9239999999999999,4.8012444   -3.142907
-34.9125,4.6199994,1.6004148    -3.142907
-34.9125,3.6959994,3.2008296    -3.142907
39.24375,-2.772,-1.6004148      6.927092
39.24375,-2.772,1.6004148       6.927092
39.24375,2.772,-1.6004148       6.927092
39.24375,2.772,1.6004148        6.927092
39.24375,-0.0,-3.2008296        6.927092
39.24375,0.0,3.2008296  6.927092
-49.949999999999996,-1.8479999999999999,-0.0    -8.177907
-49.949999999999996,-0.9239999999999999,1.6004148       -8.177907
-49.949999999999996,-0.9239999999999999,-1.6004148      -8.177907
-49.949999999999996,0.9239999999999999,-1.6004148       -8.177907
-49.949999999999996,1.8479999999999999,-0.0     -8.177907
-49.949999999999996,0.9239999999999999,1.6004148        -8.177907
-54.543749999999996,-1.8479999999999999,2.1338862       7.550516
-54.543749999999996,1.8479999999999999,2.1338862        7.550516
-54.543749999999996,-2.772,0.5334713999999999   7.550516
-54.543749999999996,2.772,0.5334713999999999    7.550516
-54.543749999999996,-0.9239999999999999,-2.6673582000000002     7.550516
-54.543749999999996,0.9239999999999999,-2.6673582000000002      7.550516
-27.412499999999998,-1.8479999999999999,-2.1338862      -7.554483
-27.412499999999998,1.8479999999999999,-2.1338862       -7.554483
-27.412499999999998,-2.772,-0.5334713999999999  -7.554483
-27.412499999999998,2.772,-0.5334713999999999   -7.554483
-27.412499999999998,-0.9239999999999999,2.6673582000000002      -7.554483
-27.412499999999998,0.9239999999999999,2.6673582000000002       -7.554483
-300.15,0.0,5.3347158   -0.625931
-300.15,-4.6199994,-2.6673582000000002  -0.625931
-300.15,4.6199994,-2.6673582000000002   -0.625931
-161.85,-4.6199994,-0.5334713999999999  4.409069
-161.85,-2.772,-3.734301        4.409069
-161.85,-1.8479999999999999,4.267773    4.409069
-161.85,2.772,-3.734301 4.409069
-161.85,4.6199994,-0.5334713999999999   4.409069
-161.85,1.8479999999999999,4.267773     4.409069
186.225,-3.6959994,-2.1338862   -5.660931
186.225,3.6959994,-2.1338862    -5.660931
186.225,0.0,4.267773    -5.660931
352.2,-0.0,-5.3347158   2.515516
352.2,-4.6199994,2.6673582000000002     2.515516
352.2,4.6199994,2.6673582000000002      2.515516
-56.324999999999996,-5.5439994,-0.0     0.004632
-56.324999999999996,2.772,-4.8012444    0.004632
-56.324999999999996,-2.772,4.8012444    0.004632
-56.324999999999996,5.5439994,-0.0      0.004632
-56.324999999999996,-2.772,-4.8012444   0.004632
-56.324999999999996,2.772,4.8012444     0.004632
-231.45,0.0,5.3347158   -2.519484
-231.45,-4.6199994,-2.6673582000000002  -2.519484
-231.45,4.6199994,-2.6673582000000002   -2.519484
136.79999999999998,-3.6959994,0.0       6.927092
136.79999999999998,-1.8479999999999999,-3.2008296       6.927092
136.79999999999998,-1.8479999999999999,3.2008296        6.927092
136.79999999999998,1.8479999999999999,-3.2008296        6.927092
136.79999999999998,3.6959994,0.0        6.927092
136.79999999999998,1.8479999999999999,3.2008296 6.927092
127.125,-5.5439994,-1.0669434   -0.625931
127.125,-1.8479999999999999,5.3347158   -0.625931
127.125,-3.6959994,-4.267773    -0.625931
127.125,3.6959994,-4.267773     -0.625931
127.125,1.8479999999999999,5.3347158    -0.625931
127.125,5.5439994,-1.0669434    -0.625931
67.1625,-5.5439994,0.0  1.892092
67.1625,-2.772,-4.8012444       1.892092
67.1625,-2.772,4.8012444        1.892092
67.1625,2.772,-4.8012444        1.892092
67.1625,5.5439994,0.0   1.892092
67.1625,2.772,4.8012444 1.892092
-2.5921875,-4.6199994,1.6004148 -5.030367
-2.5921875,-4.6199994,-1.6004148        -5.030367
-2.5921875,-3.6959994,-3.2008296        -5.030367
-2.5921875,-3.6959994,3.2008296 -5.030367
-2.5921875,-4.6199994,1.6004148 5.039632
-2.5921875,0.9239999999999999,-4.8012444        -5.030367
-2.5921875,-0.9239999999999999,-4.8012444       -5.030367
-2.5921875,-4.6199994,-1.6004148        5.039632
-2.5921875,-3.6959994,-3.2008296        5.039632
-2.5921875,-0.9239999999999999,4.8012444        -5.030367
-2.5921875,0.9239999999999999,-4.8012444        5.039632
-2.5921875,-3.6959994,3.2008296 5.039632
-2.5921875,-0.9239999999999999,-4.8012444       5.039632
-2.5921875,3.6959994,-3.2008296 -5.030367
-2.5921875,0.9239999999999999,4.8012444 -5.030367
-2.5921875,4.6199994,-1.6004148 -5.030367
-2.5921875,4.6199994,1.6004148  -5.030367
-2.5921875,3.6959994,3.2008296  -5.030367
-2.5921875,-0.9239999999999999,4.8012444        5.039632
-2.5921875,3.6959994,-3.2008296 5.039632
-2.5921875,4.6199994,-1.6004148 5.039632
-2.5921875,0.9239999999999999,4.8012444 5.039632
-2.5921875,4.6199994,1.6004148  5.039632
-2.5921875,3.6959994,3.2008296  5.039632
-0.4125,-4.6199994,-0.5334713999999999  -5.660931
-0.4125,-2.772,-3.734301        -5.660931
-0.4125,-1.8479999999999999,4.267773    -5.660931
-0.4125,2.772,-3.734301 -5.660931
-0.4125,1.8479999999999999,4.267773     -5.660931
-0.4125,4.6199994,-0.5334713999999999   -5.660931
69.6,-0.9239999999999999,0.5334713999999999     9.444068
69.6,0.0,-1.0669434     9.444068
69.6,0.9239999999999999,0.5334713999999999      9.444068
30.787499999999998,-5.5439994,1.0669434 2.515516
30.787499999999998,-1.8479999999999999,-5.3347158       2.515516
30.787499999999998,1.8479999999999999,-5.3347158        2.515516
30.787499999999998,-3.6959994,4.267773  2.515516
30.787499999999998,5.5439994,1.0669434  2.515516
30.787499999999998,3.6959994,4.267773   2.515516
94.125,-5.5439994,-1.0669434    -2.519484
94.125,-1.8479999999999999,5.3347158    -2.519484
94.125,-3.6959994,-4.267773     -2.519484
94.125,3.6959994,-4.267773      -2.519484
94.125,5.5439994,-1.0669434     -2.519484
94.125,1.8479999999999999,5.3347158     -2.519484
131.775,-5.5439994,-0.0 -3.142907
131.775,-2.772,-4.8012444       -3.142907
131.775,-2.772,4.8012444        -3.142907
131.775,2.772,-4.8012444        -3.142907
131.775,5.5439994,-0.0  -3.142907
131.775,2.772,4.8012444 -3.142907
5.187304686,-2.772,-1.6004148   -8.177907
5.187304686,-2.772,1.6004148    -8.177907
5.187304686,2.772,1.6004148     -8.177907
5.187304686,2.772,-1.6004148    -8.177907
5.187304686,-0.0,-3.2008296     -8.177907
5.187304686,0.0,3.2008296       -8.177907
151.125,-2.772,-2.6673582000000002      7.550516
151.125,-3.6959994,-1.0669434   7.550516
151.125,-0.9239999999999999,3.734301    7.550516
151.125,2.772,-2.6673582000000002       7.550516
151.125,0.9239999999999999,3.734301     7.550516
151.125,3.6959994,-1.0669434    7.550516
-208.79999999999998,-2.772,2.6673582000000002   -7.554483
-208.79999999999998,-3.6959994,1.0669434        -7.554483
-208.79999999999998,-0.9239999999999999,-3.734301       -7.554483
-208.79999999999998,0.9239999999999999,-3.734301        -7.554483
-208.79999999999998,3.6959994,1.0669434 -7.554483
-208.79999999999998,2.772,2.6673582000000002    -7.554483
42.759375,-4.6199994,3.734301   -0.625931
42.759375,-5.5439994,2.1338862  -0.625931
42.759375,-0.9239999999999999,-5.868187799999999        -0.625931
42.759375,0.9239999999999999,-5.868187799999999 -0.625931
42.759375,5.5439994,2.1338862   -0.625931
42.759375,4.6199994,3.734301    -0.625931
-290.25,-0.0,-5.3347158 4.409069
-290.25,-4.6199994,2.6673582000000002   4.409069
-290.25,4.6199994,2.6673582000000002    4.409069

End of input

&SCF
Occupied
9
Iterations
   50  100
End of Input

&RASSCF
LumOrb
Symmetry
1
Spin
2
Nactel
1 0 0
CIRoot
9 9 1
inactive
9
ras2
9
End of Input

>>> COPY vanadium_so_cf.JobIph $SLURM_SUBMIT_DIR/vanadium_so_cf.doublet.JobIph

>>> COPY $SLURM_SUBMIT_DIR/vanadium_so_cf.doublet.JobIph ./JOB002

&RASSI
NROFJobIph
1 All
SpinOrbit
End of Input

EOF

-- ----------------------------------

--- Start Module: seward at Wed Mar 26 11:51:03 2025 ---

()()()()()()()()()()()()()()()()()()()()()()()()()()()()()()()()()()()()()()()()()()()()()()()()()()

                                              &SEWARD

                                   only a single process is used
                       available to each process: 4.1 GB of memory, 1 thread?
                                            pid: 3349554
()()()()()()()()()()()()()()()()()()()()()()()()()()()()()()()()()()()()()()()()()()()()()()()()()()

 The speed of LIGHT in this CALCULATION =   137.03599917700001     
               SEWARD will generate:
                  Multipole Moment integrals up to order  2
                  Kinetic Energy integrals
                  Nuclear Attraction integrals (point charge)
                  One-Electron Hamiltonian integrals
                  Velocity integrals
                  Relativistic Douglas-Kroll-Hess integrals:
                    - Parametrization         : EXP
                    - DKH order of Hamiltonian: 2
                    - DKH order of Properties : 0
                         - multipole moment operators
                         - electric potential operators
                         - contact operators
                  External field from   414 point(s) added to the one-electron Hamiltonian
                  Orbital angular momentum around (-0.0000 -0.0000  0.0088 )
                  Velocity quadrupole around (-0.0000 -0.0000  0.0088 )
                  Atomic mean-field integrals
                  Two-Electron Repulsion integrals

                   Integrals are discarded if absolute value <: 0.10E-13
                   Integral cutoff threshold is set to       <: 0.10E-15

++    Symmetry information:
      ---------------------

                    Character Table for C1 

                             E  
                    a        1  x, y, xy, Rz, z, xz, Ry, yz, Rx, I
--


++    Basis set information:
      ----------------------


      Basis set label: V.ANO-RCC.ROOS.21S15P10D6F4G2H.10S9P8D6F4G2H......

      Electronic valence basis set:
      ------------------
      Associated Effective Charge  23.000000 au
      Associated Actual Charge     23.000000 au
      Nuclear Model: Point charge

      Shell  nPrim  nBasis  Cartesian Spherical Contaminant
         s      21      10        X                  
         p      15       9        X                  
         d      10       8                 X         
         f       6       6                 X         
         g       4       4                 X         
         h       2       2                 X         
--


++    Molecular structure info:
      -------------------------

                    ************************************************ 
                    **** Cartesian Coordinates / Bohr, Angstrom **** 
                    ************************************************ 

     Center  Label                x              y              z                     x              y              z
        1      V               -0.000000      -0.000000       0.008754             -0.000000      -0.000000       0.004632
--


++    Operator info:
      --------------


  Net charge from external field:   -39.268449999999902     
--


            Nuclear Potential Energy              0.00000000 au

                    Nuclear-External Field Potential Energy    -350.71011256 au
                    External Field Potential Energy            2676.06150231 au 


            Total Nuclear Potential Energy           -350.71011256 au


      Basis set specifications :
      Symmetry species         a  
      Basis functions          177

 Sorry, Molden does not know how to handle
 functions with angular momentum larger than g
Note: The following floating-point exceptions are signalling: IEEE_UNDERFLOW_FLAG IEEE_DENORMAL
--- Stop Module: seward at Wed Mar 26 11:51:11 2025 /rc=_RC_ALL_IS_WELL_ ---
*** files: vanadium_so_cf.GssOrb xmldump
    saved to directory /home4/s4752295/Internship/Initial_simulations/Point_charge_model/1_electron/Madelung_charges_9_active_space/V
--- Module seward spent 7 seconds ---

*** symbolic link created: INPORB -> vanadium_so_cf.GssOrb
--- Start Module: scf at Wed Mar 26 11:51:11 2025 ---

()()()()()()()()()()()()()()()()()()()()()()()()()()()()()()()()()()()()()()()()()()()()()()()()()()

                                                &SCF

                                   only a single process is used
                       available to each process: 4.1 GB of memory, 1 thread?
                                            pid: 3349559
()()()()()()()()()()()()()()()()()()()()()()()()()()()()()()()()()()()()()()()()()()()()()()()()()()

++    Input section:
      --------------

      Header of the integral files:
      
       Integrals generated by seward 4.2.0  , Wed Mar 26 11:51:04 2025


      Cartesian coordinates in Angstrom:
      -----------------------------------------------------
      No.  Label        X            Y            Z        
      -----------------------------------------------------
       1   V         -0.00000000  -0.00000000   0.00463220
      -----------------------------------------------------
      Nuclear repulsion energy = -350.71011256
--

++    Orbital specifications:
      -----------------------

      Symmetry species               1
                                     a
      Frozen orbitals                0
      Occupied orbitals              9
      Secondary orbitals           168
      Deleted orbitals               0
      Total number of orbitals     177
      Number of basis functions    177
--

      Molecular charge                           5.000

++    Optimization specifications:
      ----------------------------

      SCF Algorithm: Conventional
      Minimized density differences are used
      Number of density matrices in core                5
      Maximum number of NDDO SCF iterations            50
      Maximum number of HF SCF iterations             100
      Threshold for SCF energy change            0.10E-08
      Threshold for density matrix               0.10E-03
      Threshold for Fock matrix                  0.15E-03
      Threshold for linear dependence            0.10E-08
      Threshold at which DIIS is turned on       0.15E+00
      Threshold at which QNR/C2DIIS is turned on 0.75E-01
      Threshold for Norm(delta) (QNR/C2DIIS)     0.20E-04
      DIIS extrapolation of the SCF procedure
      All orbitals punched on: SCFORB
--

      Detected guessorb starting orbitals                                             


++ Convergence information
                                   SCF        iterations: Energy and convergence statistics

Iter     Tot. SCF        One-elec.       Two-elec.     Energy      Max Dij or  Max Fij      DNorm      TNorm      AccCon     Time
         Energy          Energy          Energy        Change      Delta Norm                                                in Sec.

 The total and one-electron energies are shifted by a value of      1000. a.u.

   1   -18.260256618    42.970088330   289.479767612   0.00E+00    0.19E+00*   0.12E+01*    0.60E+01   0.22E+03   None         1.
   2   -28.529846636   119.580858607   202.599407317  -0.10E+02*   0.30E+00*   0.51E+00*    0.56E+01   0.18E+03   EDIIS        1.
   3   -21.115655965    20.569722288   309.024734306   0.74E+01*   0.12E+00*   0.18E+00*    0.33E+01   0.23E+03   EDIIS        1.
   4   -28.998497026    53.987518576   267.724096957  -0.79E+01*   0.12E+00*   0.78E-01*    0.30E+01   0.21E+03   EDIIS        1.
   5   -28.831722505   116.621654534   205.256735520   0.17E+00*   0.34E-01*   0.28E-01*    0.54E+00   0.18E+03   EDIIS        1.
   6   -29.579814375    61.817373171   259.312925014  -0.75E+00*   0.24E+00*   0.24E-01*    0.17E+01   0.21E+03   EDIIS        1.
   7   -30.200050104    94.099185911   226.410876545  -0.62E+00*   0.59E+00*   0.62E-01*    0.64E+00   0.19E+03   EDIIS        1.
   8   -30.412909327    80.021611864   240.275591369  -0.21E+00*   0.80E+00*   0.18E+00*    0.12E+01   0.20E+03   EDIIS        1.
   9   -30.563561564    88.322772764   231.823778232  -0.15E+00*   0.45E+00*   0.13E+00*    0.41E+00   0.19E+03   EDIIS        1.
  10   -30.637770243    85.339443367   234.732898949  -0.74E-01*   0.75E-01*   0.18E-01*    0.59E-01   0.19E+03   EDIIS        1.
  11   -30.641018835    85.555209336   234.513884389  -0.32E-02*   0.18E-01*   0.37E-02*    0.12E-01   0.19E+03   c2DIIS       1.
  12   -30.641165423    85.538482301   234.530464836  -0.15E-03*   0.36E-02*   0.12E-02*    0.18E-02   0.19E+03   QNRc2DIIS    1.
  13   -30.641180953    85.540548643   234.528382964  -0.16E-04*   0.16E-02*   0.40E-03*    0.30E-03   0.19E+03   QNRc2DIIS    1.
  14   -30.641182585    85.540420465   234.528509510  -0.16E-05*   0.79E-04*   0.21E-04     0.79E-04   0.19E+03   QNRc2DIIS    1.
  15   -30.641182590    85.540588010   234.528341959  -0.51E-08*   0.87E-05    0.85E-05     0.33E-04   0.19E+03   QNRc2DIIS    1.
  16   -30.641182590    85.540499607   234.528430362  -0.21E-09    0.57E-05    0.38E-05     0.56E-04   0.19E+03   QNRc2DIIS    1.

       Convergence after 16 Macro Iterations
--

 *****************************************************************************************************************************
 *                                                                                                                           *
 *                                             SCF/KS-DFT Program, Final results                                             *
 *                                                                                                                           *
 *                                                                                                                           *
 *                                                                                                                           *
 *                                                       Final Results                                                       *
 *                                                                                                                           *
 *****************************************************************************************************************************

::    Total SCF energy                              -1030.6411825903
      One-electron energy                            -914.4595003930
      Two-electron energy                             234.5284303623
      Nuclear repulsion energy                       -350.7101125596
      Kinetic energy (interpolated)                   943.8164991249
      Virial theorem                                    1.0919931825
      Total spin, S(S+1)                                0.0000000000
      Total spin, S                                     0.0000000000
      Max non-diagonal density matrix element           0.0000096128
      Max non-diagonal Fock matrix element              0.0000036988


      All orbitals with orbital energies smaller than  E(LUMO)+0.5 are printed

++    Molecular orbitals:
      -------------------

      Title: SCF orbitals

      Molecular orbitals for symmetry species 1: a  

          Orbital            1         2         3         4         5         6         7         8         9        10    
          Energy         -195.5474  -16.4271  -12.3961  -12.3801  -12.3454    5.5030    6.6731    6.8955    7.3230    7.3844
          Occ. No.          2.0000    2.0000    2.0000    2.0000    2.0000    2.0000    2.0000    2.0000    2.0000    0.0000

        1 V      1s         1.0000    0.0002    0.0000    0.0000    0.0000   -0.0001    0.0000   -0.0000    0.0000    0.0000
        2 V      2s        -0.0002    0.9997    0.0000    0.0010   -0.0228    0.0062   -0.0001    0.0001   -0.0000   -0.0000
        3 V      3s         0.0001   -0.0089   -0.0000   -0.0001    0.0044    0.8409   -0.0038    0.0039   -0.0000   -0.0000
        4 V      4s        -0.0000    0.0012    0.0000    0.0000   -0.0006   -0.0445    0.0752   -0.0005    0.0000    0.0000
        5 V      5s         0.0000   -0.0014    0.0000   -0.0000    0.0006    0.0390    0.4199    0.0004   -0.0000   -0.0011
        6 V      6s        -0.0001    0.0036    0.0000    0.0000   -0.0013   -0.0591    0.2961   -0.0009   -0.0000   -0.0008
        7 V      7s         0.0001   -0.0020   -0.0000   -0.0000    0.0004    0.0105    0.4495    0.0001   -0.0000   -0.0014
        8 V      8s        -0.0001    0.0015   -0.0000    0.0000    0.0001    0.0004    0.3412    0.0001   -0.0000   -0.0013
        9 V      9s         0.0001   -0.0005   -0.0000   -0.0000   -0.0002    0.0040    0.5881   -0.0001   -0.0000   -0.0027
       10 V     10s        -0.0001    0.0006   -0.0000    0.0000    0.0003    0.0014    0.2337   -0.0001   -0.0000   -0.0012
       11 V      2px       -0.0001    0.0229   -0.0000   -0.0139    0.9996    0.0007    0.0000    0.0000   -0.0000    0.0000
       12 V      3px       -0.0000    0.0032    0.0000    0.0001   -0.0087    0.5202   -0.0009    0.0006    0.0000    0.0000
       13 V      4px        0.0000   -0.0006   -0.0000   -0.0000    0.0018   -0.0381    0.0153   -0.0003   -0.0000   -0.0000
       14 V      5px        0.0000    0.0014   -0.0000    0.0001   -0.0046    0.0343    0.0235    0.0004   -0.0000   -0.0001
       15 V      6px       -0.0000   -0.0006   -0.0000   -0.0000    0.0023    0.0102    0.0538   -0.0001   -0.0000   -0.0001
       16 V      7px        0.0000    0.0002    0.0000    0.0000   -0.0020   -0.0120    0.0393   -0.0001   -0.0000   -0.0000
       17 V      8px       -0.0000    0.0001    0.0000   -0.0000    0.0008   -0.0037    0.0524    0.0001   -0.0000   -0.0000
       18 V      9px        0.0000   -0.0003    0.0000    0.0000   -0.0005    0.0071    0.0340    0.0001    0.0000   -0.0000
       19 V     10px       -0.0000    0.0003   -0.0000   -0.0000    0.0004    0.0035    0.0100   -0.0000    0.0000   -0.0000
       20 V      2py        0.0000   -0.0000    1.0000   -0.0000    0.0000   -0.0000    0.0000   -0.0000    0.0000    0.0000
       21 V      3py       -0.0000   -0.0000   -0.0070    0.0000   -0.0000   -0.0000   -0.0000   -0.0000    0.0020    0.0000
       22 V      4py        0.0000    0.0000    0.0013   -0.0000    0.0000    0.0000   -0.0000    0.0000    0.1196   -0.0000
       23 V      5py       -0.0000   -0.0000   -0.0030    0.0000   -0.0000   -0.0000   -0.0000   -0.0000    0.1645   -0.0000
       24 V      6py        0.0000    0.0000    0.0014   -0.0000    0.0000    0.0000   -0.0000    0.0000    0.4283   -0.0000
       25 V      7py       -0.0000   -0.0000   -0.0009    0.0000   -0.0000    0.0000   -0.0000    0.0000    0.4325   -0.0000
       26 V      8py        0.0000    0.0000    0.0002   -0.0000    0.0000   -0.0000   -0.0000    0.0000    0.6421   -0.0000
       27 V      9py       -0.0000   -0.0000   -0.0001    0.0000   -0.0000    0.0000   -0.0000   -0.0000    0.3989   -0.0000
       28 V     10py        0.0000    0.0000    0.0001   -0.0000    0.0000    0.0000   -0.0000   -0.0000    0.1111   -0.0000
       29 V      2pz       -0.0000   -0.0007    0.0000    0.9998    0.0140   -0.0000    0.0000    0.0090    0.0000   -0.0000
       30 V      3pz        0.0000   -0.0000   -0.0000   -0.0100   -0.0001   -0.0032    0.0001    0.9104    0.0000   -0.0020
       31 V      4pz       -0.0000    0.0000    0.0000    0.0021    0.0000    0.0003    0.0004   -0.0877    0.0000    0.1197
       32 V      5pz        0.0000   -0.0000   -0.0000   -0.0056   -0.0001   -0.0005    0.0006    0.1367    0.0000    0.1638
       33 V      6pz       -0.0000    0.0000    0.0000    0.0030    0.0000    0.0001    0.0015   -0.0249    0.0000    0.4284
       34 V      7pz        0.0000   -0.0000   -0.0000   -0.0029   -0.0000    0.0001    0.0016   -0.0013    0.0000    0.4326
       35 V      8pz       -0.0000    0.0000    0.0000    0.0015    0.0000   -0.0000    0.0024    0.0001    0.0000    0.6422
       36 V      9pz        0.0000   -0.0000   -0.0000   -0.0010   -0.0000    0.0000    0.0015    0.0049    0.0000    0.3988
       37 V     10pz       -0.0000    0.0000    0.0000    0.0008    0.0000    0.0000    0.0004    0.0015    0.0000    0.1111
       38 V      3d2-      -0.0000   -0.0000    0.0027   -0.0000    0.0000   -0.0000   -0.0000   -0.0000    0.0008    0.0000
       39 V      4d2-      -0.0000    0.0000   -0.0021    0.0000   -0.0000    0.0000    0.0000    0.0000    0.0041   -0.0000
       40 V      5d2-       0.0000   -0.0000    0.0017   -0.0000    0.0000   -0.0000   -0.0000   -0.0000    0.0044   -0.0000
       41 V      6d2-      -0.0000    0.0000   -0.0011    0.0000   -0.0000   -0.0000   -0.0000   -0.0000   -0.0063    0.0000
       42 V      7d2-       0.0000   -0.0000    0.0002    0.0000    0.0000    0.0000   -0.0000   -0.0000   -0.0163    0.0000
       43 V      8d2-      -0.0000   -0.0000    0.0001   -0.0000    0.0000    0.0000    0.0000    0.0000   -0.0208    0.0000
       44 V      9d2-       0.0000    0.0000   -0.0001    0.0000   -0.0000   -0.0000    0.0000    0.0000   -0.0143    0.0000
       45 V     10d2-      -0.0000   -0.0000    0.0000   -0.0000   -0.0000   -0.0000    0.0000    0.0000   -0.0029    0.0000
       46 V      3d1-       0.0000    0.0000   -0.0001    0.0000   -0.0000   -0.0000    0.0000    0.0000    0.0021   -0.0000
       47 V      4d1-      -0.0000   -0.0000    0.0000   -0.0000    0.0000    0.0000    0.0000   -0.0000    0.0041   -0.0000
       48 V      5d1-       0.0000    0.0000   -0.0000    0.0000   -0.0000   -0.0000    0.0000   -0.0000    0.0031   -0.0000
       49 V      6d1-      -0.0000   -0.0000    0.0000   -0.0000   -0.0000    0.0000    0.0000    0.0000    0.0028   -0.0000
       50 V      7d1-      -0.0000    0.0000   -0.0000    0.0000    0.0000   -0.0000    0.0000    0.0000    0.0057   -0.0000
       51 V      8d1-       0.0000   -0.0000    0.0000   -0.0000   -0.0000    0.0000    0.0000   -0.0000    0.0090   -0.0000
       52 V      9d1-      -0.0000    0.0000   -0.0000    0.0000    0.0000    0.0000    0.0000   -0.0000    0.0088   -0.0000
       53 V     10d1-       0.0000    0.0000    0.0000   -0.0000   -0.0000   -0.0000    0.0000   -0.0000    0.0023   -0.0000
       54 V      3d0       -0.0000   -0.0001    0.0000   -0.0000   -0.0014   -0.0446   -0.0013    0.0089   -0.0000   -0.0017
       55 V      4d0        0.0000    0.0003   -0.0000    0.0000    0.0011    0.0145    0.0000   -0.0028   -0.0000   -0.0032
       56 V      5d0       -0.0000   -0.0004    0.0000   -0.0000   -0.0010    0.0046    0.0055   -0.0028   -0.0000   -0.0022
       57 V      6d0        0.0000    0.0009   -0.0000    0.0001    0.0008   -0.0105    0.0081    0.0027   -0.0000   -0.0020
       58 V      7d0        0.0000   -0.0008   -0.0000   -0.0000   -0.0003   -0.0017    0.0106    0.0021   -0.0000   -0.0044
       59 V      8d0       -0.0000    0.0004    0.0000    0.0000    0.0001    0.0026    0.0115   -0.0004   -0.0000   -0.0072
       60 V      9d0        0.0000   -0.0001   -0.0000   -0.0000   -0.0000    0.0027    0.0091   -0.0020   -0.0000   -0.0072
       61 V     10d0       -0.0000   -0.0001   -0.0000    0.0000    0.0000    0.0007    0.0022   -0.0006   -0.0000   -0.0019
       62 V      3d1+      -0.0000   -0.0000    0.0000    0.0024   -0.0000   -0.0018    0.0001    0.3417    0.0000   -0.0007
       63 V      4d1+       0.0000    0.0000   -0.0000   -0.0017    0.0000    0.0009   -0.0000   -0.1407    0.0000    0.0047
       64 V      5d1+      -0.0000   -0.0000    0.0000    0.0012   -0.0000   -0.0003    0.0000    0.0213    0.0000    0.0043
       65 V      6d1+       0.0000    0.0000   -0.0000   -0.0004    0.0000   -0.0001    0.0000    0.0314   -0.0000   -0.0064
       66 V      7d1+      -0.0000   -0.0000    0.0000   -0.0004   -0.0000    0.0001    0.0000    0.0058   -0.0000   -0.0162
       67 V      8d1+       0.0000    0.0000    0.0000    0.0004    0.0000    0.0000    0.0000   -0.0108   -0.0000   -0.0206
       68 V      9d1+      -0.0000   -0.0000   -0.0000   -0.0002   -0.0000   -0.0000    0.0000   -0.0089   -0.0000   -0.0141
       69 V     10d1+       0.0000   -0.0000    0.0000    0.0001    0.0000   -0.0000    0.0000   -0.0017   -0.0000   -0.0028
       70 V      3d2+      -0.0000   -0.0010    0.0000   -0.0000    0.0030    0.0884    0.0023    0.0053   -0.0000   -0.0010
       71 V      4d2+       0.0000    0.0010    0.0000    0.0000   -0.0023   -0.0305   -0.0006   -0.0020   -0.0000   -0.0019
       72 V      5d2+      -0.0000   -0.0010    0.0000   -0.0000    0.0018   -0.0060   -0.0106   -0.0014   -0.0000   -0.0013
       73 V      6d2+       0.0000    0.0012   -0.0000    0.0000   -0.0011    0.0177   -0.0153    0.0016   -0.0000   -0.0011
       74 V      7d2+      -0.0000   -0.0008    0.0000   -0.0000    0.0002    0.0038   -0.0198    0.0012   -0.0000   -0.0025
       75 V      8d2+       0.0000    0.0003    0.0000    0.0000    0.0001   -0.0048   -0.0210   -0.0003   -0.0000   -0.0042
       76 V      9d2+      -0.0000   -0.0000   -0.0000    0.0000   -0.0001   -0.0051   -0.0167   -0.0012   -0.0000   -0.0042
       77 V     10d2+       0.0000   -0.0001   -0.0000    0.0000    0.0000   -0.0008   -0.0041   -0.0003   -0.0000   -0.0011
       78 V      4f3-      -0.0000    0.0000   -0.0004    0.0000   -0.0000   -0.0000   -0.0000   -0.0000   -0.0038    0.0000
       79 V      5f3-      -0.0000    0.0000    0.0005   -0.0000    0.0000    0.0000    0.0000    0.0000   -0.0112    0.0000
       80 V      6f3-       0.0000   -0.0000   -0.0005    0.0000   -0.0000   -0.0000    0.0000    0.0000   -0.0147    0.0000
       81 V      7f3-      -0.0000   -0.0000    0.0005   -0.0000    0.0000   -0.0000   -0.0000   -0.0000   -0.0207    0.0000
       82 V      8f3-       0.0000    0.0000   -0.0005    0.0000   -0.0000    0.0000   -0.0000   -0.0000   -0.0278    0.0000
       83 V      9f3-      -0.0000   -0.0000    0.0002   -0.0000    0.0000    0.0000   -0.0000    0.0000   -0.0365    0.0000
       84 V      4f2-       0.0000   -0.0000   -0.0000    0.0000    0.0000   -0.0000    0.0000    0.0000    0.0014   -0.0000
       85 V      5f2-      -0.0000    0.0000    0.0000   -0.0000   -0.0000   -0.0000   -0.0000    0.0000    0.0017   -0.0000
       86 V      6f2-       0.0000    0.0000   -0.0000    0.0000    0.0000    0.0000   -0.0000   -0.0000   -0.0002    0.0000
       87 V      7f2-      -0.0000   -0.0000    0.0000    0.0000   -0.0000    0.0000   -0.0000    0.0000   -0.0018    0.0000
       88 V      8f2-       0.0000    0.0000   -0.0000   -0.0000    0.0000   -0.0000   -0.0000    0.0000   -0.0021    0.0000
       89 V      9f2-      -0.0000   -0.0000    0.0000    0.0000   -0.0000    0.0000   -0.0000   -0.0000   -0.0023    0.0000
       90 V      4f1-       0.0000   -0.0000   -0.0002    0.0000    0.0000    0.0000    0.0000    0.0000    0.0010   -0.0000
       91 V      5f1-       0.0000   -0.0000    0.0003   -0.0000   -0.0000   -0.0000   -0.0000   -0.0000    0.0030   -0.0000
       92 V      6f1-       0.0000    0.0000   -0.0004    0.0000    0.0000    0.0000   -0.0000   -0.0000    0.0041   -0.0000
       93 V      7f1-      -0.0000   -0.0000    0.0004   -0.0000   -0.0000    0.0000    0.0000    0.0000    0.0059   -0.0000
       94 V      8f1-       0.0000    0.0000   -0.0005    0.0000    0.0000    0.0000    0.0000    0.0000    0.0079   -0.0000
       95 V      9f1-      -0.0000   -0.0000    0.0002   -0.0000   -0.0000   -0.0000    0.0000   -0.0000    0.0104   -0.0000
       96 V      4f0       -0.0000    0.0000   -0.0000   -0.0002    0.0000    0.0037   -0.0010   -0.0429    0.0000    0.0025
       97 V      5f0        0.0000   -0.0000    0.0000    0.0002   -0.0000   -0.0004   -0.0037    0.0063    0.0000    0.0071
       98 V      6f0       -0.0000   -0.0000   -0.0000   -0.0003    0.0000   -0.0019   -0.0044    0.0115    0.0000    0.0095
       99 V      7f0        0.0000    0.0000    0.0000    0.0004   -0.0000    0.0009   -0.0016   -0.0053    0.0000    0.0137
      100 V      8f0       -0.0000   -0.0000   -0.0000   -0.0005    0.0000    0.0007    0.0035   -0.0039    0.0000    0.0183
      101 V      9f0        0.0000    0.0000    0.0000    0.0002    0.0000   -0.0004    0.0075    0.0016    0.0000    0.0240
      102 V      4f1+      -0.0000    0.0001    0.0000    0.0000    0.0002   -0.0056   -0.0007    0.0135   -0.0000   -0.0011
      103 V      5f1+       0.0000    0.0000   -0.0000   -0.0000   -0.0001    0.0012   -0.0001    0.0015   -0.0000   -0.0013
      104 V      6f1+      -0.0000   -0.0001   -0.0000   -0.0000   -0.0000    0.0025    0.0011   -0.0067    0.0000    0.0001
      105 V      7f1+       0.0000    0.0002   -0.0000    0.0000    0.0001   -0.0018    0.0013    0.0016    0.0000    0.0014
      106 V      8f1+      -0.0000   -0.0002   -0.0000   -0.0000   -0.0002   -0.0004    0.0005    0.0024    0.0000    0.0016
      107 V      9f1+       0.0000    0.0001   -0.0000    0.0000    0.0001    0.0005   -0.0001   -0.0002    0.0000    0.0018
      108 V      4f2+      -0.0000    0.0000   -0.0000   -0.0002    0.0000    0.0025   -0.0008    0.0431   -0.0000   -0.0032
      109 V      5f2+       0.0000    0.0000    0.0000    0.0003    0.0000   -0.0001   -0.0029   -0.0019   -0.0000   -0.0090
      110 V      6f2+       0.0000   -0.0000   -0.0000   -0.0004   -0.0000   -0.0015   -0.0035   -0.0168   -0.0000   -0.0117
      111 V      7f2+       0.0000    0.0000    0.0000    0.0004    0.0000    0.0007   -0.0014    0.0068   -0.0000   -0.0168
      112 V      8f2+      -0.0000   -0.0000   -0.0000   -0.0004   -0.0000    0.0006    0.0026    0.0052   -0.0000   -0.0225
      113 V      9f2+       0.0000    0.0000    0.0000    0.0002    0.0000   -0.0003    0.0056   -0.0021   -0.0000   -0.0296
      114 V      4f3+      -0.0000    0.0001    0.0000    0.0000   -0.0004    0.0086    0.0009    0.0113   -0.0000   -0.0009
      115 V      5f3+       0.0000   -0.0001   -0.0000   -0.0000    0.0005   -0.0009    0.0003    0.0010   -0.0000   -0.0011
      116 V      6f3+      -0.0000    0.0000    0.0000    0.0000   -0.0006   -0.0043   -0.0013   -0.0053    0.0000    0.0001
      117 V      7f3+       0.0000   -0.0000   -0.0000   -0.0000    0.0005    0.0024   -0.0015    0.0014    0.0000    0.0011
      118 V      8f3+      -0.0000    0.0000    0.0000    0.0000   -0.0005    0.0012   -0.0004    0.0019    0.0000    0.0012
      119 V      9f3+       0.0000   -0.0000   -0.0000   -0.0000    0.0002   -0.0010    0.0004   -0.0002    0.0000    0.0014
      120 V      5g4-       0.0000    0.0000    0.0001   -0.0000    0.0000   -0.0000   -0.0000   -0.0000   -0.0004    0.0000
      121 V      6g4-      -0.0000    0.0000   -0.0000    0.0000    0.0000    0.0000    0.0000   -0.0000    0.0001   -0.0000
      122 V      7g4-       0.0000   -0.0000    0.0000   -0.0000   -0.0000    0.0000    0.0000    0.0000    0.0028   -0.0000
      123 V      8g4-      -0.0000   -0.0000   -0.0000    0.0000    0.0000   -0.0000    0.0000    0.0000    0.0051   -0.0000
      124 V      5g3-       0.0000   -0.0000   -0.0000    0.0000    0.0000    0.0000    0.0000    0.0000    0.0003   -0.0000
      125 V      6g3-       0.0000    0.0000    0.0000   -0.0000   -0.0000   -0.0000    0.0000    0.0000   -0.0004    0.0000
      126 V      7g3-      -0.0000   -0.0000   -0.0000    0.0000    0.0000    0.0000    0.0000   -0.0000   -0.0007    0.0000
      127 V      8g3-       0.0000   -0.0000   -0.0000    0.0000   -0.0000    0.0000    0.0000   -0.0000    0.0000   -0.0000
      128 V      5g2-      -0.0000    0.0000   -0.0000    0.0000    0.0000    0.0000    0.0000    0.0000    0.0001   -0.0000
      129 V      6g2-       0.0000   -0.0000    0.0001   -0.0000   -0.0000   -0.0000    0.0000   -0.0000   -0.0001    0.0000
      130 V      7g2-      -0.0000   -0.0000   -0.0001    0.0000    0.0000   -0.0000   -0.0000   -0.0000   -0.0011    0.0000
      131 V      8g2-       0.0000    0.0000    0.0000   -0.0000    0.0000    0.0000    0.0000   -0.0000   -0.0020    0.0000
      132 V      5g1-      -0.0000    0.0000    0.0000   -0.0000    0.0000    0.0000   -0.0000   -0.0000   -0.0009    0.0000
      133 V      6g1-       0.0000   -0.0000    0.0000   -0.0000    0.0000    0.0000    0.0000   -0.0000   -0.0020    0.0000
      134 V      7g1-      -0.0000   -0.0000   -0.0000    0.0000   -0.0000   -0.0000    0.0000    0.0000   -0.0011    0.0000
      135 V      8g1-       0.0000    0.0000    0.0000    0.0000    0.0000   -0.0000   -0.0000    0.0000    0.0003   -0.0000
      136 V      5g0        0.0000   -0.0001    0.0000   -0.0000    0.0000   -0.0015    0.0003   -0.0089   -0.0000   -0.0002
      137 V      6g0       -0.0000    0.0000   -0.0000    0.0000   -0.0001   -0.0010    0.0015   -0.0057   -0.0000   -0.0013
      138 V      7g0        0.0000   -0.0000    0.0000   -0.0000    0.0001    0.0008    0.0027    0.0027   -0.0000   -0.0011
      139 V      8g0       -0.0000   -0.0000   -0.0000   -0.0000   -0.0000    0.0003    0.0033    0.0022    0.0000    0.0002
      140 V      5g1+      -0.0000    0.0000   -0.0000   -0.0001    0.0000    0.0069   -0.0000   -0.0152    0.0000    0.0004
      141 V      6g1+       0.0000   -0.0000    0.0000    0.0001   -0.0000    0.0027   -0.0002   -0.0028   -0.0000   -0.0001
      142 V      7g1+       0.0000    0.0000   -0.0000   -0.0001   -0.0000   -0.0030   -0.0003    0.0061   -0.0000   -0.0023
      143 V      8g1+      -0.0000   -0.0000    0.0000    0.0001    0.0000   -0.0008   -0.0003    0.0009   -0.0000   -0.0042
      144 V      5g2+      -0.0000    0.0001    0.0000    0.0000   -0.0000    0.0020   -0.0004    0.0085   -0.0000   -0.0008
      145 V      6g2+       0.0000   -0.0000    0.0000   -0.0000    0.0001    0.0013   -0.0022    0.0041   -0.0000   -0.0015
      146 V      7g2+       0.0000    0.0000   -0.0000   -0.0000   -0.0001   -0.0010   -0.0039   -0.0038   -0.0000   -0.0006
      147 V      8g2+      -0.0000   -0.0000    0.0000   -0.0000    0.0000   -0.0005   -0.0048   -0.0017    0.0000    0.0003
      148 V      5g3+      -0.0000    0.0000    0.0000    0.0001    0.0000    0.0080   -0.0000    0.0089   -0.0000   -0.0003
      149 V      6g3+      -0.0000   -0.0000    0.0000   -0.0000   -0.0000    0.0031   -0.0003    0.0034    0.0000    0.0001
      150 V      7g3+       0.0000    0.0000   -0.0000    0.0000   -0.0000   -0.0035   -0.0004   -0.0054    0.0000    0.0020
      151 V      8g3+       0.0000   -0.0000    0.0000   -0.0000    0.0000   -0.0010   -0.0003   -0.0008    0.0000    0.0036
      152 V      5g4+      -0.0000   -0.0000    0.0000    0.0000    0.0001   -0.0027    0.0005    0.0117   -0.0000   -0.0005
      153 V      6g4+       0.0000    0.0000    0.0000   -0.0000   -0.0000   -0.0012    0.0029    0.0063   -0.0000   -0.0005
      154 V      7g4+       0.0000   -0.0000   -0.0000   -0.0000    0.0000    0.0009    0.0052   -0.0045    0.0000    0.0000
      155 V      8g4+       0.0000    0.0000    0.0000    0.0000   -0.0000    0.0006    0.0064   -0.0025    0.0000    0.0001
      156 V      6h5-       0.0000   -0.0000   -0.0000   -0.0000    0.0000   -0.0000    0.0000   -0.0000   -0.0001    0.0000
      157 V      7h5-       0.0000    0.0000    0.0000   -0.0000   -0.0000   -0.0000   -0.0000   -0.0000    0.0006   -0.0000
      158 V      6h4-       0.0000   -0.0000    0.0000   -0.0000   -0.0000    0.0000    0.0000    0.0000    0.0003   -0.0000
      159 V      7h4-       0.0000    0.0000   -0.0000    0.0000    0.0000   -0.0000    0.0000    0.0000    0.0004   -0.0000
      160 V      6h3-      -0.0000    0.0000    0.0000   -0.0000    0.0000    0.0000    0.0000    0.0000    0.0000   -0.0000
      161 V      7h3-       0.0000    0.0000   -0.0000   -0.0000   -0.0000    0.0000   -0.0000    0.0000   -0.0003    0.0000
      162 V      6h2-      -0.0000    0.0000    0.0000   -0.0000    0.0000    0.0000   -0.0000   -0.0000   -0.0004    0.0000
      163 V      7h2-       0.0000   -0.0000   -0.0000    0.0000   -0.0000    0.0000   -0.0000   -0.0000   -0.0010    0.0000
      164 V      6h1-       0.0000   -0.0000   -0.0000    0.0000    0.0000    0.0000    0.0000   -0.0000   -0.0000    0.0000
      165 V      7h1-      -0.0000   -0.0000    0.0000   -0.0000   -0.0000    0.0000   -0.0000    0.0000    0.0000    0.0000
      166 V      6h0        0.0000   -0.0000   -0.0000   -0.0000   -0.0000   -0.0060    0.0001    0.0038   -0.0000   -0.0001
      167 V      7h0        0.0000    0.0000    0.0000    0.0000    0.0000   -0.0033    0.0003    0.0020    0.0000    0.0003
      168 V      6h1+       0.0000   -0.0000   -0.0000    0.0000   -0.0000   -0.0035    0.0002   -0.0044    0.0000    0.0002
      169 V      7h1+       0.0000    0.0000   -0.0000   -0.0000    0.0000   -0.0020    0.0006   -0.0048    0.0000    0.0001
      170 V      6h2+      -0.0000    0.0000    0.0000    0.0000    0.0000    0.0035   -0.0000   -0.0039    0.0000    0.0001
      171 V      7h2+      -0.0000   -0.0000   -0.0000   -0.0000   -0.0000    0.0019   -0.0002   -0.0020   -0.0000   -0.0003
      172 V      6h3+      -0.0000    0.0000    0.0000    0.0000    0.0000    0.0035   -0.0002    0.0066   -0.0000   -0.0003
      173 V      7h3+      -0.0000    0.0000   -0.0000   -0.0000   -0.0000    0.0020   -0.0007    0.0037   -0.0000   -0.0008
      174 V      6h4+      -0.0000    0.0000    0.0000   -0.0000    0.0000    0.0094   -0.0001    0.0030   -0.0000   -0.0000
      175 V      7h4+      -0.0000   -0.0000    0.0000    0.0000   -0.0000    0.0051   -0.0005    0.0020    0.0000    0.0004
      176 V      6h5+       0.0000   -0.0000    0.0000    0.0000   -0.0000   -0.0045    0.0002    0.0083   -0.0000   -0.0004
      177 V      7h5+       0.0000   -0.0000    0.0000    0.0000    0.0000   -0.0025    0.0009    0.0064   -0.0000   -0.0007

          Orbital           11    
          Energy            7.6976
          Occ. No.          0.0000

        1 V      1s        -0.0000
        2 V      2s         0.0000
        3 V      3s         0.0000
        4 V      4s        -0.0000
        5 V      5s         0.0000
        6 V      6s        -0.0000
        7 V      7s         0.0000
        8 V      8s         0.0000
        9 V      9s         0.0000
       10 V     10s         0.0000
       11 V      2px        0.0000
       12 V      3px        0.0000
       13 V      4px       -0.0000
       14 V      5px        0.0000
       15 V      6px       -0.0000
       16 V      7px       -0.0000
       17 V      8px        0.0000
       18 V      9px        0.0000
       19 V     10px        0.0000
       20 V      2py        0.0057
       21 V      3py        0.9174
       22 V      4py       -0.0753
       23 V      5py        0.1090
       24 V      6py       -0.0168
       25 V      7py       -0.0065
       26 V      8py       -0.0024
       27 V      9py        0.0027
       28 V     10py        0.0017
       29 V      2pz        0.0000
       30 V      3pz        0.0000
       31 V      4pz       -0.0000
       32 V      5pz        0.0000
       33 V      6pz       -0.0000
       34 V      7pz       -0.0000
       35 V      8pz       -0.0000
       36 V      9pz        0.0000
       37 V     10pz        0.0000
       38 V      3d2-       0.3409
       39 V      4d2-      -0.1271
       40 V      5d2-       0.0050
       41 V      6d2-       0.0384
       42 V      7d2-       0.0078
       43 V      8d2-      -0.0103
       44 V      9d2-      -0.0109
       45 V     10d2-      -0.0024
       46 V      3d1-      -0.0150
       47 V      4d1-       0.0061
       48 V      5d1-       0.0033
       49 V      6d1-      -0.0040
       50 V      7d1-      -0.0030
       51 V      8d1-       0.0005
       52 V      9d1-       0.0028
       53 V     10d1-       0.0008
       54 V      3d0        0.0000
       55 V      4d0       -0.0000
       56 V      5d0       -0.0000
       57 V      6d0        0.0000
       58 V      7d0        0.0000
       59 V      8d0       -0.0000
       60 V      9d0       -0.0000
       61 V     10d0       -0.0000
       62 V      3d1+       0.0000
       63 V      4d1+      -0.0000
       64 V      5d1+       0.0000
       65 V      6d1+       0.0000
       66 V      7d1+       0.0000
       67 V      8d1+      -0.0000
       68 V      9d1+      -0.0000
       69 V     10d1+      -0.0000
       70 V      3d2+       0.0000
       71 V      4d2+      -0.0000
       72 V      5d2+      -0.0000
       73 V      6d2+       0.0000
       74 V      7d2+       0.0000
       75 V      8d2+      -0.0000
       76 V      9d2+      -0.0000
       77 V     10d2+      -0.0000
       78 V      4f3-       0.0536
       79 V      5f3-      -0.0002
       80 V      6f3-      -0.0234
       81 V      7f3-       0.0086
       82 V      8f3-       0.0076
       83 V      9f3-      -0.0018
       84 V      4f2-      -0.0215
       85 V      5f2-      -0.0020
       86 V      6f2-       0.0101
       87 V      7f2-      -0.0023
       88 V      8f2-      -0.0037
       89 V      9f2-      -0.0001
       90 V      4f1-      -0.0214
       91 V      5f1-       0.0038
       92 V      6f1-       0.0049
       93 V      7f1-      -0.0024
       94 V      8f1-      -0.0018
       95 V      9f1-       0.0005
       96 V      4f0       -0.0000
       97 V      5f0        0.0000
       98 V      6f0        0.0000
       99 V      7f0       -0.0000
      100 V      8f0       -0.0000
      101 V      9f0        0.0000
      102 V      4f1+       0.0000
      103 V      5f1+       0.0000
      104 V      6f1+      -0.0000
      105 V      7f1+       0.0000
      106 V      8f1+       0.0000
      107 V      9f1+       0.0000
      108 V      4f2+       0.0000
      109 V      5f2+       0.0000
      110 V      6f2+      -0.0000
      111 V      7f2+       0.0000
      112 V      8f2+       0.0000
      113 V      9f2+      -0.0000
      114 V      4f3+       0.0000
      115 V      5f3+       0.0000
      116 V      6f3+      -0.0000
      117 V      7f3+       0.0000
      118 V      8f3+       0.0000
      119 V      9f3+       0.0000
      120 V      5g4-       0.0131
      121 V      6g4-       0.0050
      122 V      7g4-      -0.0083
      123 V      8g4-      -0.0017
      124 V      5g3-      -0.0182
      125 V      6g3-      -0.0113
      126 V      7g3-       0.0060
      127 V      8g3-       0.0045
      128 V      5g2-      -0.0082
      129 V      6g2-      -0.0010
      130 V      7g2-       0.0031
      131 V      8g2-       0.0005
      132 V      5g1-       0.0074
      133 V      6g1-       0.0029
      134 V      7g1-      -0.0039
      135 V      8g1-      -0.0016
      136 V      5g0       -0.0000
      137 V      6g0       -0.0000
      138 V      7g0        0.0000
      139 V      8g0        0.0000
      140 V      5g1+      -0.0000
      141 V      6g1+      -0.0000
      142 V      7g1+       0.0000
      143 V      8g1+       0.0000
      144 V      5g2+       0.0000
      145 V      6g2+       0.0000
      146 V      7g2+      -0.0000
      147 V      8g2+      -0.0000
      148 V      5g3+       0.0000
      149 V      6g3+       0.0000
      150 V      7g3+      -0.0000
      151 V      8g3+      -0.0000
      152 V      5g4+       0.0000
      153 V      6g4+       0.0000
      154 V      7g4+      -0.0000
      155 V      8g4+      -0.0000
      156 V      6h5-       0.0049
      157 V      7h5-       0.0037
      158 V      6h4-      -0.0079
      159 V      7h4-      -0.0083
      160 V      6h3-      -0.0030
      161 V      7h3-      -0.0017
      162 V      6h2-       0.0101
      163 V      7h2-       0.0067
      164 V      6h1-       0.0004
      165 V      7h1-      -0.0002
      166 V      6h0        0.0000
      167 V      7h0        0.0000
      168 V      6h1+      -0.0000
      169 V      7h1+      -0.0000
      170 V      6h2+      -0.0000
      171 V      7h2+      -0.0000
      172 V      6h3+       0.0000
      173 V      7h3+       0.0000
      174 V      6h4+       0.0000
      175 V      7h4+       0.0000
      176 V      6h5+       0.0000
      177 V      7h5+       0.0000
--


++    Molecular charges:
      ------------------

      Mulliken charges per centre and basis function type
      ---------------------------------------------------

                V     
      1s       2.0000
      2s       1.9998
      2px      1.9997
      2pz      1.9998
      2py      1.9998
      3s       1.4146
      3px      0.5413
      3pz      1.6577
      3py      0.0001
      4s       0.0153
      3d2+     0.0157
      3d1+     0.2335
      3d0      0.0041
      3d1-     0.0000
      3d2-     0.0000
      4px      0.0034
      4pz      0.0154
      4py      0.0286
      5s       0.3556
      4d2+     0.0019
      4d1+     0.0396
      4d0      0.0004
      4d1-     0.0000
      4d2-     0.0000
      5px      0.0035
      5pz      0.0374
      5py      0.0541
      6s       0.1823
      4f3+     0.0004
      4f2+     0.0037
      4f1+     0.0004
      4f0      0.0037
      4f1-     0.0000
      4f2-     0.0000
      4f3-     0.0000
      5d2+     0.0003
      5d1+     0.0009
      5d0      0.0001
      5d1-     0.0000
      5d2-     0.0000
      6px      0.0060
      6pz      0.0013
      6py      0.3669
      7s       0.4044
      5f3+     0.0000
      5f2+     0.0000
      5f1+     0.0000
      5f0      0.0001
      5f1-     0.0000
      5f2-     0.0000
      5f3-     0.0002
      6d2+     0.0011
      6d1+     0.0020
      6d0      0.0004
      6d1-     0.0000
      6d2-     0.0001
      7px      0.0034
      7pz      0.0000
      7py      0.3740
      5g4+     0.0003
      5g3+     0.0003
      5g2+     0.0002
      5g1+     0.0006
      5g0      0.0002
      5g1-     0.0000
      5g2-     0.0000
      5g3-     0.0000
      5g4-     0.0000
      6f3+     0.0001
      6f2+     0.0006
      6f1+     0.0001
      6f0      0.0003
      6f1-     0.0000
      6f2-     0.0000
      6f3-     0.0004
      6g4+     0.0001
      6g3+     0.0000
      6g2+     0.0000
      6g1+     0.0000
      6g0      0.0001
      6g1-     0.0000
      6g2-     0.0000
      6g3-     0.0000
      6g4-     0.0000
      6h5+     0.0002
      6h4+     0.0002
      6h3+     0.0001
      6h2+     0.0001
      6h1+     0.0001
      6h0      0.0001
      6h1-     0.0000
      6h2-     0.0000
      6h3-     0.0000
      6h4-     0.0000
      6h5-     0.0000
      7d2+     0.0008
      7d1+     0.0001
      7d0      0.0002
      7d1-     0.0001
      7d2-     0.0005
      7f3+     0.0000
      7f2+     0.0001
      7f1+     0.0000
      7f0      0.0001
      7f1-     0.0001
      7f2-     0.0000
      7f3-     0.0009
      7g4+     0.0001
      7g3+     0.0001
      7g2+     0.0001
      7g1+     0.0001
      7g0      0.0000
      7g1-     0.0000
      7g2-     0.0000
      7g3-     0.0000
      7g4-     0.0000
      7h5+     0.0001
      7h4+     0.0001
      7h3+     0.0000
      7h2+     0.0000
      7h1+     0.0001
      7h0      0.0000
      7h1-     0.0000
      7h2-     0.0000
      7h3-     0.0000
      7h4-     0.0000
      7h5-     0.0000
      8s       0.2328
      8px      0.0055
      8pz      0.0000
      8py      0.8247
      8d2+     0.0009
      8d1+     0.0002
      8d0      0.0003
      8d1-     0.0002
      8d2-     0.0009
      8f3+     0.0000
      8f2+     0.0001
      8f1+     0.0000
      8f0      0.0001
      8f1-     0.0001
      8f2-     0.0000
      8f3-     0.0015
      8g4+     0.0001
      8g3+     0.0000
      8g2+     0.0001
      8g1+     0.0000
      8g0      0.0000
      8g1-     0.0000
      8g2-     0.0000
      8g3-     0.0000
      8g4-     0.0001
      9s       0.6917
      9px      0.0024
      9pz      0.0001
      9py      0.3182
      9d2+     0.0006
      9d1+     0.0002
      9d0      0.0002
      9d1-     0.0002
      9d2-     0.0004
      9f3+     0.0000
      9f2+     0.0001
      9f1+     0.0000
      9f0      0.0001
      9f1-     0.0002
      9f2-     0.0000
      9f3-     0.0027
     10s       0.1092
     10px      0.0002
     10pz      0.0000
     10py      0.0247
     10d2+     0.0000
     10d1+     0.0000
     10d0      0.0000
     10d1-     0.0000
     10d2-     0.0000
      Total   18.0000

      N-E      5.0000

      Total electronic charge=   18.000000

      Total            charge=    5.000000
--

 Sorry, Molden does not know how to handle
 functions with angular momentum larger than g

++    Static properties:
      ------------------


      LoProp Charges per center


                   V     
      Nuclear     23.0000
      Electronic -18.0000

      Total        5.0000
--


++    Molecular properties:
      ---------------------

      Charge (e):
                      =    5.0000
      Dipole Moment (Debye):
      Origin of the operator (Ang)=    0.0000    0.0000    0.0000
                   X= -8.7397E+00               Y= -8.8204E-12               Z= -4.9968E-01           Total=  8.7539E+00
      Center of Charge (Ang)
                     X=   -0.36391020               Y=   -0.00000000               Z=   -0.02080597
      Quadrupole Moment (Debye*Ang):
      Origin of the operator (Ang)=   -0.0000   -0.0000    0.0046
                  XX= -2.1269E+02              XY=  2.5427E-12              XZ=  2.8266E-02              YY= -3.3871E+02
                  YZ= -1.9743E-09              ZZ= -2.1593E+02
      In traceless form (Debye*Ang)
                  XX=  6.4631E+01              XY=  3.8141E-12              XZ=  4.2399E-02              YY= -1.2440E+02
                  YZ= -2.9615E-09              ZZ=  5.9772E+01
--

 Sorry, Molden does not know how to handle
 functions with angular momentum larger than g
 ###############################################################################
 ###############################################################################
 ###                                                                         ###
 ###                                                                         ###
 ###    WARNING: RunFile label nBas                                          ###
 ###    was used       62 times                                              ###
 ###                                                                         ###
 ###                                                                         ###
 ###############################################################################
 ###############################################################################
Note: The following floating-point exceptions are signalling: IEEE_UNDERFLOW_FLAG IEEE_DENORMAL
--- Stop Module: scf at Wed Mar 26 11:51:25 2025 /rc=_RC_ALL_IS_WELL_ ---
*** files: vanadium_so_cf.LprOrb vanadium_so_cf.ScfOrb xmldump
    saved to directory /home4/s4752295/Internship/Initial_simulations/Point_charge_model/1_electron/Madelung_charges_9_active_space/V
--- Module scf spent 14 seconds ---

*** symbolic link created: INPORB -> vanadium_so_cf.ScfOrb
--- Start Module: rasscf at Wed Mar 26 11:51:26 2025 ---

()()()()()()()()()()()()()()()()()()()()()()()()()()()()()()()()()()()()()()()()()()()()()()()()()()

                                              &RASSCF

                                   only a single process is used
                       available to each process: 4.1 GB of memory, 1 thread?
                                            pid: 3349565
()()()()()()()()()()()()()()()()()()()()()()()()()()()()()()()()()()()()()()()()()()()()()()()()()()


      Header of the ONEINT file:
      --------------------------
      
      Integrals generated by seward 4.2.0  , Wed Mar 26 11:51:04 2025


      OrdInt status: non-squared


      Cartesian coordinates in Angstrom:
      -----------------------------------------------------
      No.  Label        X            Y            Z        
      -----------------------------------------------------
       1   V         -0.00000000  -0.00000000   0.00463220
      -----------------------------------------------------
      Nuclear repulsion energy = -350.71011256

++    Wave function specifications:
      -----------------------------

      Number of closed shell electrons          18
      Number of electrons in active shells       1
      Max number of holes in RAS1 space          0
      Max nr of electrons in RAS3 space          0
      Number of inactive orbitals                9
      Number of active orbitals                  9
      Number of secondary orbitals             159
      Spin quantum number                      0.5
      State symmetry                             1
--

++    Orbital specifications:
      -----------------------

      Symmetry species                           1
                                                 a
      Frozen orbitals                            0
      Inactive orbitals                          9
      Active orbitals                            9
      RAS1 orbitals                              0
      RAS2 orbitals                              9
      RAS3 orbitals                              0
      Secondary orbitals                       159
      Deleted orbitals                           0
      Number of basis functions                177
--

++    CI expansion specifications:
      ----------------------------

      Number of CSFs                             9
      Number of determinants                     9
      Number of root(s) required                 9
      Root chosen for geometry opt.              9
      CI roots used                              1     2     3     4     5     6     7     8     9
      weights                                0.111 0.111 0.111 0.111 0.111 0.111 0.111 0.111 0.111
      highest root included in the CI            9
      max. size of the explicit Hamiltonian      9
--

++    Optimization specifications:
      ----------------------------

      RASSCF algorithm: Conventional
      Maximum number of macro iterations       200
      Maximum number of SX iterations          100
      Threshold for RASSCF energy            0.100E-07
      Threshold for max MO rotation          0.100E+00
      Threshold for max BLB element          0.100E-03
      Level shift parameter                  0.500E+00
      Make Quasi-Newton update
--

      The MO-coefficients are taken from the file:
      INPORB                                                                                                                          
      Title: SCF orbitals                                                                  

      Total molecular charge    4.00

      ************************************************************************************************************************
      *                                                                                                                      *
      *                                            Wave function control section                                             *
      *                                                                                                                      *
      ************************************************************************************************************************


                                         RASSCF iterations: Energy and convergence statistics
                                         ----------------------------------------------------

      Iter CI   SX   CI       RASSCF       Energy    max ROT     max BLB   max BLB  Level Ln srch  Step   QN   Walltime
          iter iter root      energy       change     param      element    value   shift minimum  type update hh:mm:ss
 Nr of preliminary CI iterations:   1
      Total energies have been shifted. Add                -1000.00 au
        1   1    5    0   -21.89910104    0.00E+00  -0.13E-01    8  35 1 -0.11E+00*  0.35   0.00    SX    NO    0:00:03
        2   1    5    0   -21.90392896   -0.48E-02*  0.30E-02    8  35 1 -0.15E-01*  0.35   0.00    SX    NO    0:00:01
        3   1    5    0   -21.90405003   -0.12E-03*  0.14E-02    8  35 1 -0.35E-02*  0.35   0.00    SX    NO    0:00:01
        4   1    5    0   -21.90406200   -0.12E-04* -0.13E-02    8  10 1 -0.13E-02*  0.35   0.00    SX    NO    0:00:01
        5   1    5    0   -21.90406756   -0.56E-05* -0.99E-02    8  10 1 -0.13E-02*  0.35   2.50    QN   YES    0:00:01
        6   1    5    0   -21.90409130   -0.24E-04* -0.81E-02    8  35 1  0.18E-02*  0.35   1.40    QN   YES    0:00:01
        7   1    5    0   -21.90410502   -0.14E-04*  0.22E-01    8  35 1  0.19E-02*  0.35   2.50    QN   YES    0:00:01
        8   1    5    0   -21.90413594   -0.31E-04*  0.21E-01    8  35 1  0.16E-02*  0.35   1.56    QN   YES    0:00:01
        9   1    5    0   -21.90416108   -0.25E-04*  0.12E-01    8  10 1 -0.71E-03*  0.35   1.38    QN   YES    0:00:01
       10   1    5    0   -21.90418363   -0.23E-04*  0.87E-02    8  35 1 -0.62E-03*  0.35   1.62    QN   YES    0:00:01
       11   1    5    0   -21.90420291   -0.19E-04*  0.55E-02    8  35 1 -0.16E-02*  0.35   1.29    QN   YES    0:00:01
       12   1    5    0   -21.90421088   -0.80E-05*  0.41E-02    8  35 1 -0.83E-03*  0.35   1.39    QN   YES    0:00:01
       13   1    5    0   -21.90421543   -0.46E-05*  0.14E-02    8  35 1  0.17E-03*  0.35   1.23    QN   YES    0:00:01
       14   1    5    0   -21.90421673   -0.13E-05*  0.14E-02    8  35 1  0.27E-03*  0.35   1.30    QN   YES    0:00:01
       15   1    4    0   -21.90421726   -0.52E-06*  0.10E-02    8  35 1  0.16E-03*  0.35   1.45    QN   YES    0:00:01
       16   1    4    0   -21.90421753   -0.27E-06*  0.53E-03   17  34 1  0.53E-04   0.35   1.32    QN   YES    0:00:01
       17   1    4    0   -21.90421759   -0.66E-07* -0.11E-03    8  35 1 -0.57E-04   0.35   1.14    QN   YES    0:00:01
       18   1    4    0   -21.90421760   -0.83E-08  -0.61E-04    8  35 1 -0.14E-04   0.35   1.08    QN   YES    0:00:01
      Convergence after 18 iterations
       19   1    4    0   -21.90421760   -0.22E-08  -0.61E-04    8  12 1 -0.54E-05   0.35   1.08    QN   YES    0:00:01

      ************************************************************************************************************************
                                                      Wave function printout:
                       occupation of active orbitals, and spin coupling of open shells (u,d: Spin up or down)
      ************************************************************************************************************************

      Note: transformation to natural orbitals
      has been made, which may change the order of the CSFs.

      printout of CI-coefficients larger than  0.05 for root  1
      energy=   -1023.248977
      conf/sym  111111111     Coeff  Weight
             1  u00000000  -0.83032 0.68943
             2  0u0000000   0.05227 0.00273
             3  00u000000  -0.05584 0.00312
             7  000000u00   0.12015 0.01444
             8  0000000u0   0.53702 0.28839

      printout of CI-coefficients larger than  0.05 for root  2
      energy=   -1022.968126
[...]
         6   18       1.62700515E-02  2.13026675E+04  3.06894416E-14  7.85598780E+08  7.85620082E+08
         7    9       1.93618011E-02  1.26999020E+08  2.99807304E-15  1.89987228E+06  1.28898892E+08
         7   11       2.86284228E-01  4.30085513E-15  4.48894408E+09  7.47869755E-12  4.48894408E+09
         7   13       2.92479433E-01  1.14072036E+06  6.36648302E-12  4.60275579E+09  4.60389651E+09
         7   15       2.73290404E-03  7.05309641E-15  5.01312820E+07  5.66942949E-16  5.01312820E+07
         7   17       1.70931737E-03  1.07281574E+05  5.58471947E-18  3.18888364E+07  3.19961180E+07
         8   10       1.93618011E-02  1.26999020E+08  2.99807304E-15  1.89987228E+06  1.28898892E+08
         8   12       2.86284228E-01  4.30085513E-15  4.48894408E+09  7.47869755E-12  4.48894408E+09
         8   14       2.92479433E-01  1.14072036E+06  6.36648302E-12  4.60275579E+09  4.60389651E+09
         8   16       2.73290404E-03  7.05309641E-15  5.01312820E+07  5.66942949E-16  5.01312820E+07
         8   18       1.70931737E-03  1.07281574E+05  5.58471947E-18  3.18888364E+07  3.19961180E+07
         9   11       5.21279187E-01  1.86363080E-16  9.92164593E+08  1.64295665E-12  9.92164593E+08
         9   13       5.64892564E-01  4.18210981E+05  1.48061393E-12  1.08676403E+09  1.08718224E+09
         9   15       1.41684178E-02  2.78273707E-17  4.10794081E+07  3.71583751E-19  4.10794081E+07
         9   17       1.12574712E-02  1.21068477E+04  2.72709140E-16  3.43188843E+07  3.43309911E+07
        10   12       5.21279187E-01  1.86363080E-16  9.92164593E+08  1.64295665E-12  9.92164593E+08
        10   14       5.64892564E-01  4.18210981E+05  1.48061393E-12  1.08676403E+09  1.08718224E+09
        10   16       1.41684178E-02  2.78273707E-17  4.10794081E+07  3.71583751E-19  4.10794081E+07
        10   18       1.12574712E-02  1.21068477E+04  2.72709140E-16  3.43188843E+07  3.43309911E+07
        11   13       1.75085048E-03  3.32649271E-23  1.03325738E+02  5.60363934E-19  1.03325738E+02
        11   15       3.98694070E-03  2.94541854E+05  1.45811060E-16  1.21774863E+05  4.16316717E+05
        11   17       8.89777004E-04  4.09863806E-16  1.19650323E+05  1.64656112E-16  1.19650323E+05
        12   14       1.75085048E-03  3.32649271E-23  1.03325738E+02  5.60363934E-19  1.03325738E+02
        12   16       3.98694070E-03  2.94541854E+05  1.45811060E-16  1.21774863E+05  4.16316717E+05
        12   18       8.89777004E-04  4.09863806E-16  1.19650323E+05  1.64656112E-16  1.19650323E+05
        13   15       1.12405284E-03  4.09577847E-16  1.11859339E+05  2.01889972E-16  1.11859339E+05
        13   17       2.98111334E-03  3.01655898E+05  1.97401945E-16  8.26011242E+04  3.84257022E+05
        14   16       1.12405284E-03  4.09577847E-16  1.11859339E+05  2.01889972E-16  1.11859339E+05
        14   18       2.98111334E-03  3.01655898E+05  1.97401945E-16  8.26011242E+04  3.84257022E+05
        15   17       1.72917267E-05  4.69592017E-23  3.28160372E+01  2.01777745E-22  3.28160372E+01
        16   18       1.72917267E-05  4.69592017E-23  3.28160372E+01  2.01777745E-22  3.28160372E+01
     -----------------------------------------------------------------------------------------------
--

++ Velocity transition strengths (SO states):
   ------------------------------------------
    for osc. strength at least    1.0000000000000001E-005

      From   To        Osc. strength     Einstein coefficients Ax, Ay, Az (sec-1)    Total A (sec-1)
     -----------------------------------------------------------------------------------------------
         1    5       2.58767622E-04  6.17927523E+01  2.00077607E-15  5.46187264E+06  5.46193444E+06
         1    7       5.25559341E-03  1.29889373E+03  6.88939127E-14  2.73707893E+08  2.73709192E+08
         1    9       9.78808080E-03  5.38353404E+00  2.28397547E-13  9.39436191E+08  9.39436196E+08
         1   11       1.28506114E-03  9.21057317E-16  1.60520245E+08  9.54897853E-14  1.60520245E+08
         1   13       1.17773210E-03  4.25258263E+05  8.16463231E-14  1.46890551E+08  1.47315809E+08
         1   15       1.35563184E-03  9.18591060E-15  1.79268879E+08  7.72342078E-14  1.79268879E+08
         1   17       1.46385570E-03  1.17735023E+07  7.88679056E-14  1.83276366E+08  1.95049868E+08
         2    6       2.58767622E-04  6.17927523E+01  2.00077607E-15  5.46187264E+06  5.46193444E+06
         2    8       5.25559341E-03  1.29889373E+03  6.88939127E-14  2.73707893E+08  2.73709192E+08
         2   10       9.78808080E-03  5.38353404E+00  2.28397547E-13  9.39436191E+08  9.39436196E+08
         2   12       1.28506114E-03  9.21057317E-16  1.60520245E+08  9.54897853E-14  1.60520245E+08
         2   14       1.17773210E-03  4.25258263E+05  8.16463231E-14  1.46890551E+08  1.47315809E+08
         2   16       1.35563184E-03  9.18591060E-15  1.79268879E+08  7.72342078E-14  1.79268879E+08
         2   18       1.46385570E-03  1.17735023E+07  7.88679056E-14  1.83276366E+08  1.95049868E+08
         3    5       1.12021358E-02  2.73043051E-17  1.00975937E+08  4.46506752E-14  1.00975937E+08
         3    9       6.00664416E-05  6.88032342E-16  4.04365284E+06  6.91533501E-15  4.04365284E+06
         3   11       4.34234900E-03  5.94224662E+07  5.52413075E-14  3.39474662E+08  3.98897128E+08
         3   13       2.72356830E-03  1.96668824E-13  2.50593824E+08  1.67394894E-13  2.50593824E+08
         3   15       1.69575360E-01  2.26400039E+09  4.33045137E-12  1.43816461E+10  1.66456465E+10
         3   17       1.42242113E-01  1.27233047E-12  1.40856509E+10  6.08034123E-12  1.40856509E+10
         4    6       1.12021358E-02  2.73043051E-17  1.00975937E+08  4.46506752E-14  1.00975937E+08
         4   10       6.00664416E-05  6.88032342E-16  4.04365284E+06  6.91533501E-15  4.04365284E+06
         4   12       4.34234900E-03  5.94224662E+07  5.52413075E-14  3.39474662E+08  3.98897128E+08
         4   14       2.72356830E-03  1.96668824E-13  2.50593824E+08  1.67394894E-13  2.50593824E+08
         4   16       1.69575360E-01  2.26400039E+09  4.33045137E-12  1.43816461E+10  1.66456465E+10
         4   18       1.42242113E-01  1.27233047E-12  1.40856509E+10  6.08034123E-12  1.40856509E+10
         5    7       1.28563315E-04  8.83947786E+05  5.62032386E-17  1.33223262E+02  8.84081010E+05
         5    9       5.30460028E-05  1.43549171E+06  2.34445138E-16  2.65857922E+02  1.43575757E+06
         5   11       8.46563705E-04  2.62798023E-18  3.66769955E+07  3.30414805E-14  3.66769955E+07
         5   13       6.06004209E-04  9.45296574E+04  5.90190067E-14  2.62216534E+07  2.63161831E+07
         5   15       1.94230077E-02  1.12926902E-14  9.26145339E+08  2.32878317E-15  9.26145339E+08
         5   17       1.61485773E-02  1.15435790E+07  2.31639988E-14  7.68213682E+08  7.79757261E+08
         6    8       1.28563315E-04  8.83947786E+05  5.62032386E-17  1.33223262E+02  8.84081010E+05
         6   10       5.30460028E-05  1.43549171E+06  2.34445138E-16  2.65857922E+02  1.43575757E+06
         6   12       8.46563705E-04  2.62798023E-18  3.66769955E+07  3.30414805E-14  3.66769955E+07
         6   14       6.06004209E-04  9.45296574E+04  5.90190067E-14  2.62216534E+07  2.63161831E+07
         6   16       1.94230077E-02  1.12926902E-14  9.26145339E+08  2.32878317E-15  9.26145339E+08
         6   18       1.61485773E-02  1.15435790E+07  2.31639988E-14  7.68213682E+08  7.79757261E+08
         7    9       2.57763905E-02  1.71597973E+08  8.55837397E-18  5.88317840E+03  1.71603856E+08
         7   11       2.20110986E-03  1.10559000E-16  3.45135794E+07  5.49144151E-14  3.45135794E+07
         7   13       2.25099470E-03  1.24640178E+05  5.08331609E-14  3.53082194E+07  3.54328596E+07
         7   15       1.08668448E-05  1.10180484E-16  1.99337681E+05  2.04666244E-16  1.99337681E+05
         8   10       2.57763905E-02  1.71597973E+08  8.55837397E-18  5.88317840E+03  1.71603856E+08
         8   12       2.20110986E-03  1.10559000E-16  3.45135794E+07  5.49144151E-14  3.45135794E+07
         8   14       2.25099470E-03  1.24640178E+05  5.08331609E-14  3.53082194E+07  3.54328596E+07
         8   16       1.08668448E-05  1.10180484E-16  1.99337681E+05  2.04666244E-16  1.99337681E+05
         9   11       1.76061424E-02  8.47926585E-18  3.35103573E+07  5.17750456E-14  3.35103573E+07
         9   13       1.79054531E-02  8.36968377E+02  5.05856521E-14  3.44598013E+07  3.44606383E+07
         9   15       3.52264039E-04  6.39000165E-19  1.02134541E+06  3.17998078E-17  1.02134541E+06
         9   17       2.49943469E-04  2.68896930E+02  6.33182118E-18  7.61965951E+05  7.62234848E+05
        10   12       1.76061424E-02  8.47926585E-18  3.35103573E+07  5.17750456E-14  3.35103573E+07
        10   14       1.79054531E-02  8.36968377E+02  5.05856521E-14  3.44598013E+07  3.44606383E+07
        10   16       3.52264039E-04  6.39000165E-19  1.02134541E+06  3.17998078E-17  1.02134541E+06
        10   18       2.49943469E-04  2.68896930E+02  6.33182118E-18  7.61965951E+05  7.62234848E+05
        11   13       1.11535048E-02  1.19238751E-21  6.58221899E+02  3.36351104E-20  6.58221899E+02
        11   15       8.07199132E-04  6.80089906E+04  8.58981000E-18  1.62791105E+04  8.42881012E+04
        11   17       2.35157753E-04  5.72626210E-17  3.16223039E+04  2.40223406E-17  3.16223039E+04
        12   14       1.11535048E-02  1.19238751E-21  6.58221899E+02  3.36351104E-20  6.58221899E+02
        12   16       8.07199132E-04  6.80089906E+04  8.58981000E-18  1.62791105E+04  8.42881012E+04
        12   18       2.35157753E-04  5.72626210E-17  3.16223039E+04  2.40223406E-17  3.16223039E+04
        13   15       9.91486868E-05  9.17229983E-17  9.86674718E+03  3.07307280E-17  9.86674718E+03
        13   17       6.34857307E-04  6.87063777E+04  3.12797470E-17  1.31252060E+04  8.18315837E+04
        14   16       9.91486868E-05  9.17229983E-17  9.86674718E+03  3.07307280E-17  9.86674718E+03
        14   18       6.34857307E-04  6.87063777E+04  3.12797470E-17  1.31252060E+04  8.18315837E+04
        15   17       6.44078765E-05  4.36960048E-18  1.22232942E+02  3.22996815E-18  1.22232942E+02
        16   18       6.44078765E-05  4.36960048E-18  1.22232942E+02  3.22996815E-18  1.22232942E+02
     -----------------------------------------------------------------------------------------------
--

++ Length and velocity gauge comparison (SO states):

 --------------------------------------------------
 A comparison between the dipole oscillator strengths in 
 length and velocity gauge will be performed

 All dipole oscillator differences above the tolerance of   0.10000000000000001       will be printed 

 Due to basis set deficiency these oscillator may be problematic 

 The tolerance is defined as ABS(1-O_l/O_v) 
 O_l : dipole oscillator strength in length gauge
 O_p : dipole oscillator strength in velocity gauge
 --------------------------------------------------

  Problematic transitions have been found

      From   To       Difference (%) Osc. st. (len.) Osc. st. (vel.)
     ---------------------------------------------------------------
         1    5            90.605833  2.43090631E-05  2.58767622E-04
         1    7         52843.632683  2.78250207E+00  5.25559341E-03
         1    9         38868.630759  3.81428106E+00  9.78808080E-03
         1   11        337900.624412  4.34351467E+00  1.28506114E-03
         1   13        355006.759622  4.18220629E+00  1.17773210E-03
         1   15          6546.042918  9.00958738E-02  1.35563184E-03
         1   17          4050.726372  6.07606447E-02  1.46385570E-03
         2    6            90.605833  2.43090631E-05  2.58767622E-04
         2    8         52843.632683  2.78250207E+00  5.25559341E-03
         2   10         38868.630759  3.81428106E+00  9.78808080E-03
         2   12        337900.624412  4.34351467E+00  1.28506114E-03
         2   14        355006.759622  4.18220629E+00  1.17773210E-03
         2   16          6546.042918  9.00958738E-02  1.35563184E-03
         2   18          4050.726372  6.07606447E-02  1.46385570E-03
         3    5            33.399758  1.49436221E-02  1.12021358E-02
         3    7      ---------------  4.32173718E-05 below threshold
         3    9           134.820425  1.41048274E-04  6.00664416E-05
         3   13            20.479187  3.28133295E-03  2.72356830E-03
         3   17            19.585807  1.70101378E-01  1.42242113E-01
         4    6            33.399758  1.49436221E-02  1.12021358E-02
         4    8      ---------------  4.32173718E-05 below threshold
         4   10           134.820425  1.41048274E-04  6.00664416E-05
         4   14            20.479187  3.28133295E-03  2.72356830E-03
         4   18            19.585807  1.70101378E-01  1.42242113E-01
         5    7           109.032835  2.68739542E-04  1.28563315E-04
         5    9            60.989432  8.53984585E-05  5.30460028E-05
         5   11            30.396400  5.89238814E-04  8.46563705E-04
         5   13            36.399173  3.85423687E-04  6.06004209E-04
         6    8           109.032835  2.68739542E-04  1.28563315E-04
         6   10            60.989432  8.53984585E-05  5.30460028E-05
         6   12            30.396400  5.89238814E-04  8.46563705E-04
         6   14            36.399173  3.85423687E-04  6.06004209E-04
         7    9            24.885522  1.93618011E-02  2.57763905E-02
         7   11         12906.357986  2.86284228E-01  2.20110986E-03
         7   13         12893.341703  2.92479433E-01  2.25099470E-03
         7   15         25049.011441  2.73290404E-03  1.08668448E-05
         7   17      ---------------  1.70931737E-03 below threshold
         8   10            24.885522  1.93618011E-02  2.57763905E-02
         8   12         12906.357986  2.86284228E-01  2.20110986E-03
         8   14         12893.341703  2.92479433E-01  2.25099470E-03
         8   16         25049.011441  2.73290404E-03  1.08668448E-05
         8   18      ---------------  1.70931737E-03 below threshold
         9   11          2860.780258  5.21279187E-01  1.76061424E-02
         9   13          3054.863276  5.64892564E-01  1.79054531E-02
         9   15          3922.101678  1.41684178E-02  3.52264039E-04
         9   17          4404.006947  1.12574712E-02  2.49943469E-04
        10   12          2860.780258  5.21279187E-01  1.76061424E-02
        10   14          3054.863276  5.64892564E-01  1.79054531E-02
        10   16          3922.101678  1.41684178E-02  3.52264039E-04
        10   18          4404.006947  1.12574712E-02  2.49943469E-04
        11   13            84.302239  1.75085048E-03  1.11535048E-02
        11   15           393.922818  3.98694070E-03  8.07199132E-04
        11   17           278.374513  8.89777004E-04  2.35157753E-04
        12   14            84.302239  1.75085048E-03  1.11535048E-02
        12   16           393.922818  3.98694070E-03  8.07199132E-04
        12   18           278.374513  8.89777004E-04  2.35157753E-04
        13   15          1033.704209  1.12405284E-03  9.91486868E-05
        13   17           369.572187  2.98111334E-03  6.34857307E-04
        14   16          1033.704209  1.12405284E-03  9.91486868E-05
        14   18           369.572187  2.98111334E-03  6.34857307E-04
        15   17            73.152776  1.72917267E-05  6.44078765E-05
        16   18            73.152776  1.72917267E-05  6.44078765E-05
     ---------------------------------------------------------------

 Number of problematic transitions =                    62

--

 Electric-dipole - electric-octupole not included
++ Total transition strengths for the second-order expansion of the wave vector (SO states):
   -----------------------------------------------------------------------------------------
    for osc. strength at least    1.0000000000000001E-005

      From   To        Osc. strength
     -------------------------------
         1    7       4.19126282E-03
         1    9       3.07048277E-03
         1   11       1.29408243E-04
         1   13       1.59564341E-04
         2    8       4.19126282E-03
         2   10       3.07048277E-03
         2   12       1.29408243E-04
         2   14       1.59564341E-04
         7    9       1.00562175E-04
         7   11       1.60305932E-04
         7   13       1.62698076E-04
         8   10       1.00562175E-04
         8   12       1.60305932E-04
         8   14       1.62698076E-04
         9   11       1.07644863E-05
         9   13       1.10943345E-05
        10   12       1.07644863E-05
        10   14       1.10943345E-05
     -------------------------------
--

++ I/O STATISTICS
 
  I. General I/O information
  - - - - - - - - - - - - - - - - - - - - - - - - - - - - - - - - - - - - - - - - - - -
  Unit  Name          Flsize      Write/Read            MBytes           Write/Read
                      (MBytes)       Calls              In/Out           Time, sec.
  - - - - - - - - - - - - - - - - - - - - - - - - - - - - - - - - - - - - - - - - - - -
   1  SCRATCH           0.00 .       9/      45 .      0.0/      0.0 .       0/       0
   2  ANNI              0.00 .       0/       0 .      0.0/      0.0 .       0/       0
   3  RUNFILE          14.82 .     322/   10733 .      2.3/     77.8 .       0/       0
   4  ONEINT            5.45 .       0/   23543 .      0.0/   3734.6 .       0/       0
   5  JOBIPH            6.30 .       0/      92 .      0.0/      0.8 .       0/       0
   6  ORDINT          473.53 .       1/    3789 .      0.0/    947.0 .       0/       0
  - - - - - - - - - - - - - - - - - - - - - - - - - - - - - - - - - - - - - - - - - - -
   *  TOTAL           500.11 .     332/   38202 .      2.3/   4760.2 .       0/       0
  - - - - - - - - - - - - - - - - - - - - - - - - - - - - - - - - - - - - - - - - - - -
 
  II. I/O Access Patterns
  - - - - - - - - - - - - - - - - - - - -
  Unit  Name               % of random
                         Write/Read calls
  - - - - - - - - - - - - - - - - - - - -
   1  SCRATCH             88.9/ 100.0
   2  ANNI                 0.0/   0.0
   3  RUNFILE             28.6/  10.8
   4  ONEINT               0.0/  16.4
   5  JOBIPH               0.0/  76.1
   6  ORDINT             100.0/   0.1
  - - - - - - - - - - - - - - - - - - - -
--
--- Stop Module: rassi at Wed Mar 26 11:52:13 2025 /rc=_RC_ALL_IS_WELL_ ---
*** files: xmldump
    saved to directory /home4/s4752295/Internship/Initial_simulations/Point_charge_model/1_electron/Madelung_charges_9_active_space/V
--- Module rassi spent 2 seconds ---

.##################.
.# Happy landing! #.
.##################.

    Timing: Wall=69.04 User=56.25 System=11.87

###############################################################################
Hbrk Cluster
Job 15905617 for user s4752295
Finished at: Wed Mar 26 11:52:17 CET 2025

Job details:
============

Job ID                         : 15905617
Name                           : V_no_SO
User                           : s4752295
Partition                      : regularmedium
Nodes                          : node92
Number of Nodes                : 1
Cores                          : 1
Number of Tasks                : 1
State                          : COMPLETED  
Submit                         : 2025-03-26T11:49:47
Start                          : 2025-03-26T11:51:00
End                            : 2025-03-26T11:52:13
Reserved walltime              : 15:00:00
Used walltime                  : 00:01:13
Used CPU time                  : 00:01:09 (Efficiency: 94.87%)
% User (Computation)           : 82.57%
% System (I/O)                 : 17.43%
Total memory reserved          : 25000M
Maximum memory used            : 1.90G

Acknowledgements:
=================

Please see this page for information about acknowledging Hbrk in your publications:

https://wiki.hpc.rug.nl/habrok/introduction/scientific_output

################################################################################
