   This run of MOLCAS is using the pymolcas driver

                             OPE
                             OPE          NMOL  CASOP  ENMOLC A   SO
                 OPE        NMOLC        AS  OP EN  MO LC     AS  OP
                OPENM       OL CA        SO  PE NM  OL CA     SOP EN
                OP EN      MO   LC       AS  OP ENMOL  CASO   PENMOL
                OP  EN     MO   LC       AS  OP EN     MO     LC ASO
               OP   E  NMOL  C  AS       OP  EN MO     LC     AS  OP
               OP  E   NMO   LC AS        OPEN  MO     LCASOP EN   M
               O  PEN   MO  LCA  SO
            OPE   NMO   L   CAS    OP
        OPENMOL  CASOP     ENMOL   CASOPE
     OPENMOLCA   SOPENMOLCASOPEN   MOLCASOPE
    OPENMOLCAS   OP           EN   MOL    CAS
    OPENMOLCAS       OP  ENM        O     LCA
    OPENMOLCAS    OPEN  MOLCASO     P  E  NMO
    OPENMOLCAS     OP               E  N  MOL
    OPENMOLCA   SO           PENM   O  L  CAS    OPEN    MO    LCAS
    OPENMOLCA   SOP           ENM   O  L  CAS   OP  EN  MOLC  AS   O
    OPENMOLCA   SOPE           NM      O  LCA   S      OP  EN MO
    OPENMOLC                AS         O  PEN   M      OL  CA  SOPE
    OPENMO        LCASOPE  NMOL        C  ASO   P      ENMOLC     AS
    OPE     NMO      LCA  SO     P     E   NM   OL  CA SO  PE N   MO
          OPENMOLCA            SOPE   NMO        LCAS  O    P  ENMO
     OPENMOLCASOPENMOLCASOPENMOLCASOPENMOLCA
        OPENMOLCASOPENMOLCASOPENMOLCASOPE
            OPENMOLCASOPENMOLCASOPENM
               OPENMOLCASOPENMOLCA        version: o91e1abe7de707b ?
                   OPENMOLCASO
                       OPE                tag:

 OpenMolcas is free software; you can redistribute it and/or modify it
 under the terms of the GNU Lesser General Public License version 2.1.
 OpenMolcas is distributed in the hope that it will be useful, but it
 is provided "as is" and without any express or implied warranties.
 For more details see the full text of the license in the file
 LICENSE or in <http://www.gnu.org/licenses/>.

                 Copyright (C) The OpenMolcas Authors
           For the author list and the recommended citation,
                   consult the file CONTRIBUTORS.md

           *************************************************
           * pymolcas version py2.10                       *
           *   build 3068ae8b88c9345ec6cfef6fef7f1169      *
           *   (after the EMIL interpreter by V. Veryazov) *
           *************************************************

configuration info
------------------
Host name: login1 (Linux)
C Compiler ID: GNU
C flags: -std=gnu99
Fortran Compiler ID: GNU
Fortran flags: -fno-aggressive-loop-optimizations -cpp -fdefault-integer-8 -fmax-stack-var-size=1048576
Definitions: _MOLCAS_;_I8_;_LINUX_;_MKL_
Parallel: OFF (GA=OFF)


   -----------------------------------------------------------------------------------------------------------------------------------------------------
  |
  |           Project: vanadium_so_cf
  |    Submitted from: /home4/s4752295/Internship/Initial_simulations/Point_charge_model/1_electron/Madelung_charges_9_active_space/V/fixed_calculations
  |      Scratch area: /tmp/vanadium_so_cf
  |   Save outputs to: /home4/s4752295/Internship/Initial_simulations/Point_charge_model/1_electron/Madelung_charges_9_active_space/V/fixed_calculations
  |            Molcas: /home4/s4752295/Internship/Molcas/recomp_try/OpenMolcas-master/build
  |
  | Scratch area is empty
  |
  |    MOLCAS_DRIVER = /home4/s4752295/Internship/Molcas/bin/pymolcas
  |    MOLCAS_NPROCS = 1
  |    MOLCAS_SOURCE = /home4/s4752295/Internship/Molcas/recomp_try/OpenMolcas-master
  | MOLCAS_STRUCTURE = 0
  |
   -----------------------------------------------------------------------------------------------------------------------------------------------------

++ ---------   Input file   ---------

&SEWARD
AMFi

CLIG
$R

Basis Set
V.ANO-rcc.Roos.21s15p10d6f4g2h.10s9p8d6f4g2h.
Spherical d
V            -1.0658140267135469e-14    -3.5527134223784897e-15 0.008753588724385739
End of Basis

Xfield

414
-4.00220108,-1.54,0.889119      -0.625931
-4.00220108,-0.0,-1.778239      -0.625931
-4.00220108,1.54,0.889119       -0.625931
-3.99534607,0.0,0.0     1.892092
2.65917969,-1.54,-0.889119      2.515516
2.65917969,0.0,1.778239 2.515516
2.65917969,1.54,-0.889119       2.515516
3.56298828,-3.08,0.0    0.004632
3.56298828,-1.54,-2.667358      0.004632
3.56298828,-1.54,2.667358       0.004632
3.56298828,1.54,-2.667358       0.004632
3.56298828,1.54,2.667358        0.004632
3.56298828,3.08,0.0     0.004632
4.12915039,-1.54,0.889119       -2.519484
4.12915039,-0.0,-1.778239       -2.519484
4.12915039,1.54,0.889119        -2.519484
-2.93310547,-0.0,-0.0   -3.142907
-4.97509766,-3.08,-1.778239     -0.625931
-4.97509766,0.0,3.556477        -0.625931
-4.97509766,3.08,-1.778239      -0.625931
-6.609375,-3.08,0.0     1.892092
-6.609375,-1.54,-2.667358       1.892092
-6.609375,-1.54,2.667358        1.892092
-6.609375,1.54,-2.667358        1.892092
-6.609375,1.54,2.667358 1.892092
-6.609375,3.08,0.0      1.892092
25.171875,-3.08,1.778239        2.515516
25.171875,-0.0,-3.556477        2.515516
25.171875,3.08,1.778239 2.515516
3.63867188,-3.08,-1.778239      -2.519484
3.63867188,0.0,3.556477 -2.519484
3.63867188,3.08,-1.778239       -2.519484
-3.23242188,-3.08,-0.0  -3.142907
-3.23242188,-1.54,-2.667358     -3.142907
-3.23242188,-1.54,2.667358      -3.142907
-3.23242188,1.54,-2.667358      -3.142907
-3.23242188,1.54,2.667358       -3.142907
-3.23242188,3.08,-0.0   -3.142907
-9.5234375,-3.08,3.556477       -0.625931
-9.5234375,3.08,3.556477        -0.625931
-9.5234375,-4.62,0.889119       -0.625931
-9.5234375,4.62,0.889119        -0.625931
-9.5234375,-1.54,-4.445597      -0.625931
-9.5234375,1.54,-4.445597       -0.625931
6.0078125,-1.54,-0.889119       4.409069
6.0078125,1.54,-0.889119        4.409069
6.0078125,0.0,1.778239  4.409069
-175.25,-0.0,-0.0       -5.030367
-175.25,0.0,0.0 5.039632
13.51757812,-3.08,-3.556477     2.515516
13.51757812,3.08,-3.556477      2.515516
13.51757812,-4.62,-0.889119     2.515516
13.51757812,4.62,-0.889119      2.515516
13.51757812,-1.54,4.445597      2.515516
13.51757812,1.54,4.445597       2.515516
19.0390625,-4.62,-2.667358      0.004632
19.0390625,-4.62,2.667358       0.004632
19.0390625,4.62,-2.667358       0.004632
19.0390625,4.62,2.667358        0.004632
19.0390625,-0.0,-5.334716       0.004632
19.0390625,0.0,5.334716 0.004632
48.078125,-3.08,3.556477        -2.519484
48.078125,3.08,3.556477 -2.519484
48.078125,-4.62,0.889119        -2.519484
48.078125,4.62,0.889119 -2.519484
48.078125,-1.54,-4.445597       -2.519484
48.078125,1.54,-4.445597        -2.519484
-145.875,-4.62,-2.667358        1.892092
-145.875,-4.62,2.667358 1.892092
-145.875,4.62,-2.667358 1.892092
-145.875,4.62,2.667358  1.892092
-145.875,-0.0,-5.334716 1.892092
-145.875,0.0,5.334716   1.892092
-117.75,-3.08,1.778239  4.409069
-117.75,-0.0,-3.556477  4.409069
-117.75,3.08,1.778239   4.409069
-89.0,-3.08,-0.0        -5.030367
-89.0,-1.54,-2.667358   -5.030367
-89.0,-1.54,2.667358    -5.030367
-89.0,1.54,-2.667358    -5.030367
-89.0,-3.08,0.0 5.039632
-89.0,3.08,-0.0 -5.030367
-89.0,1.54,2.667358     -5.030367
-89.0,-1.54,-2.667358   5.039632
-89.0,-1.54,2.667358    5.039632
-89.0,1.54,-2.667358    5.039632
-89.0,3.08,0.0  5.039632
-89.0,1.54,2.667358     5.039632
-46.625,-1.54,-0.889119 -5.660931
-46.625,0.0,1.778239    -5.660931
-46.625,1.54,-0.889119  -5.660931
0.8828125,-6.159999,0.0 0.004632
0.8828125,-3.08,-5.334716       0.004632
0.8828125,-3.08,5.334716        0.004632
0.8828125,3.08,-5.334716        0.004632
0.8828125,6.159999,0.0  0.004632
0.8828125,3.08,5.334716 0.004632
67.9375,-4.62,2.667358  -3.142907
67.9375,-4.62,-2.667358 -3.142907
67.9375,4.62,-2.667358  -3.142907
67.9375,4.62,2.667358   -3.142907
67.9375,-0.0,-5.334716  -3.142907
67.9375,0.0,5.334716    -3.142907
86.375,-6.159999,-1.778239      -0.625931
86.375,-4.62,-4.445597  -0.625931
86.375,-1.54,6.223835   -0.625931
86.375,4.62,-4.445597   -0.625931
86.375,6.159999,-1.778239       -0.625931
86.375,1.54,6.223835    -0.625931
1.19726562,-6.159999,0.0        1.892092
1.19726562,-3.08,-5.334716      1.892092
1.19726562,-3.08,5.334716       1.892092
1.19726562,3.08,-5.334716       1.892092
1.19726562,6.159999,0.0 1.892092
1.19726562,3.08,5.334716        1.892092
33.84375,-3.08,-3.556477        4.409069
33.84375,3.08,-3.556477 4.409069
33.84375,-4.62,-0.889119        4.409069
33.84375,4.62,-0.889119 4.409069
33.84375,-1.54,4.445597 4.409069
33.84375,1.54,4.445597  4.409069
162.40625,-3.08,1.778239        -5.660931
162.40625,-0.0,-3.556477        -5.660931
162.40625,3.08,1.778239 -5.660931
0.34375,-6.159999,1.778239      2.515516
0.34375,-1.54,-6.223835 2.515516
0.34375,-4.62,4.445597  2.515516
0.34375,1.54,-6.223835  2.515516
0.34375,6.159999,1.778239       2.515516
0.34375,4.62,4.445597   2.515516
-94.1875,-6.159999,-1.778239    -2.519484
-94.1875,-4.62,-4.445597        -2.519484
-94.1875,-1.54,6.223835 -2.519484
-94.1875,4.62,-4.445597 -2.519484
-94.1875,1.54,6.223835  -2.519484
-94.1875,6.159999,-1.778239     -2.519484
-22.0703125,-6.159999,-0.0      -3.142907
-22.0703125,-3.08,-5.334716     -3.142907
-22.0703125,-3.08,5.334716      -3.142907
-22.0703125,3.08,-5.334716      -3.142907
-22.0703125,3.08,5.334716       -3.142907
-22.0703125,6.159999,-0.0       -3.142907
606.5,0.0,0.0   6.927092
323.25,-6.159999,3.556477       -0.625931
323.25,6.159999,3.556477        -0.625931
323.25,-0.0,-7.112955   -0.625931
-5.421875,-4.62,2.667358        -5.030367
-5.421875,-4.62,-2.667358       -5.030367
-5.421875,-4.62,2.667358        5.039632
-5.421875,-4.62,-2.667358       5.039632
-5.421875,4.62,-2.667358        -5.030367
-5.421875,4.62,2.667358 -5.030367
-5.421875,4.62,-2.667358        5.039632
-5.421875,4.62,2.667358 5.039632
-5.421875,-0.0,-5.334716        -5.030367
-5.421875,0.0,5.334716  -5.030367
-5.421875,-0.0,-5.334716        5.039632
-5.421875,0.0,5.334716  5.039632
91.8125,-3.08,-3.556477 -5.660931
91.8125,3.08,-3.556477  -5.660931
91.8125,-4.62,-0.889119 -5.660931
91.8125,4.62,-0.889119  -5.660931
91.8125,-1.54,4.445597  -5.660931
91.8125,1.54,4.445597   -5.660931
300.5,-6.159999,-3.556477       2.515516
300.5,6.159999,-3.556477        2.515516
300.5,0.0,7.112955      2.515516
-517.25,-6.159999,3.556477      -2.519484
-517.25,6.159999,3.556477       -2.519484
-517.25,-0.0,-7.112955  -2.519484
53.5625,-3.08,0.0       6.927092
53.5625,-1.54,-2.667358 6.927092
53.5625,-1.54,2.667358  6.927092
53.5625,1.54,-2.667358  6.927092
53.5625,1.54,2.667358   6.927092
53.5625,3.08,0.0        6.927092
-55.25,-1.54,0.889119   7.550516
-55.25,0.0,-1.778239    7.550516
-55.25,1.54,0.889119    7.550516
15.53125,-1.54,-0.889119        -7.554483
15.53125,1.54,-0.889119 -7.554483
15.53125,-0.0,1.778239  -7.554483
-124.875,-7.699999,0.889119     -0.625931
-124.875,-4.62,6.223835 -0.625931
-124.875,-3.08,-7.112955        -0.625931
-124.875,3.08,-7.112955 -0.625931
-124.875,7.699999,0.889119      -0.625931
-124.875,4.62,6.223835  -0.625931
-67.4375,-6.159999,1.778239     4.409069
-67.4375,-4.62,4.445597 4.409069
-67.4375,-1.54,-6.223835        4.409069
-67.4375,1.54,-6.223835 4.409069
-67.4375,4.62,4.445597  4.409069
-67.4375,6.159999,1.778239      4.409069
49.15625,-6.159999,-0.0 -5.030367
49.15625,-3.08,-5.334716        -5.030367
49.15625,-3.08,5.334716 -5.030367
49.15625,-6.159999,0.0  5.039632
49.15625,-3.08,-5.334716        5.039632
49.15625,3.08,-5.334716 -5.030367
49.15625,3.08,5.334716  -5.030367
49.15625,6.159999,-0.0  -5.030367
49.15625,-3.08,5.334716 5.039632
49.15625,3.08,-5.334716 5.039632
49.15625,6.159999,0.0   5.039632
49.15625,3.08,5.334716  5.039632
180.75,-7.699999,-0.889119      2.515516
180.75,-4.62,-6.223835  2.515516
180.75,-3.08,7.112955   2.515516
180.75,4.62,-6.223835   2.515516
180.75,7.699999,-0.889119       2.515516
180.75,3.08,7.112955    2.515516
-23.34375,-7.699999,-2.667358   0.004632
-23.34375,-7.699999,2.667358    0.004632
-23.34375,-6.159999,-5.334716   0.004632
-23.34375,-6.159999,5.334716    0.004632
-23.34375,-1.54,-8.002074       0.004632
-23.34375,1.54,-8.002074        0.004632
-23.34375,-1.54,8.002074        0.004632
-23.34375,6.159999,-5.334716    0.004632
-23.34375,1.54,8.002074 0.004632
-23.34375,7.699999,-2.667358    0.004632
-23.34375,7.699999,2.667358     0.004632
-23.34375,6.159999,5.334716     0.004632
-143.125,-7.699999,0.889119     -2.519484
-143.125,-4.62,6.223835 -2.519484
-143.125,-3.08,-7.112955        -2.519484
-143.125,3.08,-7.112955 -2.519484
-143.125,7.699999,0.889119      -2.519484
-143.125,4.62,6.223835  -2.519484
3032.0,-0.0,-0.0        -8.177907
-116.0,-3.08,-1.778239  7.550516
-116.0,0.0,3.556477     7.550516
-116.0,3.08,-1.778239   7.550516
-603.5,-3.08,1.778239   -7.554483
-603.5,-0.0,-3.556477   -7.554483
-603.5,3.08,1.778239    -7.554483
48.90625,-7.699999,2.667358     1.892092
48.90625,-7.699999,-2.667358    1.892092
48.90625,-6.159999,-5.334716    1.892092
48.90625,-6.159999,5.334716     1.892092
48.90625,-1.54,-8.002074        1.892092
48.90625,1.54,-8.002074 1.892092
48.90625,-1.54,8.002074 1.892092
48.90625,6.159999,-5.334716     1.892092
48.90625,1.54,8.002074  1.892092
48.90625,7.699999,-2.667358     1.892092
48.90625,7.699999,2.667358      1.892092
48.90625,6.159999,5.334716      1.892092
-505.0,-6.159999,-3.556477      4.409069
-505.0,6.159999,-3.556477       4.409069
-505.0,0.0,7.112955     4.409069
25.8203125,-6.159999,1.778239   -5.660931
25.8203125,-1.54,-6.223835      -5.660931
25.8203125,-4.62,4.445597       -5.660931
25.8203125,1.54,-6.223835       -5.660931
25.8203125,4.62,4.445597        -5.660931
25.8203125,6.159999,1.778239    -5.660931
-58.1875,-6.159999,-5.334716    -3.142907
-58.1875,-7.699999,2.667358     -3.142907
-58.1875,-7.699999,-2.667358    -3.142907
-58.1875,-6.159999,5.334716     -3.142907
-58.1875,-1.54,-8.002074        -3.142907
-58.1875,1.54,-8.002074 -3.142907
-58.1875,-1.54,8.002074 -3.142907
-58.1875,7.699999,-2.667358     -3.142907
-58.1875,6.159999,-5.334716     -3.142907
-58.1875,1.54,8.002074  -3.142907
-58.1875,7.699999,2.667358      -3.142907
-58.1875,6.159999,5.334716      -3.142907
65.40625,-4.62,-2.667358        6.927092
65.40625,-4.62,2.667358 6.927092
65.40625,4.62,-2.667358 6.927092
65.40625,4.62,2.667358  6.927092
65.40625,-0.0,-5.334716 6.927092
65.40625,0.0,5.334716   6.927092
-83.25,-3.08,-0.0       -8.177907
-83.25,-1.54,2.667358   -8.177907
-83.25,-1.54,-2.667358  -8.177907
-83.25,1.54,-2.667358   -8.177907
-83.25,3.08,-0.0        -8.177907
-83.25,1.54,2.667358    -8.177907
-90.90625,-3.08,3.556477        7.550516
-90.90625,3.08,3.556477 7.550516
-90.90625,-4.62,0.889119        7.550516
-90.90625,4.62,0.889119 7.550516
-90.90625,-1.54,-4.445597       7.550516
-90.90625,1.54,-4.445597        7.550516
-45.6875,-3.08,-3.556477        -7.554483
-45.6875,3.08,-3.556477 -7.554483
-45.6875,-4.62,-0.889119        -7.554483
-45.6875,4.62,-0.889119 -7.554483
-45.6875,-1.54,4.445597 -7.554483
-45.6875,1.54,4.445597  -7.554483
-500.25,0.0,8.891193    -0.625931
-500.25,-7.699999,-4.445597     -0.625931
-500.25,7.699999,-4.445597      -0.625931
-269.75,-7.699999,-0.889119     4.409069
-269.75,-4.62,-6.223835 4.409069
-269.75,-3.08,7.112955  4.409069
-269.75,4.62,-6.223835  4.409069
-269.75,7.699999,-0.889119      4.409069
-269.75,3.08,7.112955   4.409069
310.375,-6.159999,-3.556477     -5.660931
310.375,6.159999,-3.556477      -5.660931
310.375,0.0,7.112955    -5.660931
587.0,-0.0,-8.891193    2.515516
587.0,-7.699999,4.445597        2.515516
587.0,7.699999,4.445597 2.515516
-93.875,-9.239999,-0.0  0.004632
-93.875,4.62,-8.002074  0.004632
-93.875,-4.62,8.002074  0.004632
-93.875,9.239999,-0.0   0.004632
-93.875,-4.62,-8.002074 0.004632
-93.875,4.62,8.002074   0.004632
-385.75,0.0,8.891193    -2.519484
-385.75,-7.699999,-4.445597     -2.519484
-385.75,7.699999,-4.445597      -2.519484
228.0,-6.159999,0.0     6.927092
228.0,-3.08,-5.334716   6.927092
228.0,-3.08,5.334716    6.927092
228.0,3.08,-5.334716    6.927092
228.0,6.159999,0.0      6.927092
228.0,3.08,5.334716     6.927092
211.875,-9.239999,-1.778239     -0.625931
211.875,-3.08,8.891193  -0.625931
211.875,-6.159999,-7.112955     -0.625931
211.875,6.159999,-7.112955      -0.625931
211.875,3.08,8.891193   -0.625931
211.875,9.239999,-1.778239      -0.625931
111.9375,-9.239999,0.0  1.892092
111.9375,-4.62,-8.002074        1.892092
111.9375,-4.62,8.002074 1.892092
111.9375,4.62,-8.002074 1.892092
111.9375,9.239999,0.0   1.892092
111.9375,4.62,8.002074  1.892092
-4.3203125,-7.699999,2.667358   -5.030367
-4.3203125,-7.699999,-2.667358  -5.030367
-4.3203125,-6.159999,-5.334716  -5.030367
-4.3203125,-6.159999,5.334716   -5.030367
-4.3203125,-7.699999,2.667358   5.039632
-4.3203125,1.54,-8.002074       -5.030367
-4.3203125,-1.54,-8.002074      -5.030367
-4.3203125,-7.699999,-2.667358  5.039632
-4.3203125,-6.159999,-5.334716  5.039632
-4.3203125,-1.54,8.002074       -5.030367
-4.3203125,1.54,-8.002074       5.039632
-4.3203125,-6.159999,5.334716   5.039632
-4.3203125,-1.54,-8.002074      5.039632
-4.3203125,6.159999,-5.334716   -5.030367
-4.3203125,1.54,8.002074        -5.030367
-4.3203125,7.699999,-2.667358   -5.030367
-4.3203125,7.699999,2.667358    -5.030367
-4.3203125,6.159999,5.334716    -5.030367
-4.3203125,-1.54,8.002074       5.039632
-4.3203125,6.159999,-5.334716   5.039632
-4.3203125,7.699999,-2.667358   5.039632
-4.3203125,1.54,8.002074        5.039632
-4.3203125,7.699999,2.667358    5.039632
-4.3203125,6.159999,5.334716    5.039632
-0.6875,-7.699999,-0.889119     -5.660931
-0.6875,-4.62,-6.223835 -5.660931
-0.6875,-3.08,7.112955  -5.660931
-0.6875,4.62,-6.223835  -5.660931
-0.6875,3.08,7.112955   -5.660931
-0.6875,7.699999,-0.889119      -5.660931
116.0,-1.54,0.889119    9.444068
116.0,0.0,-1.778239     9.444068
116.0,1.54,0.889119     9.444068
51.3125,-9.239999,1.778239      2.515516
51.3125,-3.08,-8.891193 2.515516
51.3125,3.08,-8.891193  2.515516
51.3125,-6.159999,7.112955      2.515516
51.3125,9.239999,1.778239       2.515516
51.3125,6.159999,7.112955       2.515516
156.875,-9.239999,-1.778239     -2.519484
156.875,-3.08,8.891193  -2.519484
156.875,-6.159999,-7.112955     -2.519484
156.875,6.159999,-7.112955      -2.519484
156.875,9.239999,-1.778239      -2.519484
156.875,3.08,8.891193   -2.519484
219.625,-9.239999,-0.0  -3.142907
219.625,-4.62,-8.002074 -3.142907
219.625,-4.62,8.002074  -3.142907
219.625,4.62,-8.002074  -3.142907
219.625,9.239999,-0.0   -3.142907
219.625,4.62,8.002074   -3.142907
8.64550781,-4.62,-2.667358      -8.177907
8.64550781,-4.62,2.667358       -8.177907
8.64550781,4.62,2.667358        -8.177907
8.64550781,4.62,-2.667358       -8.177907
8.64550781,-0.0,-5.334716       -8.177907
8.64550781,0.0,5.334716 -8.177907
251.875,-4.62,-4.445597 7.550516
251.875,-6.159999,-1.778239     7.550516
251.875,-1.54,6.223835  7.550516
251.875,4.62,-4.445597  7.550516
251.875,1.54,6.223835   7.550516
251.875,6.159999,-1.778239      7.550516
-348.0,-4.62,4.445597   -7.554483
-348.0,-6.159999,1.778239       -7.554483
-348.0,-1.54,-6.223835  -7.554483
-348.0,1.54,-6.223835   -7.554483
-348.0,6.159999,1.778239        -7.554483
-348.0,4.62,4.445597    -7.554483
71.265625,-7.699999,6.223835    -0.625931
71.265625,-9.239999,3.556477    -0.625931
71.265625,-1.54,-9.780313       -0.625931
71.265625,1.54,-9.780313        -0.625931
71.265625,9.239999,3.556477     -0.625931
71.265625,7.699999,6.223835     -0.625931
-483.75,-0.0,-8.891193  4.409069
-483.75,-7.699999,4.445597      4.409069
-483.75,7.699999,4.445597       4.409069

End of input

&SCF
Occupied
9
Iterations
   50  100
End of Input

&RASSCF
LumOrb
Symmetry
1
Spin
2
Nactel
1 0 0
CIRoot
9 9 1
inactive
9
ras2
9
End of Input

>>> COPY vanadium_so_cf.JobIph $SLURM_SUBMIT_DIR/vanadium_so_cf.doublet.JobIph

>>> COPY $SLURM_SUBMIT_DIR/vanadium_so_cf.doublet.JobIph ./JOB002

&RASSI
NROFJobIph
1 All
SpinOrbit
End of Input

EOF

-- ----------------------------------

--- Start Module: seward at Mon Mar 31 12:42:28 2025 ---

()()()()()()()()()()()()()()()()()()()()()()()()()()()()()()()()()()()()()()()()()()()()()()()()()()

                                              &SEWARD

                                   only a single process is used
                       available to each process: 4.1 GB of memory, 1 thread?
                                            pid: 3840566
()()()()()()()()()()()()()()()()()()()()()()()()()()()()()()()()()()()()()()()()()()()()()()()()()()

 The speed of LIGHT in this CALCULATION =   137.03599917700001     
               SEWARD will generate:
                  Multipole Moment integrals up to order  2
                  Kinetic Energy integrals
                  Nuclear Attraction integrals (point charge)
                  One-Electron Hamiltonian integrals
                  Velocity integrals
                  Relativistic Douglas-Kroll-Hess integrals:
                    - Parametrization         : EXP
                    - DKH order of Hamiltonian: 2
                    - DKH order of Properties : 0
                         - multipole moment operators
                         - electric potential operators
                         - contact operators
                  External field from   414 point(s) added to the one-electron Hamiltonian
                  Orbital angular momentum around (-0.0000 -0.0000  0.0088 )
                  Velocity quadrupole around (-0.0000 -0.0000  0.0088 )
                  Atomic mean-field integrals
                  Two-Electron Repulsion integrals

                   Integrals are discarded if absolute value <: 0.10E-13
                   Integral cutoff threshold is set to       <: 0.10E-15

++    Symmetry information:
      ---------------------

                    Character Table for C1 

                             E  
                    a        1  x, y, xy, Rz, z, xz, Ry, yz, Rx, I
--


++    Basis set information:
      ----------------------


      Basis set label: V.ANO-RCC.ROOS.21S15P10D6F4G2H.10S9P8D6F4G2H......

      Electronic valence basis set:
      ------------------
      Associated Effective Charge  23.000000 au
      Associated Actual Charge     23.000000 au
      Nuclear Model: Point charge

      Shell  nPrim  nBasis  Cartesian Spherical Contaminant
         s      21      10        X                  
         p      15       9        X                  
         d      10       8                 X         
         f       6       6                 X         
         g       4       4                 X         
         h       2       2                 X         
--


++    Molecular structure info:
      -------------------------

                    ************************************************ 
                    **** Cartesian Coordinates / Bohr, Angstrom **** 
                    ************************************************ 

     Center  Label                x              y              z                     x              y              z
        1      V               -0.000000      -0.000000       0.008754             -0.000000      -0.000000       0.004632
--


++    Operator info:
      --------------


  Net charge from external field:   -39.268449999999902     
--


            Nuclear Potential Energy              0.00000000 au

                    Nuclear-External Field Potential Energy    -210.42623942 au
                    External Field Potential Energy            1605.63690139 au 


            Total Nuclear Potential Energy           -210.42623942 au


      Basis set specifications :
      Symmetry species         a  
      Basis functions          177

 Sorry, Molden does not know how to handle
 functions with angular momentum larger than g
Note: The following floating-point exceptions are signalling: IEEE_UNDERFLOW_FLAG IEEE_DENORMAL
--- Stop Module: seward at Mon Mar 31 12:42:36 2025 /rc=_RC_ALL_IS_WELL_ ---
*** files: vanadium_so_cf.GssOrb xmldump
    saved to directory /home4/s4752295/Internship/Initial_simulations/Point_charge_model/1_electron/Madelung_charges_9_active_space/V/fixed_calculations
--- Module seward spent 8 seconds ---

*** symbolic link created: INPORB -> vanadium_so_cf.GssOrb
--- Start Module: scf at Mon Mar 31 12:42:37 2025 ---

()()()()()()()()()()()()()()()()()()()()()()()()()()()()()()()()()()()()()()()()()()()()()()()()()()

                                                &SCF

                                   only a single process is used
                       available to each process: 4.1 GB of memory, 1 thread?
                                            pid: 3841279
()()()()()()()()()()()()()()()()()()()()()()()()()()()()()()()()()()()()()()()()()()()()()()()()()()

++    Input section:
      --------------

      Header of the integral files:
      
       Integrals generated by seward 4.2.0  , Mon Mar 31 12:42:28 2025


      Cartesian coordinates in Angstrom:
      -----------------------------------------------------
      No.  Label        X            Y            Z        
      -----------------------------------------------------
       1   V         -0.00000000  -0.00000000   0.00463220
      -----------------------------------------------------
      Nuclear repulsion energy = -210.42623942
--

++    Orbital specifications:
      -----------------------

      Symmetry species               1
                                     a
      Frozen orbitals                0
      Occupied orbitals              9
      Secondary orbitals           168
      Deleted orbitals               0
      Total number of orbitals     177
      Number of basis functions    177
--

      Molecular charge                           5.000

++    Optimization specifications:
      ----------------------------

      SCF Algorithm: Conventional
      Minimized density differences are used
      Number of density matrices in core                5
      Maximum number of NDDO SCF iterations            50
      Maximum number of HF SCF iterations             100
      Threshold for SCF energy change            0.10E-08
      Threshold for density matrix               0.10E-03
      Threshold for Fock matrix                  0.15E-03
      Threshold for linear dependence            0.10E-08
      Threshold at which DIIS is turned on       0.15E+00
      Threshold at which QNR/C2DIIS is turned on 0.75E-01
      Threshold for Norm(delta) (QNR/C2DIIS)     0.20E-04
      DIIS extrapolation of the SCF procedure
      All orbitals punched on: SCFORB
--

      Detected guessorb starting orbitals                                             


++ Convergence information
                                   SCF        iterations: Energy and convergence statistics

Iter     Tot. SCF        One-elec.       Two-elec.     Energy      Max Dij or  Max Fij      DNorm      TNorm      AccCon     Time
         Energy          Energy          Energy        Change      Delta Norm                                                in Sec.
   1  -987.768740098 -1066.822268294   289.479767612   0.00E+00    0.34E+00*   0.46E+00*    0.60E+01   0.22E+03   None         1.
   2  -988.663357429 -1074.632331752   296.395213739  -0.89E+00*   0.64E-01*   0.84E-01*    0.15E+01   0.22E+03   EDIIS        1.
   3  -988.691340656 -1073.667673972   295.402572732  -0.28E-01*   0.16E-01*   0.27E-01*    0.21E+00   0.22E+03   EDIIS        1.
   4  -988.692742933 -1073.787573609   295.521070092  -0.14E-02*   0.22E-02*   0.51E-02*    0.23E-01   0.22E+03   c2DIIS       1.
   5  -988.692828386 -1073.775202787   295.508613817  -0.85E-04*   0.46E-03*   0.65E-03*    0.31E-02   0.22E+03   QNRc2DIIS    1.
   6  -988.692829572 -1073.771828966   295.505238810  -0.12E-05*   0.18E-03*   0.15E-03     0.48E-03   0.22E+03   QNRc2DIIS    1.
   7  -988.692829678 -1073.772037159   295.505446896  -0.11E-06*   0.18E-04    0.35E-04     0.90E-04   0.22E+03   QNRc2DIIS    1.
   8  -988.692829681 -1073.771968404   295.505378139  -0.25E-08*   0.75E-05    0.71E-05     0.13E-04   0.22E+03   QNRc2DIIS    1.
   9  -988.692829681 -1073.771977555   295.505387290  -0.21E-09    0.47E-06    0.36E-06     0.27E-03   0.22E+03   QNRc2DIIS    1.

       Convergence after  9 Macro Iterations
--

 *****************************************************************************************************************************
 *                                                                                                                           *
 *                                             SCF/KS-DFT Program, Final results                                             *
 *                                                                                                                           *
 *                                                                                                                           *
 *                                                                                                                           *
 *                                                       Final Results                                                       *
 *                                                                                                                           *
 *****************************************************************************************************************************

::    Total SCF energy                               -988.6928296807
      One-electron energy                           -1073.7719775549
      Two-electron energy                             295.5053872900
      Nuclear repulsion energy                       -210.4262394158
      Kinetic energy (interpolated)                   972.5075117290
      Virial theorem                                    1.0166428719
      Total spin, S(S+1)                                0.0000000000
      Total spin, S                                     0.0000000000
      Max non-diagonal density matrix element           0.0000004432
      Max non-diagonal Fock matrix element              0.0000001892


      All orbitals with orbital energies smaller than  E(LUMO)+0.5 are printed

++    Molecular orbitals:
      -------------------

      Title: SCF orbitals

      Molecular orbitals for symmetry species 1: a  

          Orbital            1         2         3         4         5         6         7         8         9        10    
          Energy         -196.8600  -18.2065  -14.1064  -14.1064  -14.1040    3.0094    4.2937    4.2938    4.4057    5.7874
          Occ. No.          2.0000    2.0000    2.0000    2.0000    2.0000    2.0000    2.0000    2.0000    2.0000    0.0000

        1 V      1s         1.0000   -0.0001    0.0000   -0.0000   -0.0001    0.0000   -0.0000    0.0000    0.0000    0.0000
        2 V      2s         0.0001    1.0000    0.0000   -0.0000   -0.0075    0.0015    0.0000    0.0000   -0.0019   -0.0000
        3 V      3s        -0.0000   -0.0019   -0.0000    0.0000    0.0022    0.9671    0.0002    0.0000   -0.2361   -0.0027
        4 V      4s         0.0000    0.0001    0.0000   -0.0000   -0.0003   -0.0282   -0.0001   -0.0000    0.0685    0.0332
        5 V      5s        -0.0000   -0.0002   -0.0000    0.0000    0.0003    0.0228    0.0001    0.0000   -0.0590    0.4152
        6 V      6s         0.0000    0.0005    0.0000   -0.0000   -0.0006   -0.0375   -0.0001   -0.0000    0.0742    0.2778
        7 V      7s        -0.0000   -0.0002   -0.0000    0.0000    0.0002    0.0054   -0.0000   -0.0000    0.0032    0.4156
        8 V      8s         0.0000    0.0001    0.0000   -0.0000   -0.0001    0.0045    0.0000    0.0000   -0.0113    0.3065
        9 V      9s        -0.0000    0.0001   -0.0000   -0.0000   -0.0000   -0.0002    0.0000   -0.0000   -0.0054    0.4931
       10 V     10s         0.0000   -0.0002   -0.0000   -0.0000    0.0000   -0.0007    0.0000   -0.0000    0.0001    0.1885
       11 V      2px        0.0001    0.0075   -0.0027    0.0000    1.0000   -0.0016   -0.0000    0.0000    0.0028    0.0000
       12 V      3px       -0.0000    0.0015    0.0000   -0.0000   -0.0026    0.2473   -0.0016   -0.0000    0.9382    0.0069
       13 V      4px        0.0000   -0.0002   -0.0000    0.0000    0.0004    0.0052    0.0001    0.0000   -0.0308   -0.0812
       14 V      5px       -0.0000    0.0005    0.0000   -0.0000   -0.0008   -0.0166   -0.0001   -0.0000    0.0573   -0.0510
       15 V      6px        0.0000   -0.0002   -0.0000    0.0000    0.0003    0.0070    0.0000    0.0000   -0.0188   -0.1726
       16 V      7px       -0.0000    0.0002    0.0000   -0.0000   -0.0000   -0.0010    0.0000   -0.0000   -0.0004   -0.1983
       17 V      8px        0.0000   -0.0001    0.0000   -0.0000   -0.0001   -0.0014   -0.0000    0.0000    0.0055   -0.2854
       18 V      9px       -0.0000    0.0000   -0.0000    0.0000    0.0002    0.0005   -0.0000    0.0000   -0.0009   -0.1634
       19 V     10px        0.0000   -0.0001    0.0000   -0.0000   -0.0003    0.0004   -0.0000    0.0000   -0.0018   -0.0410
       20 V      2py       -0.0000    0.0000    0.0000    1.0000    0.0000   -0.0000   -0.0000    0.0023   -0.0000    0.0000
       21 V      3py       -0.0000   -0.0000   -0.0000   -0.0024   -0.0000   -0.0000   -0.0000    0.9828    0.0000    0.0000
       22 V      4py        0.0000    0.0000    0.0000    0.0003    0.0000    0.0000    0.0000   -0.0507   -0.0000   -0.0000
       23 V      5py       -0.0000   -0.0000   -0.0000   -0.0008   -0.0000   -0.0000   -0.0000    0.0691    0.0000    0.0000
       24 V      6py        0.0000    0.0000    0.0000    0.0003    0.0000    0.0000    0.0000   -0.0075    0.0000   -0.0000
       25 V      7py       -0.0000   -0.0000   -0.0000   -0.0001   -0.0000    0.0000    0.0000   -0.0082    0.0000   -0.0000
       26 V      8py        0.0000    0.0000   -0.0000   -0.0001    0.0000   -0.0000   -0.0000    0.0015   -0.0000   -0.0000
       27 V      9py       -0.0000   -0.0000    0.0000    0.0001   -0.0000   -0.0000   -0.0000    0.0021    0.0000   -0.0000
       28 V     10py        0.0000    0.0000   -0.0000   -0.0002    0.0000    0.0000   -0.0000    0.0000   -0.0000   -0.0000
       29 V      2pz        0.0000    0.0000    1.0000   -0.0000    0.0027   -0.0000    0.0023    0.0000    0.0000    0.0000
       30 V      3pz       -0.0000    0.0000   -0.0024    0.0000   -0.0000    0.0002    0.9828    0.0000    0.0016    0.0000
       31 V      4pz        0.0000   -0.0000    0.0003   -0.0000    0.0000   -0.0000   -0.0506   -0.0000   -0.0001    0.0001
       32 V      5pz       -0.0000    0.0000   -0.0008    0.0000   -0.0000   -0.0000    0.0691    0.0000    0.0001    0.0002
       33 V      6pz        0.0000   -0.0000    0.0003   -0.0000    0.0000    0.0000   -0.0075   -0.0000   -0.0000    0.0007
       34 V      7pz       -0.0000    0.0000   -0.0001    0.0000   -0.0000   -0.0000   -0.0082   -0.0000   -0.0000    0.0009
       35 V      8pz        0.0000   -0.0000   -0.0001    0.0000   -0.0000   -0.0000    0.0015    0.0000    0.0000    0.0016
       36 V      9pz       -0.0000    0.0000    0.0001   -0.0000    0.0000    0.0000    0.0021    0.0000   -0.0000    0.0010
       37 V     10pz        0.0000   -0.0000   -0.0002    0.0000   -0.0000    0.0000    0.0000    0.0000   -0.0000    0.0003
       38 V      3d2-      -0.0000   -0.0000    0.0000    0.0008    0.0000   -0.0000   -0.0000    0.1580    0.0000    0.0000
       39 V      4d2-       0.0000    0.0000   -0.0000   -0.0006   -0.0000    0.0000    0.0000   -0.0287   -0.0000   -0.0000
       40 V      5d2-       0.0000   -0.0000    0.0000    0.0004    0.0000   -0.0000    0.0000   -0.0174   -0.0000    0.0000
       41 V      6d2-      -0.0000    0.0000   -0.0000   -0.0003   -0.0000    0.0000   -0.0000    0.0133    0.0000    0.0000
       42 V      7d2-       0.0000   -0.0000    0.0000    0.0002    0.0000   -0.0000   -0.0000    0.0049    0.0000   -0.0000
       43 V      8d2-      -0.0000   -0.0000   -0.0000   -0.0001   -0.0000   -0.0000   -0.0000    0.0013   -0.0000   -0.0000
       44 V      9d2-       0.0000    0.0000    0.0000    0.0001    0.0000   -0.0000    0.0000   -0.0010   -0.0000   -0.0000
       45 V     10d2-      -0.0000   -0.0000   -0.0000   -0.0001   -0.0000    0.0000    0.0000   -0.0002   -0.0000    0.0000
       46 V      3d1-       0.0000   -0.0000    0.0000    0.0000   -0.0000   -0.0000    0.0000   -0.0016   -0.0000   -0.0000
       47 V      4d1-       0.0000    0.0000   -0.0000   -0.0000    0.0000   -0.0000    0.0000   -0.0009    0.0000    0.0000
       48 V      5d1-       0.0000   -0.0000    0.0000    0.0000   -0.0000    0.0000   -0.0000    0.0006    0.0000   -0.0000
       49 V      6d1-       0.0000    0.0000   -0.0000   -0.0000   -0.0000   -0.0000   -0.0000    0.0005    0.0000    0.0000
       50 V      7d1-      -0.0000   -0.0000    0.0000    0.0000    0.0000    0.0000   -0.0000    0.0001    0.0000    0.0000
       51 V      8d1-       0.0000    0.0000   -0.0000   -0.0000    0.0000   -0.0000    0.0000   -0.0004    0.0000    0.0000
       52 V      9d1-      -0.0000    0.0000    0.0000    0.0000    0.0000    0.0000    0.0000   -0.0004    0.0000    0.0000
       53 V     10d1-       0.0000    0.0000   -0.0000   -0.0000    0.0000   -0.0000    0.0000   -0.0001   -0.0000    0.0000
       54 V      3d0       -0.0000    0.0000    0.0000   -0.0000   -0.0005   -0.0083    0.0018    0.0000   -0.1037    0.0047
       55 V      4d0        0.0000   -0.0000   -0.0000    0.0000    0.0003   -0.0014    0.0007    0.0000    0.0180   -0.0054
       56 V      5d0       -0.0000    0.0000    0.0000   -0.0000   -0.0002    0.0033   -0.0005   -0.0000    0.0110   -0.0278
       57 V      6d0       -0.0000    0.0000    0.0000   -0.0000    0.0002   -0.0004   -0.0004   -0.0000   -0.0074   -0.0305
       58 V      7d0        0.0000   -0.0000   -0.0000    0.0000   -0.0001   -0.0007   -0.0001   -0.0000   -0.0031   -0.0315
       59 V      8d0       -0.0000    0.0000    0.0000   -0.0000    0.0000   -0.0007    0.0003    0.0000   -0.0014   -0.0233
       60 V      9d0        0.0000   -0.0000   -0.0000    0.0000   -0.0000   -0.0001    0.0003    0.0000    0.0000   -0.0129
       61 V     10d0       -0.0000   -0.0000   -0.0000    0.0000    0.0001    0.0000    0.0001    0.0000   -0.0000   -0.0025
       62 V      3d1+       0.0000   -0.0000    0.0008   -0.0000    0.0000   -0.0000    0.1582    0.0000    0.0005    0.0000
       63 V      4d1+      -0.0000    0.0000   -0.0006    0.0000   -0.0000    0.0000   -0.0286   -0.0000   -0.0001   -0.0000
       64 V      5d1+       0.0000   -0.0000    0.0004   -0.0000    0.0000   -0.0000   -0.0174   -0.0000   -0.0001   -0.0001
       65 V      6d1+       0.0000    0.0000   -0.0003    0.0000   -0.0000   -0.0000    0.0132    0.0000    0.0000   -0.0002
       66 V      7d1+      -0.0000    0.0000    0.0002   -0.0000    0.0000    0.0000    0.0049    0.0000    0.0000   -0.0002
       67 V      8d1+       0.0000   -0.0000   -0.0001    0.0000   -0.0000    0.0000    0.0013    0.0000    0.0000   -0.0002
       68 V      9d1+      -0.0000    0.0000    0.0001   -0.0000    0.0000    0.0000   -0.0009   -0.0000    0.0000   -0.0001
       69 V     10d1+       0.0000    0.0000   -0.0001    0.0000   -0.0000    0.0000   -0.0002   -0.0000    0.0000   -0.0000
       70 V      3d2+       0.0000   -0.0000   -0.0000    0.0000    0.0008    0.0145    0.0006    0.0000    0.1799   -0.0082
       71 V      4d2+      -0.0000    0.0000    0.0000   -0.0000   -0.0006    0.0024    0.0005    0.0000   -0.0311    0.0095
       72 V      5d2+       0.0000   -0.0000   -0.0000    0.0000    0.0004   -0.0057   -0.0003   -0.0000   -0.0191    0.0484
       73 V      6d2+       0.0000   -0.0000    0.0000   -0.0000   -0.0003    0.0008   -0.0003   -0.0000    0.0129    0.0530
       74 V      7d2+      -0.0000    0.0001   -0.0000    0.0000    0.0001    0.0013   -0.0001   -0.0000    0.0053    0.0546
       75 V      8d2+       0.0000   -0.0000    0.0000   -0.0000   -0.0001    0.0012    0.0002    0.0000    0.0025    0.0402
       76 V      9d2+      -0.0000    0.0000   -0.0000    0.0000    0.0001    0.0001    0.0002    0.0000    0.0000    0.0222
       77 V     10d2+       0.0000    0.0000    0.0000   -0.0000   -0.0001   -0.0000    0.0001    0.0000    0.0000    0.0044
       78 V      4f3-       0.0000    0.0000   -0.0000   -0.0001   -0.0000   -0.0000   -0.0000    0.0117    0.0000    0.0000
       79 V      5f3-      -0.0000   -0.0000    0.0000    0.0000    0.0000   -0.0000   -0.0000    0.0084    0.0000   -0.0000
       80 V      6f3-       0.0000    0.0000   -0.0000   -0.0000   -0.0000   -0.0000    0.0000   -0.0027   -0.0000   -0.0000
       81 V      7f3-      -0.0000   -0.0000    0.0000    0.0000    0.0000    0.0000    0.0000   -0.0038   -0.0000    0.0000
       82 V      8f3-       0.0000    0.0000    0.0000    0.0000    0.0000   -0.0000    0.0000   -0.0005   -0.0000    0.0000
       83 V      9f3-      -0.0000   -0.0000   -0.0000   -0.0000    0.0000   -0.0000   -0.0000    0.0018   -0.0000    0.0000
       84 V      4f2-       0.0000    0.0000   -0.0000   -0.0000   -0.0000    0.0000    0.0000   -0.0030   -0.0000    0.0000
       85 V      5f2-       0.0000   -0.0000    0.0000    0.0000   -0.0000   -0.0000    0.0000   -0.0029   -0.0000    0.0000
       86 V      6f2-       0.0000    0.0000   -0.0000   -0.0000    0.0000    0.0000   -0.0000    0.0001    0.0000    0.0000
       87 V      7f2-      -0.0000   -0.0000    0.0000    0.0000   -0.0000    0.0000   -0.0000    0.0012    0.0000    0.0000
       88 V      8f2-      -0.0000    0.0000   -0.0000   -0.0000    0.0000   -0.0000   -0.0000    0.0005    0.0000    0.0000
       89 V      9f2-       0.0000    0.0000   -0.0000   -0.0000   -0.0000    0.0000    0.0000   -0.0003    0.0000    0.0000
       90 V      4f1-       0.0000    0.0000    0.0000    0.0000    0.0000   -0.0000    0.0000   -0.0030    0.0000    0.0000
       91 V      5f1-      -0.0000   -0.0000   -0.0000   -0.0000   -0.0000    0.0000    0.0000   -0.0022   -0.0000    0.0000
       92 V      6f1-       0.0000    0.0000    0.0000    0.0000   -0.0000   -0.0000   -0.0000    0.0007    0.0000    0.0000
       93 V      7f1-      -0.0000   -0.0000   -0.0000   -0.0000   -0.0000    0.0000   -0.0000    0.0010    0.0000    0.0000
       94 V      8f1-       0.0000    0.0000   -0.0000   -0.0000   -0.0000    0.0000   -0.0000    0.0001    0.0000    0.0000
       95 V      9f1-      -0.0000   -0.0000    0.0000    0.0000    0.0000    0.0000    0.0000   -0.0005    0.0000    0.0000
       96 V      4f0       -0.0000    0.0000    0.0000   -0.0000    0.0000    0.0004   -0.0075   -0.0000    0.0018    0.0002
       97 V      5f0        0.0000    0.0000   -0.0000    0.0000   -0.0000    0.0004   -0.0054   -0.0000    0.0018    0.0047
       98 V      6f0       -0.0000   -0.0000    0.0000   -0.0000    0.0000   -0.0001    0.0017    0.0000    0.0001    0.0117
       99 V      7f0        0.0000    0.0000   -0.0000    0.0000   -0.0000   -0.0002    0.0024    0.0000   -0.0006    0.0185
      100 V      8f0       -0.0000   -0.0000   -0.0000    0.0000    0.0000   -0.0000    0.0003    0.0000   -0.0002    0.0176
      101 V      9f0        0.0000    0.0000    0.0000   -0.0000    0.0000    0.0001   -0.0011   -0.0000    0.0002    0.0174
      102 V      4f1+       0.0000   -0.0000    0.0000   -0.0000    0.0000   -0.0017    0.0023    0.0000   -0.0089    0.0029
      103 V      5f1+      -0.0000    0.0000   -0.0000    0.0000   -0.0000   -0.0007    0.0022    0.0000   -0.0057    0.0035
      104 V      6f1+       0.0000   -0.0000   -0.0000    0.0000    0.0000    0.0005   -0.0001   -0.0000    0.0025    0.0004
      105 V      7f1+      -0.0000    0.0000    0.0000   -0.0000   -0.0000    0.0003   -0.0010   -0.0000    0.0027   -0.0011
      106 V      8f1+       0.0000    0.0000    0.0000    0.0000   -0.0000   -0.0000   -0.0004   -0.0000    0.0002    0.0005
      107 V      9f1+      -0.0000   -0.0000    0.0000   -0.0000    0.0000   -0.0002    0.0003    0.0000   -0.0013    0.0022
      108 V      4f2+      -0.0000    0.0000   -0.0000    0.0000    0.0000    0.0004    0.0097    0.0000    0.0014    0.0002
      109 V      5f2+       0.0000    0.0000    0.0000   -0.0000   -0.0000    0.0003    0.0070    0.0000    0.0015    0.0037
      110 V      6f2+      -0.0000   -0.0000   -0.0000    0.0000   -0.0000   -0.0001   -0.0023   -0.0000    0.0001    0.0092
      111 V      7f2+       0.0000    0.0000    0.0000   -0.0000   -0.0000   -0.0001   -0.0031   -0.0000   -0.0005    0.0144
      112 V      8f2+      -0.0000   -0.0000    0.0000   -0.0000   -0.0000   -0.0000   -0.0004   -0.0000   -0.0002    0.0136
      113 V      9f2+       0.0000    0.0000   -0.0000    0.0000    0.0000    0.0001    0.0015    0.0000    0.0002    0.0134
      114 V      4f3+      -0.0000    0.0000    0.0000   -0.0000   -0.0000    0.0022    0.0018    0.0000    0.0116   -0.0039
      115 V      5f3+       0.0000   -0.0000   -0.0000    0.0000    0.0000    0.0010    0.0017    0.0000    0.0074   -0.0046
      116 V      6f3+      -0.0000    0.0000    0.0000   -0.0000   -0.0000   -0.0007   -0.0000   -0.0000   -0.0032   -0.0005
      117 V      7f3+       0.0000   -0.0000   -0.0000    0.0000    0.0000   -0.0004   -0.0008   -0.0000   -0.0036    0.0015
      118 V      8f3+      -0.0000   -0.0000   -0.0000    0.0000    0.0000    0.0000   -0.0003   -0.0000   -0.0003   -0.0006
      119 V      9f3+       0.0000    0.0000    0.0000   -0.0000   -0.0000    0.0003    0.0002    0.0000    0.0017   -0.0029
      120 V      5g4-       0.0000    0.0000    0.0000    0.0000    0.0000    0.0000   -0.0000    0.0027    0.0000    0.0000
      121 V      6g4-      -0.0000   -0.0000   -0.0000   -0.0000   -0.0000   -0.0000   -0.0000    0.0036    0.0000   -0.0000
      122 V      7g4-       0.0000    0.0000    0.0000    0.0000   -0.0000    0.0000   -0.0000    0.0008   -0.0000   -0.0000
      123 V      8g4-      -0.0000   -0.0000   -0.0000   -0.0000    0.0000   -0.0000    0.0000   -0.0010    0.0000   -0.0000
      124 V      5g3-      -0.0000   -0.0000   -0.0000   -0.0000   -0.0000   -0.0000    0.0000   -0.0019   -0.0000    0.0000
      125 V      6g3-       0.0000    0.0000    0.0000    0.0000   -0.0000    0.0000    0.0000   -0.0031   -0.0000    0.0000
      126 V      7g3-      -0.0000   -0.0000   -0.0000   -0.0000   -0.0000   -0.0000    0.0000   -0.0012    0.0000    0.0000
      127 V      8g3-       0.0000    0.0000    0.0000    0.0000    0.0000    0.0000   -0.0000    0.0005    0.0000   -0.0000
      128 V      5g2-      -0.0000   -0.0000   -0.0000   -0.0000   -0.0000    0.0000    0.0000   -0.0010   -0.0000   -0.0000
      129 V      6g2-       0.0000    0.0000    0.0000    0.0000    0.0000   -0.0000    0.0000   -0.0013   -0.0000    0.0000
      130 V      7g2-      -0.0000   -0.0000   -0.0000   -0.0000   -0.0000    0.0000    0.0000   -0.0003   -0.0000    0.0000
      131 V      8g2-       0.0000    0.0000    0.0000    0.0000    0.0000   -0.0000   -0.0000    0.0004    0.0000    0.0000
      132 V      5g1-      -0.0000    0.0000    0.0000    0.0000   -0.0000   -0.0000   -0.0000    0.0009    0.0000   -0.0000
      133 V      6g1-       0.0000   -0.0000    0.0000    0.0000   -0.0000    0.0000   -0.0000    0.0014    0.0000   -0.0000
      134 V      7g1-      -0.0000    0.0000   -0.0000   -0.0000    0.0000   -0.0000   -0.0000    0.0005    0.0000    0.0000
      135 V      8g1-       0.0000   -0.0000    0.0000    0.0000   -0.0000    0.0000    0.0000   -0.0003   -0.0000   -0.0000
      136 V      5g0        0.0000   -0.0000   -0.0000    0.0000    0.0000   -0.0001   -0.0010   -0.0000    0.0005    0.0002
      137 V      6g0        0.0000    0.0000    0.0000   -0.0000   -0.0000   -0.0002   -0.0017   -0.0000    0.0001    0.0007
      138 V      7g0       -0.0000   -0.0000   -0.0000    0.0000    0.0000   -0.0000   -0.0007   -0.0000   -0.0004    0.0008
      139 V      8g0       -0.0000    0.0000    0.0000   -0.0000   -0.0000    0.0000    0.0002    0.0000   -0.0003    0.0006
      140 V      5g1+      -0.0000    0.0000   -0.0000    0.0000    0.0000    0.0008   -0.0022   -0.0000    0.0014   -0.0011
      141 V      6g1+      -0.0000    0.0000    0.0000   -0.0000    0.0000    0.0010   -0.0029   -0.0000    0.0025   -0.0026
      142 V      7g1+       0.0000    0.0000   -0.0000    0.0000   -0.0000    0.0001   -0.0007   -0.0000    0.0011   -0.0016
      143 V      8g1+       0.0000   -0.0000    0.0000   -0.0000   -0.0000   -0.0003    0.0008    0.0000   -0.0004   -0.0002
      144 V      5g2+      -0.0000    0.0000    0.0000   -0.0000   -0.0000    0.0002    0.0011    0.0000   -0.0008   -0.0003
      145 V      6g2+      -0.0000   -0.0000    0.0000   -0.0000    0.0000    0.0002    0.0018    0.0000   -0.0001   -0.0010
      146 V      7g2+       0.0000    0.0000   -0.0000    0.0000   -0.0000    0.0000    0.0007    0.0000    0.0006   -0.0011
      147 V      8g2+       0.0000   -0.0000    0.0000   -0.0000    0.0000   -0.0001   -0.0004   -0.0000    0.0004   -0.0008
      148 V      5g3+      -0.0000    0.0000    0.0000   -0.0000    0.0000    0.0010    0.0020    0.0000    0.0016   -0.0013
      149 V      6g3+      -0.0000    0.0000   -0.0000    0.0000    0.0000    0.0011    0.0026    0.0000    0.0029   -0.0029
      150 V      7g3+       0.0000    0.0000    0.0000   -0.0000   -0.0000    0.0002    0.0006    0.0000    0.0012   -0.0018
      151 V      8g3+       0.0000   -0.0000   -0.0000    0.0000   -0.0000   -0.0004   -0.0007   -0.0000   -0.0005   -0.0002
      152 V      5g4+       0.0000   -0.0000    0.0000   -0.0000    0.0000   -0.0002    0.0014    0.0000    0.0011    0.0003
      153 V      6g4+       0.0000    0.0000   -0.0000    0.0000   -0.0000   -0.0003    0.0023    0.0000    0.0003    0.0012
      154 V      7g4+      -0.0000   -0.0000   -0.0000    0.0000    0.0000   -0.0001    0.0009    0.0000   -0.0007    0.0014
      155 V      8g4+      -0.0000    0.0000   -0.0000    0.0000   -0.0000    0.0001   -0.0004   -0.0000   -0.0006    0.0011
      156 V      6h5-      -0.0000   -0.0000   -0.0000   -0.0000    0.0000    0.0000   -0.0000    0.0003    0.0000    0.0000
      157 V      7h5-       0.0000    0.0000    0.0000    0.0000   -0.0000   -0.0000   -0.0000    0.0011   -0.0000   -0.0000
      158 V      6h4-       0.0000   -0.0000    0.0000    0.0000    0.0000    0.0000    0.0000   -0.0003    0.0000   -0.0000
      159 V      7h4-       0.0000    0.0000   -0.0000   -0.0000    0.0000    0.0000    0.0000   -0.0011   -0.0000    0.0000
      160 V      6h3-      -0.0000   -0.0000    0.0000    0.0000    0.0000   -0.0000    0.0000   -0.0002    0.0000    0.0000
      161 V      7h3-       0.0000    0.0000   -0.0000   -0.0000   -0.0000   -0.0000    0.0000   -0.0005   -0.0000   -0.0000
      162 V      6h2-      -0.0000   -0.0000    0.0000    0.0000    0.0000   -0.0000   -0.0000    0.0010    0.0000   -0.0000
      163 V      7h2-      -0.0000   -0.0000   -0.0000   -0.0000    0.0000   -0.0000   -0.0000    0.0019    0.0000   -0.0000
      164 V      6h1-       0.0000    0.0000   -0.0000   -0.0000    0.0000    0.0000   -0.0000    0.0000    0.0000    0.0000
      165 V      7h1-      -0.0000   -0.0000    0.0000    0.0000   -0.0000   -0.0000   -0.0000    0.0000   -0.0000   -0.0000
      166 V      6h0        0.0000   -0.0000   -0.0000    0.0000   -0.0000   -0.0005    0.0002    0.0000   -0.0009    0.0005
      167 V      7h0        0.0000   -0.0000    0.0000   -0.0000   -0.0000   -0.0009    0.0006    0.0000   -0.0020    0.0015
      168 V      6h1+       0.0000   -0.0000    0.0000   -0.0000   -0.0000   -0.0002   -0.0001   -0.0000   -0.0006    0.0003
      169 V      7h1+       0.0000   -0.0000   -0.0000    0.0000    0.0000   -0.0004   -0.0007   -0.0000   -0.0013    0.0009
      170 V      6h2+      -0.0000    0.0000    0.0000   -0.0000    0.0000    0.0003   -0.0002   -0.0000    0.0005   -0.0003
      171 V      7h2+      -0.0000    0.0000   -0.0000    0.0000    0.0000    0.0005   -0.0007   -0.0000    0.0012   -0.0009
      172 V      6h3+      -0.0000    0.0000    0.0000   -0.0000    0.0000    0.0002    0.0008    0.0000    0.0007   -0.0003
      173 V      7h3+      -0.0000    0.0000   -0.0000    0.0000   -0.0000    0.0005    0.0014    0.0000    0.0014   -0.0009
      174 V      6h4+      -0.0000    0.0000   -0.0000    0.0000    0.0000    0.0008    0.0002    0.0000    0.0014   -0.0008
      175 V      7h4+      -0.0000    0.0000    0.0000   -0.0000    0.0000    0.0013    0.0007    0.0000    0.0031   -0.0023
      176 V      6h5+       0.0000   -0.0000    0.0000   -0.0000   -0.0000   -0.0003    0.0006    0.0000   -0.0009    0.0004
      177 V      7h5+       0.0000   -0.0000    0.0000   -0.0000    0.0000   -0.0006    0.0015    0.0000   -0.0017    0.0012

          Orbital           11        12    
          Energy            6.1602    6.2760
          Occ. No.          0.0000    0.0000

        1 V      1s        -0.0000    0.0000
        2 V      2s         0.0003   -0.0000
        3 V      3s         0.0291   -0.0026
        4 V      4s         0.4369   -0.2864
        5 V      5s        -0.2322   -0.3922
        6 V      6s         0.0963   -0.0726
        7 V      7s         0.1744    0.0267
        8 V      8s         0.0551    0.0661
        9 V      9s        -0.0252    0.1059
       10 V     10s        -0.0236    0.0370
       11 V      2px       -0.0006    0.0000
       12 V      3px       -0.0894    0.0016
       13 V      4px        0.5200   -0.0665
       14 V      5px       -0.3280   -0.0269
       15 V      6px       -0.2586   -0.0401
       16 V      7px        0.0613   -0.0167
       17 V      8px        0.0778   -0.0069
       18 V      9px       -0.0242    0.0018
       19 V     10px       -0.0285    0.0016
       20 V      2py       -0.0000    0.0000
       21 V      3py        0.0000   -0.0000
       22 V      4py       -0.0000    0.0000
       23 V      5py        0.0000   -0.0000
       24 V      6py        0.0000   -0.0000
       25 V      7py       -0.0000    0.0000
       26 V      8py       -0.0000    0.0000
       27 V      9py       -0.0000    0.0000
       28 V     10py        0.0000    0.0000
       29 V      2pz       -0.0000    0.0000
       30 V      3pz       -0.0002    0.0000
       31 V      4pz        0.0003   -0.0041
       32 V      5pz       -0.0006   -0.0027
       33 V      6pz       -0.0002   -0.0036
       34 V      7pz        0.0003   -0.0009
       35 V      8pz        0.0003    0.0003
       36 V      9pz       -0.0000    0.0006
       37 V     10pz       -0.0001    0.0002
       38 V      3d2-      -0.0000    0.0000
       39 V      4d2-      -0.0000    0.0000
       40 V      5d2-       0.0000   -0.0000
       41 V      6d2-       0.0000   -0.0000
       42 V      7d2-       0.0000   -0.0000
       43 V      8d2-      -0.0000    0.0000
       44 V      9d2-      -0.0000    0.0000
       45 V     10d2-      -0.0000    0.0000
       46 V      3d1-       0.0000   -0.0000
       47 V      4d1-       0.0000    0.0000
       48 V      5d1-       0.0000    0.0000
       49 V      6d1-       0.0000    0.0000
       50 V      7d1-       0.0000    0.0000
       51 V      8d1-       0.0000   -0.0000
       52 V      9d1-       0.0000   -0.0000
       53 V     10d1-       0.0000   -0.0000
       54 V      3d0       -0.1778   -0.0189
       55 V      4d0       -0.1215   -0.0994
       56 V      5d0        0.0336   -0.1513
       57 V      6d0        0.0445   -0.1194
       58 V      7d0        0.0077   -0.1102
       59 V      8d0       -0.0323   -0.0698
       60 V      9d0       -0.0357   -0.0356
       61 V     10d0       -0.0085   -0.0068
       62 V      3d1+       0.0011   -0.0006
       63 V      4d1+       0.0003   -0.0010
       64 V      5d1+      -0.0005   -0.0010
       65 V      6d1+      -0.0003   -0.0006
       66 V      7d1+       0.0000   -0.0005
       67 V      8d1+       0.0003   -0.0003
       68 V      9d1+       0.0003   -0.0001
       69 V     10d1+       0.0001   -0.0000
       70 V      3d2+       0.3106    0.0343
       71 V      4d2+       0.2116    0.1782
       72 V      5d2+      -0.0585    0.2703
       73 V      6d2+      -0.0775    0.2128
       74 V      7d2+      -0.0134    0.1960
       75 V      8d2+       0.0563    0.1239
       76 V      9d2+       0.0623    0.0629
       77 V     10d2+       0.0148    0.0119
       78 V      4f3-      -0.0000    0.0000
       79 V      5f3-      -0.0000    0.0000
       80 V      6f3-      -0.0000   -0.0000
       81 V      7f3-      -0.0000   -0.0000
       82 V      8f3-      -0.0000   -0.0000
       83 V      9f3-      -0.0000   -0.0000
       84 V      4f2-       0.0000   -0.0000
       85 V      5f2-       0.0000   -0.0000
       86 V      6f2-       0.0000   -0.0000
       87 V      7f2-       0.0000    0.0000
       88 V      8f2-       0.0000   -0.0000
       89 V      9f2-       0.0000   -0.0000
       90 V      4f1-       0.0000   -0.0000
       91 V      5f1-       0.0000   -0.0000
       92 V      6f1-       0.0000    0.0000
       93 V      7f1-       0.0000    0.0000
       94 V      8f1-       0.0000   -0.0000
       95 V      9f1-       0.0000   -0.0000
       96 V      4f0        0.0196    0.0316
       97 V      5f0        0.0333    0.1249
       98 V      6f0        0.0188    0.2080
       99 V      7f0        0.0053    0.2777
      100 V      8f0        0.0043    0.2538
      101 V      9f0        0.0079    0.2494
      102 V      4f1+      -0.0664   -0.0082
      103 V      5f1+      -0.0590   -0.0339
      104 V      6f1+       0.0088   -0.0543
      105 V      7f1+       0.0361   -0.0640
      106 V      8f1+       0.0163   -0.0475
      107 V      9f1+      -0.0040   -0.0374
      108 V      4f2+       0.0162    0.0247
      109 V      5f2+       0.0268    0.0979
      110 V      6f2+       0.0145    0.1631
      111 V      7f2+       0.0036    0.2175
      112 V      8f2+       0.0033    0.1984
      113 V      9f2+       0.0065    0.1947
      114 V      4f3+       0.0876    0.0108
      115 V      5f3+       0.0785    0.0444
      116 V      6f3+      -0.0110    0.0711
      117 V      7f3+      -0.0475    0.0838
      118 V      8f3+      -0.0215    0.0620
      119 V      9f3+       0.0053    0.0486
      120 V      5g4-      -0.0000    0.0000
      121 V      6g4-      -0.0000    0.0000
      122 V      7g4-      -0.0000    0.0000
      123 V      8g4-      -0.0000   -0.0000
      124 V      5g3-       0.0000   -0.0000
      125 V      6g3-       0.0000   -0.0000
      126 V      7g3-       0.0000   -0.0000
      127 V      8g3-       0.0000   -0.0000
      128 V      5g2-       0.0000   -0.0000
      129 V      6g2-       0.0000   -0.0000
      130 V      7g2-       0.0000   -0.0000
      131 V      8g2-       0.0000    0.0000
      132 V      5g1-      -0.0000    0.0000
      133 V      6g1-      -0.0000    0.0000
      134 V      7g1-      -0.0000    0.0000
      135 V      8g1-      -0.0000    0.0000
      136 V      5g0        0.0009   -0.0006
      137 V      6g0       -0.0015   -0.0029
      138 V      7g0       -0.0045   -0.0047
      139 V      8g0       -0.0048   -0.0052
      140 V      5g1+       0.0158    0.0026
      141 V      6g1+       0.0346    0.0108
      142 V      7g1+       0.0215    0.0155
      143 V      8g1+       0.0033    0.0162
      144 V      5g2+      -0.0017    0.0010
      145 V      6g2+       0.0015    0.0050
      146 V      7g2+       0.0063    0.0078
      147 V      8g2+       0.0072    0.0087
      148 V      5g3+       0.0186    0.0030
      149 V      6g3+       0.0404    0.0126
      150 V      7g3+       0.0248    0.0181
      151 V      8g3+       0.0034    0.0190
      152 V      5g4+       0.0031   -0.0014
      153 V      6g4+      -0.0002   -0.0067
      154 V      7g4+      -0.0075   -0.0105
      155 V      8g4+      -0.0099   -0.0115
      156 V      6h5-       0.0000    0.0000
      157 V      7h5-      -0.0000    0.0000
      158 V      6h4-       0.0000   -0.0000
      159 V      7h4-       0.0000   -0.0000
      160 V      6h3-       0.0000   -0.0000
      161 V      7h3-       0.0000    0.0000
      162 V      6h2-      -0.0000    0.0000
      163 V      7h2-      -0.0000    0.0000
      164 V      6h1-      -0.0000    0.0000
      165 V      7h1-      -0.0000    0.0000
      166 V      6h0       -0.0069    0.0000
      167 V      7h0       -0.0196   -0.0000
      168 V      6h1+      -0.0035   -0.0000
      169 V      7h1+      -0.0108   -0.0001
      170 V      6h2+       0.0040   -0.0000
      171 V      7h2+       0.0114    0.0000
      172 V      6h3+       0.0036    0.0000
      173 V      7h3+       0.0112    0.0002
      174 V      6h4+       0.0108   -0.0001
      175 V      7h4+       0.0305    0.0000
      176 V      6h5+      -0.0045   -0.0000
      177 V      7h5+      -0.0142   -0.0003
--


++    Molecular charges:
      ------------------

      Mulliken charges per centre and basis function type
      ---------------------------------------------------

                V     
      1s       2.0000
      2s       2.0000
      2px      2.0000
      2pz      2.0000
      2py      2.0000
      3s       1.9821
      3px      1.8828
      3pz      1.9317
      3py      1.9318
      4s       0.0110
      3d2+     0.0651
      3d1+     0.0500
      3d0      0.0217
      3d1-     0.0000
      3d2-     0.0499
      4px      0.0020
      4pz      0.0051
      4py      0.0051
      5s       0.0080
      4d2+     0.0019
      4d1+     0.0016
      4d0      0.0007
      4d1-     0.0000
      4d2-     0.0016
      5px      0.0071
      5pz      0.0095
      5py      0.0096
      6s       0.0138
      4f3+     0.0003
      4f2+     0.0002
      4f1+     0.0002
      4f0      0.0001
      4f1-     0.0000
      4f2-     0.0000
      4f3-     0.0003
      5d2+     0.0008
      5d1+     0.0006
      5d0      0.0003
      5d1-     0.0000
      5d2-     0.0006
      6px      0.0008
      6pz      0.0001
      6py      0.0001
      7s       0.0001
      5f3+     0.0001
      5f2+     0.0001
      5f1+     0.0001
      5f0      0.0001
      5f1-     0.0000
      5f2-     0.0000
      5f3-     0.0001
      6d2+     0.0003
      6d1+     0.0003
      6d0      0.0001
      6d1-     0.0000
      6d2-     0.0004
      7px      0.0000
      7pz      0.0001
      7py      0.0001
      5g4+     0.0000
      5g3+     0.0000
      5g2+     0.0000
      5g1+     0.0000
      5g0      0.0000
      5g1-     0.0000
      5g2-     0.0000
      5g3-     0.0000
      5g4-     0.0000
      6f3+     0.0000
      6f2+     0.0000
      6f1+     0.0000
      6f0      0.0000
      6f1-     0.0000
      6f2-     0.0000
      6f3-     0.0000
      6g4+     0.0000
      6g3+     0.0000
      6g2+     0.0000
      6g1+     0.0000
      6g0      0.0000
      6g1-     0.0000
      6g2-     0.0000
      6g3-     0.0000
      6g4-     0.0000
      6h5+     0.0000
      6h4+     0.0000
      6h3+     0.0000
      6h2+     0.0000
      6h1+     0.0000
      6h0      0.0000
      6h1-     0.0000
      6h2-     0.0000
      6h3-     0.0000
      6h4-     0.0000
      6h5-     0.0000
      7d2+     0.0001
      7d1+     0.0000
      7d0      0.0000
      7d1-     0.0000
      7d2-     0.0000
      7f3+     0.0000
      7f2+     0.0000
      7f1+     0.0000
      7f0      0.0000
      7f1-     0.0000
      7f2-     0.0000
      7f3-     0.0000
      7g4+     0.0000
      7g3+     0.0000
      7g2+     0.0000
      7g1+     0.0000
      7g0      0.0000
      7g1-     0.0000
      7g2-     0.0000
      7g3-     0.0000
      7g4-     0.0000
      7h5+     0.0000
      7h4+     0.0000
      7h3+     0.0000
      7h2+     0.0000
      7h1+     0.0000
      7h0      0.0000
      7h1-     0.0000
      7h2-     0.0000
      7h3-     0.0000
      7h4-     0.0000
      7h5-     0.0000
      8s       0.0003
      8px      0.0001
      8pz      0.0000
      8py      0.0000
      8d2+     0.0000
      8d1+     0.0000
      8d0      0.0000
      8d1-     0.0000
      8d2-     0.0000
      8f3+     0.0000
      8f2+     0.0000
      8f1+     0.0000
      8f0      0.0000
      8f1-     0.0000
      8f2-     0.0000
      8f3-     0.0000
      8g4+     0.0000
      8g3+     0.0000
      8g2+     0.0000
      8g1+     0.0000
      8g0      0.0000
      8g1-     0.0000
      8g2-     0.0000
      8g3-     0.0000
      8g4-     0.0000
      9s       0.0001
      9px      0.0000
      9pz      0.0000
      9py      0.0000
      9d2+     0.0000
      9d1+     0.0000
      9d0      0.0000
      9d1-     0.0000
      9d2-     0.0000
      9f3+     0.0000
      9f2+     0.0000
      9f1+     0.0000
      9f0      0.0000
      9f1-     0.0000
      9f2-     0.0000
      9f3-     0.0000
     10s       0.0000
     10px      0.0000
     10pz      0.0000
     10py      0.0000
     10d2+     0.0000
     10d1+     0.0000
     10d0      0.0000
     10d1-     0.0000
     10d2-     0.0000
      Total   18.0000

      N-E      5.0000

      Total electronic charge=   18.000000

      Total            charge=    5.000000
--

 Sorry, Molden does not know how to handle
 functions with angular momentum larger than g

++    Static properties:
      ------------------


      LoProp Charges per center


                   V     
      Nuclear     23.0000
      Electronic -18.0000

      Total        5.0000
--


++    Molecular properties:
      ---------------------

      Charge (e):
                      =    5.0000
      Dipole Moment (Debye):
      Origin of the operator (Ang)=    0.0000    0.0000    0.0000
                   X= -3.0130E+00               Y= -8.7406E-14               Z=  1.0877E-01           Total=  3.0150E+00
      Center of Charge (Ang)
                     X=   -0.12545880               Y=   -0.00000000               Z=    0.00452916
      Quadrupole Moment (Debye*Ang):
      Origin of the operator (Ang)=   -0.0000   -0.0000    0.0046
                  XX= -4.3993E+00              XY=  1.9333E-14              XZ= -2.2523E-05              YY= -4.1244E+00
                  YZ=  5.7072E-15              ZZ= -4.1249E+00
      In traceless form (Debye*Ang)
                  XX= -2.7461E-01              XY=  2.9000E-14              XZ= -3.3784E-05              YY=  1.3766E-01
                  YZ=  8.5608E-15              ZZ=  1.3695E-01
--

 Sorry, Molden does not know how to handle
 functions with angular momentum larger than g
 ###############################################################################
 ###############################################################################
 ###                                                                         ###
 ###                                                                         ###
 ###    WARNING: RunFile label nBas                                          ###
 ###    was used       62 times                                              ###
 ###                                                                         ###
 ###                                                                         ###
 ###############################################################################
 ###############################################################################
Note: The following floating-point exceptions are signalling: IEEE_UNDERFLOW_FLAG IEEE_DENORMAL
--- Stop Module: scf at Mon Mar 31 12:42:47 2025 /rc=_RC_ALL_IS_WELL_ ---
*** files: vanadium_so_cf.LprOrb vanadium_so_cf.ScfOrb xmldump
    saved to directory /home4/s4752295/Internship/Initial_simulations/Point_charge_model/1_electron/Madelung_charges_9_active_space/V/fixed_calculations
--- Module scf spent 9 seconds ---

*** symbolic link created: INPORB -> vanadium_so_cf.ScfOrb
--- Start Module: rasscf at Mon Mar 31 12:42:47 2025 ---

()()()()()()()()()()()()()()()()()()()()()()()()()()()()()()()()()()()()()()()()()()()()()()()()()()

                                              &RASSCF

                                   only a single process is used
                       available to each process: 4.1 GB of memory, 1 thread?
                                            pid: 3841532
()()()()()()()()()()()()()()()()()()()()()()()()()()()()()()()()()()()()()()()()()()()()()()()()()()


      Header of the ONEINT file:
      --------------------------
      
      Integrals generated by seward 4.2.0  , Mon Mar 31 12:42:28 2025


      OrdInt status: non-squared


      Cartesian coordinates in Angstrom:
      -----------------------------------------------------
      No.  Label        X            Y            Z        
      -----------------------------------------------------
       1   V         -0.00000000  -0.00000000   0.00463220
      -----------------------------------------------------
      Nuclear repulsion energy = -210.42623942

++    Wave function specifications:
      -----------------------------

      Number of closed shell electrons          18
      Number of electrons in active shells       1
      Max number of holes in RAS1 space          0
      Max nr of electrons in RAS3 space          0
      Number of inactive orbitals                9
      Number of active orbitals                  9
      Number of secondary orbitals             159
      Spin quantum number                      0.5
      State symmetry                             1
--

++    Orbital specifications:
      -----------------------

      Symmetry species                           1
                                                 a
      Frozen orbitals                            0
      Inactive orbitals                          9
      Active orbitals                            9
      RAS1 orbitals                              0
      RAS2 orbitals                              9
      RAS3 orbitals                              0
      Secondary orbitals                       159
      Deleted orbitals                           0
      Number of basis functions                177
--

++    CI expansion specifications:
      ----------------------------

      Number of CSFs                             9
      Number of determinants                     9
      Number of root(s) required                 9
      Root chosen for geometry opt.              9
      CI roots used                              1     2     3     4     5     6     7     8     9
      weights                                0.111 0.111 0.111 0.111 0.111 0.111 0.111 0.111 0.111
      highest root included in the CI            9
      max. size of the explicit Hamiltonian      9
--

++    Optimization specifications:
      ----------------------------

      RASSCF algorithm: Conventional
      Maximum number of macro iterations       200
      Maximum number of SX iterations          100
      Threshold for RASSCF energy            0.100E-07
      Threshold for max MO rotation          0.100E+00
      Threshold for max BLB element          0.100E-03
      Level shift parameter                  0.500E+00
      Make Quasi-Newton update
--

      The MO-coefficients are taken from the file:
      INPORB                                                                                                                          
      Title: SCF orbitals                                                                  

      Total molecular charge    4.00

      ************************************************************************************************************************
      *                                                                                                                      *
      *                                            Wave function control section                                             *
      *                                                                                                                      *
      ************************************************************************************************************************


                                         RASSCF iterations: Energy and convergence statistics
                                         ----------------------------------------------------

      Iter CI   SX   CI       RASSCF       Energy    max ROT     max BLB   max BLB  Level Ln srch  Step   QN   Walltime
          iter iter root      energy       change     param      element    value   shift minimum  type update hh:mm:ss
 Nr of preliminary CI iterations:   1
        1   1    4    0  -982.35741579    0.00E+00   0.52E-02    9  22 1  0.26E-01*  0.19   0.00    SX    NO    0:00:03
        2   1    4    0  -982.35809170   -0.68E-03*  0.12E-02    5 161 1 -0.47E-02*  0.19   0.00    SX    NO    0:00:02
        3   1    4    0  -982.35810839   -0.17E-04* -0.28E-03    5 161 1  0.10E-02*  0.19   0.00    SX    NO    0:00:01
        4   1    3    0  -982.35810905   -0.66E-06* -0.23E-03    5 161 1 -0.17E-03*  0.19   0.00    SX    NO    0:00:01
        5   1    3    0  -982.35810910   -0.46E-07* -0.26E-03    5 161 1  0.43E-04   0.19   1.21    QN   YES    0:00:01
        6   1    3    0  -982.35810911   -0.13E-07* -0.33E-03    5 161 1  0.30E-04   0.19   1.56    QN   YES    0:00:01
        7   1    3    0  -982.35810912   -0.73E-08  -0.22E-03    9  35 1  0.23E-04   0.19   1.28    QN   YES    0:00:01
      Convergence after  7 iterations
        8   1    3    0  -982.35810912   -0.28E-08  -0.22E-03    8  19 1  0.16E-04   0.19   1.28    QN   YES    0:00:01

      ************************************************************************************************************************
                                                      Wave function printout:
                       occupation of active orbitals, and spin coupling of open shells (u,d: Spin up or down)
      ************************************************************************************************************************

      Note: transformation to natural orbitals
      has been made, which may change the order of the CSFs.

      printout of CI-coefficients larger than  0.05 for root  1
      energy=    -982.904696
      conf/sym  111111111     Coeff  Weight
             1  u00000000  -0.95010 0.90270
             3  00u000000   0.18829 0.03545
             5  0000u0000   0.19519 0.03810
             6  00000u000  -0.07322 0.00536
             8  0000000u0   0.09186 0.00844
             9  00000000u   0.07317 0.00535

      printout of CI-coefficients larger than  0.05 for root  2
      energy=    -982.536822
      conf/sym  111111111     Coeff  Weight
             2  0u0000000   0.72851 0.53073
             3  00u000000   0.34635 0.11996
             4  000u00000   0.11895 0.01415
             5  0000u0000   0.13488 0.01819
             6  00000u000   0.19770 0.03909
             8  0000000u0  -0.48873 0.23886
             9  00000000u  -0.19733 0.03894

      printout of CI-coefficients larger than  0.05 for root  3
      energy=    -982.416175
      conf/sym  111111111     Coeff  Weight
             1  u00000000   0.19447 0.03782
             2  0u0000000   0.24378 0.05943
             3  00u000000   0.55122 0.30385
             4  000u00000   0.25017 0.06258
             5  0000u0000  -0.06319 0.00399
             6  00000u000  -0.36791 0.13536
             7  000000u00  -0.12665 0.01604
             8  0000000u0   0.49580 0.24582
             9  00000000u   0.36757 0.13511

      printout of CI-coefficients larger than  0.05 for root  4
      energy=    -982.314382
      conf/sym  111111111     Coeff  Weight
             3  00u000000  -0.26351 0.06944
             4  000u00000   0.91183 0.83143
             5  0000u0000   0.12335 0.01521
             6  00000u000   0.17476 0.03054
             8  0000000u0   0.13976 0.01953
             9  00000000u  -0.17567 0.03086

      printout of CI-coefficients larger than  0.05 for root  5
      energy=    -982.311570
      conf/sym  111111111     Coeff  Weight
             1  u00000000   0.23108 0.05340
             2  0u0000000  -0.28468 0.08104
             3  00u000000   0.25858 0.06687
             4  000u00000  -0.09629 0.00927
             5  0000u0000   0.87958 0.77366
             6  00000u000   0.08300 0.00689
             9  00000000u  -0.08293 0.00688

      printout of CI-coefficients larger than  0.05 for root  6
      energy=    -982.205996
      conf/sym  111111111     Coeff  Weight
             2  0u0000000   0.36852 0.13581
             3  00u000000  -0.58343 0.34039
             5  0000u0000   0.37526 0.14082
             6  00000u000  -0.43011 0.18500
             8  0000000u0  -0.11247 0.01265
             9  00000000u   0.43011 0.18499

      printout of CI-coefficients larger than  0.05 for root  7
      energy=    -982.205517
      conf/sym  111111111     Coeff  Weight
             1  u00000000   0.06919 0.00479
             3  00u000000   0.08798 0.00774
             6  00000u000  -0.06067 0.00368
             7  000000u00   0.98943 0.97898
             9  00000000u   0.06039 0.00365

      printout of CI-coefficients larger than  0.05 for root  8
      energy=    -982.165414
      conf/sym  111111111     Coeff  Weight
             2  0u0000000   0.43475 0.18901
             3  00u000000  -0.23731 0.05631
             4  000u00000  -0.28394 0.08062
             5  0000u0000   0.09938 0.00988
             6  00000u000   0.30650 0.09394
             8  0000000u0   0.68725 0.47231
             9  00000000u  -0.30719 0.09437

      printout of CI-coefficients larger than  0.05 for root  9
      energy=    -982.162411
      conf/sym  111111111     Coeff  Weight
             6  00000u000   0.70721 0.50015
             9  00000000u   0.70700 0.49985

      Natural orbitals and occupation numbers for root  1
      sym 1:   1.000000  -0.000000  -0.000000   0.000000  -0.000000  -0.000000   0.000000   0.000000  -0.000000

      Natural orbitals and occupation numbers for root  2
      sym 1:  -0.000000   1.000000   0.000000   0.000000   0.000000  -0.000000  -0.000000  -0.000000   0.000000

      Natural orbitals and occupation numbers for root  3
      sym 1:  -0.000000   0.000000   1.000000  -0.000000  -0.000000   0.000000  -0.000000   0.000000   0.000000

      Natural orbitals and occupation numbers for root  4
      sym 1:  -0.000000  -0.000000   0.000000   1.000000   0.000000  -0.000000  -0.000000   0.000000  -0.000000

      Natural orbitals and occupation numbers for root  5
      sym 1:   0.000000  -0.000000   0.000000  -0.000000   1.000000   0.000000   0.000000   0.000000   0.000000

      Natural orbitals and occupation numbers for root  6
      sym 1:  -0.000000  -0.000000   1.000000   0.000000   0.000000  -0.000000   0.000000   0.000000  -0.000000

      Natural orbitals and occupation numbers for root  7
      sym 1:  -0.000000  -0.000000   0.000000   0.000000  -0.000000   0.000000   1.000000  -0.000000   0.000000

      Natural orbitals and occupation numbers for root  8
      sym 1:  -0.000000  -0.000000   0.000000  -0.000000  -0.000000   0.000000   0.000000   1.000000   0.000000

      Natural orbitals and occupation numbers for root  9
      sym 1:  -0.000000  -0.000000  -0.000000   0.000000   0.000000   1.000000  -0.000000  -0.000000   0.000000

      ************************************************************************************************************************
      *                                                                                                                      *
      *                                                    Final results                                                     *
      *                                                                                                                      *
      ************************************************************************************************************************


++    Wave function specifications:
      -----------------------------

[...]
         8   16       4.89850073E-03  3.11240413E-15  3.49265923E+06  2.68910126E-14  3.49265923E+06
         8   18       6.69199117E-03  8.73704313E+05  2.64640985E-14  4.09207605E+06  4.96578037E+06
         9   11       1.42957233E-02  3.51691002E+06  1.43234522E-14  1.60265636E+06  5.11956638E+06
         9   13       4.21609002E-03  9.24672852E-15  1.52358290E+06  1.67379216E-14  1.52358290E+06
         9   15       6.64723585E-03  8.95914814E+05  2.90665932E-14  3.66639474E+06  4.56230956E+06
         9   17       5.40283906E-03  2.20398718E-15  3.86220183E+06  3.04865481E-14  3.86220183E+06
        10   12       1.42957233E-02  3.51691002E+06  1.43234522E-14  1.60265636E+06  5.11956638E+06
        10   14       4.21609002E-03  9.24672852E-15  1.52358290E+06  1.67379216E-14  1.52358290E+06
        10   16       6.64723585E-03  8.95914814E+05  2.90665932E-14  3.66639474E+06  4.56230956E+06
        10   18       5.40283906E-03  2.20398718E-15  3.86220183E+06  3.04865481E-14  3.86220183E+06
        11   13       3.60283291E-04  8.94789713E-24  2.65222129E+00  5.95601451E-21  2.65222129E+00
        11   15       5.45859871E-02  5.76670636E+05  2.30151741E-15  2.31168940E+06  2.88836003E+06
        11   17       4.64896446E-02  2.82267743E-17  2.83756981E+06  2.91896448E-15  2.83756981E+06
        12   14       3.60283291E-04  8.94789713E-24  2.65222129E+00  5.95601451E-21  2.65222129E+00
        12   16       5.45859871E-02  5.76670636E+05  2.30151741E-15  2.31168940E+06  2.88836003E+06
        12   18       4.64896446E-02  2.82267743E-17  2.83756981E+06  2.91896448E-15  2.83756981E+06
        13   15       4.16781077E-02  6.68216346E-17  2.15363574E+06  3.35782474E-15  2.15363574E+06
        13   17       6.03522979E-02  6.79462189E+05  3.45908850E-15  2.92377119E+06  3.60323338E+06
        14   16       4.16781077E-02  6.68216346E-17  2.15363574E+06  3.35782474E-15  2.15363574E+06
        14   18       6.03522979E-02  6.79462189E+05  3.45908850E-15  2.92377119E+06  3.60323338E+06
        15   17       7.63235944E-03  2.80504538E-21  2.21238574E+03  1.53049869E-18  2.21238574E+03
        16   18       7.63235944E-03  2.80504538E-21  2.21238574E+03  1.53049869E-18  2.21238574E+03
     -----------------------------------------------------------------------------------------------
--

++ Velocity transition strengths (SO states):
   ------------------------------------------
    for osc. strength at least    1.0000000000000001E-005

      From   To        Osc. strength     Einstein coefficients Ax, Ay, Az (sec-1)    Total A (sec-1)
     -----------------------------------------------------------------------------------------------
         1    3       2.29167811E-04  9.96427059E+05  3.35041364E-18  3.87281774E+01  9.96465787E+05
         1    5       1.02804790E-04  7.87194745E+05  5.89448949E-18  1.10417974E+03  7.88298925E+05
         1    7       6.65206555E-04  3.16729100E+01  4.35777650E-14  7.44786113E+06  7.44789280E+06
         1    9       6.84149657E-04  1.36377605E-22  7.73312349E+06  4.57120659E-14  7.73312349E+06
         1   11       2.24923065E-03  3.48962762E-20  3.52797985E+07  2.22431812E-14  3.52797985E+07
         1   13       2.26490155E-03  4.90565836E+02  2.15702455E-14  3.55738023E+07  3.55742929E+07
         1   15       1.72402837E-04  2.41978938E-21  3.02743599E+06  5.91722675E-16  3.02743599E+06
         1   17       1.65183447E-04  7.14921137E+01  1.93141567E-15  2.92420833E+06  2.92427983E+06
         2    4       2.29167811E-04  9.96427059E+05  3.35041364E-18  3.87281774E+01  9.96465787E+05
         2    6       1.02804790E-04  7.87194745E+05  5.89448949E-18  1.10417974E+03  7.88298925E+05
         2    8       6.65206555E-04  3.16729100E+01  4.35777650E-14  7.44786113E+06  7.44789280E+06
         2   10       6.84149657E-04  1.36377605E-22  7.73312349E+06  4.57120659E-14  7.73312349E+06
         2   12       2.24923065E-03  3.48962762E-20  3.52797985E+07  2.22431812E-14  3.52797985E+07
         2   14       2.26490155E-03  4.90565836E+02  2.15702455E-14  3.55738023E+07  3.55742929E+07
         2   16       1.72402837E-04  2.41978938E-21  3.02743599E+06  5.91722675E-16  3.02743599E+06
         2   18       1.65183447E-04  7.14921137E+01  1.93141567E-15  2.92420833E+06  2.92427983E+06
         3    5       1.25638627E-04  5.85501038E+04  4.66890950E-18  2.08156901E+02  5.87582607E+04
         3    7       1.73875316E-01  4.56344485E+01  1.69296262E-12  2.76423271E+08  2.76423317E+08
         3    9       1.71754756E-01  7.18932574E-20  2.79997968E+08  1.70750402E-12  2.79997968E+08
         3   11       1.21649364E-03  8.41154128E-18  4.27779295E+06  6.73589140E-15  4.27779295E+06
         3   13       1.03979681E-03  3.75505432E+02  2.34991128E-15  3.66665247E+06  3.66702798E+06
         3   15       7.13037836E-04  7.27303146E-20  3.16027657E+06  6.48150382E-16  3.16027657E+06
         3   17       6.75739574E-04  1.21351371E+02  1.05350409E-15  3.04348182E+06  3.04360317E+06
         4    6       1.25638627E-04  5.85501038E+04  4.66890950E-18  2.08156901E+02  5.87582607E+04
         4    8       1.73875316E-01  4.56344485E+01  1.69296262E-12  2.76423271E+08  2.76423317E+08
         4   10       1.71754756E-01  7.18932574E-20  2.79997968E+08  1.70750402E-12  2.79997968E+08
         4   12       1.21649364E-03  8.41154128E-18  4.27779295E+06  6.73589140E-15  4.27779295E+06
         4   14       1.03979681E-03  3.75505432E+02  2.34991128E-15  3.66665247E+06  3.66702798E+06
         4   16       7.13037836E-04  7.27303146E-20  3.16027657E+06  6.48150382E-16  3.16027657E+06
         4   18       6.75739574E-04  1.21351371E+02  1.05350409E-15  3.04348182E+06  3.04360317E+06
         5    7       1.11986893E-03  5.17753825E+00  2.03514319E-15  3.72825764E+05  3.72830941E+05
         5    9       1.17657714E-03  5.52087512E-20  4.13646731E+05  2.35835148E-15  4.13646731E+05
         5   11       1.34203521E-02  4.35110595E-19  1.90481161E+07  1.66201227E-14  1.90481161E+07
         5   13       1.33496343E-02  1.81657189E+02  1.16569788E-14  1.90339630E+07  1.90341446E+07
         5   15       2.67192525E-02  1.41746570E-18  5.39825014E+07  1.05750447E-14  5.39825014E+07
         5   17       2.57375245E-02  1.21572798E+02  1.34450826E-14  5.32520951E+07  5.32522167E+07
         6    8       1.11986893E-03  5.17753825E+00  2.03514319E-15  3.72825764E+05  3.72830941E+05
         6   10       1.17657714E-03  5.52087512E-20  4.13646731E+05  2.35835148E-15  4.13646731E+05
         6   12       1.34203521E-02  4.35110595E-19  1.90481161E+07  1.66201227E-14  1.90481161E+07
         6   14       1.33496343E-02  1.81657189E+02  1.16569788E-14  1.90339630E+07  1.90341446E+07
         6   16       2.67192525E-02  1.41746570E-18  5.39825014E+07  1.05750447E-14  5.39825014E+07
         6   18       2.57375245E-02  1.21572798E+02  1.34450826E-14  5.32520951E+07  5.32522167E+07
         7    9       4.84567126E-04  2.39068068E-20  1.23061332E+02  6.69286879E-19  1.23061332E+02
         7   11       9.49291010E-04  6.92659809E-15  3.58307370E+05  4.15031448E-15  3.58307370E+05
         7   13       7.75614146E-03  2.59929471E+06  3.96475159E-15  3.54154927E+05  2.95344964E+06
         7   15       5.43406600E-04  6.95902250E-15  3.87453382E+05  4.21297106E-15  3.87453382E+05
         7   17       2.82889980E-03  1.72600558E+06  4.18439809E-15  3.73181882E+05  2.09918746E+06
         8   10       4.84567126E-04  2.39068068E-20  1.23061332E+02  6.69286879E-19  1.23061332E+02
         8   12       9.49291010E-04  6.92659809E-15  3.58307370E+05  4.15031448E-15  3.58307370E+05
         8   14       7.75614146E-03  2.59929471E+06  3.96475159E-15  3.54154927E+05  2.95344964E+06
         8   16       5.43406600E-04  6.95902250E-15  3.87453382E+05  4.21297106E-15  3.87453382E+05
         8   18       2.82889980E-03  1.72600558E+06  4.18439809E-15  3.73181882E+05  2.09918746E+06
         9   11       7.87330043E-03  2.46177330E+06  3.68299780E-15  3.57812908E+05  2.81958621E+06
         9   13       1.03555230E-03  7.66470452E-15  3.74222386E+05  3.67527336E-15  3.74222386E+05
         9   15       2.89923132E-03  1.63938785E+06  2.79935072E-15  3.50497424E+05  1.98988528E+06
         9   17       5.08124339E-04  5.62637766E-15  3.63232285E+05  3.48842968E-15  3.63232285E+05
        10   12       7.87330043E-03  2.46177330E+06  3.68299780E-15  3.57812908E+05  2.81958621E+06
        10   14       1.03555230E-03  7.66470452E-15  3.74222386E+05  3.67527336E-15  3.74222386E+05
        10   16       2.89923132E-03  1.63938785E+06  2.79935072E-15  3.50497424E+05  1.98988528E+06
        10   18       5.08124339E-04  5.62637766E-15  3.63232285E+05  3.48842968E-15  3.63232285E+05
        11   13       1.50570165E-03  3.56535598E-21  1.10842439E+01  3.30058720E-19  1.10842439E+01
        11   15       8.40903732E-02  7.05167127E+05  5.33935182E-15  3.74440191E+06  4.44956903E+06
        11   17       6.48352996E-02  9.91607171E-17  3.95733996E+06  6.33651556E-15  3.95733996E+06
        12   14       1.50570165E-03  3.56535598E-21  1.10842439E+01  3.30058720E-19  1.10842439E+01
        12   16       8.40903732E-02  7.05167127E+05  5.33935182E-15  3.74440191E+06  4.44956903E+06
        12   18       6.48352996E-02  9.91607171E-17  3.95733996E+06  6.33651556E-15  3.95733996E+06
        13   15       7.03628436E-02  8.08035125E-17  3.63587672E+06  5.61884688E-15  3.63587672E+06
        13   17       8.11491136E-02  7.35042014E+05  5.79344828E-15  4.10984744E+06  4.84488946E+06
        14   16       7.03628436E-02  8.08035125E-17  3.63587672E+06  5.61884688E-15  3.63587672E+06
        14   18       8.11491136E-02  7.35042014E+05  5.79344828E-15  4.10984744E+06  4.84488946E+06
        15   17       6.06872390E-05  4.63296609E-19  1.75914212E+01  3.39490369E-18  1.75914212E+01
        16   18       6.06872390E-05  4.63296609E-19  1.75914212E+01  3.39490369E-18  1.75914212E+01
     -----------------------------------------------------------------------------------------------
--

++ Length and velocity gauge comparison (SO states):

 --------------------------------------------------
 A comparison between the dipole oscillator strengths in 
 length and velocity gauge will be performed

 All dipole oscillator differences above the tolerance of   0.10000000000000001       will be printed 

 Due to basis set deficiency these oscillator may be problematic 

 The tolerance is defined as ABS(1-O_l/O_v) 
 O_l : dipole oscillator strength in length gauge
 O_p : dipole oscillator strength in velocity gauge
 --------------------------------------------------

  Problematic transitions have been found

      From   To       Difference (%) Osc. st. (len.) Osc. st. (vel.)
     ---------------------------------------------------------------
         1    3         25064.982649  5.76700398E-02  2.29167811E-04
         1    5           914.487064  1.04294130E-03  1.02804790E-04
         1    7         67039.964417  4.46619444E-01  6.65206555E-04
         1    9         69705.339192  4.77572989E-01  6.84149657E-04
         1   11        415324.342169  9.34385162E+00  2.24923065E-03
         1   13        417726.861969  9.46336707E+00  2.26490155E-03
         1   15       1175177.127489  2.02621112E+00  1.72402837E-04
         1   17       1183306.636797  1.95479187E+00  1.65183447E-04
         2    4         25064.982649  5.76700398E-02  2.29167811E-04
         2    6           914.487064  1.04294130E-03  1.02804790E-04
         2    8         67039.964417  4.46619444E-01  6.65206555E-04
         2   10         69705.339192  4.77572989E-01  6.84149657E-04
         2   12        415324.342169  9.34385162E+00  2.24923065E-03
         2   14        417726.861969  9.46336707E+00  2.26490155E-03
         2   16       1175177.127489  2.02621112E+00  1.72402837E-04
         2   18       1183306.636797  1.95479187E+00  1.65183447E-04
         3    5           364.504521  5.83597103E-04  1.25638627E-04
         3    7            37.728254  1.08275195E-01  1.73875316E-01
         3    9            37.120104  1.07999212E-01  1.71754756E-01
         3   11            47.866286  1.79878397E-03  1.21649364E-03
         3   13           106.541065  2.14760741E-03  1.03979681E-03
         3   15          2127.338562  1.58817667E-02  7.13037836E-04
         3   17          2239.182070  1.58067790E-02  6.75739574E-04
         4    6           364.504521  5.83597103E-04  1.25638627E-04
         4    8            37.728254  1.08275195E-01  1.73875316E-01
         4   10            37.120104  1.07999212E-01  1.71754756E-01
         4   12            47.866286  1.79878397E-03  1.21649364E-03
         4   14           106.541065  2.14760741E-03  1.03979681E-03
         4   16          2127.338562  1.58817667E-02  7.13037836E-04
         4   18          2239.182070  1.58067790E-02  6.75739574E-04
         5    7          1321.312054  1.59168321E-02  1.11986893E-03
         5    9          1444.265563  1.81694756E-02  1.17657714E-03
         5   11          6965.467360  9.48210597E-01  1.34203521E-02
         5   13          6698.403897  9.07562060E-01  1.33496343E-02
         5   15          5362.650815  1.45957946E+00  2.67192525E-02
         5   17          5553.587820  1.45509355E+00  2.57375245E-02
         6    8          1321.312054  1.59168321E-02  1.11986893E-03
         6   10          1444.265563  1.81694756E-02  1.17657714E-03
         6   12          6965.467360  9.48210597E-01  1.34203521E-02
         6   14          6698.403897  9.07562060E-01  1.33496343E-02
         6   16          5362.650815  1.45957946E+00  2.67192525E-02
         6   18          5553.587820  1.45509355E+00  2.57375245E-02
         7    9            45.651485  2.63355036E-04  4.84567126E-04
         7   11           329.550839  4.07768750E-03  9.49291010E-04
         7   13            78.404526  1.38373074E-02  7.75614146E-03
         7   15           801.442994  4.89850073E-03  5.43406600E-04
         7   17           136.558084  6.69199117E-03  2.82889980E-03
         8   10            45.651485  2.63355036E-04  4.84567126E-04
         8   12           329.550839  4.07768750E-03  9.49291010E-04
         8   14            78.404526  1.38373074E-02  7.75614146E-03
         8   16           801.442994  4.89850073E-03  5.43406600E-04
         8   18           136.558084  6.69199117E-03  2.82889980E-03
         9   11            81.572181  1.42957233E-02  7.87330043E-03
         9   13           307.134436  4.21609002E-03  1.03555230E-03
         9   15           129.275801  6.64723585E-03  2.89923132E-03
         9   17           963.290742  5.40283906E-03  5.08124339E-04
        10   12            81.572181  1.42957233E-02  7.87330043E-03
        10   14           307.134436  4.21609002E-03  1.03555230E-03
        10   16           129.275801  6.64723585E-03  2.89923132E-03
        10   18           963.290742  5.40283906E-03  5.08124339E-04
        11   13            76.072066  3.60283291E-04  1.50570165E-03
        11   15            35.086521  5.45859871E-02  8.40903732E-02
        11   17            28.295782  4.64896446E-02  6.48352996E-02
        12   14            76.072066  3.60283291E-04  1.50570165E-03
        12   16            35.086521  5.45859871E-02  8.40903732E-02
        12   18            28.295782  4.64896446E-02  6.48352996E-02
        13   15            40.766880  4.16781077E-02  7.03628436E-02
        13   17            25.627902  6.03522979E-02  8.11491136E-02
        14   16            40.766880  4.16781077E-02  7.03628436E-02
        14   18            25.627902  6.03522979E-02  8.11491136E-02
        15   17         12476.547495  7.63235944E-03  6.06872390E-05
        16   18         12476.547495  7.63235944E-03  6.06872390E-05
     ---------------------------------------------------------------

 Number of problematic transitions =                    72

--

 Electric-dipole - electric-octupole not included
++ Total transition strengths for the second-order expansion of the wave vector (SO states):
   -----------------------------------------------------------------------------------------
    for osc. strength at least    1.0000000000000001E-005

      From   To        Osc. strength
     -------------------------------
         1   11       1.64432890E-04
         1   13       1.66635375E-04
         1   15       4.86612162E-05
         1   17       4.77337781E-05
         2   12       1.64432890E-04
         2   14       1.66635375E-04
         2   16       4.86612162E-05
         2   18       4.77337781E-05
     -------------------------------
--

++ I/O STATISTICS
 
  I. General I/O information
  - - - - - - - - - - - - - - - - - - - - - - - - - - - - - - - - - - - - - - - - - - -
  Unit  Name          Flsize      Write/Read            MBytes           Write/Read
                      (MBytes)       Calls              In/Out           Time, sec.
  - - - - - - - - - - - - - - - - - - - - - - - - - - - - - - - - - - - - - - - - - - -
   1  SCRATCH           0.00 .       9/      45 .      0.0/      0.0 .       0/       0
   2  ANNI              0.00 .       0/       0 .      0.0/      0.0 .       0/       0
   3  RUNFILE          14.82 .     322/   10733 .      2.3/     77.8 .       0/       0
   4  ONEINT            5.45 .       0/   23543 .      0.0/   3734.6 .       0/       0
   5  JOBIPH            6.30 .       0/      92 .      0.0/      0.8 .       0/       0
   6  ORDINT          473.53 .       1/    3789 .      0.0/    947.0 .       0/       0
  - - - - - - - - - - - - - - - - - - - - - - - - - - - - - - - - - - - - - - - - - - -
   *  TOTAL           500.11 .     332/   38202 .      2.3/   4760.2 .       0/       0
  - - - - - - - - - - - - - - - - - - - - - - - - - - - - - - - - - - - - - - - - - - -
 
  II. I/O Access Patterns
  - - - - - - - - - - - - - - - - - - - -
  Unit  Name               % of random
                         Write/Read calls
  - - - - - - - - - - - - - - - - - - - -
   1  SCRATCH             88.9/ 100.0
   2  ANNI                 0.0/   0.0
   3  RUNFILE             28.6/  10.8
   4  ONEINT               0.0/  16.4
   5  JOBIPH               0.0/  76.1
   6  ORDINT             100.0/   0.1
  - - - - - - - - - - - - - - - - - - - -
--
--- Stop Module: rassi at Mon Mar 31 12:43:15 2025 /rc=_RC_ALL_IS_WELL_ ---
*** files: xmldump
    saved to directory /home4/s4752295/Internship/Initial_simulations/Point_charge_model/1_electron/Madelung_charges_9_active_space/V/fixed_calculations
--- Module rassi spent 2 seconds ---

.##################.
.# Happy landing! #.
.##################.

    Timing: Wall=47.02 User=36.25 System=9.15

###############################################################################
Hbrk Cluster
Job 16049513 for user s4752295
Finished at: Mon Mar 31 12:43:19 CEST 2025

Job details:
============

Job ID                         : 16049513
Name                           : V_no_SO
User                           : s4752295
Partition                      : regularshort
Nodes                          : node112
Number of Nodes                : 1
Cores                          : 1
Number of Tasks                : 1
State                          : COMPLETED  
Submit                         : 2025-03-31T12:41:34
Start                          : 2025-03-31T12:42:24
End                            : 2025-03-31T12:43:15
Reserved walltime              : 01:00:00
Used walltime                  : 00:00:51
Used CPU time                  : 00:00:47 (Efficiency: 91.26%)
% User (Computation)           : 79.84%
% System (I/O)                 : 20.15%
Total memory reserved          : 25000M
Maximum memory used            : 52.09M

Acknowledgements:
=================

Please see this page for information about acknowledging Hbrk in your publications:

https://wiki.hpc.rug.nl/habrok/introduction/scientific_output

################################################################################
