   This run of MOLCAS is using the pymolcas driver

                             OPE
                             OPE          NMOL  CASOP  ENMOLC A   SO
                 OPE        NMOLC        AS  OP EN  MO LC     AS  OP
                OPENM       OL CA        SO  PE NM  OL CA     SOP EN
                OP EN      MO   LC       AS  OP ENMOL  CASO   PENMOL
                OP  EN     MO   LC       AS  OP EN     MO     LC ASO
               OP   E  NMOL  C  AS       OP  EN MO     LC     AS  OP
               OP  E   NMO   LC AS        OPEN  MO     LCASOP EN   M
               O  PEN   MO  LCA  SO
            OPE   NMO   L   CAS    OP
        OPENMOL  CASOP     ENMOL   CASOPE
     OPENMOLCA   SOPENMOLCASOPEN   MOLCASOPE
    OPENMOLCAS   OP           EN   MOL    CAS
    OPENMOLCAS       OP  ENM        O     LCA
    OPENMOLCAS    OPEN  MOLCASO     P  E  NMO
    OPENMOLCAS     OP               E  N  MOL
    OPENMOLCA   SO           PENM   O  L  CAS    OPEN    MO    LCAS
    OPENMOLCA   SOP           ENM   O  L  CAS   OP  EN  MOLC  AS   O
    OPENMOLCA   SOPE           NM      O  LCA   S      OP  EN MO
    OPENMOLC                AS         O  PEN   M      OL  CA  SOPE
    OPENMO        LCASOPE  NMOL        C  ASO   P      ENMOLC     AS
    OPE     NMO      LCA  SO     P     E   NM   OL  CA SO  PE N   MO
          OPENMOLCA            SOPE   NMO        LCAS  O    P  ENMO
     OPENMOLCASOPENMOLCASOPENMOLCASOPENMOLCA
        OPENMOLCASOPENMOLCASOPENMOLCASOPE
            OPENMOLCASOPENMOLCASOPENM
               OPENMOLCASOPENMOLCA        version: o91e1abe7de707b ?
                   OPENMOLCASO
                       OPE                tag:

 OpenMolcas is free software; you can redistribute it and/or modify it
 under the terms of the GNU Lesser General Public License version 2.1.
 OpenMolcas is distributed in the hope that it will be useful, but it
 is provided "as is" and without any express or implied warranties.
 For more details see the full text of the license in the file
 LICENSE or in <http://www.gnu.org/licenses/>.

                 Copyright (C) The OpenMolcas Authors
           For the author list and the recommended citation,
                   consult the file CONTRIBUTORS.md

           *************************************************
           * pymolcas version py2.10                       *
           *   build 3068ae8b88c9345ec6cfef6fef7f1169      *
           *   (after the EMIL interpreter by V. Veryazov) *
           *************************************************

configuration info
------------------
Host name: login1 (Linux)
C Compiler ID: GNU
C flags: -std=gnu99
Fortran Compiler ID: GNU
Fortran flags: -fno-aggressive-loop-optimizations -cpp -fdefault-integer-8 -fmax-stack-var-size=1048576
Definitions: _MOLCAS_;_I8_;_LINUX_;_MKL_
Parallel: OFF (GA=OFF)


   ----------------------------------------------------------------------------------------------------------------------------------------------
  |
  |           Project: chromium_so_cf
  |    Submitted from: /home4/s4752295/Internship/Initial_simulations/Point_charge_model/1_electron/active_space_9_non_rel/Cr/varying_bond_length
  |      Scratch area: /tmp/chromium_so_cf
  |   Save outputs to: /home4/s4752295/Internship/Initial_simulations/Point_charge_model/1_electron/active_space_9_non_rel/Cr/varying_bond_length
  |            Molcas: /home4/s4752295/Internship/Molcas/recomp_try/OpenMolcas-master/build
  |
  | Scratch area is empty
  |
  |    MOLCAS_DRIVER = /home4/s4752295/Internship/Molcas/bin/pymolcas
  |    MOLCAS_NPROCS = 1
  |    MOLCAS_SOURCE = /home4/s4752295/Internship/Molcas/recomp_try/OpenMolcas-master
  | MOLCAS_STRUCTURE = 0
  |
   ----------------------------------------------------------------------------------------------------------------------------------------------

++ ---------   Input file   ---------

&SEWARD
AMFi

CLIG
$R

Basis Set
Cr.ANO-rcc.Roos.21s15p10d6f4g2h.10s10p8d6f4g2h.
Spherical d
Cr            0.0       0.0     0.0
End of Basis

Xfield

4
0.000000,  0.000000,  0.47250   -1.0
0.409197,  0.000000, -0.23625   -1.0
-0.204599,  0.354375, -0.23625  -1.0
-0.204599, -0.354375, -0.23625  -1.0

End of input

&SCF
Occupied
9
Iterations
   50  100
End of Input

&RASSCF
LumOrb
Symmetry
1
Spin
2
Nactel
1 0 0
CIRoot
9 9 1
inactive
9
ras2
9
End of Input

>>> COPY chromium_so_cf.JobIph $SLURM_SUBMIT_DIR/chromium_so_cf.doublet.JobIph

>>> COPY $SLURM_SUBMIT_DIR/chromium_so_cf.doublet.JobIph ./JOB002

&RASSI
NROFJobIph
1 All
SpinOrbit
End of Input

EOF

-- ----------------------------------

--- Start Module: seward at Thu Jan  9 20:14:20 2025 ---

()()()()()()()()()()()()()()()()()()()()()()()()()()()()()()()()()()()()()()()()()()()()()()()()()()

                                              &SEWARD

                                   only a single process is used
                       available to each process: 4.1 GB of memory, 1 thread?
                                            pid: 515394
()()()()()()()()()()()()()()()()()()()()()()()()()()()()()()()()()()()()()()()()()()()()()()()()()()

 The speed of LIGHT in this CALCULATION =   137.03599917700001     
               SEWARD will generate:
                  Multipole Moment integrals up to order  2
                  Kinetic Energy integrals
                  Nuclear Attraction integrals (point charge)
                  One-Electron Hamiltonian integrals
                  Velocity integrals
                  Relativistic Douglas-Kroll-Hess integrals:
                    - Parametrization         : EXP
                    - DKH order of Hamiltonian: 2
                    - DKH order of Properties : 0
                         - multipole moment operators
                         - electric potential operators
                         - contact operators
                  External field from     4 point(s) added to the one-electron Hamiltonian
                  Orbital angular momentum around ( 0.0000  0.0000  0.0000 )
                  Velocity quadrupole around ( 0.0000  0.0000  0.0000 )
                  Atomic mean-field integrals
                  Two-Electron Repulsion integrals

                   Integrals are discarded if absolute value <: 0.10E-13
                   Integral cutoff threshold is set to       <: 0.10E-15

++    Symmetry information:
      ---------------------

                    Character Table for C1 

                             E  
                    a        1  x, y, xy, Rz, z, xz, Ry, yz, Rx, I
--


++    Basis set information:
      ----------------------


      Basis set label: CR.ANO-RCC.ROOS.21S15P10D6F4G2H.10S10P8D6F4G2H......

      Electronic valence basis set:
      ------------------
      Associated Effective Charge  24.000000 au
      Associated Actual Charge     24.000000 au
      Nuclear Model: Point charge

      Shell  nPrim  nBasis  Cartesian Spherical Contaminant
         s      21      10        X                  
         p      15      10        X                  
         d      10       8                 X         
         f       6       6                 X         
         g       4       4                 X         
         h       2       2                 X         
--


++    Molecular structure info:
      -------------------------

                    ************************************************ 
                    **** Cartesian Coordinates / Bohr, Angstrom **** 
                    ************************************************ 

     Center  Label                x              y              z                     x              y              z
        1      CR               0.000000       0.000000       0.000000              0.000000       0.000000       0.000000
--


++    Operator info:
      --------------


  Net charge from external field:   -4.0000000000000000     
--


            Nuclear Potential Energy              0.00000000 au

                    Nuclear-External Field Potential Energy    -203.17455708 au
                    External Field Potential Energy               7.89851815 au 


            Total Nuclear Potential Energy           -203.17455708 au


      Basis set specifications :
      Symmetry species         a  
      Basis functions          180

 Sorry, Molden does not know how to handle
 functions with angular momentum larger than g
Note: The following floating-point exceptions are signalling: IEEE_UNDERFLOW_FLAG IEEE_DENORMAL
--- Stop Module: seward at Thu Jan  9 20:14:28 2025 /rc=_RC_ALL_IS_WELL_ ---
*** files: chromium_so_cf.GssOrb xmldump
    saved to directory /home4/s4752295/Internship/Initial_simulations/Point_charge_model/1_electron/active_space_9_non_rel/Cr/varying_bond_length
--- Module seward spent 8 seconds ---

*** symbolic link created: INPORB -> chromium_so_cf.GssOrb
--- Start Module: scf at Thu Jan  9 20:14:28 2025 ---

()()()()()()()()()()()()()()()()()()()()()()()()()()()()()()()()()()()()()()()()()()()()()()()()()()

                                                &SCF

                                   only a single process is used
                       available to each process: 4.1 GB of memory, 1 thread?
                                            pid: 515495
()()()()()()()()()()()()()()()()()()()()()()()()()()()()()()()()()()()()()()()()()()()()()()()()()()

++    Input section:
      --------------

      Header of the integral files:
      
       Integrals generated by seward 4.2.0  , Thu Jan  9 20:14:20 2025


      Cartesian coordinates in Angstrom:
      -----------------------------------------------------
      No.  Label        X            Y            Z        
      -----------------------------------------------------
       1   CR         0.00000000   0.00000000   0.00000000
      -----------------------------------------------------
      Nuclear repulsion energy = -203.17455708
--

++    Orbital specifications:
      -----------------------

      Symmetry species               1
                                     a
      Frozen orbitals                0
      Occupied orbitals              9
      Secondary orbitals           171
      Deleted orbitals               0
      Total number of orbitals     180
      Number of basis functions    180
--

      Molecular charge                           6.000

++    Optimization specifications:
      ----------------------------

      SCF Algorithm: Conventional
      Minimized density differences are used
      Number of density matrices in core                5
      Maximum number of NDDO SCF iterations            50
      Maximum number of HF SCF iterations             100
      Threshold for SCF energy change            0.10E-08
      Threshold for density matrix               0.10E-03
      Threshold for Fock matrix                  0.15E-03
      Threshold for linear dependence            0.10E-08
      Threshold at which DIIS is turned on       0.15E+00
      Threshold at which QNR/C2DIIS is turned on 0.75E-01
      Threshold for Norm(delta) (QNR/C2DIIS)     0.20E-04
      DIIS extrapolation of the SCF procedure
      All orbitals punched on: SCFORB
--

      Detected guessorb starting orbitals                                             


++ Convergence information
                                   SCF        iterations: Energy and convergence statistics

Iter     Tot. SCF        One-elec.       Two-elec.     Energy      Max Dij or  Max Fij      DNorm      TNorm      AccCon     Time
         Energy          Energy          Energy        Change      Delta Norm                                                in Sec.

 The total and one-electron energies are shifted by a value of      1000. a.u.

   1  -120.972711739  -223.174817733   305.376663078   0.00E+00    0.29E+00*   0.80E+00*    0.60E+01   0.25E+03   None         1.
   2  -122.549927893  -203.555414582   284.180043774  -0.16E+01*   0.60E-01*   0.93E-01*    0.18E+01   0.24E+03   EDIIS        1.
   3  -122.604501006  -208.078923115   288.648979194  -0.55E-01*   0.10E-01*   0.25E-01*    0.25E+00   0.24E+03   EDIIS        1.
   4  -122.607007696  -207.245733316   287.813282706  -0.25E-02*   0.36E-02*   0.43E-02*    0.31E-01   0.24E+03   c2DIIS       1.
   5  -122.607153825  -207.388828839   287.956232099  -0.15E-03*   0.17E-02*   0.13E-02*    0.33E-02   0.24E+03   QNRc2DIIS    1.
   6  -122.607170890  -207.390055318   287.957441514  -0.17E-04*   0.86E-03*   0.44E-03*    0.28E-03   0.24E+03   QNRc2DIIS    1.
   7  -122.607173083  -207.390842035   287.958226037  -0.22E-05*   0.95E-05    0.70E-05     0.35E-04   0.24E+03   QNRc2DIIS    1.
   8  -122.607173083  -207.390752963   287.958136965  -0.39E-09    0.60E-06    0.14E-05     0.30E-04   0.24E+03   QNRc2DIIS    1.

       Convergence after  8 Macro Iterations
--

 *****************************************************************************************************************************
 *                                                                                                                           *
 *                                             SCF/KS-DFT Program, Final results                                             *
 *                                                                                                                           *
 *                                                                                                                           *
 *                                                                                                                           *
 *                                                       Final Results                                                       *
 *                                                                                                                           *
 *****************************************************************************************************************************

::    Total SCF energy                              -1122.6071730833
      One-electron energy                           -1207.3907529631
      Two-electron energy                             287.9581369648
      Nuclear repulsion energy                       -203.1745570850
      Kinetic energy (interpolated)                  1040.4649753555
      Virial theorem                                    1.0789475856
      Total spin, S(S+1)                                0.0000000000
      Total spin, S                                     0.0000000000
      Max non-diagonal density matrix element           0.0000005800
      Max non-diagonal Fock matrix element              0.0000000598


      All orbitals with orbital energies smaller than  E(LUMO)+0.5 are printed

++    Molecular orbitals:
      -------------------

      Title: SCF orbitals

      Molecular orbitals for symmetry species 1: a  

          Orbital            1         2         3         4         5         6         7         8         9        10    
          Energy         -220.5557  -24.6975  -20.4499  -20.4499  -20.1902   -3.2503   -2.0959   -2.0959   -1.9520   -0.4519
          Occ. No.          2.0000    2.0000    2.0000    2.0000    2.0000    2.0000    2.0000    2.0000    2.0000    0.0000

        1 CR     1s         1.0000    0.0002   -0.0000   -0.0000   -0.0002   -0.0001   -0.0000    0.0000    0.0000    0.0000
        2 CR     2s        -0.0002    0.9982   -0.0000   -0.0000   -0.0564   -0.0048   -0.0000   -0.0000   -0.0012    0.0012
        3 CR     3s         0.0001    0.0045    0.0000    0.0000    0.0007    0.9837   -0.0000   -0.0000   -0.0850   -0.0607
        4 CR     4s        -0.0000   -0.0008   -0.0000   -0.0000   -0.0002    0.0678   -0.0000   -0.0000   -0.0277    0.9908
        5 CR     5s         0.0001    0.0013    0.0000    0.0000    0.0006   -0.1176   -0.0000    0.0000    0.0343    0.0226
        6 CR     6s        -0.0001   -0.0005   -0.0000   -0.0000   -0.0007    0.0577   -0.0000   -0.0000   -0.0105   -0.0785
        7 CR     7s         0.0001   -0.0008    0.0000    0.0000    0.0008   -0.0009    0.0000   -0.0000   -0.0035   -0.0293
        8 CR     8s        -0.0001    0.0014    0.0000   -0.0000   -0.0008   -0.0007    0.0000    0.0000    0.0007   -0.0010
        9 CR     9s         0.0001   -0.0028    0.0000    0.0000    0.0011   -0.0036    0.0000    0.0000    0.0012    0.0054
       10 CR    10s        -0.0001    0.0009   -0.0000    0.0000   -0.0002   -0.0023    0.0000    0.0000    0.0006    0.0012
       11 CR     2px        0.0000    0.0000    0.0000    0.9997    0.0000   -0.0000   -0.0000   -0.0056   -0.0000    0.0000
       12 CR     3px       -0.0000    0.0000    0.0000    0.0048   -0.0000    0.0000    0.0000    0.9791    0.0000    0.0000
       13 CR     4px        0.0000   -0.0000   -0.0000   -0.0013    0.0000   -0.0000    0.0000    0.1129    0.0000    0.0000
       14 CR     5px       -0.0000    0.0000    0.0000    0.0019   -0.0000    0.0000   -0.0000   -0.1336   -0.0000    0.0000
       15 CR     6px        0.0000   -0.0000   -0.0000   -0.0002    0.0000    0.0000    0.0000    0.0126    0.0000   -0.0000
       16 CR     7px       -0.0000    0.0000   -0.0000   -0.0009   -0.0000   -0.0000    0.0000    0.0047    0.0000   -0.0000
       17 CR     8px        0.0000   -0.0000    0.0000    0.0017    0.0000    0.0000    0.0000    0.0036    0.0000    0.0000
       18 CR     9px       -0.0000    0.0000   -0.0000   -0.0021   -0.0000   -0.0000   -0.0000   -0.0045   -0.0000    0.0000
       19 CR    10px        0.0000    0.0000    0.0000    0.0016   -0.0000    0.0000   -0.0000   -0.0026   -0.0000   -0.0000
       20 CR    11px       -0.0000   -0.0000    0.0000    0.0002    0.0000    0.0000    0.0000    0.0011    0.0000    0.0000
       21 CR     2py       -0.0000   -0.0000    0.9997   -0.0000   -0.0000   -0.0000   -0.0056    0.0000   -0.0000    0.0000
       22 CR     3py        0.0000    0.0000    0.0048   -0.0000   -0.0000   -0.0000    0.9791   -0.0000   -0.0000   -0.0000
       23 CR     4py       -0.0000   -0.0000   -0.0013    0.0000   -0.0000    0.0000    0.1129   -0.0000    0.0000    0.0000
       24 CR     5py        0.0000    0.0000    0.0019   -0.0000    0.0000   -0.0000   -0.1336    0.0000    0.0000    0.0000
       25 CR     6py       -0.0000   -0.0000   -0.0002    0.0000   -0.0000    0.0000    0.0126   -0.0000    0.0000   -0.0000
       26 CR     7py        0.0000    0.0000   -0.0009    0.0000    0.0000   -0.0000    0.0047   -0.0000   -0.0000   -0.0000
       27 CR     8py       -0.0000   -0.0000    0.0017   -0.0000   -0.0000    0.0000    0.0036   -0.0000    0.0000    0.0000
       28 CR     9py        0.0000    0.0000   -0.0021    0.0000    0.0000   -0.0000   -0.0045    0.0000    0.0000    0.0000
       29 CR    10py       -0.0000   -0.0000    0.0016   -0.0000   -0.0000    0.0000   -0.0026    0.0000    0.0000    0.0000
       30 CR    11py        0.0000    0.0000    0.0002   -0.0000   -0.0000   -0.0000    0.0011   -0.0000    0.0000    0.0000
       31 CR     2pz        0.0002    0.0563    0.0000   -0.0000    0.9983   -0.0012    0.0000    0.0000   -0.0022    0.0003
       32 CR     3pz       -0.0001    0.0018    0.0000   -0.0000    0.0017    0.0924    0.0000   -0.0000    0.9695    0.0113
       33 CR     4pz        0.0000   -0.0007   -0.0000    0.0000   -0.0002   -0.0033    0.0000   -0.0000    0.1472    0.0766
       34 CR     5pz       -0.0001    0.0017    0.0000   -0.0000   -0.0010    0.0024    0.0000    0.0000   -0.1627    0.0021
       35 CR     6pz        0.0000   -0.0010   -0.0000    0.0000    0.0015    0.0006   -0.0000   -0.0000    0.0103   -0.0054
       36 CR     7pz       -0.0001    0.0015    0.0000   -0.0000   -0.0035   -0.0012   -0.0000   -0.0000    0.0096   -0.0012
       37 CR     8pz        0.0001   -0.0012   -0.0000   -0.0000    0.0037    0.0004   -0.0000   -0.0000    0.0052    0.0004
       38 CR     9pz       -0.0001    0.0010    0.0000    0.0000   -0.0037   -0.0003    0.0000    0.0000   -0.0057    0.0005
       39 CR    10pz        0.0001   -0.0006    0.0000   -0.0000    0.0025    0.0005    0.0000    0.0000   -0.0039   -0.0000
       40 CR    11pz       -0.0001    0.0000    0.0000    0.0000    0.0006   -0.0001    0.0000   -0.0000    0.0014    0.0001
       41 CR     3d2-       0.0000    0.0000    0.0053   -0.0000   -0.0000   -0.0000    0.0496   -0.0000   -0.0000   -0.0000
       42 CR     4d2-      -0.0000   -0.0000   -0.0053    0.0000    0.0000    0.0000   -0.0194    0.0000    0.0000    0.0000
       43 CR     5d2-       0.0000    0.0000    0.0048   -0.0000   -0.0000   -0.0000    0.0027   -0.0000    0.0000   -0.0000
       44 CR     6d2-      -0.0000   -0.0000   -0.0052    0.0000    0.0000   -0.0000    0.0006   -0.0000    0.0000   -0.0000
       45 CR     7d2-       0.0000    0.0000    0.0027   -0.0000   -0.0000   -0.0000   -0.0006    0.0000   -0.0000   -0.0000
       46 CR     8d2-      -0.0000   -0.0000   -0.0013    0.0000   -0.0000   -0.0000    0.0010   -0.0000   -0.0000   -0.0000
       47 CR     9d2-       0.0000    0.0000    0.0003   -0.0000    0.0000    0.0000   -0.0013    0.0000   -0.0000    0.0000
       48 CR    10d2-      -0.0000    0.0000    0.0011   -0.0000   -0.0000   -0.0000    0.0003   -0.0000    0.0000    0.0000
       49 CR     3d1-      -0.0000    0.0000    0.0083   -0.0000   -0.0000   -0.0000    0.0807   -0.0000   -0.0000   -0.0000
       50 CR     4d1-       0.0000   -0.0000   -0.0083    0.0000    0.0000    0.0000   -0.0303    0.0000   -0.0000    0.0000
       51 CR     5d1-      -0.0000    0.0000    0.0075   -0.0000   -0.0000   -0.0000    0.0028   -0.0000   -0.0000    0.0000
       52 CR     6d1-      -0.0000   -0.0000   -0.0085    0.0000    0.0000    0.0000    0.0023   -0.0000   -0.0000   -0.0000
       53 CR     7d1-       0.0000    0.0000    0.0045   -0.0000   -0.0000   -0.0000   -0.0012    0.0000    0.0000    0.0000
       54 CR     8d1-      -0.0000   -0.0000   -0.0025    0.0000    0.0000   -0.0000    0.0016   -0.0000   -0.0000    0.0000
       55 CR     9d1-       0.0000    0.0000    0.0009   -0.0000   -0.0000   -0.0000   -0.0019    0.0000    0.0000    0.0000
       56 CR    10d1-       0.0000   -0.0000    0.0010   -0.0000    0.0000    0.0000    0.0006   -0.0000    0.0000    0.0000
       57 CR     3d0       -0.0000   -0.0038   -0.0000   -0.0000   -0.0049   -0.0279    0.0000   -0.0000   -0.0413    0.0306
       58 CR     4d0        0.0000    0.0039    0.0000    0.0000    0.0048    0.0149   -0.0000    0.0000    0.0169    0.0011
       59 CR     5d0       -0.0000   -0.0036   -0.0000   -0.0000   -0.0043   -0.0038   -0.0000    0.0000   -0.0039   -0.0002
       60 CR     6d0        0.0000    0.0041    0.0000    0.0000    0.0044   -0.0009   -0.0000   -0.0000    0.0012    0.0005
       61 CR     7d0       -0.0000   -0.0022   -0.0000   -0.0000   -0.0020    0.0013   -0.0000    0.0000   -0.0000   -0.0004
       62 CR     8d0        0.0000    0.0012   -0.0000    0.0000    0.0007   -0.0010    0.0000   -0.0000   -0.0008    0.0003
       63 CR     9d0       -0.0000   -0.0004    0.0000   -0.0000    0.0004    0.0010    0.0000   -0.0000    0.0012   -0.0004
       64 CR    10d0        0.0000   -0.0007    0.0000    0.0000   -0.0019   -0.0003    0.0000    0.0000   -0.0004    0.0000
       65 CR     3d1+       0.0000   -0.0000    0.0000    0.0083    0.0000   -0.0000    0.0000    0.0807    0.0000    0.0000
       66 CR     4d1+      -0.0000    0.0000   -0.0000   -0.0083   -0.0000    0.0000   -0.0000   -0.0303   -0.0000    0.0000
       67 CR     5d1+      -0.0000   -0.0000    0.0000    0.0075    0.0000   -0.0000    0.0000    0.0028   -0.0000    0.0000
       68 CR     6d1+       0.0000    0.0000   -0.0000   -0.0085   -0.0000   -0.0000    0.0000    0.0023    0.0000    0.0000
       69 CR     7d1+      -0.0000    0.0000    0.0000    0.0045    0.0000    0.0000   -0.0000   -0.0012   -0.0000   -0.0000
       70 CR     8d1+       0.0000   -0.0000   -0.0000   -0.0025   -0.0000   -0.0000    0.0000    0.0016    0.0000    0.0000
       71 CR     9d1+      -0.0000    0.0000    0.0000    0.0009   -0.0000    0.0000   -0.0000   -0.0019   -0.0000   -0.0000
       72 CR    10d1+       0.0000   -0.0000    0.0000    0.0010    0.0000    0.0000    0.0000    0.0006    0.0000   -0.0000
       73 CR     3d2+      -0.0000   -0.0000   -0.0000   -0.0053    0.0000   -0.0000   -0.0000   -0.0496    0.0000    0.0000
       74 CR     4d2+       0.0000    0.0000    0.0000    0.0053   -0.0000    0.0000    0.0000    0.0194   -0.0000    0.0000
       75 CR     5d2+      -0.0000   -0.0000   -0.0000   -0.0048    0.0000   -0.0000   -0.0000   -0.0027    0.0000    0.0000
       76 CR     6d2+       0.0000    0.0000    0.0000    0.0052   -0.0000   -0.0000   -0.0000   -0.0006   -0.0000    0.0000
       77 CR     7d2+      -0.0000   -0.0000   -0.0000   -0.0027    0.0000    0.0000    0.0000    0.0006    0.0000   -0.0000
       78 CR     8d2+       0.0000    0.0000    0.0000    0.0013   -0.0000   -0.0000   -0.0000   -0.0010   -0.0000    0.0000
       79 CR     9d2+      -0.0000   -0.0000   -0.0000   -0.0003    0.0000    0.0000    0.0000    0.0013   -0.0000   -0.0000
       80 CR    10d2+       0.0000   -0.0000   -0.0000   -0.0011    0.0000   -0.0000   -0.0000   -0.0003    0.0000    0.0000
       81 CR     4f3-      -0.0000   -0.0000   -0.0000    0.0000    0.0000    0.0000   -0.0000    0.0000   -0.0000   -0.0000
       82 CR     5f3-       0.0000    0.0000    0.0000   -0.0000    0.0000   -0.0000    0.0000   -0.0000   -0.0000    0.0000
       83 CR     6f3-      -0.0000   -0.0000   -0.0000    0.0000   -0.0000    0.0000   -0.0000    0.0000   -0.0000   -0.0000
       84 CR     7f3-       0.0000    0.0000    0.0000   -0.0000    0.0000    0.0000    0.0000    0.0000    0.0000    0.0000
       85 CR     8f3-      -0.0000   -0.0000   -0.0000    0.0000   -0.0000    0.0000   -0.0000    0.0000   -0.0000   -0.0000
       86 CR     9f3-       0.0000    0.0000    0.0000   -0.0000    0.0000   -0.0000    0.0000    0.0000   -0.0000    0.0000
       87 CR     4f2-      -0.0000   -0.0000   -0.0016    0.0000    0.0000   -0.0000   -0.0052    0.0000    0.0000    0.0000
       88 CR     5f2-       0.0000    0.0000    0.0019   -0.0000   -0.0000   -0.0000    0.0034   -0.0000   -0.0000   -0.0000
       89 CR     6f2-      -0.0000    0.0000   -0.0021    0.0000    0.0000    0.0000   -0.0021    0.0000    0.0000    0.0000
       90 CR     7f2-       0.0000   -0.0000    0.0023   -0.0000   -0.0000   -0.0000    0.0012   -0.0000   -0.0000   -0.0000
       91 CR     8f2-      -0.0000    0.0000   -0.0030    0.0000    0.0000    0.0000   -0.0008    0.0000   -0.0000   -0.0000
       92 CR     9f2-       0.0000   -0.0000    0.0015   -0.0000   -0.0000   -0.0000    0.0002   -0.0000   -0.0000    0.0000
       93 CR     4f1-      -0.0000   -0.0000   -0.0009    0.0000    0.0000    0.0000   -0.0066    0.0000    0.0000   -0.0000
       94 CR     5f1-       0.0000    0.0000    0.0011   -0.0000   -0.0000    0.0000    0.0029   -0.0000    0.0000   -0.0000
       95 CR     6f1-      -0.0000   -0.0000   -0.0011    0.0000    0.0000    0.0000   -0.0012    0.0000    0.0000   -0.0000
       96 CR     7f1-       0.0000    0.0000    0.0012   -0.0000   -0.0000   -0.0000    0.0006   -0.0000   -0.0000    0.0000
       97 CR     8f1-      -0.0000   -0.0000   -0.0016    0.0000    0.0000    0.0000   -0.0004    0.0000   -0.0000    0.0000
       98 CR     9f1-      -0.0000    0.0000    0.0008   -0.0000   -0.0000   -0.0000    0.0000   -0.0000   -0.0000   -0.0000
       99 CR     4f0       -0.0000   -0.0039   -0.0000    0.0000   -0.0012   -0.0209    0.0000    0.0000   -0.0079    0.0063
      100 CR     5f0        0.0000    0.0046   -0.0000   -0.0000    0.0013    0.0124   -0.0000   -0.0000    0.0032   -0.0027
      101 CR     6f0       -0.0000   -0.0050    0.0000    0.0000   -0.0014   -0.0069    0.0000    0.0000   -0.0013    0.0024
      102 CR     7f0        0.0000    0.0056   -0.0000   -0.0000    0.0015    0.0037   -0.0000   -0.0000    0.0007   -0.0011
      103 CR     8f0       -0.0000   -0.0072    0.0000    0.0000   -0.0020   -0.0021   -0.0000    0.0000   -0.0005    0.0006
      104 CR     9f0        0.0000    0.0038   -0.0000   -0.0000    0.0010    0.0003   -0.0000   -0.0000    0.0000   -0.0001
      105 CR     4f1+      -0.0000   -0.0000   -0.0000   -0.0009   -0.0000   -0.0000   -0.0000   -0.0066   -0.0000    0.0000
      106 CR     5f1+       0.0000    0.0000    0.0000    0.0011    0.0000    0.0000    0.0000    0.0029    0.0000   -0.0000
      107 CR     6f1+      -0.0000   -0.0000   -0.0000   -0.0011   -0.0000   -0.0000   -0.0000   -0.0012   -0.0000    0.0000
      108 CR     7f1+       0.0000    0.0000    0.0000    0.0012    0.0000    0.0000    0.0000    0.0006    0.0000   -0.0000
      109 CR     8f1+      -0.0000   -0.0000   -0.0000   -0.0016   -0.0000   -0.0000   -0.0000   -0.0004   -0.0000    0.0000
      110 CR     9f1+       0.0000    0.0000    0.0000    0.0008    0.0000    0.0000    0.0000    0.0000   -0.0000   -0.0000
      111 CR     4f2+       0.0000    0.0000    0.0000    0.0016   -0.0000    0.0000    0.0000    0.0052   -0.0000   -0.0000
      112 CR     5f2+      -0.0000   -0.0000   -0.0000   -0.0019    0.0000   -0.0000   -0.0000   -0.0034    0.0000    0.0000
      113 CR     6f2+       0.0000    0.0000    0.0000    0.0021   -0.0000    0.0000    0.0000    0.0021   -0.0000   -0.0000
      114 CR     7f2+      -0.0000   -0.0000   -0.0000   -0.0023    0.0000   -0.0000   -0.0000   -0.0012    0.0000    0.0000
      115 CR     8f2+       0.0000    0.0000    0.0000    0.0030   -0.0000    0.0000    0.0000    0.0008   -0.0000   -0.0000
      116 CR     9f2+      -0.0000   -0.0000   -0.0000   -0.0015    0.0000   -0.0000   -0.0000   -0.0002    0.0000    0.0000
      117 CR     4f3+      -0.0000   -0.0025    0.0000   -0.0000    0.0016   -0.0132   -0.0000   -0.0000    0.0072    0.0046
      118 CR     5f3+       0.0000    0.0030   -0.0000    0.0000   -0.0019    0.0079    0.0000    0.0000   -0.0041   -0.0018
      119 CR     6f3+      -0.0000   -0.0032    0.0000   -0.0000    0.0021   -0.0044    0.0000   -0.0000    0.0024    0.0017
      120 CR     7f3+       0.0000    0.0036   -0.0000    0.0000   -0.0022    0.0023    0.0000    0.0000   -0.0015   -0.0008
      121 CR     8f3+      -0.0000   -0.0046   -0.0000   -0.0000    0.0029   -0.0013    0.0000   -0.0000    0.0011    0.0005
      122 CR     9f3+       0.0000    0.0024    0.0000    0.0000   -0.0015    0.0002   -0.0000    0.0000   -0.0003   -0.0001
      123 CR     5g4-      -0.0000   -0.0000   -0.0011    0.0000    0.0000    0.0000   -0.0051    0.0000    0.0000   -0.0000
      124 CR     6g4-       0.0000    0.0000    0.0015   -0.0000   -0.0000   -0.0000    0.0028   -0.0000   -0.0000    0.0000
      125 CR     7g4-      -0.0000   -0.0000   -0.0016    0.0000    0.0000   -0.0000   -0.0020    0.0000    0.0000   -0.0000
      126 CR     8g4-       0.0000    0.0000    0.0010   -0.0000   -0.0000    0.0000    0.0010   -0.0000   -0.0000    0.0000
      127 CR     5g3-       0.0000    0.0000    0.0000   -0.0000    0.0000    0.0000    0.0000   -0.0000   -0.0000   -0.0000
      128 CR     6g3-      -0.0000   -0.0000   -0.0000    0.0000    0.0000   -0.0000   -0.0000    0.0000    0.0000    0.0000
      129 CR     7g3-       0.0000    0.0000    0.0000   -0.0000   -0.0000    0.0000    0.0000   -0.0000   -0.0000   -0.0000
      130 CR     8g3-      -0.0000   -0.0000   -0.0000    0.0000    0.0000   -0.0000   -0.0000    0.0000    0.0000    0.0000
      131 CR     5g2-      -0.0000   -0.0000    0.0002   -0.0000   -0.0000    0.0000   -0.0002    0.0000    0.0000    0.0000
      132 CR     6g2-       0.0000    0.0000   -0.0003    0.0000    0.0000   -0.0000   -0.0001    0.0000   -0.0000   -0.0000
      133 CR     7g2-      -0.0000   -0.0000    0.0003   -0.0000   -0.0000    0.0000    0.0002   -0.0000    0.0000    0.0000
      134 CR     8g2-       0.0000    0.0000   -0.0002    0.0000    0.0000   -0.0000   -0.0001    0.0000   -0.0000   -0.0000
      135 CR     5g1-      -0.0000    0.0000   -0.0014    0.0000    0.0000    0.0000   -0.0066    0.0000    0.0000    0.0000
      136 CR     6g1-       0.0000   -0.0000    0.0018   -0.0000   -0.0000   -0.0000    0.0035   -0.0000   -0.0000   -0.0000
      137 CR     7g1-      -0.0000    0.0000   -0.0019    0.0000    0.0000    0.0000   -0.0025    0.0000    0.0000   -0.0000
      138 CR     8g1-       0.0000   -0.0000    0.0011   -0.0000   -0.0000   -0.0000    0.0013   -0.0000   -0.0000   -0.0000
      139 CR     5g0       -0.0000   -0.0002    0.0000    0.0000   -0.0023   -0.0011   -0.0000    0.0000   -0.0095   -0.0000
      140 CR     6g0        0.0000    0.0003   -0.0000   -0.0000    0.0030    0.0007   -0.0000   -0.0000    0.0054   -0.0001
      141 CR     7g0       -0.0000   -0.0003   -0.0000    0.0000   -0.0034   -0.0005    0.0000    0.0000   -0.0040    0.0001
      142 CR     8g0        0.0000    0.0002    0.0000   -0.0000    0.0020    0.0003    0.0000   -0.0000    0.0022   -0.0000
      143 CR     5g1+       0.0000    0.0000   -0.0000   -0.0014   -0.0000    0.0000   -0.0000   -0.0066   -0.0000   -0.0000
      144 CR     6g1+      -0.0000   -0.0000    0.0000    0.0018    0.0000   -0.0000    0.0000    0.0035    0.0000    0.0000
      145 CR     7g1+       0.0000    0.0000   -0.0000   -0.0019   -0.0000    0.0000   -0.0000   -0.0025   -0.0000   -0.0000
      146 CR     8g1+      -0.0000   -0.0000    0.0000    0.0011    0.0000   -0.0000    0.0000    0.0013    0.0000    0.0000
      147 CR     5g2+      -0.0000   -0.0000   -0.0000   -0.0002    0.0000   -0.0000    0.0000    0.0002    0.0000    0.0000
      148 CR     6g2+       0.0000    0.0000    0.0000    0.0003   -0.0000    0.0000    0.0000    0.0001   -0.0000   -0.0000
      149 CR     7g2+      -0.0000   -0.0000   -0.0000   -0.0003    0.0000   -0.0000   -0.0000   -0.0002    0.0000    0.0000
      150 CR     8g2+       0.0000    0.0000    0.0000    0.0002   -0.0000    0.0000    0.0000    0.0001   -0.0000   -0.0000
      151 CR     5g3+       0.0000    0.0014   -0.0000    0.0000   -0.0015    0.0046   -0.0000    0.0000   -0.0056   -0.0013
      152 CR     6g3+      -0.0000   -0.0019    0.0000   -0.0000    0.0019   -0.0033    0.0000   -0.0000    0.0034    0.0011
      153 CR     7g3+       0.0000    0.0022   -0.0000    0.0000   -0.0022    0.0026   -0.0000    0.0000   -0.0026   -0.0008
      154 CR     8g3+      -0.0000   -0.0013    0.0000   -0.0000    0.0013   -0.0014    0.0000   -0.0000    0.0015    0.0005
      155 CR     5g4+       0.0000    0.0000   -0.0000   -0.0011   -0.0000    0.0000   -0.0000   -0.0051   -0.0000   -0.0000
      156 CR     6g4+      -0.0000   -0.0000    0.0000    0.0015    0.0000   -0.0000    0.0000    0.0028    0.0000    0.0000
      157 CR     7g4+       0.0000    0.0000   -0.0000   -0.0016   -0.0000    0.0000   -0.0000   -0.0020   -0.0000   -0.0000
      158 CR     8g4+      -0.0000   -0.0000    0.0000    0.0010    0.0000   -0.0000    0.0000    0.0010    0.0000    0.0000
      159 CR     6h5-      -0.0000   -0.0000    0.0001   -0.0000    0.0000    0.0000    0.0001   -0.0000   -0.0000    0.0000
      160 CR     7h5-       0.0000    0.0000   -0.0001    0.0000   -0.0000   -0.0000   -0.0001    0.0000   -0.0000    0.0000
      161 CR     6h4-      -0.0000   -0.0000    0.0003   -0.0000   -0.0000   -0.0000    0.0016   -0.0000   -0.0000   -0.0000
      162 CR     7h4-       0.0000    0.0000   -0.0002    0.0000    0.0000    0.0000   -0.0010    0.0000    0.0000    0.0000
      163 CR     6h3-      -0.0000   -0.0000   -0.0000   -0.0000    0.0000    0.0000   -0.0000    0.0000    0.0000    0.0000
      164 CR     7h3-       0.0000    0.0000    0.0000    0.0000   -0.0000   -0.0000    0.0000   -0.0000    0.0000   -0.0000
      165 CR     6h2-      -0.0000   -0.0000    0.0001   -0.0000   -0.0000   -0.0000    0.0005   -0.0000   -0.0000    0.0000
      166 CR     7h2-      -0.0000    0.0000   -0.0001    0.0000    0.0000    0.0000   -0.0003    0.0000    0.0000    0.0000
      167 CR     6h1-      -0.0000   -0.0000    0.0001   -0.0000   -0.0000    0.0000   -0.0000    0.0000    0.0000    0.0000
      168 CR     7h1-       0.0000    0.0000   -0.0001    0.0000   -0.0000   -0.0000   -0.0000    0.0000    0.0000   -0.0000
      169 CR     6h0       -0.0000   -0.0001    0.0000   -0.0000   -0.0002   -0.0004   -0.0000   -0.0000   -0.0005   -0.0000
      170 CR     7h0        0.0000    0.0001    0.0000    0.0000    0.0002    0.0003   -0.0000   -0.0000    0.0004   -0.0000
      171 CR     6h1+      -0.0000   -0.0000    0.0000    0.0001    0.0000   -0.0000   -0.0000   -0.0000    0.0000   -0.0000
      172 CR     7h1+       0.0000    0.0000   -0.0000   -0.0001   -0.0000    0.0000   -0.0000   -0.0000   -0.0000   -0.0000
      173 CR     6h2+      -0.0000   -0.0000   -0.0000   -0.0001   -0.0000   -0.0000   -0.0000   -0.0005   -0.0000   -0.0000
      174 CR     7h2+       0.0000    0.0000    0.0000    0.0001    0.0000    0.0000    0.0000    0.0003    0.0000    0.0000
      175 CR     6h3+      -0.0000   -0.0002   -0.0000   -0.0000    0.0003   -0.0006    0.0000   -0.0000    0.0018    0.0001
      176 CR     7h3+       0.0000    0.0001    0.0000    0.0000   -0.0002    0.0004    0.0000    0.0000   -0.0010   -0.0001
      177 CR     6h4+      -0.0000   -0.0000    0.0000    0.0003    0.0000   -0.0000    0.0000    0.0016    0.0000    0.0000
      178 CR     7h4+       0.0000    0.0000   -0.0000   -0.0002   -0.0000    0.0000   -0.0000   -0.0010   -0.0000   -0.0000
      179 CR     6h5+      -0.0000   -0.0000   -0.0000   -0.0001    0.0000   -0.0000   -0.0000   -0.0001    0.0000    0.0000
      180 CR     7h5+       0.0000    0.0000    0.0000    0.0001   -0.0000    0.0000    0.0000    0.0001   -0.0000   -0.0000

          Orbital           11        12        13        14        15        16        17        18        19        20    
          Energy           -0.3279   -0.3279   -0.3184   -0.2674   -0.2674   -0.2551   -0.2551   -0.2550   -0.2036   -0.1627
          Occ. No.          0.0000    0.0000    0.0000    0.0000    0.0000    0.0000    0.0000    0.0000    0.0000    0.0000

        1 CR     1s        -0.0000   -0.0000   -0.0000    0.0000    0.0000    0.0000   -0.0000    0.0000   -0.0000   -0.0000
        2 CR     2s         0.0000    0.0000    0.0004    0.0000    0.0000    0.0000   -0.0000    0.0007   -0.0006    0.0000
        3 CR     3s         0.0000    0.0000    0.0118    0.0000    0.0000    0.0000   -0.0000    0.0054    0.0331    0.0000
        4 CR     4s        -0.0000   -0.0000   -0.0706   -0.0000   -0.0000   -0.0000    0.0000   -0.0137    0.0506   -0.0000
        5 CR     5s        -0.0000   -0.0000   -0.0375   -0.0000   -0.0000   -0.0000    0.0000   -0.0342    0.6309    0.0000
        6 CR     6s        -0.0000   -0.0000   -0.0120   -0.0000   -0.0000   -0.0000    0.0000   -0.0215    0.6699    0.0000
        7 CR     7s         0.0000    0.0000    0.0036   -0.0000   -0.0000   -0.0000    0.0000   -0.0030    0.3321    0.0000
        8 CR     8s         0.0000    0.0000    0.0044    0.0000    0.0000    0.0000   -0.0000    0.0013    0.1726    0.0000
        9 CR     9s         0.0000    0.0000    0.0008    0.0000    0.0000    0.0000   -0.0000    0.0007    0.0131    0.0000
       10 CR    10s        -0.0000   -0.0000   -0.0000    0.0000    0.0000    0.0000   -0.0000    0.0000    0.0002    0.0000
       11 CR     2px        0.0000    0.0017    0.0000    0.0000    0.0002    0.0000   -0.0017   -0.0000   -0.0000    0.0000
       12 CR     3px       -0.0000   -0.0529   -0.0000    0.0000    0.0036    0.0000   -0.0345   -0.0000   -0.0000   -0.0000
       13 CR     4px        0.0000    0.9196    0.0000   -0.0000   -0.0260   -0.0000    0.0741    0.0000    0.0000    0.0000
       14 CR     5px        0.0000    0.3284    0.0000   -0.0000   -0.0167   -0.0000    0.0810    0.0000    0.0000   -0.0000
       15 CR     6px        0.0000    0.1397    0.0000   -0.0000   -0.0125   -0.0000    0.0676    0.0000    0.0000   -0.0000
       16 CR     7px       -0.0000   -0.0527   -0.0000    0.0000    0.0005   -0.0000    0.0001    0.0000    0.0000   -0.0000
       17 CR     8px       -0.0000   -0.0628   -0.0000    0.0000    0.0031    0.0000   -0.0136   -0.0000    0.0000   -0.0000
       18 CR     9px       -0.0000   -0.0194   -0.0000    0.0000    0.0014    0.0000   -0.0065   -0.0000   -0.0000   -0.0000
       19 CR    10px       -0.0000   -0.0020   -0.0000    0.0000    0.0003    0.0000   -0.0015   -0.0000   -0.0000   -0.0000
       20 CR    11px       -0.0000   -0.0002   -0.0000    0.0000    0.0001    0.0000   -0.0004   -0.0000   -0.0000    0.0000
       21 CR     2py        0.0017   -0.0000   -0.0000   -0.0002    0.0000   -0.0017   -0.0000    0.0000   -0.0000   -0.0010
       22 CR     3py       -0.0529    0.0000    0.0000   -0.0036    0.0000   -0.0345   -0.0000    0.0000    0.0000    0.0305
       23 CR     4py        0.9196   -0.0000   -0.0000    0.0260   -0.0000    0.0741    0.0000   -0.0000    0.0000   -0.1570
       24 CR     5py        0.3284   -0.0000   -0.0000    0.0167   -0.0000    0.0810    0.0000   -0.0000   -0.0000    0.2303
       25 CR     6py        0.1397   -0.0000   -0.0000    0.0125   -0.0000    0.0676    0.0000   -0.0000   -0.0000    0.8011
       26 CR     7py       -0.0527    0.0000    0.0000   -0.0005    0.0000    0.0001    0.0000   -0.0000   -0.0000    0.4387
       27 CR     8py       -0.0628    0.0000    0.0000   -0.0031    0.0000   -0.0136   -0.0000    0.0000   -0.0000    0.2422
       28 CR     9py       -0.0194    0.0000    0.0000   -0.0014    0.0000   -0.0065   -0.0000    0.0000    0.0000    0.0601
       29 CR    10py       -0.0020    0.0000    0.0000   -0.0003    0.0000   -0.0015   -0.0000    0.0000    0.0000    0.0047
       30 CR    11py       -0.0002    0.0000    0.0000   -0.0001    0.0000   -0.0004   -0.0000    0.0000    0.0000   -0.0003
       31 CR     2pz        0.0000   -0.0000    0.0006   -0.0000   -0.0000    0.0000   -0.0000    0.0009   -0.0002   -0.0000
       32 CR     3pz       -0.0000    0.0000   -0.0736   -0.0000   -0.0000    0.0000   -0.0000    0.0189   -0.0051    0.0000
       33 CR     4pz        0.0000   -0.0000    0.8981    0.0000    0.0000   -0.0000    0.0000   -0.0834    0.0051   -0.0000
       34 CR     5pz        0.0000   -0.0000    0.3614    0.0000    0.0000   -0.0000    0.0000   -0.0674    0.0390    0.0000
       35 CR     6pz        0.0000   -0.0000    0.1715   -0.0000    0.0000   -0.0000    0.0000   -0.0563    0.0651    0.0000
       36 CR     7pz       -0.0000    0.0000   -0.0528   -0.0000   -0.0000   -0.0000    0.0000   -0.0006    0.0189    0.0000
       37 CR     8pz       -0.0000    0.0000   -0.0698   -0.0000   -0.0000    0.0000   -0.0000    0.0114    0.0026    0.0000
       38 CR     9pz        0.0000    0.0000   -0.0229   -0.0000   -0.0000    0.0000   -0.0000    0.0057   -0.0023    0.0000
       39 CR    10pz        0.0000    0.0000   -0.0028   -0.0000   -0.0000    0.0000   -0.0000    0.0014   -0.0012    0.0000
       40 CR    11pz        0.0000    0.0000   -0.0004   -0.0000   -0.0000    0.0000   -0.0000    0.0003   -0.0003   -0.0000
       41 CR     3d2-      -0.0757    0.0000    0.0000    0.5954   -0.0000    0.2672    0.0000   -0.0000    0.0000    0.0325
       42 CR     4d2-      -0.0372    0.0000    0.0000    0.5315   -0.0000    0.2829    0.0000   -0.0000    0.0000   -0.0213
       43 CR     5d2-      -0.0163    0.0000    0.0000    0.3275   -0.0000    0.1888    0.0000   -0.0000    0.0000   -0.0532
       44 CR     6d2-      -0.0073    0.0000    0.0000    0.1737   -0.0000    0.1052    0.0000   -0.0000    0.0000   -0.0477
       45 CR     7d2-      -0.0025    0.0000   -0.0000    0.1141   -0.0000    0.0743    0.0000   -0.0000    0.0000   -0.0547
       46 CR     8d2-       0.0014   -0.0000   -0.0000   -0.0013    0.0000    0.0041    0.0000   -0.0000    0.0000   -0.0243
       47 CR     9d2-       0.0013   -0.0000   -0.0000   -0.0164    0.0000   -0.0080   -0.0000    0.0000   -0.0000   -0.0055
       48 CR    10d2-       0.0003   -0.0000   -0.0000   -0.0050    0.0000   -0.0028   -0.0000    0.0000   -0.0000   -0.0008
       49 CR     3d1-      -0.0917    0.0000    0.0000   -0.3109    0.0000    0.5264    0.0000   -0.0000    0.0000    0.0410
       50 CR     4d1-      -0.0335    0.0000    0.0000   -0.2730    0.0000    0.5498    0.0000   -0.0000    0.0000   -0.0304
       51 CR     5d1-      -0.0113    0.0000    0.0000   -0.1684    0.0000    0.3681    0.0000   -0.0000    0.0000   -0.0658
       52 CR     6d1-      -0.0056    0.0000    0.0000   -0.0888    0.0000    0.2044    0.0000   -0.0000    0.0000   -0.0559
       53 CR     7d1-      -0.0010    0.0000    0.0000   -0.0585    0.0000    0.1449    0.0000   -0.0000    0.0000   -0.0626
       54 CR     8d1-       0.0009   -0.0000    0.0000    0.0007   -0.0000    0.0080    0.0000   -0.0000    0.0000   -0.0264
       55 CR     9d1-       0.0011   -0.0000    0.0000    0.0085   -0.0000   -0.0158   -0.0000    0.0000    0.0000   -0.0056
       56 CR    10d1-       0.0002   -0.0000    0.0000    0.0025   -0.0000   -0.0053   -0.0000    0.0000    0.0000   -0.0007
       57 CR     3d0        0.0000    0.0000    0.0899    0.0000    0.0000    0.0000   -0.0000    0.5951    0.0037    0.0000
       58 CR     4d0        0.0000   -0.0000    0.0606    0.0000    0.0000    0.0000   -0.0000    0.6168    0.0325   -0.0000
       59 CR     5d0        0.0000   -0.0000    0.0327    0.0000    0.0000    0.0000   -0.0000    0.4116    0.0326   -0.0000
       60 CR     6d0        0.0000   -0.0000    0.0141    0.0000    0.0000    0.0000   -0.0000    0.2286    0.0219   -0.0000
       61 CR     7d0        0.0000   -0.0000    0.0068    0.0000    0.0000    0.0000   -0.0000    0.1618    0.0206   -0.0000
       62 CR     8d0       -0.0000    0.0000   -0.0024   -0.0000   -0.0000    0.0000   -0.0000    0.0090    0.0056   -0.0000
       63 CR     9d0       -0.0000    0.0000   -0.0024   -0.0000   -0.0000   -0.0000    0.0000   -0.0177    0.0004   -0.0000
       64 CR    10d0       -0.0000    0.0000   -0.0005   -0.0000   -0.0000   -0.0000    0.0000   -0.0060   -0.0002    0.0000
       65 CR     3d1+      -0.0000   -0.0917   -0.0000    0.0000    0.3109   -0.0000    0.5264    0.0000    0.0000   -0.0000
       66 CR     4d1+      -0.0000   -0.0335   -0.0000    0.0000    0.2730   -0.0000    0.5498    0.0000    0.0000    0.0000
       67 CR     5d1+      -0.0000   -0.0113   -0.0000    0.0000    0.1684   -0.0000    0.3681    0.0000    0.0000    0.0000
       68 CR     6d1+      -0.0000   -0.0056   -0.0000    0.0000    0.0888   -0.0000    0.2044    0.0000    0.0000    0.0000
       69 CR     7d1+      -0.0000   -0.0010   -0.0000    0.0000    0.0585   -0.0000    0.1449    0.0000    0.0000    0.0000
       70 CR     8d1+       0.0000    0.0009    0.0000   -0.0000   -0.0007   -0.0000    0.0080    0.0000    0.0000    0.0000
       71 CR     9d1+       0.0000    0.0011    0.0000   -0.0000   -0.0085    0.0000   -0.0158   -0.0000    0.0000    0.0000
       72 CR    10d1+       0.0000    0.0002    0.0000   -0.0000   -0.0025    0.0000   -0.0053   -0.0000   -0.0000    0.0000
       73 CR     3d2+       0.0000    0.0757   -0.0000    0.0000    0.5954    0.0000   -0.2672   -0.0000    0.0000    0.0000
       74 CR     4d2+       0.0000    0.0372   -0.0000    0.0000    0.5315    0.0000   -0.2829   -0.0000    0.0000   -0.0000
       75 CR     5d2+       0.0000    0.0163   -0.0000    0.0000    0.3275    0.0000   -0.1888   -0.0000    0.0000   -0.0000
       76 CR     6d2+       0.0000    0.0073   -0.0000    0.0000    0.1737    0.0000   -0.1052   -0.0000    0.0000   -0.0000
       77 CR     7d2+       0.0000    0.0025   -0.0000    0.0000    0.1141    0.0000   -0.0743   -0.0000    0.0000   -0.0000
       78 CR     8d2+      -0.0000   -0.0014    0.0000   -0.0000   -0.0013    0.0000   -0.0041   -0.0000    0.0000   -0.0000
       79 CR     9d2+      -0.0000   -0.0013    0.0000   -0.0000   -0.0164   -0.0000    0.0080    0.0000    0.0000   -0.0000
       80 CR    10d2+      -0.0000   -0.0003    0.0000   -0.0000   -0.0050   -0.0000    0.0028    0.0000   -0.0000   -0.0000
       81 CR     4f3-       0.0000   -0.0000    0.0000    0.0000   -0.0000    0.0000    0.0000   -0.0000    0.0000   -0.0000
       82 CR     5f3-      -0.0000    0.0000    0.0000    0.0000   -0.0000    0.0000    0.0000   -0.0000   -0.0000    0.0000
       83 CR     6f3-      -0.0000    0.0000   -0.0000    0.0000   -0.0000    0.0000    0.0000   -0.0000   -0.0000    0.0000
       84 CR     7f3-      -0.0000    0.0000   -0.0000    0.0000   -0.0000    0.0000    0.0000   -0.0000   -0.0000    0.0000
       85 CR     8f3-      -0.0000    0.0000   -0.0000    0.0000   -0.0000    0.0000    0.0000   -0.0000   -0.0000   -0.0000
       86 CR     9f3-      -0.0000    0.0000   -0.0000    0.0000   -0.0000    0.0000   -0.0000   -0.0000   -0.0000   -0.0000
       87 CR     4f2-      -0.0008    0.0000    0.0000    0.0100   -0.0000    0.0087    0.0000   -0.0000   -0.0000    0.0006
       88 CR     5f2-      -0.0007    0.0000    0.0000    0.0035   -0.0000    0.0010    0.0000   -0.0000    0.0000    0.0003
       89 CR     6f2-      -0.0001    0.0000    0.0000    0.0048   -0.0000    0.0035    0.0000   -0.0000    0.0000   -0.0001
       90 CR     7f2-      -0.0002    0.0000    0.0000    0.0017   -0.0000    0.0005    0.0000   -0.0000    0.0000   -0.0002
       91 CR     8f2-      -0.0000    0.0000   -0.0000    0.0015   -0.0000    0.0014    0.0000   -0.0000   -0.0000   -0.0001
       92 CR     9f2-       0.0000   -0.0000    0.0000    0.0003   -0.0000    0.0000    0.0000   -0.0000    0.0000   -0.0002
       93 CR     4f1-       0.0001   -0.0000    0.0000   -0.0046    0.0000    0.0055    0.0000   -0.0000    0.0000   -0.0001
       94 CR     5f1-      -0.0026    0.0000    0.0000   -0.0027    0.0000    0.0055    0.0000   -0.0000    0.0000    0.0011
       95 CR     6f1-      -0.0013    0.0000    0.0000   -0.0027    0.0000    0.0051    0.0000   -0.0000    0.0000    0.0001
       96 CR     7f1-      -0.0010    0.0000    0.0000   -0.0013    0.0000    0.0030    0.0000   -0.0000    0.0000   -0.0002
       97 CR     8f1-      -0.0001    0.0000    0.0000   -0.0007    0.0000    0.0015    0.0000   -0.0000    0.0000   -0.0004
       98 CR     9f1-      -0.0000    0.0000    0.0000   -0.0003    0.0000    0.0007    0.0000   -0.0000    0.0000   -0.0004
       99 CR     4f0       -0.0000   -0.0000    0.0012   -0.0000   -0.0000    0.0000   -0.0000    0.0022   -0.0036   -0.0000
      100 CR     5f0        0.0000    0.0000   -0.0019    0.0000    0.0000    0.0000   -0.0000    0.0078    0.0016    0.0000
      101 CR     6f0       -0.0000    0.0000   -0.0010   -0.0000   -0.0000    0.0000   -0.0000    0.0053   -0.0011   -0.0000
      102 CR     7f0        0.0000    0.0000   -0.0008    0.0000    0.0000    0.0000   -0.0000    0.0044    0.0009   -0.0000
      103 CR     8f0       -0.0000   -0.0000   -0.0001   -0.0000   -0.0000    0.0000   -0.0000    0.0012   -0.0002   -0.0000
      104 CR     9f0       -0.0000    0.0000   -0.0000    0.0000    0.0000    0.0000   -0.0000    0.0012    0.0002   -0.0000
      105 CR     4f1+       0.0000    0.0001    0.0000    0.0000    0.0046   -0.0000    0.0055    0.0000   -0.0000    0.0000
      106 CR     5f1+      -0.0000   -0.0026   -0.0000    0.0000    0.0027   -0.0000    0.0055    0.0000    0.0000   -0.0000
      107 CR     6f1+      -0.0000   -0.0013   -0.0000    0.0000    0.0027   -0.0000    0.0051    0.0000    0.0000   -0.0000
      108 CR     7f1+      -0.0000   -0.0010   -0.0000    0.0000    0.0013   -0.0000    0.0030    0.0000    0.0000    0.0000
      109 CR     8f1+      -0.0000   -0.0001   -0.0000    0.0000    0.0007   -0.0000    0.0015    0.0000    0.0000    0.0000
      110 CR     9f1+      -0.0000   -0.0000    0.0000    0.0000    0.0003   -0.0000    0.0007    0.0000    0.0000    0.0000
      111 CR     4f2+       0.0000    0.0008    0.0000    0.0000    0.0100    0.0000   -0.0087   -0.0000    0.0000    0.0000
      112 CR     5f2+       0.0000    0.0007   -0.0000    0.0000    0.0035    0.0000   -0.0010   -0.0000    0.0000    0.0000
      113 CR     6f2+       0.0000    0.0001   -0.0000    0.0000    0.0048    0.0000   -0.0035   -0.0000    0.0000   -0.0000
      114 CR     7f2+       0.0000    0.0002   -0.0000    0.0000    0.0017    0.0000   -0.0005   -0.0000    0.0000   -0.0000
      115 CR     8f2+       0.0000    0.0000    0.0000    0.0000    0.0015    0.0000   -0.0014   -0.0000    0.0000   -0.0000
      116 CR     9f2+      -0.0000   -0.0000   -0.0000    0.0000    0.0003    0.0000   -0.0000   -0.0000    0.0000   -0.0000
      117 CR     4f3+       0.0000    0.0000   -0.0015    0.0000    0.0000    0.0000   -0.0000    0.0036   -0.0027    0.0000
      118 CR     5f3+      -0.0000   -0.0000    0.0007    0.0000    0.0000   -0.0000   -0.0000   -0.0006    0.0008   -0.0000
      119 CR     6f3+      -0.0000   -0.0000   -0.0006    0.0000    0.0000    0.0000   -0.0000    0.0006   -0.0011   -0.0000
      120 CR     7f3+      -0.0000   -0.0000    0.0003    0.0000    0.0000   -0.0000   -0.0000   -0.0004    0.0004   -0.0000
      121 CR     8f3+       0.0000   -0.0000   -0.0002    0.0000    0.0000    0.0000   -0.0000    0.0003   -0.0003   -0.0000
      122 CR     9f3+       0.0000   -0.0000    0.0001   -0.0000    0.0000   -0.0000   -0.0000   -0.0001    0.0001    0.0000
      123 CR     5g4-       0.0009   -0.0000   -0.0000   -0.0002    0.0000    0.0010    0.0000   -0.0000    0.0000   -0.0006
      124 CR     6g4-      -0.0004    0.0000    0.0000    0.0000   -0.0000   -0.0004   -0.0000    0.0000   -0.0000    0.0002
      125 CR     7g4-       0.0005   -0.0000   -0.0000   -0.0000    0.0000    0.0004    0.0000   -0.0000    0.0000   -0.0003
      126 CR     8g4-      -0.0001    0.0000    0.0000    0.0000   -0.0000   -0.0003   -0.0000    0.0000   -0.0000    0.0001
      127 CR     5g3-      -0.0000    0.0000    0.0000   -0.0000    0.0000   -0.0000   -0.0000   -0.0000    0.0000    0.0000
      128 CR     6g3-       0.0000   -0.0000   -0.0000   -0.0000    0.0000    0.0000    0.0000   -0.0000   -0.0000   -0.0000
      129 CR     7g3-      -0.0000    0.0000    0.0000   -0.0000    0.0000   -0.0000   -0.0000   -0.0000   -0.0000    0.0000
      130 CR     8g3-       0.0000   -0.0000    0.0000    0.0000   -0.0000    0.0000    0.0000   -0.0000   -0.0000   -0.0000
      131 CR     5g2-       0.0003   -0.0000   -0.0000   -0.0009    0.0000   -0.0011   -0.0000    0.0000   -0.0000   -0.0002
      132 CR     6g2-       0.0000   -0.0000   -0.0000   -0.0005    0.0000    0.0000    0.0000   -0.0000    0.0000    0.0000
      133 CR     7g2-       0.0001   -0.0000   -0.0000   -0.0005    0.0000   -0.0006   -0.0000    0.0000   -0.0000   -0.0001
      134 CR     8g2-       0.0000   -0.0000    0.0000   -0.0002    0.0000    0.0001    0.0000   -0.0000    0.0000    0.0000
      135 CR     5g1-       0.0016   -0.0000   -0.0000    0.0016   -0.0000   -0.0007   -0.0000    0.0000    0.0000   -0.0010
      136 CR     6g1-      -0.0005    0.0000    0.0000    0.0001   -0.0000   -0.0010   -0.0000    0.0000   -0.0000    0.0003
      137 CR     7g1-       0.0008   -0.0000   -0.0000    0.0007   -0.0000   -0.0005   -0.0000    0.0000    0.0000   -0.0005
      138 CR     8g1-      -0.0002    0.0000    0.0000   -0.0001    0.0000   -0.0005   -0.0000    0.0000   -0.0000    0.0001
      139 CR     5g0       -0.0000   -0.0000    0.0018   -0.0000    0.0000   -0.0000    0.0000   -0.0026   -0.0000   -0.0000
      140 CR     6g0       -0.0000    0.0000   -0.0011   -0.0000   -0.0000   -0.0000    0.0000   -0.0003    0.0000   -0.0000
      141 CR     7g0        0.0000   -0.0000    0.0010   -0.0000   -0.0000   -0.0000    0.0000   -0.0015   -0.0001   -0.0000
      142 CR     8g0        0.0000    0.0000   -0.0004   -0.0000   -0.0000    0.0000   -0.0000    0.0000   -0.0000   -0.0000
      143 CR     5g1+       0.0000    0.0016    0.0000   -0.0000   -0.0016    0.0000   -0.0007   -0.0000    0.0000    0.0000
      144 CR     6g1+      -0.0000   -0.0005   -0.0000   -0.0000   -0.0001    0.0000   -0.0010   -0.0000   -0.0000   -0.0000
      145 CR     7g1+       0.0000    0.0008    0.0000   -0.0000   -0.0007    0.0000   -0.0005   -0.0000    0.0000    0.0000
      146 CR     8g1+      -0.0000   -0.0002   -0.0000    0.0000    0.0001    0.0000   -0.0005   -0.0000   -0.0000   -0.0000
      147 CR     5g2+      -0.0000   -0.0003   -0.0000   -0.0000   -0.0009   -0.0000    0.0011    0.0000   -0.0000   -0.0000
      148 CR     6g2+      -0.0000   -0.0000    0.0000   -0.0000   -0.0005    0.0000   -0.0000   -0.0000    0.0000    0.0000
      149 CR     7g2+      -0.0000   -0.0001   -0.0000   -0.0000   -0.0005   -0.0000    0.0006    0.0000   -0.0000   -0.0000
      150 CR     8g2+      -0.0000   -0.0000    0.0000   -0.0000   -0.0002    0.0000   -0.0001   -0.0000    0.0000    0.0000
      151 CR     5g3+       0.0000   -0.0000    0.0013   -0.0000   -0.0000   -0.0000    0.0000   -0.0004    0.0007   -0.0000
      152 CR     6g3+      -0.0000   -0.0000   -0.0007   -0.0000   -0.0000    0.0000   -0.0000    0.0002   -0.0006   -0.0000
      153 CR     7g3+       0.0000   -0.0000    0.0007   -0.0000   -0.0000   -0.0000    0.0000   -0.0002    0.0004   -0.0000
      154 CR     8g3+      -0.0000   -0.0000   -0.0003   -0.0000   -0.0000    0.0000   -0.0000    0.0001   -0.0003   -0.0000
      155 CR     5g4+       0.0000    0.0009    0.0000    0.0000    0.0002   -0.0000    0.0010    0.0000    0.0000    0.0000
      156 CR     6g4+      -0.0000   -0.0004   -0.0000   -0.0000   -0.0000    0.0000   -0.0004   -0.0000   -0.0000   -0.0000
      157 CR     7g4+       0.0000    0.0005    0.0000    0.0000    0.0000   -0.0000    0.0004    0.0000    0.0000    0.0000
      158 CR     8g4+      -0.0000   -0.0001   -0.0000   -0.0000   -0.0000    0.0000   -0.0003   -0.0000   -0.0000   -0.0000
      159 CR     6h5-       0.0001   -0.0000    0.0000   -0.0007    0.0000   -0.0003   -0.0000    0.0000    0.0000   -0.0001
      160 CR     7h5-      -0.0000    0.0000    0.0000    0.0004   -0.0000    0.0002    0.0000   -0.0000   -0.0000    0.0000
      161 CR     6h4-      -0.0002    0.0000    0.0000    0.0003   -0.0000   -0.0006   -0.0000    0.0000    0.0000    0.0001
      162 CR     7h4-       0.0002   -0.0000   -0.0000   -0.0001    0.0000    0.0003    0.0000   -0.0000    0.0000   -0.0001
      163 CR     6h3-       0.0000   -0.0000   -0.0000   -0.0000    0.0000    0.0000    0.0000   -0.0000    0.0000    0.0000
      164 CR     7h3-      -0.0000    0.0000    0.0000    0.0000   -0.0000   -0.0000   -0.0000    0.0000    0.0000    0.0000
      165 CR     6h2-       0.0000   -0.0000    0.0000   -0.0006    0.0000   -0.0003   -0.0000    0.0000    0.0000   -0.0000
      166 CR     7h2-       0.0000   -0.0000   -0.0000    0.0003   -0.0000    0.0002    0.0000   -0.0000   -0.0000   -0.0000
      167 CR     6h1-       0.0002   -0.0000   -0.0000    0.0005   -0.0000   -0.0009   -0.0000    0.0000    0.0000   -0.0001
      168 CR     7h1-      -0.0001    0.0000   -0.0000   -0.0003    0.0000    0.0005    0.0000   -0.0000   -0.0000    0.0001
      169 CR     6h0       -0.0000   -0.0000   -0.0001   -0.0000   -0.0000   -0.0000    0.0000   -0.0011   -0.0000   -0.0000
      170 CR     7h0        0.0000   -0.0000    0.0000    0.0000    0.0000    0.0000   -0.0000    0.0007    0.0000   -0.0000
      171 CR     6h1+       0.0000    0.0002    0.0000   -0.0000   -0.0005    0.0000   -0.0009   -0.0000   -0.0000    0.0000
      172 CR     7h1+      -0.0000   -0.0001   -0.0000    0.0000    0.0003   -0.0000    0.0005    0.0000    0.0000   -0.0000
      173 CR     6h2+      -0.0000   -0.0000    0.0000   -0.0000   -0.0006   -0.0000    0.0003    0.0000    0.0000   -0.0000
      174 CR     7h2+      -0.0000   -0.0000   -0.0000    0.0000    0.0003    0.0000   -0.0002   -0.0000   -0.0000   -0.0000
      175 CR     6h3+      -0.0000    0.0000   -0.0004   -0.0000   -0.0000   -0.0000    0.0000   -0.0003   -0.0001    0.0000
      176 CR     7h3+       0.0000   -0.0000    0.0003    0.0000    0.0000    0.0000   -0.0000    0.0002    0.0001   -0.0000
      177 CR     6h4+      -0.0000   -0.0002   -0.0000   -0.0000   -0.0003    0.0000   -0.0006   -0.0000   -0.0000   -0.0000
      178 CR     7h4+       0.0000    0.0002    0.0000    0.0000    0.0001   -0.0000    0.0003    0.0000    0.0000    0.0000
      179 CR     6h5+      -0.0000   -0.0001    0.0000   -0.0000   -0.0007   -0.0000    0.0003    0.0000   -0.0000   -0.0000
      180 CR     7h5+       0.0000    0.0000    0.0000    0.0000    0.0004    0.0000   -0.0002   -0.0000    0.0000    0.0000

          Orbital           21        22        23        24        25        26        27        28        29        30    
          Energy           -0.1627   -0.1591   -0.1364   -0.1364   -0.1256   -0.1253   -0.1253   -0.0922   -0.0641   -0.0641
          Occ. No.          0.0000    0.0000    0.0000    0.0000    0.0000    0.0000    0.0000    0.0000    0.0000    0.0000

        1 CR     1s         0.0000    0.0000   -0.0000   -0.0000   -0.0000   -0.0000   -0.0000    0.0000   -0.0000   -0.0000
        2 CR     2s        -0.0000   -0.0003   -0.0000   -0.0000   -0.0007    0.0000   -0.0000    0.0006    0.0000    0.0000
        3 CR     3s        -0.0000   -0.0072   -0.0000   -0.0000   -0.0051    0.0000   -0.0000   -0.0387    0.0000    0.0006
        4 CR     4s         0.0000    0.0132    0.0000    0.0000    0.0075   -0.0000    0.0000    0.0153   -0.0000   -0.0006
        5 CR     5s        -0.0000   -0.0232    0.0000    0.0000    0.0180   -0.0000    0.0000   -0.3779    0.0000    0.0012
        6 CR     6s        -0.0000   -0.0500   -0.0000   -0.0000   -0.0135    0.0000   -0.0000   -0.1093    0.0000    0.0009
        7 CR     7s        -0.0000   -0.0516   -0.0000   -0.0000   -0.0499    0.0000   -0.0000    0.5681   -0.0000   -0.0014
        8 CR     8s        -0.0000   -0.0414   -0.0000   -0.0000   -0.0512    0.0000   -0.0000    0.6932   -0.0000   -0.0019
        9 CR     9s        -0.0000   -0.0072   -0.0000   -0.0000   -0.0109    0.0000   -0.0000    0.1671   -0.0000   -0.0005
       10 CR    10s        -0.0000   -0.0006   -0.0000   -0.0000   -0.0010    0.0000   -0.0000    0.0175   -0.0000   -0.0001
       11 CR     2px       -0.0010   -0.0000   -0.0000   -0.0001   -0.0000   -0.0000    0.0018    0.0000   -0.0000   -0.0000
       12 CR     3px        0.0305    0.0000   -0.0000   -0.0024   -0.0000   -0.0000    0.0324    0.0000   -0.0000    0.0000
       13 CR     4px       -0.1570   -0.0000    0.0000    0.0065    0.0000    0.0000   -0.0383   -0.0000   -0.0000    0.0000
       14 CR     5px        0.2303    0.0000   -0.0000   -0.0008    0.0000    0.0000   -0.0288   -0.0000    0.0000    0.0000
       15 CR     6px        0.8011    0.0000   -0.0000   -0.0228   -0.0000   -0.0000    0.0874    0.0000    0.0000   -0.0000
       16 CR     7px        0.4387    0.0000   -0.0000   -0.0184   -0.0000   -0.0000    0.0986    0.0000   -0.0000   -0.0000
       17 CR     8px        0.2422    0.0000   -0.0000   -0.0138   -0.0000   -0.0000    0.0825    0.0000   -0.0000   -0.0000
       18 CR     9px        0.0601    0.0000   -0.0000   -0.0050   -0.0000   -0.0000    0.0321    0.0000   -0.0000   -0.0000
       19 CR    10px        0.0047    0.0000   -0.0000   -0.0010   -0.0000   -0.0000    0.0073    0.0000   -0.0000   -0.0000
       20 CR    11px       -0.0003   -0.0000   -0.0000   -0.0001   -0.0000   -0.0000    0.0010    0.0000   -0.0000   -0.0000
       21 CR     2py       -0.0000   -0.0000    0.0001   -0.0000    0.0000    0.0018    0.0000   -0.0000    0.0000   -0.0000
       22 CR     3py        0.0000    0.0000    0.0024   -0.0000    0.0000    0.0324    0.0000   -0.0000    0.0000   -0.0000
       23 CR     4py       -0.0000   -0.0000   -0.0065    0.0000   -0.0000   -0.0383   -0.0000    0.0000    0.0000   -0.0000
       24 CR     5py        0.0000    0.0000    0.0008   -0.0000   -0.0000   -0.0288   -0.0000    0.0000   -0.0000    0.0000
       25 CR     6py        0.0000    0.0000    0.0228   -0.0000    0.0000    0.0874    0.0000   -0.0000   -0.0000   -0.0000
       26 CR     7py        0.0000    0.0000    0.0184   -0.0000    0.0000    0.0986    0.0000   -0.0000    0.0000   -0.0000
       27 CR     8py        0.0000    0.0000    0.0138   -0.0000    0.0000    0.0825    0.0000   -0.0000    0.0000   -0.0000
       28 CR     9py        0.0000    0.0000    0.0050   -0.0000    0.0000    0.0321    0.0000   -0.0000    0.0000   -0.0000
       29 CR    10py        0.0000    0.0000    0.0010   -0.0000    0.0000    0.0073    0.0000   -0.0000    0.0000   -0.0000
       30 CR    11py       -0.0000   -0.0000    0.0001   -0.0000    0.0000    0.0010    0.0000   -0.0000    0.0000   -0.0000
       31 CR     2pz        0.0000   -0.0004    0.0000    0.0000   -0.0010    0.0000   -0.0000    0.0001   -0.0000   -0.0000
       32 CR     3pz       -0.0000    0.0438    0.0000    0.0000   -0.0162    0.0000   -0.0000    0.0060   -0.0000   -0.0002
       33 CR     4pz        0.0000   -0.1766    0.0000   -0.0000    0.0282   -0.0000    0.0000   -0.0034   -0.0000   -0.0001
       34 CR     5pz       -0.0000    0.1950   -0.0000   -0.0000    0.0134   -0.0000    0.0000   -0.0232    0.0000    0.0005
       35 CR     6pz       -0.0000    0.7874   -0.0000    0.0000   -0.0758    0.0000   -0.0000    0.0106    0.0000    0.0000
       36 CR     7pz       -0.0000    0.4585   -0.0000    0.0000   -0.0775    0.0000   -0.0000    0.0401   -0.0000   -0.0007
       37 CR     8pz       -0.0000    0.2669   -0.0000    0.0000   -0.0644    0.0000   -0.0000    0.0440   -0.0000   -0.0008
       38 CR     9pz       -0.0000    0.0717   -0.0000    0.0000   -0.0253    0.0000   -0.0000    0.0217   -0.0000   -0.0004
       39 CR    10pz       -0.0000    0.0077    0.0000    0.0000   -0.0058    0.0000   -0.0000    0.0061   -0.0000   -0.0001
       40 CR    11pz        0.0000    0.0001    0.0000    0.0000   -0.0008    0.0000   -0.0000    0.0008   -0.0000   -0.0000
       41 CR     3d2-       0.0000   -0.0000   -0.3711    0.0000   -0.0000   -0.1950   -0.0000   -0.0000   -0.0000    0.0000
       42 CR     4d2-      -0.0000    0.0000   -0.0366    0.0000   -0.0000   -0.0636   -0.0000   -0.0000   -0.0000    0.0000
       43 CR     5d2-      -0.0000    0.0000    0.3489   -0.0000    0.0000    0.1531    0.0000    0.0000   -0.0000    0.0000
       44 CR     6d2-      -0.0000    0.0000    0.4004   -0.0000    0.0000    0.2011    0.0000    0.0000   -0.0000   -0.0000
       45 CR     7d2-      -0.0000    0.0000    0.5188   -0.0000    0.0000    0.2761    0.0000    0.0000   -0.0000   -0.0000
       46 CR     8d2-      -0.0000    0.0000    0.2828   -0.0000    0.0000    0.1619    0.0000   -0.0000   -0.0000   -0.0000
       47 CR     9d2-      -0.0000    0.0000    0.0812   -0.0000    0.0000    0.0500    0.0000   -0.0000   -0.0000   -0.0000
       48 CR    10d2-      -0.0000    0.0000    0.0149   -0.0000    0.0000    0.0097    0.0000   -0.0000   -0.0000   -0.0000
       49 CR     3d1-       0.0000    0.0000    0.1991   -0.0000   -0.0000   -0.3717   -0.0000   -0.0000   -0.0000    0.0000
       50 CR     4d1-      -0.0000   -0.0000    0.0179   -0.0000   -0.0000   -0.1179   -0.0000   -0.0000   -0.0000    0.0000
       51 CR     5d1-      -0.0000   -0.0000   -0.1863    0.0000    0.0000    0.2902    0.0000    0.0000   -0.0000   -0.0000
       52 CR     6d1-      -0.0000   -0.0000   -0.2140    0.0000    0.0000    0.3820    0.0000    0.0000    0.0000   -0.0000
       53 CR     7d1-      -0.0000   -0.0000   -0.2767    0.0000    0.0000    0.5237    0.0000    0.0000    0.0000   -0.0000
       54 CR     8d1-      -0.0000   -0.0000   -0.1507    0.0000    0.0000    0.3071    0.0000    0.0000    0.0000   -0.0000
       55 CR     9d1-      -0.0000   -0.0000   -0.0434    0.0000    0.0000    0.0951    0.0000    0.0000    0.0000   -0.0000
       56 CR    10d1-      -0.0000    0.0000   -0.0079    0.0000    0.0000    0.0184    0.0000    0.0000    0.0000   -0.0000
       57 CR     3d0       -0.0000   -0.0376   -0.0000   -0.0000   -0.4234    0.0000   -0.0000   -0.0277   -0.0000   -0.0001
       58 CR     4d0        0.0000    0.0168    0.0000   -0.0000   -0.1297    0.0000   -0.0000   -0.0327   -0.0000   -0.0010
       59 CR     5d0        0.0000    0.0589    0.0000    0.0000    0.3317   -0.0000    0.0000    0.0113   -0.0000   -0.0001
       60 CR     6d0        0.0000    0.0583    0.0000    0.0000    0.4333   -0.0000    0.0000    0.0321    0.0000    0.0010
       61 CR     7d0        0.0000    0.0694    0.0000    0.0000    0.5923   -0.0000    0.0000    0.0518    0.0000    0.0018
       62 CR     8d0        0.0000    0.0335    0.0000    0.0000    0.3461   -0.0000    0.0000    0.0369    0.0000    0.0015
       63 CR     9d0       -0.0000    0.0084    0.0000    0.0000    0.1068   -0.0000    0.0000    0.0131    0.0000    0.0006
       64 CR    10d0       -0.0000    0.0013    0.0000    0.0000    0.0206   -0.0000    0.0000    0.0028    0.0000    0.0001
       65 CR     3d1+       0.0410    0.0000   -0.0000   -0.1991    0.0000    0.0000   -0.3717   -0.0000    0.0000   -0.0000
       66 CR     4d1+      -0.0304   -0.0000   -0.0000   -0.0179    0.0000    0.0000   -0.1179   -0.0000    0.0000   -0.0000
       67 CR     5d1+      -0.0658   -0.0000    0.0000    0.1863   -0.0000   -0.0000    0.2902    0.0000    0.0000   -0.0000
       68 CR     6d1+      -0.0559   -0.0000    0.0000    0.2140   -0.0000   -0.0000    0.3820    0.0000    0.0000   -0.0000
       69 CR     7d1+      -0.0626   -0.0000    0.0000    0.2767   -0.0000   -0.0000    0.5237    0.0000   -0.0000    0.0000
       70 CR     8d1+      -0.0264   -0.0000    0.0000    0.1507   -0.0000   -0.0000    0.3071    0.0000    0.0000    0.0000
       71 CR     9d1+      -0.0056   -0.0000    0.0000    0.0434   -0.0000   -0.0000    0.0951    0.0000    0.0000    0.0000
       72 CR    10d1+      -0.0007   -0.0000    0.0000    0.0079   -0.0000   -0.0000    0.0184    0.0000    0.0000    0.0000
       73 CR     3d2+      -0.0325    0.0000   -0.0000   -0.3711   -0.0000   -0.0000    0.1950   -0.0000    0.0000   -0.0000
       74 CR     4d2+       0.0213   -0.0000   -0.0000   -0.0366   -0.0000   -0.0000    0.0636   -0.0000    0.0000   -0.0000
       75 CR     5d2+       0.0532   -0.0000    0.0000    0.3489    0.0000    0.0000   -0.1531    0.0000    0.0000   -0.0000
       76 CR     6d2+       0.0477   -0.0000    0.0000    0.4004    0.0000    0.0000   -0.2011    0.0000   -0.0000   -0.0000
       77 CR     7d2+       0.0547   -0.0000    0.0000    0.5188    0.0000    0.0000   -0.2761    0.0000   -0.0000   -0.0000
       78 CR     8d2+       0.0243   -0.0000    0.0000    0.2828    0.0000    0.0000   -0.1619    0.0000   -0.0000   -0.0000
       79 CR     9d2+       0.0055   -0.0000    0.0000    0.0812    0.0000    0.0000   -0.0500    0.0000   -0.0000   -0.0000
       80 CR    10d2+       0.0008   -0.0000    0.0000    0.0149    0.0000    0.0000   -0.0097    0.0000   -0.0000   -0.0000
       81 CR     4f3-      -0.0000    0.0000   -0.0000    0.0000    0.0000   -0.0000   -0.0000    0.0000    0.1587   -0.0000
       82 CR     5f3-       0.0000    0.0000   -0.0000    0.0000    0.0000   -0.0000   -0.0000    0.0000    0.4161   -0.0000
       83 CR     6f3-       0.0000   -0.0000   -0.0000    0.0000    0.0000   -0.0000   -0.0000    0.0000    0.5649   -0.0000
       84 CR     7f3-       0.0000   -0.0000    0.0000    0.0000    0.0000   -0.0000    0.0000    0.0000    0.5392   -0.0000
       85 CR     8f3-      -0.0000   -0.0000    0.0000    0.0000    0.0000   -0.0000    0.0000    0.0000    0.3448   -0.0000
       86 CR     9f3-      -0.0000   -0.0000    0.0000    0.0000    0.0000    0.0000    0.0000    0.0000    0.2701   -0.0000
       87 CR     4f2-       0.0000   -0.0000   -0.0089    0.0000   -0.0000   -0.0096   -0.0000   -0.0000   -0.0000   -0.0000
       88 CR     5f2-       0.0000    0.0000   -0.0020    0.0000   -0.0000   -0.0019   -0.0000   -0.0000   -0.0000   -0.0000
       89 CR     6f2-      -0.0000    0.0000   -0.0025    0.0000   -0.0000   -0.0044   -0.0000   -0.0000   -0.0000   -0.0000
       90 CR     7f2-      -0.0000    0.0000    0.0004   -0.0000   -0.0000   -0.0009   -0.0000   -0.0000   -0.0000   -0.0000
       91 CR     8f2-      -0.0000   -0.0000   -0.0000    0.0000   -0.0000   -0.0015   -0.0000   -0.0000   -0.0000   -0.0000
       92 CR     9f2-      -0.0000   -0.0000    0.0008   -0.0000   -0.0000   -0.0000   -0.0000   -0.0000   -0.0000   -0.0000
       93 CR     4f1-      -0.0000    0.0000    0.0039   -0.0000   -0.0000   -0.0048   -0.0000   -0.0000    0.0000    0.0000
       94 CR     5f1-       0.0000    0.0000    0.0013   -0.0000   -0.0000   -0.0032   -0.0000   -0.0000    0.0000    0.0000
       95 CR     6f1-       0.0000    0.0000    0.0008   -0.0000   -0.0000   -0.0017   -0.0000   -0.0000    0.0000    0.0000
       96 CR     7f1-      -0.0000    0.0000   -0.0004    0.0000   -0.0000    0.0003    0.0000   -0.0000    0.0000    0.0000
       97 CR     8f1-      -0.0000    0.0000   -0.0004    0.0000    0.0000    0.0007    0.0000   -0.0000    0.0000    0.0000
       98 CR     9f1-      -0.0000    0.0000   -0.0006    0.0000    0.0000    0.0010    0.0000   -0.0000    0.0000    0.0000
       99 CR     4f0        0.0000   -0.0005    0.0000    0.0000   -0.0008   -0.0000    0.0000    0.0048   -0.0000   -0.0039
      100 CR     5f0       -0.0000    0.0018    0.0000    0.0000   -0.0042    0.0000   -0.0000   -0.0013   -0.0000   -0.0099
      101 CR     6f0        0.0000    0.0013    0.0000    0.0000   -0.0004    0.0000    0.0000    0.0025   -0.0000   -0.0135
      102 CR     7f0        0.0000    0.0010   -0.0000    0.0000    0.0003    0.0000    0.0000    0.0000   -0.0000   -0.0128
      103 CR     8f0        0.0000    0.0004   -0.0000    0.0000    0.0018   -0.0000    0.0000    0.0011   -0.0000   -0.0082
      104 CR     9f0        0.0000    0.0002   -0.0000    0.0000    0.0012   -0.0000    0.0000    0.0004   -0.0000   -0.0064
      105 CR     4f1+      -0.0001   -0.0000   -0.0000   -0.0039    0.0000    0.0000   -0.0048   -0.0000   -0.0000    0.0000
      106 CR     5f1+       0.0011    0.0000   -0.0000   -0.0013    0.0000    0.0000   -0.0032   -0.0000   -0.0000    0.0000
      107 CR     6f1+       0.0001    0.0000   -0.0000   -0.0008   -0.0000    0.0000   -0.0017   -0.0000   -0.0000    0.0000
      108 CR     7f1+      -0.0002    0.0000    0.0000    0.0004   -0.0000   -0.0000    0.0003   -0.0000   -0.0000    0.0000
      109 CR     8f1+      -0.0004   -0.0000    0.0000    0.0004   -0.0000   -0.0000    0.0007   -0.0000   -0.0000    0.0000
      110 CR     9f1+      -0.0004   -0.0000    0.0000    0.0006   -0.0000   -0.0000    0.0010   -0.0000   -0.0000    0.0000
      111 CR     4f2+      -0.0006   -0.0000   -0.0000   -0.0089   -0.0000   -0.0000    0.0096   -0.0000   -0.0000   -0.0000
      112 CR     5f2+      -0.0003    0.0000   -0.0000   -0.0020   -0.0000   -0.0000    0.0019   -0.0000   -0.0000   -0.0000
      113 CR     6f2+       0.0001   -0.0000   -0.0000   -0.0025   -0.0000   -0.0000    0.0044   -0.0000   -0.0000   -0.0000
      114 CR     7f2+       0.0002    0.0000    0.0000    0.0004   -0.0000   -0.0000    0.0009   -0.0000   -0.0000   -0.0000
      115 CR     8f2+       0.0001   -0.0000   -0.0000   -0.0000   -0.0000   -0.0000    0.0015   -0.0000   -0.0000   -0.0000
      116 CR     9f2+       0.0002   -0.0000    0.0000    0.0008   -0.0000   -0.0000    0.0000   -0.0000   -0.0000   -0.0000
      117 CR     4f3+      -0.0000    0.0010   -0.0000   -0.0000   -0.0042    0.0000   -0.0000    0.0035    0.0000    0.1586
      118 CR     5f3+       0.0000   -0.0004   -0.0000   -0.0000   -0.0004   -0.0000    0.0000   -0.0000    0.0000    0.4160
      119 CR     6f3+       0.0000    0.0004   -0.0000   -0.0000   -0.0018    0.0000   -0.0000    0.0024    0.0000    0.5647
      120 CR     7f3+       0.0000   -0.0001   -0.0000    0.0000   -0.0006    0.0000   -0.0000    0.0006    0.0000    0.5391
      121 CR     8f3+       0.0000    0.0002   -0.0000    0.0000   -0.0009    0.0000   -0.0000    0.0010    0.0000    0.3447
      122 CR     9f3+       0.0000   -0.0000   -0.0000    0.0000   -0.0003    0.0000   -0.0000    0.0005    0.0000    0.2700
      123 CR     5g4-      -0.0000   -0.0000    0.0002   -0.0000   -0.0000   -0.0010   -0.0000    0.0000    0.0000    0.0000
      124 CR     6g4-       0.0000    0.0000   -0.0000    0.0000    0.0000    0.0004    0.0000   -0.0000    0.0000   -0.0000
      125 CR     7g4-      -0.0000   -0.0000    0.0001   -0.0000   -0.0000   -0.0004   -0.0000    0.0000    0.0000   -0.0000
      126 CR     8g4-       0.0000   -0.0000   -0.0000    0.0000    0.0000    0.0003    0.0000   -0.0000    0.0000   -0.0000
      127 CR     5g3-       0.0000    0.0000    0.0000   -0.0000   -0.0000    0.0000    0.0000   -0.0000    0.0004   -0.0000
      128 CR     6g3-      -0.0000   -0.0000   -0.0000    0.0000   -0.0000   -0.0000   -0.0000   -0.0000    0.0007   -0.0000
      129 CR     7g3-       0.0000   -0.0000    0.0000    0.0000   -0.0000    0.0000    0.0000   -0.0000    0.0007   -0.0000
      130 CR     8g3-      -0.0000   -0.0000   -0.0000    0.0000   -0.0000   -0.0000   -0.0000    0.0000    0.0006   -0.0000
      131 CR     5g2-      -0.0000   -0.0000    0.0007   -0.0000    0.0000    0.0011    0.0000    0.0000   -0.0000   -0.0000
      132 CR     6g2-       0.0000   -0.0000    0.0003   -0.0000   -0.0000   -0.0001   -0.0000   -0.0000   -0.0000   -0.0000
      133 CR     7g2-      -0.0000   -0.0000    0.0003   -0.0000    0.0000    0.0005    0.0000    0.0000   -0.0000   -0.0000
      134 CR     8g2-       0.0000   -0.0000    0.0000   -0.0000   -0.0000   -0.0002   -0.0000   -0.0000   -0.0000   -0.0000
      135 CR     5g1-      -0.0000   -0.0000   -0.0014    0.0000    0.0000    0.0007    0.0000   -0.0000    0.0000    0.0000
      136 CR     6g1-       0.0000    0.0000    0.0000   -0.0000    0.0000    0.0008    0.0000    0.0000    0.0000    0.0000
      137 CR     7g1-      -0.0000   -0.0000   -0.0005    0.0000    0.0000    0.0003    0.0000    0.0000    0.0000    0.0000
      138 CR     8g1-       0.0000    0.0000    0.0002   -0.0000    0.0000    0.0003    0.0000    0.0000    0.0000    0.0000
      139 CR     5g0        0.0000   -0.0012   -0.0000   -0.0000    0.0026   -0.0000    0.0000    0.0002   -0.0000   -0.0000
      140 CR     6g0       -0.0000    0.0006    0.0000    0.0000    0.0001   -0.0000   -0.0000    0.0000    0.0000   -0.0000
      141 CR     7g0        0.0000   -0.0007    0.0000    0.0000    0.0012   -0.0000    0.0000    0.0001    0.0000   -0.0000
      142 CR     8g0       -0.0000    0.0003   -0.0000    0.0000   -0.0002    0.0000   -0.0000   -0.0000    0.0000   -0.0000
      143 CR     5g1+      -0.0010   -0.0000    0.0000    0.0014    0.0000   -0.0000    0.0007   -0.0000   -0.0000    0.0000
      144 CR     6g1+       0.0003    0.0000   -0.0000   -0.0000   -0.0000   -0.0000    0.0008    0.0000   -0.0000    0.0000
      145 CR     7g1+      -0.0005   -0.0000    0.0000    0.0005   -0.0000   -0.0000    0.0003   -0.0000   -0.0000    0.0000
      146 CR     8g1+       0.0001    0.0000   -0.0000   -0.0002   -0.0000   -0.0000    0.0003    0.0000   -0.0000    0.0000
      147 CR     5g2+       0.0002    0.0000    0.0000    0.0007    0.0000    0.0000   -0.0011    0.0000   -0.0000   -0.0000
      148 CR     6g2+      -0.0000   -0.0000    0.0000    0.0003   -0.0000   -0.0000    0.0001   -0.0000   -0.0000   -0.0000
      149 CR     7g2+       0.0001    0.0000    0.0000    0.0003    0.0000    0.0000   -0.0005    0.0000   -0.0000   -0.0000
      150 CR     8g2+      -0.0000   -0.0000    0.0000    0.0000   -0.0000   -0.0000    0.0002   -0.0000   -0.0000   -0.0000
      151 CR     5g3+       0.0000   -0.0008    0.0000    0.0000    0.0004   -0.0000    0.0000   -0.0008    0.0000    0.0004
      152 CR     6g3+       0.0000    0.0004    0.0000    0.0000   -0.0002    0.0000    0.0000    0.0007    0.0000    0.0007
[...]
         3   17       5.67551473E-02  2.97000692E-05  9.46070346E+06  2.04645534E-15  9.46070346E+06
         4    8       1.04427860E-03  9.67501617E-09  3.08211630E+03  1.32264901E-20  3.08211630E+03
         4   10       1.05750379E-01  9.27516371E+06  2.09135419E-02  2.51694526E+06  1.17921090E+07
         4   12       8.31791077E-02  2.09134582E-02  9.27521301E+06  4.85975427E-03  9.27521303E+06
         4   14       1.42072279E-01  4.92119061E+06  6.36928355E-05  1.86591193E+07  2.35803099E+07
         4   16       2.96511398E-02  6.36910763E-05  4.92131967E+06  5.45436150E-08  4.92131967E+06
         4   18       5.67551473E-02  2.97000692E-05  9.46070346E+06  2.04645534E-15  9.46070346E+06
         5    7       1.04427835E-03  3.08210089E+03  9.67490854E-09  1.79370512E-08  3.08210089E+03
         5    9       8.31787182E-02  2.09134440E-02  9.27516056E+06  4.85968232E-03  9.27516059E+06
         5   11       1.05750140E-01  9.27516103E+06  2.09134482E-02  2.51691439E+06  1.17920754E+07
         5   13       2.96502619E-02  6.36924600E-05  4.92117060E+06  5.45653226E-08  4.92117060E+06
         5   15       1.42071212E-01  4.92095755E+06  6.36940321E-05  1.86591615E+07  2.35801190E+07
         5   17       5.67576711E-02  9.46111816E+06  2.96973211E-05  3.02673365E-03  9.46111817E+06
         6    8       1.04427835E-03  3.08210089E+03  9.67490854E-09  1.79370512E-08  3.08210089E+03
         6   10       8.31787182E-02  2.09134440E-02  9.27516056E+06  4.85968232E-03  9.27516059E+06
         6   12       1.05750140E-01  9.27516103E+06  2.09134482E-02  2.51691439E+06  1.17920754E+07
         6   14       2.96502619E-02  6.36924600E-05  4.92117060E+06  5.45653226E-08  4.92117060E+06
         6   16       1.42071212E-01  4.92095755E+06  6.36940321E-05  1.86591615E+07  2.35801190E+07
         6   18       5.67576711E-02  9.46111816E+06  2.96973211E-05  3.02673365E-03  9.46111817E+06
         7    9       1.96195940E-02  3.20512064E-03  1.53381102E+06  9.02395380E-15  1.53381102E+06
         7   11       1.96194835E-02  1.53380274E+06  3.20513667E-03  4.72373602E-06  1.53380275E+06
         7   13       9.64710365E-02  4.00902303E-05  1.20260665E+07  9.51107301E-16  1.20260665E+07
         7   15       9.64711924E-02  1.20260866E+07  4.00905188E-05  3.53324959E-03  1.20260866E+07
         7   17       1.55793336E-01  2.07875689E-03  4.03845337E-15  1.95183074E+07  1.95183074E+07
         8   10       1.96195940E-02  3.20512064E-03  1.53381102E+06  9.02395380E-15  1.53381102E+06
         8   12       1.96194835E-02  1.53380274E+06  3.20513667E-03  4.72373602E-06  1.53380275E+06
         8   14       9.64710365E-02  4.00902303E-05  1.20260665E+07  9.51107301E-16  1.20260665E+07
         8   16       9.64711924E-02  1.20260866E+07  4.00905188E-05  3.53324959E-03  1.20260866E+07
         8   18       1.55793336E-01  2.07875689E-03  4.03845337E-15  1.95183074E+07  1.95183074E+07
         9   13       4.40285881E-04  2.29246844E+03  5.18080735E-06  8.41004054E+01  2.37656885E+03
         9   15       4.24701828E-04  5.18084525E-06  2.29245007E+03  1.61975975E-07  2.29245007E+03
         9   17       2.20982038E-05  2.55206709E-07  1.22161862E+02  4.86411208E-17  1.22161862E+02
        10   14       4.40285881E-04  2.29246844E+03  5.18080735E-06  8.41004054E+01  2.37656885E+03
        10   16       4.24701828E-04  5.18084525E-06  2.29245007E+03  1.61975975E-07  2.29245007E+03
        10   18       2.20982038E-05  2.55206709E-07  1.22161862E+02  4.86411208E-17  1.22161862E+02
        11   13       4.24706461E-04  5.18078575E-06  2.29247242E+03  1.61982705E-07  2.29247242E+03
        11   15       4.40289414E-04  2.29248912E+03  5.18074517E-06  8.40972891E+01  2.37658642E+03
        11   17       2.20923541E-05  1.22129416E+02  2.55277775E-07  2.87103646E-08  1.22129416E+02
        12   14       4.24706461E-04  5.18078575E-06  2.29247242E+03  1.61982705E-07  2.29247242E+03
        12   16       4.40289414E-04  2.29248912E+03  5.18074517E-06  8.40972891E+01  2.37658642E+03
        12   18       2.20923541E-05  1.22129416E+02  2.55277775E-07  2.87103646E-08  1.22129416E+02
        13   17       1.32537983E-05  3.43584310E-14  1.03059373E-02  9.19479719E-26  1.03059373E-02
        14   18       1.32537983E-05  3.43584310E-14  1.03059373E-02  9.19479719E-26  1.03059373E-02
        15   17       1.32541601E-05  1.03059910E-02  3.43543517E-14  1.32732875E-11  1.03059911E-02
        16   18       1.32541601E-05  1.03059910E-02  3.43543517E-14  1.32732875E-11  1.03059911E-02
     -----------------------------------------------------------------------------------------------
--

++ Velocity transition strengths (SO states):
   ------------------------------------------
    for osc. strength at least    1.0000000000000001E-005

      From   To        Osc. strength     Einstein coefficients Ax, Ay, Az (sec-1)    Total A (sec-1)
     -----------------------------------------------------------------------------------------------
         1    3       3.29720410E-01  5.18559508E-04  1.65194218E+08  2.60688592E-14  1.65194218E+08
         1    5       3.29720497E-01  1.65194322E+08  5.18561231E-04  1.03653497E-04  1.65194322E+08
         1    7       3.60036523E-01  1.00568107E-04  2.53949132E-14  2.09135304E+08  2.09135304E+08
         1    9       2.03881556E-05  4.62349315E-05  2.21262234E+04  6.91385574E-14  2.21262234E+04
         1   11       2.03874360E-05  2.21254438E+04  4.62361412E-05  3.70846081E-05  2.21254439E+04
         1   13       1.37313457E-02  5.69319555E-05  1.70779677E+07  7.39969074E-16  1.70779677E+07
         1   15       1.37313323E-02  1.70779514E+07  5.69318864E-05  5.80431008E-04  1.70779514E+07
         1   17       1.23081569E-03  2.74152888E-03  1.55554565E-14  1.53321350E+06  1.53321350E+06
         2    4       3.29720410E-01  5.18559508E-04  1.65194218E+08  2.60688592E-14  1.65194218E+08
         2    6       3.29720497E-01  1.65194322E+08  5.18561231E-04  1.03653497E-04  1.65194322E+08
         2    8       3.60036523E-01  1.00568107E-04  2.53949132E-14  2.09135304E+08  2.09135304E+08
         2   10       2.03881556E-05  4.62349315E-05  2.21262234E+04  6.91385574E-14  2.21262234E+04
         2   12       2.03874360E-05  2.21254438E+04  4.62361412E-05  3.70846081E-05  2.21254439E+04
         2   14       1.37313457E-02  5.69319555E-05  1.70779677E+07  7.39969074E-16  1.70779677E+07
         2   16       1.37313323E-02  1.70779514E+07  5.69318864E-05  5.80431008E-04  1.70779514E+07
         2   18       1.23081569E-03  2.74152888E-03  1.55554565E-14  1.53321350E+06  1.53321350E+06
         3    7       3.00745842E-04  2.78674980E-09  8.87633707E+02  5.41691115E-20  8.87633707E+02
         3    9       1.34621024E-01  1.17805641E+07  2.65627076E-02  3.23093097E+06  1.50114951E+07
         3   11       1.05646989E-01  2.65625789E-02  1.17806233E+07  6.23832729E-03  1.17806234E+07
         3   13       1.66247454E-01  5.73607600E+06  7.42394784E-05  2.18567813E+07  2.75928573E+07
         3   15       3.45608401E-02  7.42374467E-05  5.73622245E+06  6.38956294E-08  5.73622245E+06
         3   17       6.34692202E-02  3.32136887E-05  1.05799313E+07  1.70209196E-15  1.05799313E+07
         4    8       3.00745842E-04  2.78674980E-09  8.87633707E+02  5.41691115E-20  8.87633707E+02
         4   10       1.34621024E-01  1.17805641E+07  2.65627076E-02  3.23093097E+06  1.50114951E+07
         4   12       1.05646989E-01  2.65625789E-02  1.17806233E+07  6.23832729E-03  1.17806234E+07
         4   14       1.66247454E-01  5.73607600E+06  7.42394784E-05  2.18567813E+07  2.75928573E+07
         4   16       3.45608401E-02  7.42374467E-05  5.73622245E+06  6.38956294E-08  5.73622245E+06
         4   18       6.34692202E-02  3.32136887E-05  1.05799313E+07  1.70209196E-15  1.05799313E+07
         5    7       3.00745732E-04  8.87629157E+02  2.78643432E-09  7.34999642E-08  8.87629157E+02
         5    9       1.05646536E-01  2.65625648E-02  1.17805614E+07  6.23823695E-03  1.17805614E+07
         5   11       1.34620751E-01  1.17805643E+07  2.65625707E-02  3.23089177E+06  1.50114561E+07
         5   13       3.45598431E-02  7.42390851E-05  5.73605305E+06  6.39174475E-08  5.73605305E+06
         5   15       1.66246243E-01  5.73580829E+06  7.42408054E-05  2.18568318E+07  2.75926401E+07
         5   17       6.34721042E-02  1.05804053E+07  3.32105814E-05  3.53210189E-03  1.05804053E+07
         6    8       3.00745732E-04  8.87629157E+02  2.78643432E-09  7.34999642E-08  8.87629157E+02
         6   10       1.05646536E-01  2.65625648E-02  1.17805614E+07  6.23823695E-03  1.17805614E+07
         6   12       1.34620751E-01  1.17805643E+07  2.65625707E-02  3.23089177E+06  1.50114561E+07
         6   14       3.45598431E-02  7.42390851E-05  5.73605305E+06  6.39174475E-08  5.73605305E+06
         6   16       1.66246243E-01  5.73580829E+06  7.42408054E-05  2.18568318E+07  2.75926401E+07
         6   18       6.34721042E-02  1.05804053E+07  3.32105814E-05  3.53210189E-03  1.05804053E+07
         7    9       2.62862564E-02  4.29422398E-03  2.05500124E+06  5.64092916E-15  2.05500124E+06
         7   11       2.62861071E-02  2.05499005E+06  4.29424308E-03  8.24715951E-06  2.05499006E+06
         7   13       1.16381177E-01  4.83644028E-05  1.45081123E+07  1.40398955E-15  1.45081123E+07
         7   15       1.16381366E-01  1.45081367E+07  4.83648466E-05  4.34651142E-03  1.45081367E+07
         7   17       1.91987931E-01  2.51144495E-03  4.62951735E-15  2.40529702E+07  2.40529702E+07
         8   10       2.62862564E-02  4.29422398E-03  2.05500124E+06  5.64092916E-15  2.05500124E+06
         8   12       2.62861071E-02  2.05499005E+06  4.29424308E-03  8.24715951E-06  2.05499006E+06
         8   14       1.16381177E-01  4.83644028E-05  1.45081123E+07  1.40398955E-15  1.45081123E+07
         8   16       1.16381366E-01  1.45081367E+07  4.83648466E-05  4.34651142E-03  1.45081367E+07
         8   18       1.91987931E-01  2.51144495E-03  4.62951735E-15  2.40529702E+07  2.40529702E+07
         9   13       2.47225502E-04  1.28923535E+03  2.91354557E-06  4.52395762E+01  1.33447492E+03
         9   15       2.38841361E-04  2.91361411E-06  1.28921931E+03  8.71338593E-08  1.28921931E+03
         9   17       4.80504201E-05  5.54998557E-07  2.65630150E+02  3.79584719E-17  2.65630151E+02
        10   14       2.47225502E-04  1.28923535E+03  2.91354557E-06  4.52395762E+01  1.33447492E+03
        10   16       2.38841361E-04  2.91361411E-06  1.28921931E+03  8.71338593E-08  1.28921931E+03
        10   18       4.80504201E-05  5.54998557E-07  2.65630150E+02  3.79584719E-17  2.65630151E+02
        11   13       2.38844236E-04  2.91355250E-06  1.28923334E+03  8.71357969E-08  1.28923334E+03
        11   15       2.47229451E-04  1.28925700E+03  2.91352362E-06  4.52383981E+01  1.33449540E+03
        11   17       4.80434948E-05  2.65591632E+02  5.55076621E-07  3.79543490E-08  2.65591632E+02
        12   14       2.38844236E-04  2.91355250E-06  1.28923334E+03  8.71357969E-08  1.28923334E+03
        12   16       2.47229451E-04  1.28925700E+03  2.91352362E-06  4.52383981E+01  1.33449540E+03
        12   18       4.80434948E-05  2.65591632E+02  5.55076621E-07  3.79543490E-08  2.65591632E+02
        13   17       1.90865781E-03  4.94832775E-12  1.48414633E+00  2.09010356E-19  1.48414633E+00
        14   18       1.90865781E-03  4.94832775E-12  1.48414633E+00  2.09010356E-19  1.48414633E+00
        15   17       1.90869457E-03  1.48414214E+00  4.94828035E-12  1.18642441E-10  1.48414214E+00
        16   18       1.90869457E-03  1.48414214E+00  4.94828035E-12  1.18642441E-10  1.48414214E+00
     -----------------------------------------------------------------------------------------------
--

++ Length and velocity gauge comparison (SO states):

 --------------------------------------------------
 A comparison between the dipole oscillator strengths in 
 length and velocity gauge will be performed

 All dipole oscillator differences above the tolerance of   0.10000000000000001       will be printed 

 Due to basis set deficiency these oscillator may be problematic 

 The tolerance is defined as ABS(1-O_l/O_v) 
 O_l : dipole oscillator strength in length gauge
 O_p : dipole oscillator strength in velocity gauge
 --------------------------------------------------

  Problematic transitions have been found

      From   To       Difference (%) Osc. st. (len.) Osc. st. (vel.)
     ---------------------------------------------------------------
         1    9            38.096917  2.81554144E-05  2.03881556E-05
         1   11            38.097693  2.81545788E-05  2.03874360E-05
         1   17            15.538736  1.42206888E-03  1.23081569E-03
         2   10            38.096917  2.81554144E-05  2.03881556E-05
         2   12            38.097693  2.81545788E-05  2.03874360E-05
         2   18            15.538736  1.42206888E-03  1.23081569E-03
         3    7           247.229605  1.04427860E-03  3.00745842E-04
         3    9            21.445866  1.05750379E-01  1.34621024E-01
         3   11            21.266940  8.31791077E-02  1.05646989E-01
         3   13            14.541681  1.42072279E-01  1.66247454E-01
         3   15            14.205964  2.96511398E-02  3.45608401E-02
         3   17            10.578471  5.67551473E-02  6.34692202E-02
         4    8           247.229605  1.04427860E-03  3.00745842E-04
         4   10            21.445866  1.05750379E-01  1.34621024E-01
         4   12            21.266940  8.31791077E-02  1.05646989E-01
         4   14            14.541681  1.42072279E-01  1.66247454E-01
         4   16            14.205964  2.96511398E-02  3.45608401E-02
         4   18            10.578471  5.67551473E-02  6.34692202E-02
         5    7           247.229650  1.04427835E-03  3.00745732E-04
         5    9            21.266971  8.31787182E-02  1.05646536E-01
         5   11            21.445885  1.05750140E-01  1.34620751E-01
         5   13            14.206029  2.96502619E-02  3.45598431E-02
         5   15            14.541701  1.42071212E-01  1.66246243E-01
         5   17            10.578558  5.67576711E-02  6.34721042E-02
         6    8           247.229650  1.04427835E-03  3.00745732E-04
         6   10            21.266971  8.31787182E-02  1.05646536E-01
         6   12            21.445885  1.05750140E-01  1.34620751E-01
         6   14            14.206029  2.96502619E-02  3.45598431E-02
         6   16            14.541701  1.42071212E-01  1.66246243E-01
         6   18            10.578558  5.67576711E-02  6.34721042E-02
         7    9            25.361780  1.96195940E-02  2.62862564E-02
         7   11            25.361776  1.96194835E-02  2.62861071E-02
         7   13            17.107698  9.64710365E-02  1.16381177E-01
         7   15            17.107699  9.64711924E-02  1.16381366E-01
         7   17            18.852536  1.55793336E-01  1.91987931E-01
         8   10            25.361780  1.96195940E-02  2.62862564E-02
         8   12            25.361776  1.96194835E-02  2.62861071E-02
         8   14            17.107698  9.64710365E-02  1.16381177E-01
         8   16            17.107699  9.64711924E-02  1.16381366E-01
         8   18            18.852536  1.55793336E-01  1.91987931E-01
         9   13            78.090803  4.40285881E-04  2.47225502E-04
         9   15            77.817538  4.24701828E-04  2.38841361E-04
         9   17            54.010384  2.20982038E-05  4.80504201E-05
        10   14            78.090803  4.40285881E-04  2.47225502E-04
        10   16            77.817538  4.24701828E-04  2.38841361E-04
        10   18            54.010384  2.20982038E-05  4.80504201E-05
        11   13            77.817337  4.24706461E-04  2.38844236E-04
        11   15            78.089387  4.40289414E-04  2.47229451E-04
        11   17            54.015930  2.20923541E-05  4.80434948E-05
        12   14            77.817337  4.24706461E-04  2.38844236E-04
        12   16            78.089387  4.40289414E-04  2.47229451E-04
        12   18            54.015930  2.20923541E-05  4.80434948E-05
        13   17            99.305596  1.32537983E-05  1.90865781E-03
        14   18            99.305596  1.32537983E-05  1.90865781E-03
        15   17            99.305590  1.32541601E-05  1.90869457E-03
        16   18            99.305590  1.32541601E-05  1.90869457E-03
     ---------------------------------------------------------------

 Number of problematic transitions =                    56

--

 Electric-dipole - electric-octupole not included
++ I/O STATISTICS
 
  I. General I/O information
  - - - - - - - - - - - - - - - - - - - - - - - - - - - - - - - - - - - - - - - - - - -
  Unit  Name          Flsize      Write/Read            MBytes           Write/Read
                      (MBytes)       Calls              In/Out           Time, sec.
  - - - - - - - - - - - - - - - - - - - - - - - - - - - - - - - - - - - - - - - - - - -
   1  SCRATCH           0.00 .       9/      45 .      0.0/      0.0 .       0/       0
   2  ANNI              0.00 .       0/       0 .      0.0/      0.0 .       0/       0
   3  RUNFILE          14.85 .     322/   10301 .      2.3/     74.7 .       0/       0
   4  ONEINT            5.58 .       0/   23543 .      0.0/   3739.9 .       0/       0
   5  JOBIPH            6.48 .       0/      92 .      0.0/      0.8 .       0/       0
   6  ORDINT          506.53 .       1/    4053 .      0.0/   1013.0 .       0/       0
  - - - - - - - - - - - - - - - - - - - - - - - - - - - - - - - - - - - - - - - - - - -
   *  TOTAL           533.45 .     332/   38034 .      2.3/   4828.5 .       0/       0
  - - - - - - - - - - - - - - - - - - - - - - - - - - - - - - - - - - - - - - - - - - -
 
  II. I/O Access Patterns
  - - - - - - - - - - - - - - - - - - - -
  Unit  Name               % of random
                         Write/Read calls
  - - - - - - - - - - - - - - - - - - - -
   1  SCRATCH             88.9/ 100.0
   2  ANNI                 0.0/   0.0
   3  RUNFILE             28.6/  10.8
   4  ONEINT               0.0/  16.4
   5  JOBIPH               0.0/  76.1
   6  ORDINT             100.0/   0.0
  - - - - - - - - - - - - - - - - - - - -
--
--- Stop Module: rassi at Thu Jan  9 20:15:14 2025 /rc=_RC_ALL_IS_WELL_ ---
*** files: xmldump
    saved to directory /home4/s4752295/Internship/Initial_simulations/Point_charge_model/1_electron/active_space_9_non_rel/Cr/varying_bond_length
--- Module rassi spent 3 seconds ---

.##################.
.# Happy landing! #.
.##################.

    Timing: Wall=52.63 User=41.25 System=8.77

###############################################################################
Hbrk Cluster
Job 14548079 for user s4752295
Finished at: Thu Jan  9 20:15:14 CET 2025

Job details:
============

Job ID                         : 14548079
Name                           : Cr_no_c_light
User                           : s4752295
Partition                      : regularmedium
Nodes                          : node101
Number of Nodes                : 1
Cores                          : 1
Number of Tasks                : 1
State                          : COMPLETED  
Submit                         : 2025-01-09T20:14:15
Start                          : 2025-01-09T20:14:16
End                            : 2025-01-09T20:15:14
Reserved walltime              : 15:00:00
Used walltime                  : 00:00:58
Used CPU time                  : 00:00:51 (Efficiency: 87.69%)
% User (Computation)           : 82.34%
% System (I/O)                 : 17.66%
Total memory reserved          : 25000M
Maximum memory used            : 2.03G

Acknowledgements:
=================

Please see this page for information about acknowledging Hbrk in your publications:

https://wiki.hpc.rug.nl/habrok/introduction/scientific_output

################################################################################
