   This run of MOLCAS is using the pymolcas driver

                             OPE
                             OPE          NMOL  CASOP  ENMOLC A   SO
                 OPE        NMOLC        AS  OP EN  MO LC     AS  OP
                OPENM       OL CA        SO  PE NM  OL CA     SOP EN
                OP EN      MO   LC       AS  OP ENMOL  CASO   PENMOL
                OP  EN     MO   LC       AS  OP EN     MO     LC ASO
               OP   E  NMOL  C  AS       OP  EN MO     LC     AS  OP
               OP  E   NMO   LC AS        OPEN  MO     LCASOP EN   M
               O  PEN   MO  LCA  SO
            OPE   NMO   L   CAS    OP
        OPENMOL  CASOP     ENMOL   CASOPE
     OPENMOLCA   SOPENMOLCASOPEN   MOLCASOPE
    OPENMOLCAS   OP           EN   MOL    CAS
    OPENMOLCAS       OP  ENM        O     LCA
    OPENMOLCAS    OPEN  MOLCASO     P  E  NMO
    OPENMOLCAS     OP               E  N  MOL
    OPENMOLCA   SO           PENM   O  L  CAS    OPEN    MO    LCAS
    OPENMOLCA   SOP           ENM   O  L  CAS   OP  EN  MOLC  AS   O
    OPENMOLCA   SOPE           NM      O  LCA   S      OP  EN MO
    OPENMOLC                AS         O  PEN   M      OL  CA  SOPE
    OPENMO        LCASOPE  NMOL        C  ASO   P      ENMOLC     AS
    OPE     NMO      LCA  SO     P     E   NM   OL  CA SO  PE N   MO
          OPENMOLCA            SOPE   NMO        LCAS  O    P  ENMO
     OPENMOLCASOPENMOLCASOPENMOLCASOPENMOLCA
        OPENMOLCASOPENMOLCASOPENMOLCASOPE
            OPENMOLCASOPENMOLCASOPENM
               OPENMOLCASOPENMOLCA        version: o91e1abe7de707b ?
                   OPENMOLCASO
                       OPE                tag:

 OpenMolcas is free software; you can redistribute it and/or modify it
 under the terms of the GNU Lesser General Public License version 2.1.
 OpenMolcas is distributed in the hope that it will be useful, but it
 is provided "as is" and without any express or implied warranties.
 For more details see the full text of the license in the file
 LICENSE or in <http://www.gnu.org/licenses/>.

                 Copyright (C) The OpenMolcas Authors
           For the author list and the recommended citation,
                   consult the file CONTRIBUTORS.md

           *************************************************
           * pymolcas version py2.10                       *
           *   build 3068ae8b88c9345ec6cfef6fef7f1169      *
           *   (after the EMIL interpreter by V. Veryazov) *
           *************************************************

configuration info
------------------
Host name: login1 (Linux)
C Compiler ID: GNU
C flags: -std=gnu99
Fortran Compiler ID: GNU
Fortran flags: -fno-aggressive-loop-optimizations -cpp -fdefault-integer-8 -fmax-stack-var-size=1048576
Definitions: _MOLCAS_;_I8_;_LINUX_;_MKL_
Parallel: OFF (GA=OFF)


   ----------------------------------------------------------------------------------------------------------------------------------------------
  |
  |           Project: chromium_so_cf
  |    Submitted from: /home4/s4752295/Internship/Initial_simulations/Point_charge_model/1_electron/active_space_9_non_rel/Cr/varying_bond_length
  |      Scratch area: /tmp/chromium_so_cf
  |   Save outputs to: /home4/s4752295/Internship/Initial_simulations/Point_charge_model/1_electron/active_space_9_non_rel/Cr/varying_bond_length
  |            Molcas: /home4/s4752295/Internship/Molcas/recomp_try/OpenMolcas-master/build
  |
  | Scratch area is empty
  |
  |    MOLCAS_DRIVER = /home4/s4752295/Internship/Molcas/bin/pymolcas
  |    MOLCAS_NPROCS = 1
  |    MOLCAS_SOURCE = /home4/s4752295/Internship/Molcas/recomp_try/OpenMolcas-master
  | MOLCAS_STRUCTURE = 0
  |
   ----------------------------------------------------------------------------------------------------------------------------------------------

++ ---------   Input file   ---------

&SEWARD
AMFi

CLIG
$R

Basis Set
Cr.ANO-rcc.Roos.21s15p10d6f4g2h.10s10p8d6f4g2h.
Spherical d
Cr            0.0       0.0     0.0
End of Basis

Xfield

4
0.000000,  0.0000,  1.890       -1.0
1.636788,  0.0000, -0.945       -1.0
-0.818394,  1.4175, -0.945      -1.0
-0.818394, -1.4175, -0.945      -1.0

End of input

&SCF
Occupied
9
Iterations
   50  100
End of Input

&RASSCF
LumOrb
Symmetry
1
Spin
2
Nactel
1 0 0
CIRoot
9 9 1
inactive
9
ras2
9
End of Input

>>> COPY chromium_so_cf.JobIph $SLURM_SUBMIT_DIR/chromium_so_cf.doublet.JobIph

>>> COPY $SLURM_SUBMIT_DIR/chromium_so_cf.doublet.JobIph ./JOB002

&RASSI
NROFJobIph
1 All
SpinOrbit
End of Input

EOF

-- ----------------------------------

--- Start Module: seward at Thu Jan  9 00:55:17 2025 ---

()()()()()()()()()()()()()()()()()()()()()()()()()()()()()()()()()()()()()()()()()()()()()()()()()()

                                              &SEWARD

                                   only a single process is used
                       available to each process: 4.1 GB of memory, 1 thread?
                                            pid: 1479456
()()()()()()()()()()()()()()()()()()()()()()()()()()()()()()()()()()()()()()()()()()()()()()()()()()

 The speed of LIGHT in this CALCULATION =   137.03599917700001     
               SEWARD will generate:
                  Multipole Moment integrals up to order  2
                  Kinetic Energy integrals
                  Nuclear Attraction integrals (point charge)
                  One-Electron Hamiltonian integrals
                  Velocity integrals
                  Relativistic Douglas-Kroll-Hess integrals:
                    - Parametrization         : EXP
                    - DKH order of Hamiltonian: 2
                    - DKH order of Properties : 0
                         - multipole moment operators
                         - electric potential operators
                         - contact operators
                  External field from     4 point(s) added to the one-electron Hamiltonian
                  Orbital angular momentum around ( 0.0000  0.0000  0.0000 )
                  Velocity quadrupole around ( 0.0000  0.0000  0.0000 )
                  Atomic mean-field integrals
                  Two-Electron Repulsion integrals

                   Integrals are discarded if absolute value <: 0.10E-13
                   Integral cutoff threshold is set to       <: 0.10E-15

++    Symmetry information:
      ---------------------

                    Character Table for C1 

                             E  
                    a        1  x, y, xy, Rz, z, xz, Ry, yz, Rx, I
--


++    Basis set information:
      ----------------------


      Basis set label: CR.ANO-RCC.ROOS.21S15P10D6F4G2H.10S10P8D6F4G2H......

      Electronic valence basis set:
      ------------------
      Associated Effective Charge  24.000000 au
      Associated Actual Charge     24.000000 au
      Nuclear Model: Point charge

      Shell  nPrim  nBasis  Cartesian Spherical Contaminant
         s      21      10        X                  
         p      15      10        X                  
         d      10       8                 X         
         f       6       6                 X         
         g       4       4                 X         
         h       2       2                 X         
--


++    Molecular structure info:
      -------------------------

                    ************************************************ 
                    **** Cartesian Coordinates / Bohr, Angstrom **** 
                    ************************************************ 

     Center  Label                x              y              z                     x              y              z
        1      CR               0.000000       0.000000       0.000000              0.000000       0.000000       0.000000
--


++    Operator info:
      --------------


  Net charge from external field:   -4.0000000000000000     
--


            Nuclear Potential Energy              0.00000000 au

                    Nuclear-External Field Potential Energy     -50.79365091 au
                    External Field Potential Energy               1.97463006 au 


            Total Nuclear Potential Energy            -50.79365091 au


      Basis set specifications :
      Symmetry species         a  
      Basis functions          180

 Sorry, Molden does not know how to handle
 functions with angular momentum larger than g
Note: The following floating-point exceptions are signalling: IEEE_UNDERFLOW_FLAG IEEE_DENORMAL
--- Stop Module: seward at Thu Jan  9 00:55:27 2025 /rc=_RC_ALL_IS_WELL_ ---
*** files: chromium_so_cf.GssOrb xmldump
    saved to directory /home4/s4752295/Internship/Initial_simulations/Point_charge_model/1_electron/active_space_9_non_rel/Cr/varying_bond_length
--- Module seward spent 10 seconds ---

*** symbolic link created: INPORB -> chromium_so_cf.GssOrb
--- Start Module: scf at Thu Jan  9 00:55:28 2025 ---

()()()()()()()()()()()()()()()()()()()()()()()()()()()()()()()()()()()()()()()()()()()()()()()()()()

                                                &SCF

                                   only a single process is used
                       available to each process: 4.1 GB of memory, 1 thread?
                                            pid: 1479460
()()()()()()()()()()()()()()()()()()()()()()()()()()()()()()()()()()()()()()()()()()()()()()()()()()

++    Input section:
      --------------

      Header of the integral files:
      
       Integrals generated by seward 4.2.0  , Thu Jan  9 00:55:18 2025


      Cartesian coordinates in Angstrom:
      -----------------------------------------------------
      No.  Label        X            Y            Z        
      -----------------------------------------------------
       1   CR         0.00000000   0.00000000   0.00000000
      -----------------------------------------------------
      Nuclear repulsion energy =  -50.79365091
--

++    Orbital specifications:
      -----------------------

      Symmetry species               1
                                     a
      Frozen orbitals                0
      Occupied orbitals              9
      Secondary orbitals           171
      Deleted orbitals               0
      Total number of orbitals     180
      Number of basis functions    180
--

      Molecular charge                           6.000

++    Optimization specifications:
      ----------------------------

      SCF Algorithm: Conventional
      Minimized density differences are used
      Number of density matrices in core                5
      Maximum number of NDDO SCF iterations            50
      Maximum number of HF SCF iterations             100
      Threshold for SCF energy change            0.10E-08
      Threshold for density matrix               0.10E-03
      Threshold for Fock matrix                  0.15E-03
      Threshold for linear dependence            0.10E-08
      Threshold at which DIIS is turned on       0.15E+00
      Threshold at which QNR/C2DIIS is turned on 0.75E-01
      Threshold for Norm(delta) (QNR/C2DIIS)     0.20E-04
      DIIS extrapolation of the SCF procedure
      All orbitals punched on: SCFORB
--

      Detected guessorb starting orbitals                                             


++ Convergence information
                                   SCF        iterations: Energy and convergence statistics

Iter     Tot. SCF        One-elec.       Two-elec.     Energy      Max Dij or  Max Fij      DNorm      TNorm      AccCon     Time
         Energy          Energy          Energy        Change      Delta Norm                                                in Sec.

 The total and one-electron energies are shifted by a value of      1000. a.u.

   1   -52.353202916  -306.936215086   305.376663078   0.00E+00    0.16E+00*   0.42E+00*    0.60E+01   0.25E+03   None         1.
   2   -52.940699653  -319.219010681   317.071961936  -0.59E+00*   0.24E-01*   0.76E-01*    0.10E+01   0.25E+03   EDIIS        1.
   3   -52.950434875  -317.749495145   315.592711179  -0.97E-02*   0.58E-02*   0.12E-01*    0.96E-01   0.25E+03   EDIIS        1.
   4   -52.950787403  -317.989983510   315.832847016  -0.35E-03*   0.28E-02*   0.30E-02*    0.16E-01   0.25E+03   c2DIIS       1.
   5   -52.950813257  -317.957297161   315.800134813  -0.26E-04*   0.80E-03*   0.13E-02*    0.22E-02   0.25E+03   QNRc2DIIS    1.
   6   -52.950818094  -317.957072480   315.799905295  -0.48E-05*   0.50E-03*   0.52E-03*    0.26E-03   0.25E+03   QNRc2DIIS    1.
   7   -52.950818932  -317.956795793   315.799627769  -0.84E-06*   0.70E-05    0.15E-04     0.36E-04   0.25E+03   QNRc2DIIS    1.
   8   -52.950818932  -317.956797779   315.799629755  -0.44E-09    0.75E-06    0.90E-06     0.19E-03   0.25E+03   QNRc2DIIS    1.

       Convergence after  8 Macro Iterations
--

 *****************************************************************************************************************************
 *                                                                                                                           *
 *                                             SCF/KS-DFT Program, Final results                                             *
 *                                                                                                                           *
 *                                                                                                                           *
 *                                                                                                                           *
 *                                                       Final Results                                                       *
 *                                                                                                                           *
 *****************************************************************************************************************************

::    Total SCF energy                              -1052.9508189321
      One-electron energy                           -1317.9567977786
      Two-electron energy                             315.7996297549
      Nuclear repulsion energy                        -50.7936509084
      Kinetic energy (interpolated)                  1078.2339972942
      Virial theorem                                    0.9765513067
      Total spin, S(S+1)                                0.0000000000
      Total spin, S                                     0.0000000000
      Max non-diagonal density matrix element           0.0000004786
      Max non-diagonal Fock matrix element              0.0000001486


      All orbitals with orbital energies smaller than  E(LUMO)+0.5 are printed

++    Molecular orbitals:
      -------------------

      Title: SCF orbitals

      Molecular orbitals for symmetry species 1: a  

          Orbital            1         2         3         4         5         6         7         8         9        10    
          Energy         -224.2038  -28.8819  -24.5065  -24.5065  -24.5045   -5.1801   -3.8144   -3.8144   -3.7666   -1.2032
          Occ. No.          2.0000    2.0000    2.0000    2.0000    2.0000    2.0000    2.0000    2.0000    2.0000    0.0000

        1 CR     1s         1.0000   -0.0001    0.0000   -0.0000   -0.0000    0.0001   -0.0000   -0.0000    0.0000   -0.0000
        2 CR     2s         0.0001    1.0000    0.0000   -0.0000   -0.0010    0.0022    0.0000   -0.0000   -0.0003   -0.0000
        3 CR     3s        -0.0001   -0.0021   -0.0000    0.0000    0.0003    0.9950    0.0000   -0.0000   -0.0303   -0.0000
        4 CR     4s         0.0000    0.0001    0.0000   -0.0000   -0.0000   -0.0480   -0.0000   -0.0000    0.0058    0.0000
        5 CR     5s        -0.0000   -0.0004   -0.0000    0.0000    0.0001    0.0722    0.0000   -0.0000   -0.0095   -0.0000
        6 CR     6s         0.0000    0.0003    0.0000   -0.0000   -0.0000   -0.0307   -0.0000    0.0000    0.0041    0.0000
        7 CR     7s        -0.0000   -0.0001   -0.0000    0.0000    0.0000   -0.0082    0.0000    0.0000    0.0012    0.0000
        8 CR     8s         0.0000   -0.0000   -0.0000    0.0000   -0.0000    0.0066    0.0000    0.0000   -0.0010   -0.0000
        9 CR     9s        -0.0001    0.0002    0.0000   -0.0000   -0.0000    0.0018   -0.0000    0.0000   -0.0003   -0.0000
       10 CR    10s         0.0001   -0.0003   -0.0000    0.0000    0.0000    0.0003   -0.0000    0.0000   -0.0000   -0.0000
       11 CR     2px       -0.0000   -0.0000    0.9988   -0.0498   -0.0000    0.0000    0.0032   -0.0000   -0.0000   -0.0000
       12 CR     3px        0.0000   -0.0000   -0.0031    0.0002    0.0000   -0.0000    0.9909   -0.0001   -0.0000    0.0006
       13 CR     4px       -0.0000    0.0000    0.0005   -0.0000   -0.0000    0.0000   -0.0838    0.0000    0.0000   -0.0042
       14 CR     5px        0.0000   -0.0000   -0.0008    0.0000    0.0000   -0.0000    0.0926   -0.0000   -0.0000    0.0039
       15 CR     6px       -0.0000    0.0000    0.0002   -0.0000   -0.0000   -0.0000   -0.0036    0.0000    0.0000    0.0005
       16 CR     7px        0.0000   -0.0000   -0.0000    0.0000    0.0000    0.0000   -0.0134    0.0000    0.0000   -0.0014
       17 CR     8px       -0.0000    0.0000   -0.0002    0.0000    0.0000    0.0000    0.0032   -0.0000   -0.0000    0.0002
       18 CR     9px        0.0000   -0.0000    0.0003   -0.0000   -0.0000   -0.0000    0.0029   -0.0000   -0.0000    0.0005
       19 CR    10px       -0.0000    0.0000   -0.0003    0.0000    0.0000   -0.0000   -0.0006    0.0000    0.0000    0.0000
       20 CR    11px        0.0000   -0.0000    0.0002   -0.0000   -0.0000   -0.0000   -0.0005    0.0000    0.0000   -0.0000
       21 CR     2py       -0.0000   -0.0000    0.0498    0.9988   -0.0000   -0.0000    0.0000    0.0032   -0.0000    0.0000
       22 CR     3py        0.0000    0.0000   -0.0002   -0.0031    0.0000   -0.0000    0.0001    0.9909   -0.0000   -0.0000
       23 CR     4py       -0.0000   -0.0000    0.0000    0.0005   -0.0000    0.0000   -0.0000   -0.0838    0.0000    0.0000
       24 CR     5py        0.0000    0.0000   -0.0000   -0.0008    0.0000   -0.0000    0.0000    0.0926   -0.0000   -0.0000
       25 CR     6py       -0.0000   -0.0000    0.0000    0.0002   -0.0000    0.0000   -0.0000   -0.0036    0.0000   -0.0000
       26 CR     7py        0.0000    0.0000   -0.0000   -0.0000    0.0000   -0.0000   -0.0000   -0.0134    0.0000    0.0000
       27 CR     8py       -0.0000   -0.0000   -0.0000   -0.0002    0.0000    0.0000    0.0000    0.0032   -0.0000   -0.0000
       28 CR     9py        0.0000    0.0000    0.0000    0.0003   -0.0000   -0.0000    0.0000    0.0029    0.0000   -0.0000
       29 CR    10py       -0.0000   -0.0000   -0.0000   -0.0003    0.0000    0.0000   -0.0000   -0.0006    0.0000   -0.0000
       30 CR    11py        0.0000    0.0000    0.0000    0.0002   -0.0000   -0.0000   -0.0000   -0.0005    0.0000    0.0000
       31 CR     2pz        0.0000    0.0010    0.0000   -0.0000    1.0000   -0.0002    0.0000   -0.0000    0.0034    0.0000
       32 CR     3pz       -0.0000    0.0002   -0.0000    0.0000   -0.0033    0.0314    0.0000   -0.0000    0.9900    0.0000
       33 CR     4pz        0.0000   -0.0000    0.0000   -0.0000    0.0005   -0.0008   -0.0000    0.0000   -0.0890   -0.0000
       34 CR     5pz       -0.0000    0.0001   -0.0000    0.0000   -0.0009   -0.0006    0.0000   -0.0000    0.1006    0.0000
       35 CR     6pz        0.0000   -0.0000    0.0000   -0.0000    0.0002    0.0009   -0.0000   -0.0000   -0.0049    0.0000
       36 CR     7pz       -0.0000    0.0000   -0.0000    0.0000   -0.0000   -0.0007   -0.0000    0.0000   -0.0140   -0.0000
       37 CR     8pz        0.0000   -0.0000   -0.0000    0.0000   -0.0002   -0.0002    0.0000   -0.0000    0.0041    0.0000
       38 CR     9pz       -0.0000    0.0000    0.0000   -0.0000    0.0003    0.0003    0.0000   -0.0000    0.0030    0.0000
       39 CR    10pz        0.0000   -0.0000   -0.0000    0.0000   -0.0003    0.0002   -0.0000    0.0000   -0.0010    0.0000
       40 CR    11pz       -0.0000    0.0000    0.0000   -0.0000    0.0002    0.0000   -0.0000    0.0000   -0.0007    0.0000
       41 CR     3d2-       0.0000    0.0000    0.0000    0.0001   -0.0000   -0.0000    0.0000    0.0218   -0.0000    0.0000
       42 CR     4d2-      -0.0000   -0.0000   -0.0000   -0.0000    0.0000    0.0000   -0.0000   -0.0037    0.0000   -0.0000
       43 CR     5d2-       0.0000    0.0000   -0.0000   -0.0000    0.0000   -0.0000   -0.0000   -0.0041    0.0000   -0.0000
       44 CR     6d2-      -0.0000   -0.0000    0.0000    0.0000   -0.0000    0.0000    0.0000    0.0013   -0.0000    0.0000
       45 CR     7d2-       0.0000    0.0000   -0.0000   -0.0000    0.0000   -0.0000    0.0000    0.0016   -0.0000    0.0000
       46 CR     8d2-      -0.0000   -0.0000    0.0000    0.0000   -0.0000    0.0000   -0.0000   -0.0002   -0.0000   -0.0000
       47 CR     9d2-       0.0000    0.0000   -0.0000   -0.0000    0.0000   -0.0000   -0.0000   -0.0011    0.0000   -0.0000
       48 CR    10d2-      -0.0000    0.0000    0.0000    0.0000   -0.0000   -0.0000   -0.0000   -0.0003    0.0000    0.0000
       49 CR     3d1-      -0.0000    0.0000    0.0000    0.0002   -0.0000   -0.0000    0.0000    0.0384   -0.0000   -0.0000
       50 CR     4d1-       0.0000   -0.0000   -0.0000   -0.0001    0.0000    0.0000   -0.0000   -0.0079    0.0000    0.0000
       51 CR     5d1-      -0.0000    0.0000    0.0000    0.0000   -0.0000   -0.0000   -0.0000   -0.0062    0.0000    0.0000
       52 CR     6d1-      -0.0000   -0.0000    0.0000    0.0000   -0.0000    0.0000    0.0000    0.0025   -0.0000   -0.0000
       53 CR     7d1-       0.0000    0.0000   -0.0000   -0.0000    0.0000    0.0000    0.0000    0.0022   -0.0000   -0.0000
       54 CR     8d1-      -0.0000   -0.0000    0.0000    0.0000   -0.0000   -0.0000   -0.0000   -0.0005   -0.0000   -0.0000
       55 CR     9d1-       0.0000    0.0000    0.0000    0.0000    0.0000   -0.0000   -0.0000   -0.0015    0.0000    0.0000
       56 CR    10d1-       0.0000   -0.0000   -0.0000   -0.0000    0.0000    0.0000   -0.0000   -0.0003    0.0000   -0.0000
       57 CR     3d0       -0.0000   -0.0001    0.0000   -0.0000    0.0000   -0.0105   -0.0000    0.0000   -0.0153   -0.0000
       58 CR     4d0        0.0000    0.0001   -0.0000    0.0000   -0.0000    0.0021   -0.0000   -0.0000    0.0008    0.0000
       59 CR     5d0       -0.0000   -0.0000    0.0000   -0.0000    0.0001    0.0022    0.0000   -0.0000    0.0042    0.0000
       60 CR     6d0        0.0000    0.0000   -0.0000    0.0000   -0.0001   -0.0012    0.0000   -0.0000   -0.0005    0.0000
       61 CR     7d0       -0.0000   -0.0000    0.0000   -0.0000    0.0001   -0.0006   -0.0000   -0.0000   -0.0018   -0.0000
       62 CR     8d0        0.0000    0.0000   -0.0000    0.0000   -0.0000    0.0003   -0.0000    0.0000   -0.0000   -0.0000
       63 CR     9d0        0.0000   -0.0000    0.0000   -0.0000    0.0000    0.0004    0.0000    0.0000    0.0014   -0.0000
       64 CR    10d0        0.0000   -0.0000   -0.0000    0.0000   -0.0000    0.0001    0.0000    0.0000    0.0004   -0.0000
       65 CR     3d1+       0.0000    0.0000    0.0002   -0.0000   -0.0000    0.0000    0.0384   -0.0000   -0.0000    0.4419
       66 CR     4d1+      -0.0000   -0.0000   -0.0001    0.0000    0.0000   -0.0000   -0.0079    0.0000    0.0000   -0.1212
       67 CR     5d1+       0.0000    0.0000    0.0000   -0.0000   -0.0000   -0.0000   -0.0062    0.0000    0.0000   -0.0033
       68 CR     6d1+      -0.0000   -0.0000    0.0000   -0.0000    0.0000    0.0000    0.0025   -0.0000   -0.0000    0.0036
       69 CR     7d1+       0.0000    0.0000   -0.0000    0.0000    0.0000    0.0000    0.0022   -0.0000   -0.0000    0.0052
       70 CR     8d1+      -0.0000    0.0000    0.0000   -0.0000   -0.0000   -0.0000   -0.0005    0.0000    0.0000    0.0000
       71 CR     9d1+       0.0000   -0.0000    0.0000   -0.0000   -0.0000   -0.0000   -0.0015    0.0000    0.0000   -0.0006
       72 CR    10d1+      -0.0000    0.0000   -0.0000    0.0000    0.0000    0.0000   -0.0003    0.0000    0.0000    0.0000
       73 CR     3d2+       0.0000    0.0000   -0.0001    0.0000    0.0000    0.0000   -0.0218    0.0000    0.0000    0.8554
       74 CR     4d2+      -0.0000   -0.0000    0.0000   -0.0000   -0.0000    0.0000    0.0037   -0.0000   -0.0000   -0.2385
       75 CR     5d2+       0.0000    0.0000    0.0000   -0.0000   -0.0000   -0.0000    0.0041   -0.0000   -0.0000   -0.0033
       76 CR     6d2+      -0.0000   -0.0000   -0.0000    0.0000    0.0000   -0.0000   -0.0013    0.0000    0.0000    0.0079
       77 CR     7d2+      -0.0000    0.0000    0.0000   -0.0000   -0.0000    0.0000   -0.0016    0.0000    0.0000    0.0088
       78 CR     8d2+       0.0000   -0.0000   -0.0000    0.0000    0.0000    0.0000    0.0002   -0.0000   -0.0000   -0.0006
       79 CR     9d2+      -0.0000    0.0000    0.0000   -0.0000   -0.0000   -0.0000    0.0011   -0.0000   -0.0000   -0.0000
       80 CR    10d2+       0.0000    0.0000   -0.0000    0.0000    0.0000   -0.0000    0.0003   -0.0000   -0.0000    0.0005
       81 CR     4f3-      -0.0000   -0.0000    0.0000    0.0000    0.0000    0.0000    0.0000    0.0000   -0.0000   -0.0000
       82 CR     5f3-       0.0000    0.0000   -0.0000   -0.0000    0.0000   -0.0000    0.0000    0.0000   -0.0000   -0.0000
       83 CR     6f3-      -0.0000   -0.0000    0.0000    0.0000   -0.0000    0.0000   -0.0000   -0.0000   -0.0000    0.0000
       84 CR     7f3-       0.0000    0.0000   -0.0000   -0.0000    0.0000   -0.0000   -0.0000   -0.0000    0.0000   -0.0000
       85 CR     8f3-      -0.0000   -0.0000    0.0000    0.0000   -0.0000    0.0000    0.0000    0.0000   -0.0000   -0.0000
       86 CR     9f3-       0.0000    0.0000   -0.0000   -0.0000    0.0000   -0.0000    0.0000    0.0000   -0.0000   -0.0000
       87 CR     4f2-      -0.0000   -0.0000   -0.0000   -0.0000    0.0000   -0.0000   -0.0000   -0.0063    0.0000    0.0000
       88 CR     5f2-       0.0000    0.0000    0.0000    0.0000   -0.0000    0.0000   -0.0000   -0.0016    0.0000    0.0000
       89 CR     6f2-      -0.0000   -0.0000   -0.0000   -0.0000    0.0000   -0.0000    0.0000    0.0022   -0.0000   -0.0000
       90 CR     7f2-       0.0000   -0.0000   -0.0000   -0.0000   -0.0000   -0.0000    0.0000    0.0002   -0.0000   -0.0000
       91 CR     8f2-      -0.0000    0.0000    0.0000    0.0000   -0.0000    0.0000   -0.0000   -0.0006    0.0000    0.0000
       92 CR     9f2-       0.0000   -0.0000   -0.0000   -0.0000   -0.0000   -0.0000   -0.0000   -0.0005    0.0000    0.0000
       93 CR     4f1-      -0.0000   -0.0000   -0.0000   -0.0000    0.0000    0.0000   -0.0000   -0.0052    0.0000   -0.0000
       94 CR     5f1-       0.0000    0.0000    0.0000    0.0000   -0.0000   -0.0000   -0.0000   -0.0004    0.0000   -0.0000
       95 CR     6f1-      -0.0000   -0.0000   -0.0000   -0.0000    0.0000    0.0000    0.0000    0.0014   -0.0000    0.0000
       96 CR     7f1-       0.0000    0.0000    0.0000    0.0000   -0.0000   -0.0000   -0.0000   -0.0001   -0.0000    0.0000
       97 CR     8f1-      -0.0000   -0.0000   -0.0000   -0.0000    0.0000    0.0000   -0.0000   -0.0003    0.0000    0.0000
       98 CR     9f1-      -0.0000    0.0000    0.0000    0.0000   -0.0000   -0.0000   -0.0000   -0.0002    0.0000   -0.0000
       99 CR     4f0        0.0000   -0.0001   -0.0000    0.0000   -0.0001   -0.0132   -0.0000    0.0000   -0.0074    0.0000
      100 CR     5f0       -0.0000    0.0001    0.0000   -0.0000    0.0000   -0.0010   -0.0000    0.0000   -0.0008    0.0000
      101 CR     6f0        0.0000   -0.0000   -0.0000    0.0000   -0.0000    0.0041    0.0000   -0.0000    0.0020   -0.0000
      102 CR     7f0       -0.0000   -0.0000    0.0000   -0.0000    0.0000   -0.0006   -0.0000    0.0000   -0.0001   -0.0000
      103 CR     8f0        0.0000    0.0000   -0.0000    0.0000   -0.0000   -0.0010   -0.0000    0.0000   -0.0004    0.0000
      104 CR     9f0       -0.0000   -0.0000    0.0000   -0.0000    0.0000   -0.0004   -0.0000   -0.0000   -0.0003    0.0000
      105 CR     4f1+       0.0000   -0.0000   -0.0000    0.0000    0.0000   -0.0000   -0.0052    0.0000    0.0000    0.0101
      106 CR     5f1+      -0.0000    0.0000    0.0000   -0.0000   -0.0000   -0.0000   -0.0004    0.0000    0.0000    0.0040
      107 CR     6f1+       0.0000   -0.0000   -0.0000    0.0000    0.0000    0.0000    0.0014   -0.0000   -0.0000   -0.0013
      108 CR     7f1+      -0.0000   -0.0000    0.0000   -0.0000   -0.0000   -0.0000   -0.0001    0.0000    0.0000   -0.0009
      109 CR     8f1+       0.0000    0.0000   -0.0000    0.0000    0.0000   -0.0000   -0.0003    0.0000    0.0000   -0.0001
      110 CR     9f1+      -0.0000   -0.0000    0.0000   -0.0000   -0.0000   -0.0000   -0.0002    0.0000    0.0000    0.0003
      111 CR     4f2+      -0.0000    0.0000    0.0000   -0.0000   -0.0000    0.0000    0.0063   -0.0000   -0.0000    0.0283
      112 CR     5f2+       0.0000   -0.0000   -0.0000    0.0000    0.0000   -0.0000    0.0016   -0.0000   -0.0000    0.0122
      113 CR     6f2+      -0.0000    0.0000    0.0000   -0.0000   -0.0000   -0.0000   -0.0022    0.0000    0.0000   -0.0045
      114 CR     7f2+       0.0000   -0.0000    0.0000   -0.0000   -0.0000    0.0000   -0.0002    0.0000   -0.0000   -0.0031
      115 CR     8f2+      -0.0000   -0.0000   -0.0000    0.0000    0.0000    0.0000    0.0006   -0.0000   -0.0000    0.0002
      116 CR     9f2+       0.0000   -0.0000    0.0000   -0.0000   -0.0000   -0.0000    0.0005   -0.0000    0.0000    0.0016
      117 CR     4f3+       0.0000   -0.0001    0.0000   -0.0000    0.0000   -0.0086    0.0000   -0.0000    0.0060   -0.0000
      118 CR     5f3+      -0.0000    0.0000   -0.0000    0.0000   -0.0000   -0.0006    0.0000   -0.0000    0.0014   -0.0000
      119 CR     6f3+       0.0000   -0.0000    0.0000   -0.0000    0.0000    0.0027   -0.0000    0.0000   -0.0021    0.0000
      120 CR     7f3+      -0.0000   -0.0000   -0.0000    0.0000    0.0000   -0.0004   -0.0000    0.0000   -0.0002   -0.0000
      121 CR     8f3+       0.0000    0.0000    0.0000   -0.0000   -0.0000   -0.0006    0.0000   -0.0000    0.0005   -0.0000
      122 CR     9f3+      -0.0000   -0.0000   -0.0000    0.0000    0.0000   -0.0002    0.0000   -0.0000    0.0005    0.0000
      123 CR     5g4-      -0.0000   -0.0000   -0.0000   -0.0000    0.0000    0.0000   -0.0000   -0.0058    0.0000   -0.0000
      124 CR     6g4-       0.0000    0.0000    0.0000    0.0000   -0.0000    0.0000   -0.0000   -0.0029    0.0000   -0.0000
      125 CR     7g4-      -0.0000   -0.0000   -0.0000   -0.0000    0.0000   -0.0000    0.0000    0.0010   -0.0000   -0.0000
      126 CR     8g4-       0.0000    0.0000   -0.0000   -0.0000   -0.0000    0.0000    0.0000    0.0012   -0.0000    0.0000
      127 CR     5g3-       0.0000    0.0000   -0.0000   -0.0000    0.0000    0.0000   -0.0000   -0.0000   -0.0000    0.0000
      128 CR     6g3-      -0.0000   -0.0000   -0.0000   -0.0000    0.0000   -0.0000   -0.0000   -0.0000    0.0000    0.0000
      129 CR     7g3-       0.0000    0.0000    0.0000    0.0000    0.0000    0.0000    0.0000    0.0000   -0.0000   -0.0000
      130 CR     8g3-      -0.0000   -0.0000   -0.0000   -0.0000    0.0000   -0.0000    0.0000    0.0000    0.0000   -0.0000
      131 CR     5g2-      -0.0000   -0.0000   -0.0000   -0.0000    0.0000   -0.0000    0.0000    0.0004   -0.0000   -0.0000
      132 CR     6g2-       0.0000    0.0000    0.0000    0.0000   -0.0000   -0.0000    0.0000    0.0005   -0.0000   -0.0000
      133 CR     7g2-      -0.0000   -0.0000   -0.0000   -0.0000    0.0000    0.0000   -0.0000   -0.0001    0.0000   -0.0000
      134 CR     8g2-       0.0000    0.0000   -0.0000   -0.0000   -0.0000   -0.0000   -0.0000   -0.0003    0.0000    0.0000
      135 CR     5g1-       0.0000    0.0000   -0.0000   -0.0000    0.0000    0.0000   -0.0000   -0.0072    0.0000    0.0000
      136 CR     6g1-       0.0000    0.0000    0.0000    0.0000   -0.0000   -0.0000   -0.0000   -0.0036    0.0000    0.0000
      137 CR     7g1-      -0.0000   -0.0000   -0.0000   -0.0000    0.0000    0.0000    0.0000    0.0012   -0.0000    0.0000
      138 CR     8g1-       0.0000    0.0000   -0.0000   -0.0000    0.0000   -0.0000    0.0000    0.0014   -0.0000   -0.0000
      139 CR     5g0        0.0000   -0.0000   -0.0000    0.0000   -0.0001   -0.0006   -0.0000    0.0000   -0.0114   -0.0000
      140 CR     6g0        0.0000    0.0000    0.0000   -0.0000    0.0000   -0.0003   -0.0000    0.0000   -0.0062    0.0000
      141 CR     7g0       -0.0000   -0.0000   -0.0000    0.0000   -0.0000    0.0001    0.0000   -0.0000    0.0019    0.0000
      142 CR     8g0       -0.0000    0.0000   -0.0000    0.0000   -0.0000    0.0001    0.0000   -0.0000    0.0027    0.0000
      143 CR     5g1+       0.0000   -0.0000   -0.0000    0.0000    0.0000   -0.0000   -0.0072    0.0000    0.0000   -0.0067
      144 CR     6g1+      -0.0000    0.0000    0.0000   -0.0000   -0.0000    0.0000   -0.0036    0.0000    0.0000   -0.0054
      145 CR     7g1+      -0.0000   -0.0000   -0.0000    0.0000    0.0000    0.0000    0.0012   -0.0000   -0.0000   -0.0005
      146 CR     8g1+       0.0000   -0.0000   -0.0000    0.0000    0.0000   -0.0000    0.0014   -0.0000   -0.0000    0.0015
      147 CR     5g2+       0.0000   -0.0000    0.0000   -0.0000    0.0000   -0.0000   -0.0004    0.0000    0.0000   -0.0025
      148 CR     6g2+      -0.0000    0.0000   -0.0000    0.0000   -0.0000   -0.0000   -0.0005    0.0000    0.0000   -0.0017
      149 CR     7g2+      -0.0000   -0.0000    0.0000   -0.0000    0.0000    0.0000    0.0001   -0.0000   -0.0000   -0.0002
      150 CR     8g2+       0.0000    0.0000    0.0000   -0.0000   -0.0000    0.0000    0.0003   -0.0000   -0.0000    0.0004
      151 CR     5g3+      -0.0000    0.0000   -0.0000    0.0000   -0.0000    0.0046   -0.0000    0.0000   -0.0065    0.0000
      152 CR     6g3+       0.0000   -0.0000    0.0000   -0.0000    0.0000    0.0023   -0.0000    0.0000   -0.0037    0.0000
      153 CR     7g3+       0.0000    0.0000   -0.0000    0.0000   -0.0000   -0.0010   -0.0000    0.0000    0.0011   -0.0000
      154 CR     8g3+       0.0000   -0.0000   -0.0000    0.0000   -0.0000   -0.0011    0.0000   -0.0000    0.0017    0.0000
      155 CR     5g4+       0.0000   -0.0000   -0.0000    0.0000    0.0000   -0.0000   -0.0058    0.0000    0.0000    0.0011
      156 CR     6g4+      -0.0000    0.0000    0.0000   -0.0000   -0.0000   -0.0000   -0.0029    0.0000    0.0000    0.0009
      157 CR     7g4+      -0.0000   -0.0000   -0.0000    0.0000    0.0000    0.0000    0.0010   -0.0000   -0.0000    0.0002
      158 CR     8g4+      -0.0000    0.0000   -0.0000    0.0000    0.0000    0.0000    0.0012   -0.0000   -0.0000   -0.0001
      159 CR     6h5-      -0.0000   -0.0000    0.0000    0.0000    0.0000    0.0000    0.0000    0.0007   -0.0000   -0.0000
      160 CR     7h5-       0.0000    0.0000   -0.0000   -0.0000   -0.0000   -0.0000    0.0000    0.0007   -0.0000   -0.0000
      161 CR     6h4-      -0.0000   -0.0000    0.0000    0.0000   -0.0000   -0.0000    0.0000    0.0035   -0.0000    0.0000
      162 CR     7h4-      -0.0000   -0.0000   -0.0000   -0.0000    0.0000   -0.0000    0.0000    0.0026   -0.0000    0.0000
      163 CR     6h3-      -0.0000   -0.0000   -0.0000   -0.0000    0.0000    0.0000    0.0000    0.0000    0.0000   -0.0000
      164 CR     7h3-       0.0000    0.0000    0.0000    0.0000   -0.0000   -0.0000    0.0000    0.0000    0.0000   -0.0000
      165 CR     6h2-      -0.0000   -0.0000    0.0000    0.0000   -0.0000   -0.0000    0.0000    0.0011   -0.0000   -0.0000
      166 CR     7h2-      -0.0000   -0.0000   -0.0000   -0.0000    0.0000   -0.0000    0.0000    0.0009   -0.0000   -0.0000
      167 CR     6h1-      -0.0000   -0.0000    0.0000    0.0000   -0.0000    0.0000    0.0000    0.0008    0.0000    0.0000
      168 CR     7h1-       0.0000    0.0000   -0.0000   -0.0000   -0.0000   -0.0000    0.0000    0.0009   -0.0000    0.0000
      169 CR     6h0        0.0000   -0.0000   -0.0000    0.0000   -0.0000   -0.0009   -0.0000    0.0000   -0.0022    0.0000
      170 CR     7h0        0.0000    0.0000   -0.0000    0.0000    0.0000   -0.0007   -0.0000    0.0000   -0.0021    0.0000
      171 CR     6h1+      -0.0000    0.0000    0.0000   -0.0000   -0.0000    0.0000    0.0008   -0.0000   -0.0000   -0.0037
      172 CR     7h1+       0.0000   -0.0000   -0.0000    0.0000    0.0000    0.0000    0.0009   -0.0000   -0.0000   -0.0031
      173 CR     6h2+      -0.0000    0.0000   -0.0000    0.0000    0.0000    0.0000   -0.0011    0.0000    0.0000   -0.0050
      174 CR     7h2+      -0.0000    0.0000    0.0000   -0.0000   -0.0000    0.0000   -0.0009    0.0000    0.0000   -0.0045
      175 CR     6h3+       0.0000   -0.0000    0.0000   -0.0000    0.0000   -0.0014    0.0000    0.0000    0.0034   -0.0000
      176 CR     7h3+       0.0000    0.0000   -0.0000    0.0000   -0.0000   -0.0011    0.0000   -0.0000    0.0024   -0.0000
      177 CR     6h4+      -0.0000    0.0000    0.0000   -0.0000   -0.0000    0.0000    0.0035   -0.0000   -0.0000   -0.0020
      178 CR     7h4+      -0.0000   -0.0000   -0.0000    0.0000    0.0000    0.0000    0.0026   -0.0000   -0.0000   -0.0016
      179 CR     6h5+      -0.0000    0.0000   -0.0000    0.0000    0.0000    0.0000   -0.0007    0.0000    0.0000   -0.0063
      180 CR     7h5+      -0.0000    0.0000    0.0000   -0.0000   -0.0000    0.0000   -0.0007    0.0000    0.0000   -0.0058

          Orbital           11        12        13        14    
          Energy           -1.2032   -1.1375   -1.1375   -1.1348
          Occ. No.          0.0000    0.0000    0.0000    0.0000

        1 CR     1s         0.0000    0.0000    0.0000    0.0000
        2 CR     2s         0.0000    0.0000    0.0000    0.0001
        3 CR     3s         0.0000   -0.0000    0.0000    0.0059
        4 CR     4s        -0.0000    0.0000   -0.0000   -0.0398
        5 CR     5s         0.0000   -0.0000    0.0000    0.0327
        6 CR     6s         0.0000    0.0000    0.0000   -0.0012
        7 CR     7s        -0.0000    0.0000   -0.0000   -0.0078
        8 CR     8s        -0.0000   -0.0000    0.0000    0.0009
        9 CR     9s         0.0000   -0.0000    0.0000    0.0016
       10 CR    10s         0.0000   -0.0000    0.0000    0.0002
       11 CR     2px        0.0000   -0.0000   -0.0004    0.0000
       12 CR     3px       -0.0000   -0.0000   -0.0346    0.0000
       13 CR     4px        0.0000    0.0000    0.0623   -0.0000
       14 CR     5px       -0.0000   -0.0000   -0.0466    0.0000
       15 CR     6px       -0.0000   -0.0000   -0.0083    0.0000
       16 CR     7px        0.0000    0.0000    0.0139   -0.0000
       17 CR     8px       -0.0000    0.0000    0.0010   -0.0000
       18 CR     9px       -0.0000   -0.0000   -0.0038    0.0000
       19 CR    10px       -0.0000   -0.0000   -0.0008    0.0000
       20 CR    11px        0.0000    0.0000    0.0000   -0.0000
       21 CR     2py        0.0000   -0.0004    0.0000    0.0000
       22 CR     3py       -0.0006   -0.0346    0.0000   -0.0000
       23 CR     4py        0.0042    0.0623   -0.0000    0.0000
       24 CR     5py       -0.0039   -0.0466    0.0000    0.0000
       25 CR     6py       -0.0005   -0.0083    0.0000    0.0000
       26 CR     7py        0.0014    0.0139   -0.0000   -0.0000
       27 CR     8py       -0.0002    0.0010   -0.0000   -0.0000
       28 CR     9py       -0.0005   -0.0038    0.0000    0.0000
       29 CR    10py       -0.0000   -0.0008    0.0000    0.0000
       30 CR    11py        0.0000    0.0000   -0.0000    0.0000
       31 CR     2pz       -0.0000   -0.0000    0.0000    0.0001
       32 CR     3pz        0.0000   -0.0000    0.0000    0.0098
       33 CR     4pz       -0.0000    0.0000   -0.0000   -0.0313
       34 CR     5pz       -0.0000   -0.0000    0.0000    0.0246
       35 CR     6pz       -0.0000   -0.0000    0.0000    0.0043
       36 CR     7pz       -0.0000    0.0000   -0.0000   -0.0083
       37 CR     8pz       -0.0000    0.0000    0.0000    0.0001
       38 CR     9pz        0.0000   -0.0000    0.0000    0.0026
       39 CR    10pz        0.0000   -0.0000    0.0000    0.0003
       40 CR    11pz        0.0000   -0.0000   -0.0000   -0.0001
       41 CR     3d2-       0.8554    0.4347   -0.0000    0.0000
       42 CR     4d2-      -0.2385   -0.1326    0.0000   -0.0000
       43 CR     5d2-      -0.0033    0.0066   -0.0000    0.0000
       44 CR     6d2-       0.0079    0.0050   -0.0000    0.0000
       45 CR     7d2-       0.0088    0.0022   -0.0000    0.0000
       46 CR     8d2-      -0.0006   -0.0017    0.0000   -0.0000
       47 CR     9d2-      -0.0000    0.0018   -0.0000    0.0000
       48 CR    10d2-       0.0005    0.0010   -0.0000    0.0000
       49 CR     3d1-      -0.4419    0.8476   -0.0000    0.0000
       50 CR     4d1-       0.1212   -0.2537    0.0000   -0.0000
       51 CR     5d1-       0.0033    0.0095   -0.0000    0.0000
       52 CR     6d1-      -0.0036    0.0087   -0.0000    0.0000
       53 CR     7d1-      -0.0052    0.0056   -0.0000    0.0000
       54 CR     8d1-      -0.0000   -0.0025    0.0000   -0.0000
       55 CR     9d1-       0.0006    0.0023   -0.0000    0.0000
       56 CR    10d1-      -0.0000    0.0015   -0.0000    0.0000
       57 CR     3d0       -0.0000   -0.0000    0.0000    0.9542
       58 CR     4d0        0.0000    0.0000   -0.0000   -0.2885
       59 CR     5d0       -0.0000   -0.0000    0.0000    0.0106
       60 CR     6d0       -0.0000   -0.0000    0.0000    0.0103
       61 CR     7d0       -0.0000   -0.0000    0.0000    0.0068
       62 CR     8d0       -0.0000    0.0000   -0.0000   -0.0031
       63 CR     9d0       -0.0000   -0.0000    0.0000    0.0022
       64 CR    10d0       -0.0000   -0.0000    0.0000    0.0016
       65 CR     3d1+      -0.0000    0.0000    0.8476   -0.0000
       66 CR     4d1+       0.0000   -0.0000   -0.2537    0.0000
       67 CR     5d1+       0.0000    0.0000    0.0095   -0.0000
       68 CR     6d1+      -0.0000    0.0000    0.0087   -0.0000
       69 CR     7d1+      -0.0000    0.0000    0.0056   -0.0000
       70 CR     8d1+      -0.0000   -0.0000   -0.0025    0.0000
       71 CR     9d1+       0.0000    0.0000    0.0023   -0.0000
       72 CR    10d1+      -0.0000    0.0000    0.0015   -0.0000
       73 CR     3d2+      -0.0000   -0.0000   -0.4347    0.0000
       74 CR     4d2+       0.0000    0.0000    0.1326   -0.0000
       75 CR     5d2+       0.0000   -0.0000   -0.0066    0.0000
       76 CR     6d2+      -0.0000   -0.0000   -0.0050    0.0000
       77 CR     7d2+      -0.0000   -0.0000   -0.0022    0.0000
       78 CR     8d2+       0.0000    0.0000    0.0017   -0.0000
       79 CR     9d2+       0.0000   -0.0000   -0.0018    0.0000
       80 CR    10d2+      -0.0000   -0.0000   -0.0010    0.0000
       81 CR     4f3-      -0.0000   -0.0000    0.0000   -0.0000
       82 CR     5f3-      -0.0000   -0.0000    0.0000   -0.0000
       83 CR     6f3-       0.0000    0.0000   -0.0000   -0.0000
       84 CR     7f3-      -0.0000    0.0000   -0.0000   -0.0000
       85 CR     8f3-      -0.0000   -0.0000   -0.0000   -0.0000
       86 CR     9f3-      -0.0000   -0.0000   -0.0000    0.0000
       87 CR     4f2-       0.0283    0.0402   -0.0000    0.0000
       88 CR     5f2-       0.0122    0.0186   -0.0000    0.0000
       89 CR     6f2-      -0.0045   -0.0075    0.0000   -0.0000
       90 CR     7f2-      -0.0031   -0.0052    0.0000   -0.0000
       91 CR     8f2-       0.0002    0.0008   -0.0000    0.0000
       92 CR     9f2-       0.0016    0.0032   -0.0000    0.0000
       93 CR     4f1-      -0.0101    0.0091   -0.0000    0.0000
       94 CR     5f1-      -0.0040    0.0029   -0.0000    0.0000
       95 CR     6f1-       0.0013   -0.0012    0.0000   -0.0000
       96 CR     7f1-       0.0009   -0.0006    0.0000   -0.0000
       97 CR     8f1-       0.0001    0.0001   -0.0000    0.0000
       98 CR     9f1-      -0.0003    0.0003   -0.0000    0.0000
       99 CR     4f0        0.0000    0.0000   -0.0000   -0.0100
      100 CR     5f0       -0.0000    0.0000   -0.0000   -0.0054
      101 CR     6f0        0.0000   -0.0000    0.0000    0.0037
      102 CR     7f0       -0.0000   -0.0000    0.0000    0.0021
      103 CR     8f0       -0.0000    0.0000   -0.0000   -0.0009
      104 CR     9f0        0.0000    0.0000   -0.0000   -0.0020
      105 CR     4f1+      -0.0000    0.0000    0.0091   -0.0000
      106 CR     5f1+      -0.0000    0.0000    0.0029   -0.0000
      107 CR     6f1+       0.0000   -0.0000   -0.0012    0.0000
      108 CR     7f1+       0.0000   -0.0000   -0.0006    0.0000
      109 CR     8f1+       0.0000    0.0000    0.0001   -0.0000
      110 CR     9f1+      -0.0000    0.0000    0.0003   -0.0000
      111 CR     4f2+      -0.0000   -0.0000   -0.0402    0.0000
      112 CR     5f2+      -0.0000   -0.0000   -0.0186    0.0000
      113 CR     6f2+       0.0000    0.0000    0.0075   -0.0000
      114 CR     7f2+       0.0000    0.0000    0.0052   -0.0000
      115 CR     8f2+      -0.0000   -0.0000   -0.0008    0.0000
      116 CR     9f2+      -0.0000   -0.0000   -0.0032    0.0000
      117 CR     4f3+       0.0000   -0.0000    0.0000    0.0193
      118 CR     5f3+       0.0000   -0.0000    0.0000    0.0095
      119 CR     6f3+       0.0000    0.0000   -0.0000   -0.0031
      120 CR     7f3+       0.0000    0.0000   -0.0000   -0.0026
      121 CR     8f3+      -0.0000    0.0000    0.0000    0.0001
      122 CR     9f3+      -0.0000   -0.0000    0.0000    0.0013
      123 CR     5g4-      -0.0011    0.0068   -0.0000    0.0000
      124 CR     6g4-      -0.0009    0.0058   -0.0000    0.0000
      125 CR     7g4-      -0.0002    0.0001   -0.0000   -0.0000
      126 CR     8g4-       0.0001   -0.0023    0.0000   -0.0000
      127 CR     5g3-       0.0000    0.0000   -0.0000    0.0000
      128 CR     6g3-       0.0000    0.0000   -0.0000    0.0000
      129 CR     7g3-      -0.0000    0.0000   -0.0000   -0.0000
      130 CR     8g3-      -0.0000   -0.0000    0.0000    0.0000
      131 CR     5g2-      -0.0025   -0.0074    0.0000   -0.0000
      132 CR     6g2-      -0.0017   -0.0063    0.0000   -0.0000
      133 CR     7g2-      -0.0002   -0.0004    0.0000   -0.0000
      134 CR     8g2-       0.0004    0.0021   -0.0000    0.0000
      135 CR     5g1-       0.0067   -0.0016    0.0000   -0.0000
      136 CR     6g1-       0.0054   -0.0009    0.0000   -0.0000
      137 CR     7g1-       0.0005   -0.0009    0.0000   -0.0000
      138 CR     8g1-      -0.0015   -0.0010    0.0000   -0.0000
      139 CR     5g0        0.0000    0.0000   -0.0000   -0.0140
      140 CR     6g0        0.0000    0.0000   -0.0000   -0.0117
      141 CR     7g0       -0.0000    0.0000   -0.0000   -0.0008
      142 CR     8g0       -0.0000   -0.0000    0.0000    0.0040
      143 CR     5g1+       0.0000   -0.0000   -0.0016    0.0000
      144 CR     6g1+       0.0000   -0.0000   -0.0009    0.0000
      145 CR     7g1+       0.0000   -0.0000   -0.0009    0.0000
      146 CR     8g1+      -0.0000   -0.0000   -0.0010    0.0000
      147 CR     5g2+       0.0000    0.0000    0.0074   -0.0000
      148 CR     6g2+       0.0000    0.0000    0.0063   -0.0000
      149 CR     7g2+       0.0000    0.0000    0.0004   -0.0000
      150 CR     8g2+      -0.0000   -0.0000   -0.0021    0.0000
      151 CR     5g3+      -0.0000    0.0000   -0.0000   -0.0032
      152 CR     6g3+      -0.0000    0.0000   -0.0000   -0.0030
      153 CR     7g3+       0.0000    0.0000    0.0000   -0.0002
      154 CR     8g3+      -0.0000   -0.0000    0.0000    0.0012
      155 CR     5g4+      -0.0000    0.0000    0.0068   -0.0000
      156 CR     6g4+      -0.0000    0.0000    0.0058   -0.0000
      157 CR     7g4+      -0.0000    0.0000    0.0001   -0.0000
      158 CR     8g4+       0.0000   -0.0000   -0.0023    0.0000
      159 CR     6h5-      -0.0063   -0.0045    0.0000   -0.0000
      160 CR     7h5-      -0.0058   -0.0046    0.0000   -0.0000
      161 CR     6h4-       0.0020   -0.0076    0.0000   -0.0000
      162 CR     7h4-       0.0016   -0.0077    0.0000   -0.0000
      163 CR     6h3-      -0.0000   -0.0000    0.0000    0.0000
      164 CR     7h3-      -0.0000   -0.0000    0.0000   -0.0000
      165 CR     6h2-      -0.0050   -0.0041    0.0000   -0.0000
      166 CR     7h2-      -0.0045   -0.0040    0.0000   -0.0000
      167 CR     6h1-       0.0037   -0.0109    0.0000   -0.0000
      168 CR     7h1-       0.0031   -0.0107    0.0000   -0.0000
      169 CR     6h0        0.0000    0.0000   -0.0000   -0.0144
      170 CR     7h0        0.0000    0.0000   -0.0000   -0.0141
      171 CR     6h1+       0.0000   -0.0000   -0.0109    0.0000
      172 CR     7h1+       0.0000   -0.0000   -0.0107    0.0000
      173 CR     6h2+       0.0000    0.0000    0.0041   -0.0000
      174 CR     7h2+       0.0000    0.0000    0.0040   -0.0000
      175 CR     6h3+       0.0000    0.0000   -0.0000   -0.0035
      176 CR     7h3+       0.0000    0.0000   -0.0000   -0.0030
      177 CR     6h4+       0.0000   -0.0000   -0.0076    0.0000
      178 CR     7h4+       0.0000   -0.0000   -0.0077    0.0000
      179 CR     6h5+       0.0000    0.0000    0.0045   -0.0000
      180 CR     7h5+       0.0000    0.0000    0.0046   -0.0000
--


++    Molecular charges:
      ------------------

      Mulliken charges per centre and basis function type
      ---------------------------------------------------

                CR    
      1s       2.0000
      2s       2.0000
      2px      2.0000
      2pz      2.0000
      2py      2.0000
      3s       1.9819
      3px      1.9637
      3pz      1.9620
      3py      1.9637
      4s       0.0047
      3d2+     0.0009
      3d1+     0.0030
      3d0      0.0007
      3d1-     0.0030
      3d2-     0.0009
      4px      0.0141
      4pz      0.0158
      4py      0.0141
      5s       0.0106
      4d2+     0.0000
      4d1+     0.0001
      4d0      0.0000
      4d1-     0.0001
      4d2-     0.0000
      5px      0.0172
      5pz      0.0202
      5py      0.0172
      6s       0.0019
      4f3+     0.0002
      4f2+     0.0001
      4f1+     0.0001
      4f0      0.0005
      4f1-     0.0001
      4f2-     0.0001
      4f3-     0.0000
      5d2+     0.0000
      5d1+     0.0001
      5d0      0.0000
      5d1-     0.0001
      5d2-     0.0000
      6px      0.0000
      6pz      0.0001
      6py      0.0000
      7s       0.0001
      5f3+     0.0000
      5f2+     0.0000
      5f1+     0.0000
      5f0      0.0000
      5f1-     0.0000
      5f2-     0.0000
      5f3-     0.0000
      6d2+     0.0000
      6d1+     0.0000
      6d0      0.0000
      6d1-     0.0000
      6d2-     0.0000
      7px      0.0004
      7pz      0.0004
      7py      0.0004
      5g4+     0.0001
      5g3+     0.0001
      5g2+     0.0000
      5g1+     0.0001
      5g0      0.0003
      5g1-     0.0001
      5g2-     0.0000
      5g3-     0.0000
      5g4-     0.0001
      6f3+     0.0000
      6f2+     0.0000
      6f1+     0.0000
      6f0      0.0000
      6f1-     0.0000
      6f2-     0.0000
      6f3-     0.0000
      6g4+     0.0000
      6g3+     0.0000
      6g2+     0.0000
      6g1+     0.0000
      6g0      0.0001
      6g1-     0.0000
      6g2-     0.0000
      6g3-     0.0000
      6g4-     0.0000
      6h5+     0.0000
      6h4+     0.0000
      6h3+     0.0000
      6h2+     0.0000
      6h1+     0.0000
      6h0      0.0000
      6h1-     0.0000
      6h2-     0.0000
      6h3-     0.0000
      6h4-     0.0000
      6h5-     0.0000
      7d2+     0.0000
      7d1+     0.0000
      7d0      0.0000
      7d1-     0.0000
      7d2-     0.0000
      7f3+     0.0000
      7f2+     0.0000
      7f1+     0.0000
      7f0      0.0000
      7f1-     0.0000
      7f2-     0.0000
      7f3-     0.0000
      7g4+     0.0000
      7g3+     0.0000
      7g2+     0.0000
      7g1+     0.0000
      7g0      0.0000
      7g1-     0.0000
      7g2-     0.0000
      7g3-     0.0000
      7g4-     0.0000
      7h5+     0.0000
      7h4+     0.0000
      7h3+     0.0000
      7h2+     0.0000
      7h1+     0.0000
      7h0      0.0000
      7h1-     0.0000
      7h2-     0.0000
      7h3-     0.0000
      7h4-     0.0000
      7h5-     0.0000
      8s       0.0001
      8px      0.0000
      8pz      0.0000
      8py      0.0000
      8d2+     0.0000
      8d1+     0.0000
      8d0      0.0000
      8d1-     0.0000
      8d2-     0.0000
      8f3+     0.0000
      8f2+     0.0000
      8f1+     0.0000
      8f0      0.0000
      8f1-     0.0000
      8f2-     0.0000
      8f3-     0.0000
      8g4+     0.0000
      8g3+     0.0000
      8g2+     0.0000
      8g1+     0.0000
      8g0      0.0000
      8g1-     0.0000
      8g2-     0.0000
      8g3-     0.0000
      8g4-     0.0000
      9s       0.0000
      9px      0.0000
      9pz      0.0000
      9py      0.0000
      9d2+     0.0000
      9d1+     0.0000
      9d0      0.0000
      9d1-     0.0000
      9d2-     0.0000
      9f3+     0.0000
      9f2+     0.0000
      9f1+     0.0000
      9f0      0.0000
      9f1-     0.0000
      9f2-     0.0000
      9f3-     0.0000
     10s       0.0000
     10px      0.0000
     10pz      0.0000
     10py      0.0000
     10d2+     0.0000
     10d1+     0.0000
     10d0      0.0000
     10d1-     0.0000
     10d2-     0.0000
     11px      0.0000
     11pz      0.0000
     11py      0.0000
      Total   18.0000

      N-E      6.0000

      Total electronic charge=   18.000000

      Total            charge=    6.000000
--

 Sorry, Molden does not know how to handle
 functions with angular momentum larger than g

++    Static properties:
      ------------------


      LoProp Charges per center


                   CR    
      Nuclear     24.0000
      Electronic -18.0000

      Total        6.0000
--


++    Molecular properties:
      ---------------------

      Charge (e):
                      =    6.0000
      Dipole Moment (Debye):
      Origin of the operator (Ang)=    0.0000    0.0000    0.0000
                   X=  6.1027E-09               Y=  2.0936E-14               Z= -2.8135E-01           Total=  2.8135E-01
      Center of Charge (Ang)
                     X=    0.00000000               Y=    0.00000000               Z=   -0.00976270
      Quadrupole Moment (Debye*Ang):
      Origin of the operator (Ang)=    0.0000    0.0000    0.0000
                  XX= -3.4872E+00              XY= -1.0835E-14              XZ= -9.8244E-10              YY= -3.4872E+00
                  YZ=  4.7227E-15              ZZ= -3.4084E+00
      In traceless form (Debye*Ang)
                  XX= -3.9414E-02              XY= -1.6252E-14              XZ= -1.4737E-09              YY= -3.9414E-02
                  YZ=  7.0841E-15              ZZ=  7.8827E-02
--

 Sorry, Molden does not know how to handle
 functions with angular momentum larger than g
 ###############################################################################
 ###############################################################################
 ###                                                                         ###
 ###                                                                         ###
 ###    WARNING: RunFile label nBas                                          ###
 ###    was used       62 times                                              ###
 ###                                                                         ###
 ###                                                                         ###
 ###############################################################################
 ###############################################################################
Note: The following floating-point exceptions are signalling: IEEE_UNDERFLOW_FLAG IEEE_DENORMAL
--- Stop Module: scf at Thu Jan  9 00:55:46 2025 /rc=_RC_ALL_IS_WELL_ ---
*** files: chromium_so_cf.LprOrb chromium_so_cf.ScfOrb xmldump
    saved to directory /home4/s4752295/Internship/Initial_simulations/Point_charge_model/1_electron/active_space_9_non_rel/Cr/varying_bond_length
--- Module scf spent 18 seconds ---

*** symbolic link created: INPORB -> chromium_so_cf.ScfOrb
--- Start Module: rasscf at Thu Jan  9 00:55:46 2025 ---

()()()()()()()()()()()()()()()()()()()()()()()()()()()()()()()()()()()()()()()()()()()()()()()()()()

                                              &RASSCF

                                   only a single process is used
                       available to each process: 4.1 GB of memory, 1 thread?
                                            pid: 1479584
()()()()()()()()()()()()()()()()()()()()()()()()()()()()()()()()()()()()()()()()()()()()()()()()()()


      Header of the ONEINT file:
      --------------------------
      
      Integrals generated by seward 4.2.0  , Thu Jan  9 00:55:18 2025


      OrdInt status: non-squared


      Cartesian coordinates in Angstrom:
      -----------------------------------------------------
      No.  Label        X            Y            Z        
      -----------------------------------------------------
       1   CR         0.00000000   0.00000000   0.00000000
      -----------------------------------------------------
      Nuclear repulsion energy =  -50.79365091

++    Wave function specifications:
      -----------------------------

      Number of closed shell electrons          18
      Number of electrons in active shells       1
      Max number of holes in RAS1 space          0
      Max nr of electrons in RAS3 space          0
      Number of inactive orbitals                9
      Number of active orbitals                  9
      Number of secondary orbitals             162
      Spin quantum number                      0.5
      State symmetry                             1
--

++    Orbital specifications:
      -----------------------

      Symmetry species                           1
                                                 a
      Frozen orbitals                            0
      Inactive orbitals                          9
      Active orbitals                            9
      RAS1 orbitals                              0
      RAS2 orbitals                              9
      RAS3 orbitals                              0
      Secondary orbitals                       162
      Deleted orbitals                           0
      Number of basis functions                180
--

++    CI expansion specifications:
      ----------------------------

      Number of CSFs                             9
      Number of determinants                     9
      Number of root(s) required                 9
      Root chosen for geometry opt.              9
      CI roots used                              1     2     3     4     5     6     7     8     9
      weights                                0.111 0.111 0.111 0.111 0.111 0.111 0.111 0.111 0.111
      highest root included in the CI            9
      max. size of the explicit Hamiltonian      9
--

++    Optimization specifications:
      ----------------------------

      RASSCF algorithm: Conventional
      Maximum number of macro iterations       200
      Maximum number of SX iterations          100
      Threshold for RASSCF energy            0.100E-07
      Threshold for max MO rotation          0.100E+00
      Threshold for max BLB element          0.100E-03
      Level shift parameter                  0.500E+00
      Make Quasi-Newton update
--

      The MO-coefficients are taken from the file:
      INPORB                                                                                                                          
      Title: SCF orbitals                                                                  

      Total molecular charge    5.00

      ************************************************************************************************************************
      *                                                                                                                      *
      *                                            Wave function control section                                             *
      *                                                                                                                      *
      ************************************************************************************************************************


                                         RASSCF iterations: Energy and convergence statistics
                                         ----------------------------------------------------

      Iter CI   SX   CI       RASSCF       Energy    max ROT     max BLB   max BLB  Level Ln srch  Step   QN   Walltime
          iter iter root      energy       change     param      element    value   shift minimum  type update hh:mm:ss
 Nr of preliminary CI iterations:   1
      Total energies have been shifted. Add                -1000.00 au
        1   1    6    0   -53.79484615    0.00E+00   0.11E-01    9  83 1  0.12E+00*  0.18   0.00    SX    NO    0:00:06
        2   1    6    0   -53.80767015   -0.13E-01* -0.86E-02    8 127 1 -0.20E-01*  0.16   0.00    SX    NO    0:00:03
        3   1    6    0   -53.80798214   -0.31E-03* -0.54E-02    3 169 1  0.33E-02*  0.16   0.00    SX    NO    0:00:03
        4   1    6    0   -53.80800065   -0.19E-04*  0.43E-02    6 111 1 -0.88E-03*  0.16   0.00    SX    NO    0:00:03
        5   1    6    0   -53.80800346   -0.28E-05* -0.19E-02    6 111 1  0.23E-03*  0.16   0.66    QN   YES    0:00:03
        6   1    5    0   -53.80800512   -0.17E-05*  0.61E-03    8 127 1  0.11E-03*  0.16   1.09    QN   YES    0:00:03
        7   1    5    0   -53.80800532   -0.20E-06*  0.61E-03    6 111 1 -0.29E-04   0.16   1.04    QN   YES    0:00:03
        8   1    4    0   -53.80800541   -0.81E-07*  0.24E-03    5 171 1 -0.32E-04   0.16   1.10    QN   YES    0:00:03
        9   1    4    0   -53.80800541   -0.92E-08   0.12E-03    6 111 1  0.74E-05   0.16   1.07    QN   YES    0:00:03
      Convergence after  9 iterations
       10   1    4    0   -53.80800542   -0.21E-08   0.12E-03    4 170 1  0.46E-05   0.16   1.07    QN   YES    0:00:03

      ************************************************************************************************************************
                                                      Wave function printout:
                       occupation of active orbitals, and spin coupling of open shells (u,d: Spin up or down)
      ************************************************************************************************************************

      Note: transformation to natural orbitals
      has been made, which may change the order of the CSFs.

      printout of CI-coefficients larger than  0.05 for root  1
      energy=   -1054.185720
      conf/sym  111111111     Coeff  Weight
             1  u00000000   0.62485 0.39044
             2  0u0000000   0.55422 0.30716
             3  00u000000   0.06199 0.00384
             4  000u00000   0.05943 0.00353
             6  00000u000   0.38065 0.14489
             7  000000u00  -0.26836 0.07202
             8  0000000u0  -0.06054 0.00367
             9  00000000u  -0.27285 0.07444

      printout of CI-coefficients larger than  0.05 for root  2
      energy=   -1054.185720
      conf/sym  111111111     Coeff  Weight
             1  u00000000  -0.23148 0.05358
             2  0u0000000   0.70671 0.49944
             3  00u000000   0.18796 0.03533
             4  000u00000   0.21484 0.04616
             6  00000u000  -0.36474 0.13304
             9  00000000u   0.48124 0.23159

      printout of CI-coefficients larger than  0.05 for root  3
      energy=   -1054.121020
      conf/sym  111111111     Coeff  Weight
             3  00u000000   0.70939 0.50324
             4  000u00000  -0.70128 0.49180
             8  0000000u0  -0.05079 0.00258

      printout of CI-coefficients larger than  0.05 for root  4
      energy=   -1054.121020
      conf/sym  111111111     Coeff  Weight
             1  u00000000   0.34575 0.11954
             2  0u0000000  -0.43218 0.18678
             3  00u000000   0.44725 0.20004
             4  000u00000   0.44322 0.19645
             7  000000u00  -0.28959 0.08386
             8  0000000u0  -0.11343 0.01287
             9  00000000u   0.44644 0.19931

      printout of CI-coefficients larger than  0.05 for root  5
      energy=   -1054.118506
      conf/sym  111111111     Coeff  Weight
             1  u00000000  -0.06193 0.00384
             3  00u000000   0.16960 0.02876
             4  000u00000   0.18849 0.03553
             5  0000u0000   0.76900 0.59137
             6  00000u000  -0.17908 0.03207
             7  000000u00  -0.18296 0.03347
             8  0000000u0   0.42803 0.18321
             9  00000000u  -0.30032 0.09019

      printout of CI-coefficients larger than  0.05 for root  6
      energy=   -1053.529309
      conf/sym  111111111     Coeff  Weight
             1  u00000000  -0.53272 0.28379
             2  0u0000000   0.06938 0.00481
             3  00u000000   0.29760 0.08857
             4  000u00000   0.30403 0.09244
             5  0000u0000  -0.06219 0.00387
             6  00000u000   0.71113 0.50570
             7  000000u00   0.09814 0.00963
             8  0000000u0   0.08088 0.00654
             9  00000000u  -0.06819 0.00465

      printout of CI-coefficients larger than  0.05 for root  7
      energy=   -1053.362326
      conf/sym  111111111     Coeff  Weight
             1  u00000000   0.19671 0.03870
             3  00u000000   0.32199 0.10368
             4  000u00000   0.32101 0.10305
             6  00000u000  -0.23788 0.05659
             7  000000u00   0.71233 0.50741
             8  0000000u0  -0.22222 0.04938
             9  00000000u  -0.37338 0.13941

      printout of CI-coefficients larger than  0.05 for root  8
      energy=   -1053.362326
      conf/sym  111111111     Coeff  Weight
             1  u00000000   0.21919 0.04805
             3  00u000000   0.07627 0.00582
             5  0000u0000  -0.38822 0.15071
             7  000000u00   0.20788 0.04321
             8  0000000u0   0.86125 0.74175
             9  00000000u   0.10010 0.01002

      printout of CI-coefficients larger than  0.05 for root  9
      energy=   -1053.286101
      conf/sym  111111111     Coeff  Weight
             1  u00000000   0.24792 0.06146
             3  00u000000  -0.17530 0.03073
             4  000u00000  -0.17533 0.03074
             5  0000u0000   0.49931 0.24931
             6  00000u000   0.35671 0.12724
             7  000000u00   0.50013 0.25013
             9  00000000u   0.50038 0.25038

      Natural orbitals and occupation numbers for root  1
      sym 1:   1.000000   0.000000   0.000000  -0.000000  -0.000000  -0.000000  -0.000000  -0.000000   0.000000

      Natural orbitals and occupation numbers for root  2
      sym 1:   0.000000   1.000000  -0.000000  -0.000000  -0.000000   0.000000  -0.000000   0.000000   0.000000

      Natural orbitals and occupation numbers for root  3
      sym 1:   0.000000   0.000000   1.000000   0.000000  -0.000000   0.000000  -0.000000  -0.000000   0.000000

      Natural orbitals and occupation numbers for root  4
      sym 1:  -0.000000   1.000000  -0.000000  -0.000000  -0.000000   0.000000   0.000000   0.000000  -0.000000

      Natural orbitals and occupation numbers for root  5
      sym 1:   0.000000  -0.000000   0.000000   0.000000   1.000000  -0.000000  -0.000000   0.000000   0.000000

      Natural orbitals and occupation numbers for root  6
      sym 1:   0.000000  -0.000000   0.000000  -0.000000   0.000000   1.000000  -0.000000  -0.000000   0.000000

      Natural orbitals and occupation numbers for root  7
      sym 1:   0.000000  -0.000000  -0.000000  -0.000000   0.000000   0.000000   1.000000  -0.000000  -0.000000

      Natural orbitals and occupation numbers for root  8
      sym 1:  -0.000000  -0.000000  -0.000000  -0.000000  -0.000000   0.000000   0.000000   1.000000  -0.000000

      Natural orbitals and occupation numbers for root  9
      sym 1:  -0.000000  -0.000000   0.000000   0.000000   1.000000   0.000000   0.000000   0.000000  -0.000000

      ************************************************************************************************************************
      *                                                                                                                      *
      *                                                    Final results                                                     *
      *                                                                                                                      *
      ************************************************************************************************************************


++    Wave function specifications:
      -----------------------------

      Number of closed shell electrons          18
      Number of electrons in active shells       1
      Max number of holes in RAS1 space          0
      Max nr of electrons in RAS3 space          0
      Number of inactive orbitals                9
      Number of active orbitals                  9
      Number of secondary orbitals             162
      Spin quantum number                      0.5
      State symmetry                             1
--

++    Orbital specifications:
      -----------------------

      Symmetry species                           1
                                                 a
      Frozen orbitals                            0
      Inactive orbitals                          9
      Active orbitals                            9
      RAS1 orbitals                              0
      RAS2 orbitals                              9
      RAS3 orbitals                              0
      Secondary orbitals                       162
      Deleted orbitals                           0
      Number of basis functions                180
--

++    CI expansion specifications:
      ----------------------------

      Number of CSFs                             9
      Number of determinants                     9
      Number of root(s) required                 9
      CI roots used                              1     2     3     4     5     6     7     8     9
      weights                                0.111 0.111 0.111 0.111 0.111 0.111 0.111 0.111 0.111
      highest root included in the CI            9
      Root passed to geometry opt.               9
--

++    Final optimization conditions:
      ------------------------------

      Average CI energy                           -1053.80800542
      RASSCF energy for state  9                  -1053.28610092
      Super-CI energy                                -0.00000000
      RASSCF energy change                           -0.00000000
      Max change in MO coefficients              -0.114E-03
      Max non-diagonal density matrix element     0.116E-03
      Maximum BLB matrix element                  0.460E-05
      (orbital pair   4, 170 in symmetry   1)
      Norm of electronic gradient            0.384E+00
--


      Final state energy(ies):
      ------------------------

::    RASSCF root number  1 Total energy:  -1054.18572005
::    RASSCF root number  2 Total energy:  -1054.18572005
::    RASSCF root number  3 Total energy:  -1054.12102020
::    RASSCF root number  4 Total energy:  -1054.12102019
::    RASSCF root number  5 Total energy:  -1054.11850599
::    RASSCF root number  6 Total energy:  -1053.52930917
::    RASSCF root number  7 Total energy:  -1053.36232609
::    RASSCF root number  8 Total energy:  -1053.36232609
::    RASSCF root number  9 Total energy:  -1053.28610092

++    Molecular orbitals:
      -------------------

      Pseudonatural active orbitals and approximate occupation numbers




      Molecular orbitals for symmetry species 1: a  


      Orbital                 1         2         3         4         5         6         7         8         9        10
      Energy          -223.4878  -28.1477  -23.7741  -23.7741  -23.7720   -4.5421   -3.1906   -3.1906   -3.1428    0.0000
      Occ. No.           2.0000    2.0000    2.0000    2.0000    2.0000    2.0000    2.0000    2.0000    2.0000    0.1111

     1 CR     1s         1.0000   -0.0001    0.0000    0.0000   -0.0000    0.0001   -0.0000   -0.0000    0.0000   -0.0000
     2 CR     2s         0.0001    1.0000    0.0000   -0.0000   -0.0010    0.0017    0.0000   -0.0000   -0.0002   -0.0000
     3 CR     3s        -0.0001   -0.0017   -0.0000    0.0000    0.0002    0.9963    0.0000   -0.0000   -0.0296    0.0235
     4 CR     4s         0.0000    0.0000    0.0000   -0.0000   -0.0000   -0.0408   -0.0000   -0.0000    0.0060    0.4274
     5 CR     5s        -0.0000   -0.0003   -0.0000    0.0000    0.0001    0.0605    0.0000   -0.0000   -0.0093   -0.1464
     6 CR     6s         0.0000    0.0002    0.0000   -0.0000   -0.0000   -0.0252   -0.0000    0.0000    0.0037   -0.0439
     7 CR     7s        -0.0000   -0.0000   -0.0000    0.0000    0.0000   -0.0077    0.0000    0.0000    0.0014    0.0155
     8 CR     8s         0.0000   -0.0000    0.0000   -0.0000   -0.0000    0.0059    0.0000   -0.0000   -0.0011    0.0120
     9 CR     9s        -0.0001    0.0002    0.0000   -0.0000    0.0000    0.0018   -0.0000   -0.0000   -0.0004    0.0021
    10 CR    10s         0.0001   -0.0002   -0.0000    0.0000    0.0000    0.0003   -0.0000   -0.0000   -0.0000    0.0002
    11 CR     2px       -0.0000   -0.0000    0.9993   -0.0365   -0.0000    0.0000    0.0025   -0.0000   -0.0000   -0.0001
    12 CR     3px        0.0000   -0.0000   -0.0024    0.0001    0.0000   -0.0000    0.9932   -0.0001   -0.0000    0.0010
    13 CR     4px       -0.0000    0.0000    0.0003   -0.0000   -0.0000    0.0000   -0.0708    0.0000    0.0000    0.2066
    14 CR     5px        0.0000   -0.0000   -0.0006    0.0000    0.0000    0.0000    0.0773   -0.0000   -0.0000   -0.0061
    15 CR     6px       -0.0000    0.0000    0.0001   -0.0000   -0.0000   -0.0000   -0.0020    0.0000    0.0000   -0.0128
    16 CR     7px        0.0000   -0.0000    0.0000   -0.0000   -0.0000    0.0000   -0.0122    0.0000    0.0000    0.0007
    17 CR     8px       -0.0000    0.0000   -0.0002    0.0000    0.0000    0.0000    0.0027   -0.0000   -0.0000    0.0002
    18 CR     9px        0.0000   -0.0000    0.0003   -0.0000   -0.0000   -0.0000    0.0027   -0.0000   -0.0000   -0.0004
    19 CR    10px       -0.0000    0.0000   -0.0002    0.0000    0.0000   -0.0000   -0.0004    0.0000    0.0000    0.0002
    20 CR    11px        0.0000   -0.0000    0.0002   -0.0000   -0.0000   -0.0000   -0.0005    0.0000    0.0000    0.0001
    21 CR     2py        0.0000   -0.0000    0.0365    0.9993   -0.0000   -0.0000    0.0000    0.0025   -0.0000   -0.0000
    22 CR     3py        0.0000    0.0000   -0.0001   -0.0024    0.0000   -0.0000    0.0001    0.9932   -0.0000    0.0156
    23 CR     4py       -0.0000    0.0000    0.0000    0.0003   -0.0000    0.0000   -0.0000   -0.0708    0.0000    0.2082
    24 CR     5py       -0.0000    0.0000   -0.0000   -0.0006    0.0000   -0.0000    0.0000    0.0773   -0.0000    0.0100
    25 CR     6py        0.0000   -0.0000    0.0000    0.0001   -0.0000    0.0000   -0.0000   -0.0020   -0.0000   -0.0115
    26 CR     7py        0.0000    0.0000    0.0000    0.0000    0.0000   -0.0000   -0.0000   -0.0122    0.0000   -0.0040
    27 CR     8py       -0.0000   -0.0000   -0.0000   -0.0002    0.0000   -0.0000    0.0000    0.0027    0.0000   -0.0001
    28 CR     9py       -0.0000    0.0000    0.0000    0.0003   -0.0000   -0.0000    0.0000    0.0027   -0.0000    0.0009
    29 CR    10py       -0.0000   -0.0000   -0.0000   -0.0002    0.0000    0.0000   -0.0000   -0.0004    0.0000    0.0005
    30 CR    11py        0.0000    0.0000    0.0000    0.0002   -0.0000   -0.0000   -0.0000   -0.0005    0.0000    0.0001
    31 CR     2pz        0.0000    0.0010    0.0000   -0.0000    1.0000   -0.0002    0.0000   -0.0000    0.0027   -0.0001
    32 CR     3pz       -0.0000    0.0002   -0.0000    0.0000   -0.0026    0.0305    0.0000   -0.0000    0.9924    0.0217
    33 CR     4pz        0.0000   -0.0000    0.0000   -0.0000    0.0004   -0.0003   -0.0000    0.0000   -0.0766    0.3624
    34 CR     5pz       -0.0000    0.0001   -0.0000    0.0000   -0.0007   -0.0011    0.0000   -0.0000    0.0856    0.0217
    35 CR     6pz        0.0000   -0.0000    0.0000   -0.0000    0.0002    0.0009   -0.0000   -0.0000   -0.0031   -0.0051
    36 CR     7pz       -0.0000    0.0000    0.0000   -0.0000   -0.0000   -0.0006   -0.0000    0.0000   -0.0132   -0.0039
    37 CR     8pz        0.0000   -0.0000   -0.0000    0.0000   -0.0002   -0.0003    0.0000   -0.0000    0.0036   -0.0038
    38 CR     9pz       -0.0000    0.0000    0.0000   -0.0000    0.0002    0.0002    0.0000   -0.0000    0.0029   -0.0015
    39 CR    10pz        0.0000   -0.0000   -0.0000    0.0000   -0.0002    0.0002   -0.0000    0.0000   -0.0009    0.0001
    40 CR    11pz       -0.0000    0.0000    0.0000   -0.0000    0.0002    0.0000   -0.0000    0.0000   -0.0006    0.0001
    41 CR     3d2-      -0.0000   -0.0000    0.0000    0.0001   -0.0000   -0.0000    0.0000    0.0227   -0.0000   -0.2066
    42 CR     4d2-       0.0000   -0.0000   -0.0000   -0.0000    0.0000    0.0000   -0.0000   -0.0029   -0.0000    0.0851
    43 CR     5d2-       0.0000   -0.0000   -0.0000   -0.0000    0.0000    0.0000   -0.0000   -0.0046   -0.0000    0.0047
    44 CR     6d2-      -0.0000   -0.0000    0.0000    0.0000   -0.0000    0.0000    0.0000    0.0011   -0.0000   -0.0022
    45 CR     7d2-       0.0000   -0.0000   -0.0000   -0.0000    0.0000   -0.0000    0.0000    0.0017   -0.0000   -0.0030
    46 CR     8d2-       0.0000   -0.0000    0.0000    0.0000   -0.0000   -0.0000   -0.0000   -0.0001    0.0000    0.0001
    47 CR     9d2-      -0.0000   -0.0000   -0.0000   -0.0000    0.0000   -0.0000   -0.0000   -0.0012    0.0000   -0.0000
    48 CR    10d2-       0.0000    0.0000    0.0000    0.0000    0.0000   -0.0000   -0.0000   -0.0003    0.0000   -0.0002
    49 CR     3d1-       0.0000    0.0000    0.0000    0.0002   -0.0000   -0.0000    0.0000    0.0391   -0.0000    0.0855
    50 CR     4d1-       0.0000   -0.0000   -0.0000   -0.0001    0.0000    0.0000   -0.0000   -0.0063   -0.0000    0.0243
    51 CR     5d1-      -0.0000    0.0000    0.0000    0.0000   -0.0000    0.0000   -0.0000   -0.0069   -0.0000    0.0131
    52 CR     6d1-       0.0000   -0.0000   -0.0000   -0.0000    0.0000    0.0000    0.0000    0.0023   -0.0000    0.0020
    53 CR     7d1-      -0.0000    0.0000   -0.0000   -0.0000    0.0000    0.0000    0.0000    0.0024    0.0000    0.0000
    54 CR     8d1-      -0.0000    0.0000    0.0000    0.0000   -0.0000   -0.0000   -0.0000   -0.0003    0.0000   -0.0014
    55 CR     9d1-       0.0000   -0.0000    0.0000    0.0000    0.0000   -0.0000   -0.0000   -0.0016    0.0000   -0.0006
    56 CR    10d1-       0.0000   -0.0000   -0.0000   -0.0000    0.0000    0.0000   -0.0000   -0.0004    0.0000   -0.0002
    57 CR     3d0       -0.0000   -0.0001    0.0000    0.0000    0.0000   -0.0107   -0.0000   -0.0000   -0.0172   -0.0463
    58 CR     4d0        0.0000    0.0001   -0.0000    0.0000   -0.0000    0.0018   -0.0000   -0.0000    0.0004   -0.0370
    59 CR     5d0       -0.0000   -0.0000    0.0000   -0.0000    0.0001    0.0024    0.0000   -0.0000    0.0048    0.0023
    60 CR     6d0        0.0000    0.0000   -0.0000    0.0000   -0.0001   -0.0012    0.0000   -0.0000   -0.0004    0.0088
[...]
   12         0.656411       6 0.5  1.0000    9 0.5  0.0000    8 0.5  0.0000    7 0.5  0.0000    5 0.5  0.0000
   13         0.823394       7 0.5  1.0000    9 0.5  0.0000    8 0.5  0.0000    6 0.5  0.0000    5 0.5  0.0000
   14         0.823394       7 0.5  1.0000    9 0.5  0.0000    8 0.5  0.0000    6 0.5  0.0000    5 0.5  0.0000
   15         0.823394       8 0.5  1.0000    9 0.5  0.0000    7 0.5  0.0000    6 0.5  0.0000    5 0.5  0.0000
   16         0.823394       8 0.5  1.0000    9 0.5  0.0000    7 0.5  0.0000    6 0.5  0.0000    5 0.5  0.0000
   17         0.899619       9 0.5  1.0000    8 0.5  0.0000    7 0.5  0.0000    6 0.5  0.0000    5 0.5  0.0000
   18         0.899619       9 0.5  1.0000    8 0.5  0.0000    7 0.5  0.0000    6 0.5  0.0000    5 0.5  0.0000
 -------------------------------------------------------------------------------------------------------


      ****************************************************************************************************
      *                                                                                                  *
      *                                    Special properties section                                    *
      *                                                                                                  *
      ****************************************************************************************************


++ Dipole transition strengths (SO states):
   ----------------------------------------
    for osc. strength at least    1.0000000000000001E-005

      From   To        Osc. strength     Einstein coefficients Ax, Ay, Az (sec-1)    Total A (sec-1)
     -----------------------------------------------------------------------------------------------
         1   11       6.48413566E-05  5.92867751E-02  8.97662291E+05  5.39985117E-16  8.97662350E+05
         1   13       2.08332483E-02  6.70936550E+01  4.53817925E+08  1.93388662E+00  4.53817994E+08
         1   15       2.61283412E-02  4.53817929E+08  6.70936533E+01  1.15344875E+08  5.69162871E+08
         1   17       6.98468166E-03  1.19954893E+01  1.81624036E+08  9.98926210E-16  1.81624048E+08
         2   12       6.48413566E-05  5.92867751E-02  8.97662291E+05  5.39985117E-16  8.97662350E+05
         2   14       2.08332483E-02  6.70936550E+01  4.53817925E+08  1.93388662E+00  4.53817994E+08
         2   16       2.61283412E-02  4.53817929E+08  6.70936533E+01  1.15344875E+08  5.69162871E+08
         2   18       6.98468166E-03  1.19954893E+01  1.81624036E+08  9.98926210E-16  1.81624048E+08
         3   11       6.48413689E-05  8.97662462E+05  5.92867268E-02  1.57853559E-10  8.97662522E+05
         3   13       2.61283415E-02  4.53817929E+08  6.70936545E+01  1.15344881E+08  5.69162877E+08
         3   15       2.08332478E-02  6.70936557E+01  4.53817916E+08  1.93388609E+00  4.53817985E+08
         3   17       6.98468181E-03  1.81624041E+08  1.19954885E+01  1.99336584E-09  1.81624052E+08
         4   12       6.48413689E-05  8.97662462E+05  5.92867268E-02  1.57853559E-10  8.97662522E+05
         4   14       2.61283415E-02  4.53817929E+08  6.70936545E+01  1.15344881E+08  5.69162877E+08
         4   16       2.08332478E-02  6.70936557E+01  4.53817916E+08  1.93388609E+00  4.53817985E+08
         4   18       6.98468181E-03  1.81624041E+08  1.19954885E+01  1.99336584E-09  1.81624052E+08
         5   11       9.56267071E-03  4.93291245E+00  1.07574140E+08  1.21289434E-14  1.07574145E+08
         5   13       4.17188400E-03  5.79050927E-01  7.71569095E+07  3.31658721E+01  7.71569433E+07
         5   15       1.95352697E-02  7.71569092E+07  5.79048700E-01  2.84138299E+08  3.61295209E+08
         5   17       9.89348542E-03  1.01611572E+01  2.21588718E+08  5.56916800E-13  2.21588729E+08
         6   12       9.56267071E-03  4.93291245E+00  1.07574140E+08  1.21289434E-14  1.07574145E+08
         6   14       4.17188400E-03  5.79050927E-01  7.71569095E+07  3.31658721E+01  7.71569433E+07
         6   16       1.95352697E-02  7.71569092E+07  5.79048700E-01  2.84138299E+08  3.61295209E+08
         6   18       9.89348542E-03  1.01611572E+01  2.21588718E+08  5.56916800E-13  2.21588729E+08
         7   11       9.56267071E-03  1.07574140E+08  4.93291235E+00  6.11576859E-08  1.07574145E+08
         7   13       1.95352713E-02  7.71569424E+07  5.79050166E-01  2.84138293E+08  3.61295236E+08
         7   15       4.17188254E-03  5.79049496E-01  7.71568824E+07  3.31658717E+01  7.71569162E+07
         7   17       9.89348533E-03  2.21588716E+08  1.01611569E+01  3.01976795E-06  2.21588726E+08
         8   12       9.56267071E-03  1.07574140E+08  4.93291235E+00  6.11576859E-08  1.07574145E+08
         8   14       1.95352713E-02  7.71569424E+07  5.79050166E-01  2.84138293E+08  3.61295236E+08
         8   16       4.17188254E-03  5.79049496E-01  7.71568824E+07  3.31658717E+01  7.71569162E+07
         8   18       9.89348533E-03  2.21588716E+08  1.01611569E+01  3.01976795E-06  2.21588726E+08
         9   11       4.48105068E-04  1.07191029E-06  4.91049366E-14  4.99815853E+06  4.99815853E+06
         9   13       1.59686135E-02  2.93377520E+08  4.76993339E+00  2.70823786E-06  2.93377525E+08
         9   15       1.59686168E-02  4.76993110E+00  2.93377582E+08  2.72407310E-14  2.93377587E+08
         9   17       1.33449860E-02  2.01815895E-06  1.17403539E-13  2.97096086E+08  2.97096086E+08
        10   12       4.48105068E-04  1.07191029E-06  4.91049366E-14  4.99815853E+06  4.99815853E+06
        10   14       1.59686135E-02  2.93377520E+08  4.76993339E+00  2.70823786E-06  2.93377525E+08
        10   16       1.59686168E-02  4.76993110E+00  2.93377582E+08  2.72407310E-14  2.93377587E+08
        10   18       1.33449860E-02  2.01815895E-06  1.17403539E-13  2.97096086E+08  2.97096086E+08
        11   13       3.21607749E-01  2.88124885E+08  4.68453079E+00  1.76634735E-09  2.88124890E+08
        11   15       3.21607749E-01  4.68453089E+00  2.88124889E+08  1.00539911E-16  2.88124893E+08
        11   17       2.93830411E-01  5.50796823E-09  9.25084985E-17  5.58422238E+08  5.58422238E+08
        12   14       3.21607749E-01  2.88124885E+08  4.68453079E+00  1.76634735E-09  2.88124890E+08
        12   16       3.21607749E-01  4.68453089E+00  2.88124889E+08  1.00539911E-16  2.88124893E+08
        12   18       2.93830411E-01  5.50796823E-09  9.25084985E-17  5.58422238E+08  5.58422238E+08
        13   17       6.29390644E-04  1.17496919E+05  1.91034478E-03  9.22014395E-11  1.17496921E+05
        14   18       6.29390644E-04  1.17496919E+05  1.91034478E-03  9.22014395E-11  1.17496921E+05
        15   17       6.29390566E-04  1.91034496E-03  1.17496901E+05  4.73905081E-18  1.17496903E+05
        16   18       6.29390566E-04  1.91034496E-03  1.17496901E+05  4.73905081E-18  1.17496903E+05
     -----------------------------------------------------------------------------------------------
--

++ Velocity transition strengths (SO states):
   ------------------------------------------
    for osc. strength at least    1.0000000000000001E-005

      From   To        Osc. strength     Einstein coefficients Ax, Ay, Az (sec-1)    Total A (sec-1)
     -----------------------------------------------------------------------------------------------
         1   11       5.17264248E-05  4.72954864E-02  7.16101959E+05  7.08025969E-17  7.16102006E+05
         1   13       1.81703534E-02  5.85179830E+01  3.95812532E+08  1.68315923E+00  3.95812592E+08
         1   15       2.27789243E-02  3.95812536E+08  5.85179810E+01  1.00390474E+08  4.96203068E+08
         1   17       6.19538236E-03  1.06399840E+01  1.61100293E+08  4.62490965E-16  1.61100304E+08
         2   12       5.17264248E-05  4.72954864E-02  7.16101959E+05  7.08025969E-17  7.16102006E+05
         2   14       1.81703534E-02  5.85179830E+01  3.95812532E+08  1.68315923E+00  3.95812592E+08
         2   16       2.27789243E-02  3.95812536E+08  5.85179810E+01  1.00390474E+08  4.96203068E+08
         2   18       6.19538236E-03  1.06399840E+01  1.61100293E+08  4.62490965E-16  1.61100304E+08
         3   11       5.17264353E-05  7.16102104E+05  4.72954635E-02  1.21879593E-10  7.16102151E+05
         3   13       2.27789246E-02  3.95812537E+08  5.85179822E+01  1.00390479E+08  4.96203074E+08
         3   15       1.81703530E-02  5.85179832E+01  3.95812524E+08  1.68315882E+00  3.95812585E+08
         3   17       6.19538251E-03  1.61100297E+08  1.06399834E+01  1.92567626E-09  1.61100308E+08
         4   12       5.17264353E-05  7.16102104E+05  4.72954635E-02  1.21879593E-10  7.16102151E+05
         4   14       2.27789246E-02  3.95812537E+08  5.85179822E+01  1.00390479E+08  4.96203074E+08
         4   16       1.81703530E-02  5.85179832E+01  3.95812524E+08  1.68315882E+00  3.95812585E+08
         4   18       6.19538251E-03  1.61100297E+08  1.06399834E+01  1.92567626E-09  1.61100308E+08
         5    9       1.36513163E-03  1.27139765E-05  2.77259128E+02  6.67696793E-22  2.77259141E+02
         5   11       8.24063324E-03  4.25095300E+00  9.27023573E+07  9.76830298E-15  9.27023615E+07
         5   13       3.60193669E-03  4.99944879E-01  6.66162506E+07  2.85918685E+01  6.66162797E+07
         5   15       1.68464664E-02  6.66162504E+07  4.99942948E-01  2.44951945E+08  3.11568196E+08
         5   17       8.68453160E-03  8.91952568E+00  1.94511927E+08  4.58330119E-13  1.94511936E+08
         6   10       1.36513163E-03  1.27139765E-05  2.77259128E+02  6.67696793E-22  2.77259141E+02
         6   12       8.24063324E-03  4.25095300E+00  9.27023573E+07  9.76830298E-15  9.27023615E+07
         6   14       3.60193669E-03  4.99944879E-01  6.66162506E+07  2.85918685E+01  6.66162797E+07
         6   16       1.68464664E-02  6.66162504E+07  4.99942948E-01  2.44951945E+08  3.11568196E+08
         6   18       8.68453160E-03  8.91952568E+00  1.94511927E+08  4.58330119E-13  1.94511936E+08
         7    9       1.36513207E-03  2.77259016E+02  1.27139721E-05  6.87020101E-15  2.77259028E+02
         7   11       8.24063324E-03  9.27023569E+07  4.25095301E+00  6.15720393E-08  9.27023612E+07
         7   13       1.68464678E-02  6.66162793E+07  4.99944238E-01  2.44951940E+08  3.11568220E+08
         7   15       3.60193542E-03  4.99943661E-01  6.66162270E+07  2.85918682E+01  6.66162561E+07
         7   17       8.68453151E-03  1.94511925E+08  8.91952548E+00  2.62004788E-06  1.94511934E+08
         8   10       1.36513207E-03  2.77259016E+02  1.27139721E-05  6.87020101E-15  2.77259028E+02
         8   12       8.24063324E-03  9.27023569E+07  4.25095301E+00  6.15720393E-08  9.27023612E+07
         8   14       1.68464678E-02  6.66162793E+07  4.99944238E-01  2.44951940E+08  3.11568220E+08
         8   16       3.60193542E-03  4.99943661E-01  6.66162270E+07  2.85918682E+01  6.66162561E+07
         8   18       8.68453151E-03  1.94511925E+08  8.91952548E+00  2.62004788E-06  1.94511934E+08
         9   11       4.61091213E-04  9.24164495E-07  3.91267210E-14  5.14302372E+06  5.14302372E+06
         9   13       1.41082462E-02  2.59199503E+08  4.21424367E+00  2.33663262E-06  2.59199507E+08
         9   15       1.41082491E-02  4.21424167E+00  2.59199557E+08  2.19935780E-14  2.59199561E+08
         9   17       1.15661694E-02  1.76909980E-06  9.46137452E-14  2.57495633E+08  2.57495633E+08
        10   12       4.61091213E-04  9.24164495E-07  3.91267210E-14  5.14302372E+06  5.14302372E+06
        10   14       1.41082462E-02  2.59199503E+08  4.21424367E+00  2.33663262E-06  2.59199507E+08
        10   16       1.41082491E-02  4.21424167E+00  2.59199557E+08  2.19935780E-14  2.59199561E+08
        10   18       1.15661694E-02  1.76909980E-06  9.46137452E-14  2.57495633E+08  2.57495633E+08
        11   13       3.06716631E-01  2.74785050E+08  4.46764271E+00  1.71794125E-09  2.74785054E+08
        11   15       3.06716631E-01  4.46764269E+00  2.74785053E+08  1.41379772E-16  2.74785058E+08
        11   17       2.82193604E-01  5.17235402E-09  4.97528510E-17  5.36308448E+08  5.36308448E+08
        12   14       3.06716631E-01  2.74785050E+08  4.46764271E+00  1.71794125E-09  2.74785054E+08
        12   16       3.06716631E-01  4.46764269E+00  2.74785053E+08  1.41379772E-16  2.74785058E+08
        12   18       2.82193604E-01  5.17235402E-09  4.97528510E-17  5.36308448E+08  5.36308448E+08
        13   17       5.75339255E-04  1.07406784E+05  1.74629251E-03  7.27890187E-11  1.07406785E+05
        14   18       5.75339255E-04  1.07406784E+05  1.74629251E-03  7.27890187E-11  1.07406785E+05
        15   17       5.75339181E-04  1.74629266E-03  1.07406767E+05  2.83166847E-18  1.07406769E+05
        16   18       5.75339181E-04  1.74629266E-03  1.07406767E+05  2.83166847E-18  1.07406769E+05
     -----------------------------------------------------------------------------------------------
--

++ Length and velocity gauge comparison (SO states):

 --------------------------------------------------
 A comparison between the dipole oscillator strengths in 
 length and velocity gauge will be performed

 All dipole oscillator differences above the tolerance of   0.10000000000000001       will be printed 

 Due to basis set deficiency these oscillator may be problematic 

 The tolerance is defined as ABS(1-O_l/O_v) 
 O_l : dipole oscillator strength in length gauge
 O_p : dipole oscillator strength in velocity gauge
 --------------------------------------------------

  Problematic transitions have been found

      From   To       Difference (%) Osc. st. (len.) Osc. st. (vel.)
     ---------------------------------------------------------------
         1   11            25.354414  6.48413566E-05  5.17264248E-05
         1   13            14.655163  2.08332483E-02  1.81703534E-02
         1   15            14.704017  2.61283412E-02  2.27789243E-02
         1   17            12.740122  6.98468166E-03  6.19538236E-03
         2   12            25.354414  6.48413566E-05  5.17264248E-05
         2   14            14.655163  2.08332483E-02  1.81703534E-02
         2   16            14.704017  2.61283412E-02  2.27789243E-02
         2   18            12.740122  6.98468166E-03  6.19538236E-03
         3   11            25.354412  6.48413689E-05  5.17264353E-05
         3   13            14.704017  2.61283415E-02  2.27789246E-02
         3   15            14.655163  2.08332478E-02  1.81703530E-02
         3   17            12.740122  6.98468181E-03  6.19538251E-03
         4   12            25.354412  6.48413689E-05  5.17264353E-05
         4   14            14.704017  2.61283415E-02  2.27789246E-02
         4   16            14.655163  2.08332478E-02  1.81703530E-02
         4   18            12.740122  6.98468181E-03  6.19538251E-03
         5    9      --------------- below threshold  1.36513163E-03
         5   11            16.042911  9.56267071E-03  8.24063324E-03
         5   13            15.823357  4.17188400E-03  3.60193669E-03
         5   15            15.960637  1.95352697E-02  1.68464664E-02
         5   17            13.920772  9.89348542E-03  8.68453160E-03
         6   10      --------------- below threshold  1.36513163E-03
         6   12            16.042911  9.56267071E-03  8.24063324E-03
         6   14            15.823357  4.17188400E-03  3.60193669E-03
         6   16            15.960637  1.95352697E-02  1.68464664E-02
         6   18            13.920772  9.89348542E-03  8.68453160E-03
         7    9      --------------- below threshold  1.36513207E-03
         7   11            16.042911  9.56267071E-03  8.24063324E-03
         7   13            15.960637  1.95352713E-02  1.68464678E-02
         7   15            15.823358  4.17188254E-03  3.60193542E-03
         7   17            13.920772  9.89348533E-03  8.68453151E-03
         8   10      --------------- below threshold  1.36513207E-03
         8   12            16.042911  9.56267071E-03  8.24063324E-03
         8   14            15.960637  1.95352713E-02  1.68464678E-02
         8   16            15.823358  4.17188254E-03  3.60193542E-03
         8   18            13.920772  9.89348533E-03  8.68453151E-03
         9   13            13.186382  1.59686135E-02  1.41082462E-02
         9   15            13.186383  1.59686168E-02  1.41082491E-02
         9   17            15.379479  1.33449860E-02  1.15661694E-02
        10   14            13.186382  1.59686135E-02  1.41082462E-02
        10   16            13.186383  1.59686168E-02  1.41082491E-02
        10   18            15.379479  1.33449860E-02  1.15661694E-02
     ---------------------------------------------------------------

 Number of problematic transitions =                    42

--

 Electric-dipole - electric-octupole not included
++ I/O STATISTICS
 
  I. General I/O information
  - - - - - - - - - - - - - - - - - - - - - - - - - - - - - - - - - - - - - - - - - - -
  Unit  Name          Flsize      Write/Read            MBytes           Write/Read
                      (MBytes)       Calls              In/Out           Time, sec.
  - - - - - - - - - - - - - - - - - - - - - - - - - - - - - - - - - - - - - - - - - - -
   1  SCRATCH           0.00 .       9/      45 .      0.0/      0.0 .       0/       0
   2  ANNI              0.00 .       0/       0 .      0.0/      0.0 .       0/       0
   3  RUNFILE          14.85 .     322/   10031 .      2.3/     72.7 .       0/       0
   4  ONEINT            5.58 .       0/   23543 .      0.0/   3739.9 .       0/       0
   5  JOBIPH            6.48 .       0/      92 .      0.0/      0.8 .       0/       0
   6  ORDINT          506.53 .       1/    4053 .      0.0/   1013.0 .       0/       0
  - - - - - - - - - - - - - - - - - - - - - - - - - - - - - - - - - - - - - - - - - - -
   *  TOTAL           533.45 .     332/   37764 .      2.3/   4826.5 .       0/       0
  - - - - - - - - - - - - - - - - - - - - - - - - - - - - - - - - - - - - - - - - - - -
 
  II. I/O Access Patterns
  - - - - - - - - - - - - - - - - - - - -
  Unit  Name               % of random
                         Write/Read calls
  - - - - - - - - - - - - - - - - - - - -
   1  SCRATCH             88.9/ 100.0
   2  ANNI                 0.0/   0.0
   3  RUNFILE             28.6/  10.8
   4  ONEINT               0.0/  16.4
   5  JOBIPH               0.0/  76.1
   6  ORDINT             100.0/   0.0
  - - - - - - - - - - - - - - - - - - - -
--
--- Stop Module: rassi at Thu Jan  9 00:56:35 2025 /rc=_RC_ALL_IS_WELL_ ---
*** files: xmldump
    saved to directory /home4/s4752295/Internship/Initial_simulations/Point_charge_model/1_electron/active_space_9_non_rel/Cr/varying_bond_length
--- Module rassi spent 3 seconds ---

.##################.
.# Happy landing! #.
.##################.

    Timing: Wall=77.61 User=42.36 System=33.42

###############################################################################
Hbrk Cluster
Job 14530296 for user s4752295
Finished at: Thu Jan  9 00:56:35 CET 2025

Job details:
============

Job ID                         : 14530296
Name                           : Cr_no_c_light
User                           : s4752295
Partition                      : regularmedium
Nodes                          : node99
Number of Nodes                : 1
Cores                          : 1
Number of Tasks                : 1
State                          : RUNNING  
Submit                         : 2025-01-09T00:55:13
Start                          : 2025-01-09T00:55:14
End                            : --
Reserved walltime              : 15:00:00
Used walltime                  : 00:01:21
Used CPU time                  : -- 
% User (Computation)           : --
% System (I/O)                 : --
Total memory reserved          : 25000M
Maximum memory used            : --

Acknowledgements:
=================

Please see this page for information about acknowledging Hbrk in your publications:

https://wiki.hpc.rug.nl/habrok/introduction/scientific_output

################################################################################
