   This run of MOLCAS is using the pymolcas driver

                             OPE
                             OPE          NMOL  CASOP  ENMOLC A   SO
                 OPE        NMOLC        AS  OP EN  MO LC     AS  OP
                OPENM       OL CA        SO  PE NM  OL CA     SOP EN
                OP EN      MO   LC       AS  OP ENMOL  CASO   PENMOL
                OP  EN     MO   LC       AS  OP EN     MO     LC ASO
               OP   E  NMOL  C  AS       OP  EN MO     LC     AS  OP
               OP  E   NMO   LC AS        OPEN  MO     LCASOP EN   M
               O  PEN   MO  LCA  SO
            OPE   NMO   L   CAS    OP
        OPENMOL  CASOP     ENMOL   CASOPE
     OPENMOLCA   SOPENMOLCASOPEN   MOLCASOPE
    OPENMOLCAS   OP           EN   MOL    CAS
    OPENMOLCAS       OP  ENM        O     LCA
    OPENMOLCAS    OPEN  MOLCASO     P  E  NMO
    OPENMOLCAS     OP               E  N  MOL
    OPENMOLCA   SO           PENM   O  L  CAS    OPEN    MO    LCAS
    OPENMOLCA   SOP           ENM   O  L  CAS   OP  EN  MOLC  AS   O
    OPENMOLCA   SOPE           NM      O  LCA   S      OP  EN MO
    OPENMOLC                AS         O  PEN   M      OL  CA  SOPE
    OPENMO        LCASOPE  NMOL        C  ASO   P      ENMOLC     AS
    OPE     NMO      LCA  SO     P     E   NM   OL  CA SO  PE N   MO
          OPENMOLCA            SOPE   NMO        LCAS  O    P  ENMO
     OPENMOLCASOPENMOLCASOPENMOLCASOPENMOLCA
        OPENMOLCASOPENMOLCASOPENMOLCASOPE
            OPENMOLCASOPENMOLCASOPENM
               OPENMOLCASOPENMOLCA        version: o91e1abe7de707b ?
                   OPENMOLCASO
                       OPE                tag:

 OpenMolcas is free software; you can redistribute it and/or modify it
 under the terms of the GNU Lesser General Public License version 2.1.
 OpenMolcas is distributed in the hope that it will be useful, but it
 is provided "as is" and without any express or implied warranties.
 For more details see the full text of the license in the file
 LICENSE or in <http://www.gnu.org/licenses/>.

                 Copyright (C) The OpenMolcas Authors
           For the author list and the recommended citation,
                   consult the file CONTRIBUTORS.md

           *************************************************
           * pymolcas version py2.10                       *
           *   build 3068ae8b88c9345ec6cfef6fef7f1169      *
           *   (after the EMIL interpreter by V. Veryazov) *
           *************************************************

configuration info
------------------
Host name: login1 (Linux)
C Compiler ID: GNU
C flags: -std=gnu99
Fortran Compiler ID: GNU
Fortran flags: -fno-aggressive-loop-optimizations -cpp -fdefault-integer-8 -fmax-stack-var-size=1048576
Definitions: _MOLCAS_;_I8_;_LINUX_;_MKL_
Parallel: OFF (GA=OFF)


   ----------------------------------------------------------------------------------------------------------------------------------------------
  |
  |           Project: chromium_so_cf
  |    Submitted from: /home4/s4752295/Internship/Initial_simulations/Point_charge_model/1_electron/active_space_9_non_rel/Cr/varying_bond_length
  |      Scratch area: /tmp/chromium_so_cf
  |   Save outputs to: /home4/s4752295/Internship/Initial_simulations/Point_charge_model/1_electron/active_space_9_non_rel/Cr/varying_bond_length
  |            Molcas: /home4/s4752295/Internship/Molcas/recomp_try/OpenMolcas-master/build
  |
  | Scratch area is empty
  |
  |    MOLCAS_DRIVER = /home4/s4752295/Internship/Molcas/bin/pymolcas
  |    MOLCAS_NPROCS = 1
  |    MOLCAS_SOURCE = /home4/s4752295/Internship/Molcas/recomp_try/OpenMolcas-master
  | MOLCAS_STRUCTURE = 0
  |
   ----------------------------------------------------------------------------------------------------------------------------------------------

++ ---------   Input file   ---------

&SEWARD
AMFi

CLIG
$R

Basis Set
Cr.ANO-rcc.Roos.21s15p10d6f4g2h.10s10p8d6f4g2h.
Spherical d
Cr            0.0       0.0     0.0
End of Basis

Xfield

4
0.000000,  0.0000,  5.670       -1.0
4.910364,  0.0000, -2.835       -1.0
-2.455182,  4.2525, -2.835      -1.0
-2.455182, -4.2525, -2.835      -1.0

End of input

&SCF
Occupied
9
Iterations
   50  100
End of Input

&RASSCF
LumOrb
Symmetry
1
Spin
2
Nactel
1 0 0
CIRoot
9 9 1
inactive
9
ras2
9
End of Input

>>> COPY chromium_so_cf.JobIph $SLURM_SUBMIT_DIR/chromium_so_cf.doublet.JobIph

>>> COPY $SLURM_SUBMIT_DIR/chromium_so_cf.doublet.JobIph ./JOB002

&RASSI
NROFJobIph
1 All
SpinOrbit
End of Input

EOF

-- ----------------------------------

--- Start Module: seward at Thu Jan  9 00:44:50 2025 ---

()()()()()()()()()()()()()()()()()()()()()()()()()()()()()()()()()()()()()()()()()()()()()()()()()()

                                              &SEWARD

                                   only a single process is used
                       available to each process: 4.1 GB of memory, 1 thread?
                                            pid: 1477716
()()()()()()()()()()()()()()()()()()()()()()()()()()()()()()()()()()()()()()()()()()()()()()()()()()

 The speed of LIGHT in this CALCULATION =   137.03599917700001     
               SEWARD will generate:
                  Multipole Moment integrals up to order  2
                  Kinetic Energy integrals
                  Nuclear Attraction integrals (point charge)
                  One-Electron Hamiltonian integrals
                  Velocity integrals
                  Relativistic Douglas-Kroll-Hess integrals:
                    - Parametrization         : EXP
                    - DKH order of Hamiltonian: 2
                    - DKH order of Properties : 0
                         - multipole moment operators
                         - electric potential operators
                         - contact operators
                  External field from     4 point(s) added to the one-electron Hamiltonian
                  Orbital angular momentum around ( 0.0000  0.0000  0.0000 )
                  Velocity quadrupole around ( 0.0000  0.0000  0.0000 )
                  Atomic mean-field integrals
                  Two-Electron Repulsion integrals

                   Integrals are discarded if absolute value <: 0.10E-13
                   Integral cutoff threshold is set to       <: 0.10E-15

++    Symmetry information:
      ---------------------

                    Character Table for C1 

                             E  
                    a        1  x, y, xy, Rz, z, xz, Ry, yz, Rx, I
--


++    Basis set information:
      ----------------------


      Basis set label: CR.ANO-RCC.ROOS.21S15P10D6F4G2H.10S10P8D6F4G2H......

      Electronic valence basis set:
      ------------------
      Associated Effective Charge  24.000000 au
      Associated Actual Charge     24.000000 au
      Nuclear Model: Point charge

      Shell  nPrim  nBasis  Cartesian Spherical Contaminant
         s      21      10        X                  
         p      15      10        X                  
         d      10       8                 X         
         f       6       6                 X         
         g       4       4                 X         
         h       2       2                 X         
--


++    Molecular structure info:
      -------------------------

                    ************************************************ 
                    **** Cartesian Coordinates / Bohr, Angstrom **** 
                    ************************************************ 

     Center  Label                x              y              z                     x              y              z
        1      CR               0.000000       0.000000       0.000000              0.000000       0.000000       0.000000
--


++    Operator info:
      --------------


  Net charge from external field:   -4.0000000000000000     
--


            Nuclear Potential Energy              0.00000000 au

                    Nuclear-External Field Potential Energy     -16.93121697 au
                    External Field Potential Energy               0.65821002 au 


            Total Nuclear Potential Energy            -16.93121697 au


      Basis set specifications :
      Symmetry species         a  
      Basis functions          180

 Sorry, Molden does not know how to handle
 functions with angular momentum larger than g
Note: The following floating-point exceptions are signalling: IEEE_UNDERFLOW_FLAG IEEE_DENORMAL
--- Stop Module: seward at Thu Jan  9 00:45:01 2025 /rc=_RC_ALL_IS_WELL_ ---
*** files: chromium_so_cf.GssOrb xmldump
    saved to directory /home4/s4752295/Internship/Initial_simulations/Point_charge_model/1_electron/active_space_9_non_rel/Cr/varying_bond_length
--- Module seward spent 10 seconds ---

*** symbolic link created: INPORB -> chromium_so_cf.GssOrb
--- Start Module: scf at Thu Jan  9 00:45:01 2025 ---

()()()()()()()()()()()()()()()()()()()()()()()()()()()()()()()()()()()()()()()()()()()()()()()()()()

                                                &SCF

                                   only a single process is used
                       available to each process: 4.1 GB of memory, 1 thread?
                                            pid: 1477720
()()()()()()()()()()()()()()()()()()()()()()()()()()()()()()()()()()()()()()()()()()()()()()()()()()

++    Input section:
      --------------

      Header of the integral files:
      
       Integrals generated by seward 4.2.0  , Thu Jan  9 00:44:51 2025


      Cartesian coordinates in Angstrom:
      -----------------------------------------------------
      No.  Label        X            Y            Z        
      -----------------------------------------------------
       1   CR         0.00000000   0.00000000   0.00000000
      -----------------------------------------------------
      Nuclear repulsion energy =  -16.93121697
--

++    Orbital specifications:
      -----------------------

      Symmetry species               1
                                     a
      Frozen orbitals                0
      Occupied orbitals              9
      Secondary orbitals           171
      Deleted orbitals               0
      Total number of orbitals     180
      Number of basis functions    180
--

      Molecular charge                           6.000

++    Optimization specifications:
      ----------------------------

      SCF Algorithm: Conventional
      Minimized density differences are used
      Number of density matrices in core                5
      Maximum number of NDDO SCF iterations            50
      Maximum number of HF SCF iterations             100
      Threshold for SCF energy change            0.10E-08
      Threshold for density matrix               0.10E-03
      Threshold for Fock matrix                  0.15E-03
      Threshold for linear dependence            0.10E-08
      Threshold at which DIIS is turned on       0.15E+00
      Threshold at which QNR/C2DIIS is turned on 0.75E-01
      Threshold for Norm(delta) (QNR/C2DIIS)     0.20E-04
      DIIS extrapolation of the SCF procedure
      All orbitals punched on: SCFORB
--

      Detected guessorb starting orbitals                                             


++ Convergence information
                                   SCF        iterations: Energy and convergence statistics

Iter     Tot. SCF        One-elec.       Two-elec.     Energy      Max Dij or  Max Fij      DNorm      TNorm      AccCon     Time
         Energy          Energy          Energy        Change      Delta Norm                                                in Sec.

 The total and one-electron energies are shifted by a value of      1000. a.u.

   1   -43.840107703  -332.285553812   305.376663078   0.00E+00    0.25E+00*   0.39E+00*    0.60E+01   0.25E+03   None         1.
   2   -44.428194541  -344.835146432   317.338168861  -0.59E+00*   0.16E-01*   0.78E-01*    0.10E+01   0.25E+03   EDIIS        1.
   3   -44.436652438  -343.377353070   315.871917601  -0.85E-02*   0.29E-02*   0.12E-01*    0.73E-01   0.25E+03   EDIIS        1.
   4   -44.436837142  -343.618889703   316.113269530  -0.18E-03*   0.28E-03*   0.17E-02*    0.38E-02   0.25E+03   c2DIIS       1.
   5   -44.436841769  -343.588099231   316.082474432  -0.46E-05*   0.28E-04*   0.74E-04     0.15E-03   0.25E+03   QNRc2DIIS    1.
   6   -44.436841778  -343.587776718   316.082151909  -0.99E-08*   0.63E-05    0.85E-05     0.36E-04   0.25E+03   QNRc2DIIS    1.
   7   -44.436841779  -343.587878326   316.082253517  -0.26E-09    0.18E-05    0.18E-05     0.69E-04   0.25E+03   QNRc2DIIS    1.

       Convergence after  7 Macro Iterations
--

 *****************************************************************************************************************************
 *                                                                                                                           *
 *                                             SCF/KS-DFT Program, Final results                                             *
 *                                                                                                                           *
 *                                                                                                                           *
 *                                                                                                                           *
 *                                                       Final Results                                                       *
 *                                                                                                                           *
 *****************************************************************************************************************************

::    Total SCF energy                              -1044.4368417787
      One-electron energy                           -1343.5878783264
      Two-electron energy                             316.0822535172
      Nuclear repulsion energy                        -16.9312169695
      Kinetic energy (interpolated)                  1078.5361565598
      Virial theorem                                    0.9683837073
      Total spin, S(S+1)                                0.0000000000
      Total spin, S                                     0.0000000000
      Max non-diagonal density matrix element           0.0000018077
      Max non-diagonal Fock matrix element              0.0000006116


      All orbitals with orbital energies smaller than  E(LUMO)+0.5 are printed

++    Molecular orbitals:
      -------------------

      Title: SCF orbitals

      Molecular orbitals for symmetry species 1: a  

          Orbital            1         2         3         4         5         6         7         8         9        10    
          Energy         -225.5898  -30.2728  -25.8964  -25.8964  -25.8963   -6.5775   -5.1947   -5.1947   -5.1930   -2.5452
          Occ. No.          2.0000    2.0000    2.0000    2.0000    2.0000    2.0000    2.0000    2.0000    2.0000    0.0000

        1 CR     1s         1.0000   -0.0001    0.0000   -0.0000   -0.0000    0.0001   -0.0000   -0.0000    0.0000   -0.0000
        2 CR     2s         0.0001    1.0000    0.0000   -0.0000   -0.0001    0.0021    0.0000   -0.0000   -0.0000   -0.0000
        3 CR     3s        -0.0001   -0.0021   -0.0000    0.0000    0.0000    0.9954    0.0000    0.0000   -0.0034   -0.0000
        4 CR     4s         0.0000    0.0001    0.0000   -0.0000   -0.0000   -0.0506   -0.0000   -0.0000    0.0007    0.0000
        5 CR     5s        -0.0000   -0.0004   -0.0000    0.0000    0.0000    0.0741    0.0000   -0.0000   -0.0011   -0.0000
        6 CR     6s         0.0000    0.0003    0.0000   -0.0000   -0.0000   -0.0301   -0.0000    0.0000    0.0004    0.0000
        7 CR     7s        -0.0000   -0.0001    0.0000    0.0000    0.0000   -0.0092   -0.0000    0.0000    0.0002    0.0000
        8 CR     8s         0.0000   -0.0000    0.0000    0.0000   -0.0000    0.0066    0.0000    0.0000   -0.0001   -0.0000
        9 CR     9s        -0.0001    0.0002    0.0000   -0.0000   -0.0000    0.0022    0.0000    0.0000   -0.0000   -0.0000
       10 CR    10s         0.0001   -0.0003   -0.0000   -0.0000    0.0000    0.0004    0.0000    0.0000   -0.0000   -0.0000
       11 CR     2px       -0.0000   -0.0000    0.9955   -0.0951   -0.0000    0.0000    0.0032    0.0000   -0.0000   -0.0000
       12 CR     3px        0.0000   -0.0000   -0.0031    0.0003    0.0000   -0.0000    0.9908    0.0017   -0.0000   -0.0000
       13 CR     4px       -0.0000    0.0000    0.0005   -0.0000   -0.0000    0.0000   -0.0914   -0.0002    0.0000   -0.0005
       14 CR     5px        0.0000   -0.0000   -0.0008    0.0001    0.0000    0.0000    0.0980    0.0002   -0.0000    0.0002
       15 CR     6px       -0.0000    0.0000    0.0002   -0.0000   -0.0000   -0.0000   -0.0017   -0.0000    0.0000    0.0001
       16 CR     7px        0.0000   -0.0000    0.0000   -0.0000   -0.0000    0.0000   -0.0158   -0.0000    0.0000   -0.0001
       17 CR     8px       -0.0000    0.0000   -0.0002    0.0000    0.0000    0.0000    0.0024    0.0000   -0.0000   -0.0001
       18 CR     9px        0.0000   -0.0000    0.0003   -0.0000   -0.0000   -0.0000    0.0039    0.0000   -0.0000    0.0000
       19 CR    10px       -0.0000    0.0000   -0.0003    0.0000    0.0000   -0.0000    0.0001    0.0000   -0.0000    0.0000
       20 CR    11px        0.0000   -0.0000    0.0002   -0.0000   -0.0000   -0.0000   -0.0004   -0.0000    0.0000    0.0000
       21 CR     2py       -0.0000   -0.0000    0.0951    0.9955   -0.0000   -0.0000   -0.0000    0.0032   -0.0000    0.0000
       22 CR     3py        0.0000    0.0000   -0.0003   -0.0031    0.0000   -0.0000   -0.0017    0.9908   -0.0000    0.0000
       23 CR     4py       -0.0000   -0.0000    0.0000    0.0005   -0.0000    0.0000    0.0002   -0.0914    0.0000    0.0000
       24 CR     5py        0.0000    0.0000   -0.0001   -0.0008    0.0000   -0.0000   -0.0002    0.0980   -0.0000   -0.0000
       25 CR     6py       -0.0000   -0.0000    0.0000    0.0002   -0.0000    0.0000    0.0000   -0.0017    0.0000   -0.0000
       26 CR     7py        0.0000    0.0000    0.0000    0.0000   -0.0000   -0.0000    0.0000   -0.0158    0.0000    0.0000
       27 CR     8py       -0.0000   -0.0000   -0.0000   -0.0002    0.0000    0.0000   -0.0000    0.0024   -0.0000    0.0000
       28 CR     9py        0.0000    0.0000    0.0000    0.0003   -0.0000   -0.0000   -0.0000    0.0039   -0.0000   -0.0000
       29 CR    10py       -0.0000   -0.0000   -0.0000   -0.0003    0.0000    0.0000   -0.0000    0.0001    0.0000   -0.0000
       30 CR    11py        0.0000    0.0000    0.0000    0.0002   -0.0000   -0.0000    0.0000   -0.0004    0.0000   -0.0000
       31 CR     2pz        0.0000    0.0001    0.0000   -0.0000    1.0000   -0.0000    0.0000    0.0000    0.0032    0.0000
       32 CR     3pz       -0.0000    0.0000   -0.0000    0.0000   -0.0031    0.0035    0.0000    0.0000    0.9908    0.0000
       33 CR     4pz        0.0000   -0.0000    0.0000   -0.0000    0.0005   -0.0001   -0.0000   -0.0000   -0.0916   -0.0000
       34 CR     5pz       -0.0000    0.0000   -0.0000    0.0000   -0.0008   -0.0001    0.0000    0.0000    0.0983    0.0000
       35 CR     6pz        0.0000   -0.0000    0.0000   -0.0000    0.0002    0.0001   -0.0000   -0.0000   -0.0017    0.0000
       36 CR     7pz       -0.0000    0.0000    0.0000   -0.0000    0.0000   -0.0001   -0.0000   -0.0000   -0.0158   -0.0000
       37 CR     8pz        0.0000   -0.0000   -0.0000    0.0000   -0.0002   -0.0000    0.0000    0.0000    0.0024   -0.0000
       38 CR     9pz       -0.0000    0.0000    0.0000   -0.0000    0.0003    0.0000    0.0000    0.0000    0.0039    0.0000
       39 CR    10pz        0.0000   -0.0000   -0.0000    0.0000   -0.0003    0.0000    0.0000    0.0000    0.0001    0.0000
       40 CR    11pz       -0.0000    0.0000    0.0000   -0.0000    0.0002    0.0000   -0.0000   -0.0000   -0.0004    0.0000
       41 CR     3d2-       0.0000    0.0000    0.0000    0.0000   -0.0000   -0.0000   -0.0000    0.0003   -0.0000    0.0005
       42 CR     4d2-      -0.0000   -0.0000   -0.0000   -0.0000   -0.0000    0.0000    0.0000   -0.0000    0.0000   -0.0002
       43 CR     5d2-       0.0000    0.0000   -0.0000   -0.0000    0.0000   -0.0000    0.0000   -0.0001    0.0000   -0.0000
       44 CR     6d2-      -0.0000   -0.0000    0.0000    0.0000   -0.0000    0.0000   -0.0000    0.0000    0.0000    0.0000
       45 CR     7d2-       0.0000    0.0000   -0.0000   -0.0000    0.0000   -0.0000   -0.0000    0.0000   -0.0000    0.0000
       46 CR     8d2-      -0.0000   -0.0000    0.0000    0.0000   -0.0000    0.0000   -0.0000    0.0000   -0.0000   -0.0000
       47 CR     9d2-       0.0000    0.0000   -0.0000   -0.0000    0.0000   -0.0000    0.0000   -0.0000    0.0000   -0.0000
       48 CR    10d2-      -0.0000    0.0000    0.0000    0.0000   -0.0000   -0.0000    0.0000   -0.0000    0.0000   -0.0000
       49 CR     3d1-      -0.0000    0.0000    0.0000    0.0000   -0.0000   -0.0000   -0.0000    0.0023   -0.0000   -0.0001
       50 CR     4d1-       0.0000   -0.0000   -0.0000   -0.0000    0.0000    0.0000    0.0000   -0.0005    0.0000    0.0000
       51 CR     5d1-      -0.0000    0.0000    0.0000    0.0000   -0.0000   -0.0000    0.0000   -0.0003    0.0000    0.0000
       52 CR     6d1-      -0.0000   -0.0000   -0.0000   -0.0000    0.0000    0.0000   -0.0000    0.0001   -0.0000   -0.0000
       53 CR     7d1-       0.0000    0.0000    0.0000    0.0000   -0.0000    0.0000   -0.0000    0.0001   -0.0000   -0.0000
       54 CR     8d1-      -0.0000   -0.0000   -0.0000   -0.0000    0.0000   -0.0000    0.0000   -0.0000   -0.0000    0.0000
       55 CR     9d1-       0.0000    0.0000    0.0000    0.0000   -0.0000   -0.0000    0.0000   -0.0000    0.0000    0.0000
       56 CR    10d1-       0.0000   -0.0000   -0.0000   -0.0000    0.0000    0.0000    0.0000   -0.0000    0.0000    0.0000
       57 CR     3d0       -0.0000   -0.0000    0.0000   -0.0000    0.0000   -0.0004    0.0000    0.0000    0.0018   -0.0000
       58 CR     4d0        0.0000    0.0000   -0.0000    0.0000   -0.0000    0.0001   -0.0000   -0.0000   -0.0005    0.0000
       59 CR     5d0       -0.0000   -0.0000    0.0000   -0.0000    0.0000    0.0001   -0.0000   -0.0000   -0.0002    0.0000
       60 CR     6d0        0.0000    0.0000   -0.0000    0.0000   -0.0000   -0.0000    0.0000    0.0000    0.0002   -0.0000
       61 CR     7d0       -0.0000   -0.0000    0.0000   -0.0000    0.0000   -0.0000    0.0000    0.0000    0.0001   -0.0000
       62 CR     8d0        0.0000    0.0000   -0.0000    0.0000   -0.0000    0.0000   -0.0000    0.0000   -0.0000    0.0000
       63 CR     9d0       -0.0000   -0.0000    0.0000   -0.0000    0.0000    0.0000   -0.0000    0.0000   -0.0000    0.0000
       64 CR    10d0        0.0000   -0.0000   -0.0000    0.0000   -0.0000    0.0000   -0.0000    0.0000   -0.0000    0.0000
       65 CR     3d1+       0.0000    0.0000    0.0000   -0.0000   -0.0000    0.0000    0.0023    0.0000   -0.0000    0.1035
       66 CR     4d1+      -0.0000   -0.0000   -0.0000    0.0000    0.0000   -0.0000   -0.0005   -0.0000    0.0000   -0.0357
       67 CR     5d1+       0.0000    0.0000    0.0000   -0.0000   -0.0000   -0.0000   -0.0003   -0.0000    0.0000   -0.0001
       68 CR     6d1+      -0.0000   -0.0000   -0.0000    0.0000    0.0000    0.0000    0.0001    0.0000   -0.0000    0.0022
       69 CR     7d1+       0.0000    0.0000    0.0000   -0.0000   -0.0000    0.0000    0.0001    0.0000   -0.0000    0.0018
       70 CR     8d1+      -0.0000   -0.0000   -0.0000    0.0000    0.0000   -0.0000   -0.0000   -0.0000    0.0000   -0.0006
       71 CR     9d1+       0.0000    0.0000    0.0000   -0.0000   -0.0000   -0.0000   -0.0000   -0.0000    0.0000   -0.0005
       72 CR    10d1+      -0.0000    0.0000   -0.0000    0.0000    0.0000   -0.0000   -0.0000   -0.0000    0.0000   -0.0000
       73 CR     3d2+       0.0000    0.0000   -0.0000    0.0000    0.0000    0.0000   -0.0003   -0.0000    0.0000    0.9390
       74 CR     4d2+      -0.0000   -0.0000    0.0000   -0.0000   -0.0000   -0.0000    0.0000    0.0000   -0.0000   -0.3250
       75 CR     5d2+       0.0000    0.0000    0.0000   -0.0000   -0.0000   -0.0000    0.0001    0.0000   -0.0000   -0.0008
       76 CR     6d2+      -0.0000   -0.0000   -0.0000    0.0000    0.0000    0.0000   -0.0000   -0.0000    0.0000    0.0199
       77 CR     7d2+       0.0000    0.0000    0.0000   -0.0000   -0.0000    0.0000   -0.0000   -0.0000    0.0000    0.0163
       78 CR     8d2+      -0.0000   -0.0000   -0.0000    0.0000    0.0000    0.0000   -0.0000   -0.0000    0.0000   -0.0055
       79 CR     9d2+       0.0000    0.0000    0.0000   -0.0000   -0.0000   -0.0000    0.0000    0.0000   -0.0000   -0.0049
       80 CR    10d2+      -0.0000    0.0000   -0.0000    0.0000    0.0000   -0.0000    0.0000    0.0000   -0.0000   -0.0005
       81 CR     4f3-      -0.0000   -0.0000    0.0000    0.0000    0.0000    0.0000   -0.0000    0.0000   -0.0000   -0.0000
       82 CR     5f3-       0.0000    0.0000   -0.0000   -0.0000    0.0000   -0.0000   -0.0000    0.0000   -0.0000   -0.0000
       83 CR     6f3-      -0.0000   -0.0000    0.0000    0.0000   -0.0000    0.0000   -0.0000   -0.0000   -0.0000    0.0000
       84 CR     7f3-       0.0000    0.0000   -0.0000   -0.0000    0.0000   -0.0000    0.0000   -0.0000    0.0000    0.0000
       85 CR     8f3-      -0.0000   -0.0000    0.0000    0.0000   -0.0000    0.0000    0.0000   -0.0000   -0.0000    0.0000
       86 CR     9f3-       0.0000    0.0000   -0.0000   -0.0000    0.0000   -0.0000    0.0000    0.0000   -0.0000   -0.0000
       87 CR     4f2-      -0.0000   -0.0000   -0.0000   -0.0000    0.0000   -0.0000    0.0000   -0.0000    0.0000    0.0000
       88 CR     5f2-       0.0000    0.0000    0.0000    0.0000   -0.0000    0.0000    0.0000   -0.0000    0.0000    0.0000
       89 CR     6f2-      -0.0000   -0.0000   -0.0000   -0.0000    0.0000   -0.0000   -0.0000    0.0000   -0.0000   -0.0000
       90 CR     7f2-       0.0000   -0.0000   -0.0000   -0.0000   -0.0000   -0.0000   -0.0000    0.0000   -0.0000   -0.0000
       91 CR     8f2-      -0.0000    0.0000    0.0000    0.0000   -0.0000    0.0000   -0.0000    0.0000   -0.0000   -0.0000
       92 CR     9f2-       0.0000   -0.0000    0.0000    0.0000   -0.0000   -0.0000    0.0000   -0.0000   -0.0000    0.0000
       93 CR     4f1-      -0.0000   -0.0000   -0.0000   -0.0000    0.0000    0.0000    0.0000   -0.0002    0.0000   -0.0000
       94 CR     5f1-       0.0000    0.0000    0.0000    0.0000   -0.0000   -0.0000    0.0000   -0.0000    0.0000   -0.0000
       95 CR     6f1-      -0.0000   -0.0000   -0.0000   -0.0000    0.0000    0.0000   -0.0000    0.0001   -0.0000    0.0000
       96 CR     7f1-       0.0000    0.0000    0.0000    0.0000   -0.0000   -0.0000   -0.0000    0.0000   -0.0000    0.0000
       97 CR     8f1-      -0.0000   -0.0000   -0.0000   -0.0000    0.0000    0.0000    0.0000   -0.0000    0.0000    0.0000
       98 CR     9f1-      -0.0000    0.0000    0.0000    0.0000   -0.0000   -0.0000    0.0000   -0.0000    0.0000   -0.0000
       99 CR     4f0        0.0000   -0.0000   -0.0000    0.0000   -0.0000   -0.0002   -0.0000   -0.0000   -0.0003    0.0000
      100 CR     5f0       -0.0000    0.0000    0.0000   -0.0000    0.0000   -0.0000   -0.0000   -0.0000   -0.0001    0.0000
      101 CR     6f0        0.0000   -0.0000   -0.0000    0.0000   -0.0000    0.0000    0.0000    0.0000    0.0001   -0.0000
      102 CR     7f0       -0.0000   -0.0000    0.0000   -0.0000    0.0000    0.0000    0.0000    0.0000    0.0000   -0.0000
      103 CR     8f0        0.0000    0.0000   -0.0000    0.0000   -0.0000   -0.0000   -0.0000   -0.0000   -0.0000    0.0000
      104 CR     9f0       -0.0000   -0.0000    0.0000   -0.0000    0.0000   -0.0000   -0.0000   -0.0000   -0.0000    0.0000
      105 CR     4f1+       0.0000   -0.0000   -0.0000    0.0000    0.0000   -0.0000   -0.0002   -0.0000    0.0000    0.0004
      106 CR     5f1+      -0.0000    0.0000    0.0000   -0.0000   -0.0000   -0.0000   -0.0000   -0.0000    0.0000    0.0002
      107 CR     6f1+       0.0000   -0.0000   -0.0000    0.0000    0.0000    0.0000    0.0001    0.0000   -0.0000   -0.0000
      108 CR     7f1+      -0.0000    0.0000    0.0000   -0.0000   -0.0000    0.0000    0.0000    0.0000   -0.0000   -0.0001
      109 CR     8f1+       0.0000    0.0000   -0.0000    0.0000    0.0000   -0.0000   -0.0000   -0.0000    0.0000   -0.0000
      110 CR     9f1+      -0.0000   -0.0000    0.0000   -0.0000   -0.0000   -0.0000   -0.0000   -0.0000    0.0000    0.0000
      111 CR     4f2+      -0.0000    0.0000    0.0000   -0.0000   -0.0000    0.0000    0.0000    0.0000   -0.0000    0.0022
      112 CR     5f2+       0.0000   -0.0000   -0.0000    0.0000   -0.0000    0.0000    0.0000    0.0000   -0.0000    0.0012
      113 CR     6f2+      -0.0000    0.0000    0.0000   -0.0000    0.0000   -0.0000   -0.0000   -0.0000    0.0000   -0.0002
      114 CR     7f2+       0.0000   -0.0000    0.0000   -0.0000   -0.0000   -0.0000   -0.0000   -0.0000    0.0000   -0.0003
      115 CR     8f2+      -0.0000   -0.0000   -0.0000    0.0000    0.0000    0.0000   -0.0000   -0.0000    0.0000   -0.0001
      116 CR     9f2+       0.0000    0.0000   -0.0000    0.0000   -0.0000    0.0000    0.0000    0.0000   -0.0000    0.0000
      117 CR     4f3+       0.0000   -0.0000    0.0000    0.0000    0.0000   -0.0001    0.0000    0.0000    0.0000   -0.0000
      118 CR     5f3+      -0.0000    0.0000   -0.0000    0.0000   -0.0000   -0.0000    0.0000    0.0000    0.0000   -0.0000
      119 CR     6f3+       0.0000   -0.0000    0.0000   -0.0000    0.0000    0.0000   -0.0000   -0.0000   -0.0000    0.0000
      120 CR     7f3+      -0.0000   -0.0000   -0.0000    0.0000    0.0000    0.0000   -0.0000   -0.0000   -0.0000    0.0000
      121 CR     8f3+       0.0000    0.0000    0.0000   -0.0000   -0.0000   -0.0000   -0.0000    0.0000   -0.0000    0.0000
      122 CR     9f3+      -0.0000   -0.0000   -0.0000    0.0000   -0.0000   -0.0000   -0.0000   -0.0000    0.0000   -0.0000
      123 CR     5g4-      -0.0000   -0.0000   -0.0000   -0.0000    0.0000    0.0000    0.0000   -0.0001    0.0000   -0.0000
      124 CR     6g4-       0.0000    0.0000    0.0000    0.0000   -0.0000    0.0000    0.0000   -0.0001    0.0000    0.0000
      125 CR     7g4-      -0.0000   -0.0000   -0.0000   -0.0000    0.0000   -0.0000    0.0000   -0.0000   -0.0000    0.0000
      126 CR     8g4-       0.0000    0.0000   -0.0000   -0.0000   -0.0000    0.0000   -0.0000    0.0000   -0.0000    0.0000
      127 CR     5g3-       0.0000    0.0000    0.0000    0.0000    0.0000    0.0000   -0.0000    0.0000   -0.0000    0.0000
      128 CR     6g3-      -0.0000   -0.0000   -0.0000   -0.0000    0.0000   -0.0000   -0.0000    0.0000    0.0000    0.0000
      129 CR     7g3-       0.0000    0.0000   -0.0000    0.0000    0.0000    0.0000   -0.0000   -0.0000   -0.0000    0.0000
      130 CR     8g3-      -0.0000   -0.0000    0.0000   -0.0000    0.0000   -0.0000    0.0000   -0.0000    0.0000   -0.0000
      131 CR     5g2-      -0.0000   -0.0000   -0.0000   -0.0000    0.0000   -0.0000    0.0000   -0.0000    0.0000   -0.0000
      132 CR     6g2-       0.0000    0.0000    0.0000    0.0000   -0.0000   -0.0000    0.0000   -0.0000    0.0000   -0.0000
      133 CR     7g2-      -0.0000   -0.0000   -0.0000   -0.0000    0.0000    0.0000   -0.0000    0.0000    0.0000   -0.0000
      134 CR     8g2-       0.0000    0.0000   -0.0000   -0.0000   -0.0000   -0.0000   -0.0000    0.0000   -0.0000    0.0000
      135 CR     5g1-       0.0000   -0.0000   -0.0000   -0.0000    0.0000    0.0000    0.0000   -0.0001    0.0000    0.0000
      136 CR     6g1-       0.0000    0.0000    0.0000    0.0000   -0.0000   -0.0000    0.0000   -0.0001    0.0000    0.0000
      137 CR     7g1-       0.0000   -0.0000   -0.0000   -0.0000   -0.0000    0.0000    0.0000   -0.0000    0.0000    0.0000
      138 CR     8g1-       0.0000    0.0000   -0.0000   -0.0000    0.0000   -0.0000   -0.0000    0.0000   -0.0000    0.0000
      139 CR     5g0        0.0000   -0.0000   -0.0000    0.0000   -0.0000   -0.0000   -0.0000   -0.0000   -0.0002   -0.0000
      140 CR     6g0        0.0000    0.0000    0.0000   -0.0000    0.0000   -0.0000   -0.0000   -0.0000   -0.0001    0.0000
      141 CR     7g0       -0.0000   -0.0000   -0.0000   -0.0000   -0.0000   -0.0000   -0.0000   -0.0000   -0.0000    0.0000
      142 CR     8g0       -0.0000    0.0000    0.0000    0.0000   -0.0000    0.0000    0.0000    0.0000    0.0000    0.0000
      143 CR     5g1+       0.0000   -0.0000   -0.0000    0.0000    0.0000   -0.0000   -0.0001   -0.0000    0.0000   -0.0001
      144 CR     6g1+       0.0000    0.0000    0.0000   -0.0000   -0.0000   -0.0000   -0.0001   -0.0000    0.0000   -0.0001
      145 CR     7g1+      -0.0000   -0.0000   -0.0000    0.0000    0.0000   -0.0000   -0.0000   -0.0000    0.0000   -0.0001
      146 CR     8g1+      -0.0000    0.0000   -0.0000    0.0000    0.0000    0.0000    0.0000    0.0000   -0.0000   -0.0000
      147 CR     5g2+       0.0000   -0.0000    0.0000   -0.0000    0.0000   -0.0000    0.0000    0.0000    0.0000   -0.0002
      148 CR     6g2+       0.0000    0.0000   -0.0000    0.0000   -0.0000   -0.0000    0.0000    0.0000    0.0000   -0.0002
      149 CR     7g2+      -0.0000   -0.0000    0.0000   -0.0000   -0.0000   -0.0000   -0.0000   -0.0000    0.0000   -0.0001
      150 CR     8g2+       0.0000    0.0000    0.0000   -0.0000    0.0000    0.0000   -0.0000   -0.0000    0.0000    0.0000
      151 CR     5g3+      -0.0000    0.0000   -0.0000    0.0000   -0.0000    0.0000   -0.0000   -0.0000   -0.0001    0.0000
      152 CR     6g3+      -0.0000   -0.0000    0.0000   -0.0000    0.0000    0.0000   -0.0000   -0.0000   -0.0001    0.0000
      153 CR     7g3+       0.0000    0.0000   -0.0000    0.0000   -0.0000    0.0000   -0.0000   -0.0000   -0.0000    0.0000
      154 CR     8g3+       0.0000   -0.0000   -0.0000    0.0000   -0.0000   -0.0000    0.0000    0.0000    0.0000   -0.0000
      155 CR     5g4+       0.0000   -0.0000   -0.0000    0.0000    0.0000   -0.0000   -0.0001   -0.0000    0.0000    0.0000
      156 CR     6g4+       0.0000    0.0000    0.0000   -0.0000   -0.0000   -0.0000   -0.0001   -0.0000    0.0000   -0.0000
      157 CR     7g4+      -0.0000   -0.0000   -0.0000    0.0000    0.0000   -0.0000   -0.0000   -0.0000    0.0000   -0.0000
      158 CR     8g4+      -0.0000    0.0000   -0.0000    0.0000    0.0000    0.0000    0.0000    0.0000   -0.0000   -0.0000
      159 CR     6h5-      -0.0000   -0.0000    0.0000    0.0000    0.0000    0.0000   -0.0000    0.0000   -0.0000   -0.0000
      160 CR     7h5-       0.0000    0.0000   -0.0000   -0.0000   -0.0000   -0.0000   -0.0000    0.0000   -0.0000   -0.0000
      161 CR     6h4-       0.0000   -0.0000    0.0000    0.0000   -0.0000    0.0000   -0.0000    0.0000   -0.0000    0.0000
      162 CR     7h4-      -0.0000    0.0000   -0.0000   -0.0000    0.0000    0.0000   -0.0000    0.0000   -0.0000    0.0000
      163 CR     6h3-      -0.0000   -0.0000   -0.0000   -0.0000    0.0000    0.0000    0.0000   -0.0000    0.0000   -0.0000
      164 CR     7h3-       0.0000    0.0000    0.0000    0.0000   -0.0000   -0.0000   -0.0000   -0.0000    0.0000   -0.0000
      165 CR     6h2-       0.0000    0.0000    0.0000    0.0000   -0.0000    0.0000   -0.0000    0.0000   -0.0000   -0.0000
      166 CR     7h2-      -0.0000    0.0000   -0.0000   -0.0000    0.0000   -0.0000   -0.0000    0.0000   -0.0000   -0.0000
      167 CR     6h1-      -0.0000   -0.0000   -0.0000   -0.0000   -0.0000    0.0000    0.0000   -0.0000    0.0000    0.0000
      168 CR     7h1-       0.0000    0.0000    0.0000    0.0000   -0.0000   -0.0000    0.0000   -0.0000    0.0000    0.0000
      169 CR     6h0        0.0000   -0.0000   -0.0000    0.0000   -0.0000   -0.0000   -0.0000   -0.0000   -0.0000    0.0000
      170 CR     7h0        0.0000   -0.0000    0.0000    0.0000    0.0000   -0.0000   -0.0000   -0.0000   -0.0000    0.0000
      171 CR     6h1+      -0.0000    0.0000   -0.0000    0.0000   -0.0000    0.0000   -0.0000   -0.0000   -0.0000   -0.0000
      172 CR     7h1+      -0.0000    0.0000    0.0000   -0.0000    0.0000    0.0000   -0.0000   -0.0000   -0.0000   -0.0000
      173 CR     6h2+      -0.0000    0.0000   -0.0000    0.0000    0.0000    0.0000   -0.0000   -0.0000    0.0000   -0.0001
      174 CR     7h2+      -0.0000    0.0000    0.0000   -0.0000   -0.0000    0.0000   -0.0000   -0.0000    0.0000   -0.0002
      175 CR     6h3+       0.0000   -0.0000    0.0000   -0.0000    0.0000   -0.0000    0.0000    0.0000    0.0000   -0.0000
      176 CR     7h3+       0.0000   -0.0000   -0.0000    0.0000   -0.0000   -0.0000    0.0000    0.0000    0.0000   -0.0000
      177 CR     6h4+      -0.0000    0.0000    0.0000   -0.0000   -0.0000    0.0000    0.0000    0.0000   -0.0000   -0.0000
      178 CR     7h4+      -0.0000    0.0000   -0.0000    0.0000    0.0000    0.0000    0.0000    0.0000   -0.0000   -0.0000
      179 CR     6h5+      -0.0000    0.0000   -0.0000    0.0000   -0.0000    0.0000   -0.0000   -0.0000    0.0000   -0.0001
      180 CR     7h5+       0.0000    0.0000    0.0000   -0.0000    0.0000    0.0000   -0.0000   -0.0000    0.0000   -0.0002

          Orbital           11        12        13        14    
          Energy           -2.5452   -2.5437   -2.5437   -2.5432
          Occ. No.          0.0000    0.0000    0.0000    0.0000

        1 CR     1s         0.0000    0.0000   -0.0000    0.0000
        2 CR     2s         0.0000    0.0000   -0.0000    0.0000
        3 CR     3s         0.0000   -0.0000   -0.0000    0.0002
        4 CR     4s        -0.0000    0.0000    0.0000   -0.0014
        5 CR     5s         0.0000   -0.0000   -0.0000    0.0012
        6 CR     6s         0.0000   -0.0000    0.0000   -0.0001
        7 CR     7s        -0.0000    0.0000    0.0000   -0.0003
        8 CR     8s        -0.0000   -0.0000   -0.0000    0.0000
        9 CR     9s        -0.0000   -0.0000   -0.0000    0.0001
       10 CR    10s         0.0000    0.0000   -0.0000    0.0000
       11 CR     2px        0.0000   -0.0000   -0.0000    0.0000
       12 CR     3px        0.0000   -0.0000   -0.0019    0.0000
       13 CR     4px        0.0000    0.0000    0.0031   -0.0000
       14 CR     5px       -0.0000   -0.0000   -0.0022    0.0000
       15 CR     6px       -0.0000   -0.0000   -0.0005    0.0000
       16 CR     7px        0.0000    0.0000    0.0007   -0.0000
       17 CR     8px        0.0000    0.0000    0.0002   -0.0000
       18 CR     9px       -0.0000   -0.0000   -0.0002    0.0000
       19 CR    10px       -0.0000   -0.0000   -0.0001    0.0000
       20 CR    11px       -0.0000   -0.0000   -0.0000    0.0000
       21 CR     2py        0.0000   -0.0000    0.0000    0.0000
       22 CR     3py        0.0000   -0.0019    0.0000   -0.0000
       23 CR     4py        0.0005    0.0031   -0.0000    0.0000
       24 CR     5py       -0.0002   -0.0022    0.0000    0.0000
       25 CR     6py       -0.0001   -0.0005    0.0000    0.0000
       26 CR     7py        0.0001    0.0007   -0.0000   -0.0000
       27 CR     8py        0.0001    0.0002   -0.0000   -0.0000
       28 CR     9py       -0.0000   -0.0002    0.0000    0.0000
       29 CR    10py       -0.0000   -0.0001    0.0000    0.0000
       30 CR    11py       -0.0000   -0.0000    0.0000    0.0000
       31 CR     2pz       -0.0000   -0.0000    0.0000   -0.0000
       32 CR     3pz        0.0000    0.0000    0.0000   -0.0016
       33 CR     4pz       -0.0000   -0.0000   -0.0000    0.0013
       34 CR     5pz       -0.0000    0.0000    0.0000   -0.0014
       35 CR     6pz       -0.0000    0.0000    0.0000   -0.0001
       36 CR     7pz       -0.0000   -0.0000   -0.0000    0.0004
       37 CR     8pz        0.0000   -0.0000   -0.0000   -0.0000
       38 CR     9pz        0.0000   -0.0000    0.0000   -0.0001
       39 CR    10pz        0.0000   -0.0000    0.0000   -0.0000
       40 CR    11pz        0.0000   -0.0000    0.0000   -0.0000
       41 CR     3d2-       0.9390    0.1034   -0.0001    0.0000
       42 CR     4d2-      -0.3250   -0.0360    0.0000   -0.0000
       43 CR     5d2-      -0.0008   -0.0001    0.0000    0.0000
       44 CR     6d2-       0.0199    0.0022   -0.0000    0.0000
       45 CR     7d2-       0.0163    0.0018   -0.0000    0.0000
       46 CR     8d2-      -0.0055   -0.0006    0.0000   -0.0000
       47 CR     9d2-      -0.0049   -0.0005    0.0000   -0.0000
       48 CR    10d2-      -0.0005   -0.0001    0.0000   -0.0000
       49 CR     3d1-      -0.1035    0.9387   -0.0005    0.0000
       50 CR     4d1-       0.0357   -0.3258    0.0002   -0.0000
       51 CR     5d1-       0.0001   -0.0006    0.0000   -0.0000
       52 CR     6d1-      -0.0022    0.0200   -0.0000    0.0000
       53 CR     7d1-      -0.0018    0.0163   -0.0000    0.0000
       54 CR     8d1-       0.0006   -0.0056    0.0000   -0.0000
       55 CR     9d1-       0.0005   -0.0049    0.0000   -0.0000
       56 CR    10d1-       0.0000   -0.0004    0.0000   -0.0000
       57 CR     3d0       -0.0000    0.0000    0.0000    0.9443
       58 CR     4d0        0.0000   -0.0000   -0.0000   -0.3280
       59 CR     5d0        0.0000   -0.0000   -0.0000   -0.0005
       60 CR     6d0       -0.0000    0.0000    0.0000    0.0202
       61 CR     7d0       -0.0000    0.0000    0.0000    0.0164
       62 CR     8d0        0.0000   -0.0000   -0.0000   -0.0057
       63 CR     9d0        0.0000   -0.0000   -0.0000   -0.0049
       64 CR    10d0        0.0000   -0.0000   -0.0000   -0.0005
       65 CR     3d1+      -0.0001    0.0005    0.9387   -0.0000
       66 CR     4d1+       0.0000   -0.0002   -0.3258    0.0000
       67 CR     5d1+       0.0000   -0.0000   -0.0006    0.0000
       68 CR     6d1+      -0.0000    0.0000    0.0200   -0.0000
       69 CR     7d1+      -0.0000    0.0000    0.0163   -0.0000
       70 CR     8d1+       0.0000   -0.0000   -0.0056    0.0000
       71 CR     9d1+       0.0000   -0.0000   -0.0049    0.0000
       72 CR    10d1+       0.0000   -0.0000   -0.0004    0.0000
       73 CR     3d2+      -0.0005   -0.0001   -0.1034    0.0000
       74 CR     4d2+       0.0002    0.0000    0.0360   -0.0000
       75 CR     5d2+       0.0000    0.0000    0.0001   -0.0000
       76 CR     6d2+      -0.0000   -0.0000   -0.0022    0.0000
       77 CR     7d2+      -0.0000   -0.0000   -0.0018    0.0000
       78 CR     8d2+       0.0000    0.0000    0.0006   -0.0000
       79 CR     9d2+       0.0000    0.0000    0.0005   -0.0000
       80 CR    10d2+       0.0000    0.0000    0.0001   -0.0000
       81 CR     4f3-      -0.0000   -0.0000    0.0000   -0.0000
       82 CR     5f3-      -0.0000   -0.0000    0.0000    0.0000
       83 CR     6f3-       0.0000    0.0000   -0.0000   -0.0000
       84 CR     7f3-       0.0000    0.0000   -0.0000   -0.0000
       85 CR     8f3-       0.0000    0.0000   -0.0000   -0.0000
       86 CR     9f3-      -0.0000   -0.0000   -0.0000    0.0000
       87 CR     4f2-       0.0022    0.0006   -0.0000    0.0000
       88 CR     5f2-       0.0012    0.0004   -0.0000    0.0000
       89 CR     6f2-      -0.0002    0.0000   -0.0000   -0.0000
       90 CR     7f2-      -0.0003   -0.0001    0.0000   -0.0000
       91 CR     8f2-      -0.0001   -0.0000    0.0000   -0.0000
       92 CR     9f2-       0.0000   -0.0000    0.0000   -0.0000
       93 CR     4f1-      -0.0004    0.0020   -0.0000    0.0000
       94 CR     5f1-      -0.0002    0.0008   -0.0000    0.0000
       95 CR     6f1-       0.0000   -0.0003    0.0000   -0.0000
       96 CR     7f1-       0.0001   -0.0002    0.0000   -0.0000
       97 CR     8f1-       0.0000   -0.0000    0.0000    0.0000
       98 CR     9f1-      -0.0000    0.0001   -0.0000   -0.0000
       99 CR     4f0       -0.0000    0.0000    0.0000    0.0018
      100 CR     5f0       -0.0000    0.0000    0.0000    0.0005
      101 CR     6f0        0.0000   -0.0000   -0.0000   -0.0004
      102 CR     7f0        0.0000   -0.0000   -0.0000   -0.0002
      103 CR     8f0       -0.0000   -0.0000   -0.0000    0.0000
      104 CR     9f0       -0.0000    0.0000    0.0000    0.0001
      105 CR     4f1+      -0.0000    0.0000    0.0020   -0.0000
      106 CR     5f1+      -0.0000    0.0000    0.0008   -0.0000
      107 CR     6f1+       0.0000   -0.0000   -0.0003    0.0000
      108 CR     7f1+       0.0000   -0.0000   -0.0002    0.0000
      109 CR     8f1+       0.0000   -0.0000   -0.0000    0.0000
      110 CR     9f1+      -0.0000    0.0000    0.0001   -0.0000
      111 CR     4f2+      -0.0000   -0.0000   -0.0006    0.0000
      112 CR     5f2+      -0.0000   -0.0000   -0.0004    0.0000
      113 CR     6f2+       0.0000   -0.0000   -0.0000    0.0000
      114 CR     7f2+       0.0000    0.0000    0.0001   -0.0000
      115 CR     8f2+       0.0000    0.0000    0.0000   -0.0000
      116 CR     9f2+      -0.0000    0.0000    0.0000   -0.0000
      117 CR     4f3+       0.0000    0.0000    0.0000    0.0004
      118 CR     5f3+       0.0000    0.0000    0.0000    0.0003
      119 CR     6f3+      -0.0000   -0.0000    0.0000    0.0000
      120 CR     7f3+      -0.0000   -0.0000   -0.0000   -0.0001
      121 CR     8f3+      -0.0000   -0.0000   -0.0000   -0.0000
      122 CR     9f3+       0.0000    0.0000   -0.0000   -0.0000
      123 CR     5g4-      -0.0000    0.0001   -0.0000   -0.0000
      124 CR     6g4-       0.0000    0.0001   -0.0000    0.0000
      125 CR     7g4-       0.0000    0.0001   -0.0000   -0.0000
      126 CR     8g4-       0.0000    0.0000   -0.0000   -0.0000
      127 CR     5g3-       0.0000    0.0000   -0.0000   -0.0000
      128 CR     6g3-       0.0000    0.0000   -0.0000    0.0000
      129 CR     7g3-       0.0000    0.0000   -0.0000   -0.0000
      130 CR     8g3-      -0.0000    0.0000   -0.0000    0.0000
      131 CR     5g2-      -0.0002   -0.0001    0.0000   -0.0000
      132 CR     6g2-      -0.0002   -0.0001    0.0000   -0.0000
      133 CR     7g2-      -0.0001   -0.0001    0.0000   -0.0000
      134 CR     8g2-       0.0000   -0.0000    0.0000   -0.0000
      135 CR     5g1-       0.0001   -0.0003    0.0000   -0.0000
      136 CR     6g1-       0.0001   -0.0003    0.0000   -0.0000
      137 CR     7g1-       0.0001   -0.0001    0.0000   -0.0000
      138 CR     8g1-       0.0000    0.0000   -0.0000   -0.0000
      139 CR     5g0        0.0000   -0.0000   -0.0000   -0.0004
      140 CR     6g0        0.0000   -0.0000   -0.0000   -0.0004
      141 CR     7g0       -0.0000   -0.0000   -0.0000   -0.0002
      142 CR     8g0        0.0000    0.0000   -0.0000   -0.0000
      143 CR     5g1+       0.0000   -0.0000   -0.0003    0.0000
      144 CR     6g1+       0.0000   -0.0000   -0.0003    0.0000
      145 CR     7g1+       0.0000   -0.0000   -0.0001    0.0000
      146 CR     8g1+       0.0000    0.0000    0.0000   -0.0000
      147 CR     5g2+       0.0000    0.0000    0.0001   -0.0000
      148 CR     6g2+       0.0000    0.0000    0.0001   -0.0000
      149 CR     7g2+       0.0000    0.0000    0.0001   -0.0000
      150 CR     8g2+      -0.0000    0.0000    0.0000   -0.0000
      151 CR     5g3+      -0.0000   -0.0000   -0.0000   -0.0000
      152 CR     6g3+      -0.0000   -0.0000   -0.0000   -0.0000
      153 CR     7g3+      -0.0000   -0.0000   -0.0000   -0.0000
      154 CR     8g3+       0.0000   -0.0000   -0.0000   -0.0000
      155 CR     5g4+      -0.0000    0.0000    0.0001   -0.0000
      156 CR     6g4+       0.0000    0.0000    0.0001   -0.0000
      157 CR     7g4+       0.0000    0.0000    0.0001   -0.0000
      158 CR     8g4+       0.0000    0.0000    0.0000   -0.0000
      159 CR     6h5-      -0.0001   -0.0000    0.0000    0.0000
      160 CR     7h5-      -0.0002   -0.0000    0.0000   -0.0000
      161 CR     6h4-       0.0000   -0.0001    0.0000   -0.0000
      162 CR     7h4-       0.0000   -0.0001    0.0000   -0.0000
      163 CR     6h3-      -0.0000    0.0000   -0.0000    0.0000
      164 CR     7h3-      -0.0000    0.0000   -0.0000   -0.0000
      165 CR     6h2-      -0.0001   -0.0000    0.0000   -0.0000
      166 CR     7h2-      -0.0002   -0.0000    0.0000   -0.0000
      167 CR     6h1-       0.0000   -0.0002    0.0000    0.0000
      168 CR     7h1-       0.0000   -0.0002    0.0000   -0.0000
      169 CR     6h0        0.0000   -0.0000   -0.0000   -0.0002
      170 CR     7h0       -0.0000   -0.0000   -0.0000   -0.0003
      171 CR     6h1+       0.0000   -0.0000   -0.0002    0.0000
      172 CR     7h1+       0.0000   -0.0000   -0.0002    0.0000
      173 CR     6h2+       0.0000    0.0000    0.0000   -0.0000
      174 CR     7h2+       0.0000    0.0000    0.0000   -0.0000
      175 CR     6h3+       0.0000   -0.0000   -0.0000   -0.0001
      176 CR     7h3+       0.0000   -0.0000   -0.0000   -0.0001
      177 CR     6h4+       0.0000   -0.0000   -0.0001    0.0000
      178 CR     7h4+       0.0000   -0.0000   -0.0001    0.0000
      179 CR     6h5+       0.0000    0.0000    0.0000   -0.0000
      180 CR     7h5+       0.0000    0.0000    0.0000   -0.0000
--


++    Molecular charges:
      ------------------

      Mulliken charges per centre and basis function type
      ---------------------------------------------------

                CR    
      1s       2.0000
      2s       2.0000
      2px      2.0000
      2pz      2.0000
      2py      2.0000
      3s       1.9818
      3px      1.9635
      3pz      1.9633
      3py      1.9635
      4s       0.0051
      3d2+     0.0000
      3d1+     0.0000
      3d0      0.0000
      3d1-     0.0000
      3d2-     0.0000
      4px      0.0167
      4pz      0.0168
      4py      0.0167
      5s       0.0110
      4d2+     0.0000
      4d1+     0.0000
      4d0      0.0000
      4d1-     0.0000
      4d2-     0.0000
      5px      0.0192
      5pz      0.0193
      5py      0.0192
      6s       0.0018
      4f3+     0.0000
      4f2+     0.0000
      4f1+     0.0000
      4f0      0.0000
      4f1-     0.0000
      4f2-     0.0000
      4f3-     0.0000
      5d2+     0.0000
      5d1+     0.0000
      5d0      0.0000
      5d1-     0.0000
      5d2-     0.0000
      6px      0.0000
      6pz      0.0000
      6py      0.0000
      7s       0.0002
      5f3+     0.0000
      5f2+     0.0000
      5f1+     0.0000
      5f0      0.0000
      5f1-     0.0000
      5f2-     0.0000
      5f3-     0.0000
      6d2+     0.0000
      6d1+     0.0000
      6d0      0.0000
      6d1-     0.0000
      6d2-     0.0000
      7px      0.0005
      7pz      0.0005
      7py      0.0005
      5g4+     0.0000
      5g3+     0.0000
      5g2+     0.0000
      5g1+     0.0000
      5g0      0.0000
      5g1-     0.0000
      5g2-     0.0000
      5g3-     0.0000
      5g4-     0.0000
      6f3+     0.0000
      6f2+     0.0000
      6f1+     0.0000
      6f0      0.0000
      6f1-     0.0000
      6f2-     0.0000
      6f3-     0.0000
      6g4+     0.0000
      6g3+     0.0000
      6g2+     0.0000
      6g1+     0.0000
      6g0      0.0000
      6g1-     0.0000
      6g2-     0.0000
      6g3-     0.0000
      6g4-     0.0000
      6h5+     0.0000
      6h4+     0.0000
      6h3+     0.0000
      6h2+     0.0000
      6h1+     0.0000
      6h0      0.0000
      6h1-     0.0000
      6h2-     0.0000
      6h3-     0.0000
      6h4-     0.0000
      6h5-     0.0000
      7d2+     0.0000
      7d1+     0.0000
      7d0      0.0000
      7d1-     0.0000
      7d2-     0.0000
      7f3+     0.0000
      7f2+     0.0000
      7f1+     0.0000
      7f0      0.0000
      7f1-     0.0000
      7f2-     0.0000
      7f3-     0.0000
      7g4+     0.0000
      7g3+     0.0000
      7g2+     0.0000
      7g1+     0.0000
      7g0      0.0000
      7g1-     0.0000
      7g2-     0.0000
      7g3-     0.0000
      7g4-     0.0000
      7h5+     0.0000
      7h4+     0.0000
      7h3+     0.0000
      7h2+     0.0000
      7h1+     0.0000
      7h0      0.0000
      7h1-     0.0000
      7h2-     0.0000
      7h3-     0.0000
      7h4-     0.0000
      7h5-     0.0000
      8s       0.0001
      8px      0.0000
      8pz      0.0000
      8py      0.0000
      8d2+     0.0000
      8d1+     0.0000
      8d0      0.0000
      8d1-     0.0000
      8d2-     0.0000
      8f3+     0.0000
      8f2+     0.0000
      8f1+     0.0000
      8f0      0.0000
      8f1-     0.0000
      8f2-     0.0000
      8f3-     0.0000
      8g4+     0.0000
      8g3+     0.0000
      8g2+     0.0000
      8g1+     0.0000
      8g0      0.0000
      8g1-     0.0000
      8g2-     0.0000
      8g3-     0.0000
      8g4-     0.0000
      9s       0.0000
      9px      0.0000
      9pz      0.0000
      9py      0.0000
      9d2+     0.0000
      9d1+     0.0000
      9d0      0.0000
      9d1-     0.0000
      9d2-     0.0000
      9f3+     0.0000
      9f2+     0.0000
      9f1+     0.0000
      9f0      0.0000
      9f1-     0.0000
      9f2-     0.0000
      9f3-     0.0000
     10s       0.0000
     10px      0.0000
     10pz      0.0000
     10py      0.0000
     10d2+     0.0000
     10d1+     0.0000
     10d0      0.0000
     10d1-     0.0000
     10d2-     0.0000
     11px      0.0000
     11pz      0.0000
     11py      0.0000
      Total   18.0000

      N-E      6.0000

      Total electronic charge=   18.000000

      Total            charge=    6.000000
--

 Sorry, Molden does not know how to handle
 functions with angular momentum larger than g

++    Static properties:
      ------------------


      LoProp Charges per center


                   CR    
      Nuclear     24.0000
      Electronic -18.0000

      Total        6.0000
--


++    Molecular properties:
      ---------------------

      Charge (e):
                      =    6.0000
      Dipole Moment (Debye):
      Origin of the operator (Ang)=    0.0000    0.0000    0.0000
                   X=  7.5314E-10               Y=  2.0954E-14               Z= -3.2061E-02           Total=  3.2061E-02
      Center of Charge (Ang)
                     X=    0.00000000               Y=    0.00000000               Z=   -0.00111249
      Quadrupole Moment (Debye*Ang):
      Origin of the operator (Ang)=    0.0000    0.0000    0.0000
                  XX= -3.4353E+00              XY= -4.0359E-15              XZ= -4.8537E-11              YY= -3.4353E+00
                  YZ=  5.3068E-15              ZZ= -3.4321E+00
      In traceless form (Debye*Ang)
                  XX= -1.5736E-03              XY= -6.0539E-15              XZ= -7.2806E-11              YY= -1.5736E-03
                  YZ=  7.9602E-15              ZZ=  3.1472E-03
--

 Sorry, Molden does not know how to handle
 functions with angular momentum larger than g
 ###############################################################################
 ###############################################################################
 ###                                                                         ###
 ###                                                                         ###
 ###    WARNING: RunFile label nBas                                          ###
 ###    was used       62 times                                              ###
 ###                                                                         ###
 ###                                                                         ###
 ###############################################################################
 ###############################################################################
Note: The following floating-point exceptions are signalling: IEEE_UNDERFLOW_FLAG IEEE_DENORMAL
--- Stop Module: scf at Thu Jan  9 00:45:18 2025 /rc=_RC_ALL_IS_WELL_ ---
*** files: chromium_so_cf.LprOrb chromium_so_cf.ScfOrb xmldump
    saved to directory /home4/s4752295/Internship/Initial_simulations/Point_charge_model/1_electron/active_space_9_non_rel/Cr/varying_bond_length
--- Module scf spent 17 seconds ---

*** symbolic link created: INPORB -> chromium_so_cf.ScfOrb
--- Start Module: rasscf at Thu Jan  9 00:45:18 2025 ---

()()()()()()()()()()()()()()()()()()()()()()()()()()()()()()()()()()()()()()()()()()()()()()()()()()

                                              &RASSCF

                                   only a single process is used
                       available to each process: 4.1 GB of memory, 1 thread?
                                            pid: 1477723
()()()()()()()()()()()()()()()()()()()()()()()()()()()()()()()()()()()()()()()()()()()()()()()()()()


      Header of the ONEINT file:
      --------------------------
      
      Integrals generated by seward 4.2.0  , Thu Jan  9 00:44:51 2025


      OrdInt status: non-squared


      Cartesian coordinates in Angstrom:
      -----------------------------------------------------
      No.  Label        X            Y            Z        
      -----------------------------------------------------
       1   CR         0.00000000   0.00000000   0.00000000
      -----------------------------------------------------
      Nuclear repulsion energy =  -16.93121697

++    Wave function specifications:
      -----------------------------

      Number of closed shell electrons          18
      Number of electrons in active shells       1
      Max number of holes in RAS1 space          0
      Max nr of electrons in RAS3 space          0
      Number of inactive orbitals                9
      Number of active orbitals                  9
      Number of secondary orbitals             162
      Spin quantum number                      0.5
      State symmetry                             1
--

++    Orbital specifications:
      -----------------------

      Symmetry species                           1
                                                 a
      Frozen orbitals                            0
      Inactive orbitals                          9
      Active orbitals                            9
      RAS1 orbitals                              0
      RAS2 orbitals                              9
      RAS3 orbitals                              0
      Secondary orbitals                       162
      Deleted orbitals                           0
      Number of basis functions                180
--

++    CI expansion specifications:
      ----------------------------

      Number of CSFs                             9
      Number of determinants                     9
      Number of root(s) required                 9
      Root chosen for geometry opt.              9
      CI roots used                              1     2     3     4     5     6     7     8     9
      weights                                0.111 0.111 0.111 0.111 0.111 0.111 0.111 0.111 0.111
      highest root included in the CI            9
      max. size of the explicit Hamiltonian      9
--

++    Optimization specifications:
      ----------------------------

      RASSCF algorithm: Conventional
      Maximum number of macro iterations       200
      Maximum number of SX iterations          100
      Threshold for RASSCF energy            0.100E-07
      Threshold for max MO rotation          0.100E+00
      Threshold for max BLB element          0.100E-03
      Level shift parameter                  0.500E+00
      Make Quasi-Newton update
--

      The MO-coefficients are taken from the file:
      INPORB                                                                                                                          
      Title: SCF orbitals                                                                  

      Total molecular charge    5.00

      ************************************************************************************************************************
      *                                                                                                                      *
      *                                            Wave function control section                                             *
      *                                                                                                                      *
      ************************************************************************************************************************


                                         RASSCF iterations: Energy and convergence statistics
                                         ----------------------------------------------------

      Iter CI   SX   CI       RASSCF       Energy    max ROT     max BLB   max BLB  Level Ln srch  Step   QN   Walltime
          iter iter root      energy       change     param      element    value   shift minimum  type update hh:mm:ss
 Nr of preliminary CI iterations:   1
      Total energies have been shifted. Add                -1000.00 au
        1   1    6    0   -46.43098750    0.00E+00   0.19E-01    9  18 1 -0.13E+00*  0.00   0.00    SX    NO    0:00:06
        2   1    6    0   -46.44618691   -0.15E-01*  0.14E-01    9 128 1 -0.23E-01*  0.00   0.00    SX    NO    0:00:03
        3   1    6    0   -46.44654721   -0.36E-03*  0.94E-02    5 171 1  0.43E-02*  0.00   0.00    SX    NO    0:00:03
        4   1    5    0   -46.44658596   -0.39E-04* -0.68E-02    6 111 1  0.17E-02*  0.00   0.00    SX    NO    0:00:03
        5   1    5    0   -46.44659587   -0.99E-05* -0.27E-02    6 111 1 -0.77E-03*  0.00   0.60    LS   YES    0:00:03
        6   1    5    0   -46.44660396   -0.81E-05* -0.37E-03    9 128 1 -0.24E-03*  0.00   1.01    QN   YES    0:00:03
        7   1    4    0   -46.44660424   -0.28E-06* -0.17E-03    6 111 1 -0.76E-04   0.00   0.88    QN   YES    0:00:03
        8   1    4    0   -46.44660429   -0.55E-07* -0.55E-04    5 171 1  0.30E-04   0.00   1.11    QN   YES    0:00:03
        9   1    4    0   -46.44660429   -0.28E-08  -0.97E-05    5 171 1 -0.81E-05   0.00   0.82    QN   YES    0:00:03
      Convergence after  9 iterations
       10   1    4    0   -46.44660429   -0.29E-09  -0.97E-05    3 169 1 -0.14E-05   0.00   0.82    QN   YES    0:00:03

      ************************************************************************************************************************
                                                      Wave function printout:
                       occupation of active orbitals, and spin coupling of open shells (u,d: Spin up or down)
      ************************************************************************************************************************

      Note: transformation to natural orbitals
      has been made, which may change the order of the CSFs.

      printout of CI-coefficients larger than  0.05 for root  1
      energy=   -1047.016569
      conf/sym  111111111     Coeff  Weight
             1  u00000000   0.57654 0.33240
             2  0u0000000   0.26498 0.07022
             3  00u000000  -0.13257 0.01758
             4  000u00000  -0.14719 0.02166
             5  0000u0000  -0.44099 0.19447
             6  00000u000   0.20858 0.04351
             8  0000000u0  -0.49967 0.24967
             9  00000000u   0.26476 0.07010

      printout of CI-coefficients larger than  0.05 for root  2
      energy=   -1047.016569
      conf/sym  111111111     Coeff  Weight
             1  u00000000   0.08201 0.00673
             2  0u0000000   0.55717 0.31044
             3  00u000000  -0.10440 0.01090
             4  000u00000  -0.11988 0.01437
             5  0000u0000   0.15082 0.02275
             6  00000u000  -0.23790 0.05660
             7  000000u00   0.06647 0.00442
             8  0000000u0   0.51323 0.26341
             9  00000000u   0.55713 0.31039

      printout of CI-coefficients larger than  0.05 for root  3
      energy=   -1047.015055
      conf/sym  111111111     Coeff  Weight
             1  u00000000  -0.24458 0.05982
             2  0u0000000   0.19533 0.03815
             3  00u000000   0.90231 0.81416
             4  000u00000  -0.06942 0.00482
             5  0000u0000  -0.13382 0.01791
             8  0000000u0  -0.15964 0.02548
             9  00000000u   0.19526 0.03813

      printout of CI-coefficients larger than  0.05 for root  4
      energy=   -1047.015055
      conf/sym  111111111     Coeff  Weight
             1  u00000000  -0.09002 0.00810
             2  0u0000000   0.21437 0.04596
             3  00u000000  -0.06372 0.00406
             4  000u00000   0.79995 0.63992
             5  0000u0000   0.28888 0.08345
             6  00000u000   0.35995 0.12956
             8  0000000u0  -0.20166 0.04067
             9  00000000u   0.21479 0.04614

      printout of CI-coefficients larger than  0.05 for root  5
      energy=   -1047.014543
      conf/sym  111111111     Coeff  Weight
             1  u00000000  -0.12781 0.01634
             4  000u00000   0.37358 0.13956
             5  0000u0000  -0.79884 0.63815
             7  000000u00   0.13835 0.01914
             8  0000000u0   0.42512 0.18073

      printout of CI-coefficients larger than  0.05 for root  6
      energy=   -1045.954264
      conf/sym  111111111     Coeff  Weight
             1  u00000000  -0.08685 0.00754
             4  000u00000  -0.36193 0.13100
             5  0000u0000   0.07975 0.00636
             6  00000u000   0.85028 0.72297
             7  000000u00   0.23006 0.05293
             8  0000000u0   0.28040 0.07863

      printout of CI-coefficients larger than  0.05 for root  7
      energy=   -1045.666850
      conf/sym  111111111     Coeff  Weight
             5  0000u0000   0.05126 0.00263
             6  00000u000  -0.20811 0.04331
             7  000000u00   0.95812 0.91799
             8  0000000u0  -0.18614 0.03465

      printout of CI-coefficients larger than  0.05 for root  8
      energy=   -1045.666850
      conf/sym  111111111     Coeff  Weight
             1  u00000000   0.75435 0.56904
             2  0u0000000  -0.18155 0.03296
             3  00u000000   0.38956 0.15176
             4  000u00000   0.22021 0.04849
             5  0000u0000   0.18516 0.03428
             7  000000u00   0.05427 0.00294
             8  0000000u0   0.35604 0.12677
             9  00000000u  -0.18150 0.03294

      printout of CI-coefficients larger than  0.05 for root  9
      energy=   -1045.653684
      conf/sym  111111111     Coeff  Weight
             2  0u0000000  -0.70710 0.49999
             9  00000000u   0.70712 0.50001

      Natural orbitals and occupation numbers for root  1
      sym 1:   1.000000   0.000000  -0.000000  -0.000000   0.000000  -0.000000   0.000000   0.000000  -0.000000

      Natural orbitals and occupation numbers for root  2
      sym 1:  -0.000000   1.000000  -0.000000   0.000000  -0.000000   0.000000  -0.000000  -0.000000   0.000000

      Natural orbitals and occupation numbers for root  3
      sym 1:  -0.000000  -0.000000   1.000000  -0.000000  -0.000000   0.000000  -0.000000   0.000000   0.000000

      Natural orbitals and occupation numbers for root  4
      sym 1:   0.000000   0.000000  -0.000000   1.000000   0.000000  -0.000000  -0.000000   0.000000   0.000000

      Natural orbitals and occupation numbers for root  5
      sym 1:  -0.000000  -0.000000   0.000000  -0.000000   1.000000  -0.000000   0.000000   0.000000  -0.000000

      Natural orbitals and occupation numbers for root  6
      sym 1:  -0.000000   0.000000  -0.000000   0.000000  -0.000000   1.000000   0.000000   0.000000   0.000000

      Natural orbitals and occupation numbers for root  7
      sym 1:   0.000000  -0.000000   0.000000  -0.000000  -0.000000  -0.000000   1.000000  -0.000000   0.000000

      Natural orbitals and occupation numbers for root  8
      sym 1:   1.000000   0.000000   0.000000   0.000000  -0.000000   0.000000   0.000000  -0.000000   0.000000

      Natural orbitals and occupation numbers for root  9
      sym 1:   0.000000   0.000000   0.000000  -0.000000  -0.000000   0.000000  -0.000000  -0.000000   1.000000

      ************************************************************************************************************************
      *                                                                                                                      *
      *                                                    Final results                                                     *
      *                                                                                                                      *
      ************************************************************************************************************************


++    Wave function specifications:
      -----------------------------

      Number of closed shell electrons          18
      Number of electrons in active shells       1
      Max number of holes in RAS1 space          0
      Max nr of electrons in RAS3 space          0
      Number of inactive orbitals                9
      Number of active orbitals                  9
      Number of secondary orbitals             162
      Spin quantum number                      0.5
      State symmetry                             1
--

++    Orbital specifications:
      -----------------------

      Symmetry species                           1
                                                 a
      Frozen orbitals                            0
      Inactive orbitals                          9
      Active orbitals                            9
      RAS1 orbitals                              0
      RAS2 orbitals                              9
      RAS3 orbitals                              0
      Secondary orbitals                       162
      Deleted orbitals                           0
      Number of basis functions                180
--

++    CI expansion specifications:
      ----------------------------

      Number of CSFs                             9
      Number of determinants                     9
      Number of root(s) required                 9
      CI roots used                              1     2     3     4     5     6     7     8     9
      weights                                0.111 0.111 0.111 0.111 0.111 0.111 0.111 0.111 0.111
      highest root included in the CI            9
      Root passed to geometry opt.               9
--

++    Final optimization conditions:
      ------------------------------

      Average CI energy                           -1046.44660429
      RASSCF energy for state  9                  -1045.65368358
      Super-CI energy                                -0.00000000
      RASSCF energy change                           -0.00000000
      Max change in MO coefficients              -0.889E-05
      Max non-diagonal density matrix element    -0.966E-05
      Maximum BLB matrix element                 -0.143E-05
      (orbital pair   3, 169 in symmetry   1)
      Norm of electronic gradient            0.342E+00
--


      Final state energy(ies):
      ------------------------

::    RASSCF root number  1 Total energy:  -1047.01656939
::    RASSCF root number  2 Total energy:  -1047.01656939
::    RASSCF root number  3 Total energy:  -1047.01505517
::    RASSCF root number  4 Total energy:  -1047.01505517
::    RASSCF root number  5 Total energy:  -1047.01454265
::    RASSCF root number  6 Total energy:  -1045.95426365
::    RASSCF root number  7 Total energy:  -1045.66684983
::    RASSCF root number  8 Total energy:  -1045.66684983
::    RASSCF root number  9 Total energy:  -1045.65368358

++    Molecular orbitals:
      -------------------

      Pseudonatural active orbitals and approximate occupation numbers




      Molecular orbitals for symmetry species 1: a  


      Orbital                 1         2         3         4         5         6         7         8         9        10
      Energy          -224.7813  -29.4519  -25.0765  -25.0765  -25.0764   -5.8678   -4.4996   -4.4996   -4.4980    0.0000
      Occ. No.           2.0000    2.0000    2.0000    2.0000    2.0000    2.0000    2.0000    2.0000    2.0000    0.1111

     1 CR     1s         1.0000   -0.0001    0.0000   -0.0000   -0.0000    0.0001   -0.0000    0.0000    0.0000   -0.0000
     2 CR     2s         0.0001    1.0000    0.0000   -0.0000   -0.0001    0.0015    0.0000   -0.0000   -0.0000    0.0000
     3 CR     3s        -0.0001   -0.0015   -0.0000    0.0000    0.0000    0.9969    0.0000   -0.0000   -0.0030    0.0063
     4 CR     4s         0.0000   -0.0000   -0.0000   -0.0000   -0.0000   -0.0431   -0.0000    0.0000    0.0007    0.0664
     5 CR     5s        -0.0000   -0.0002    0.0000   -0.0000    0.0000    0.0611    0.0000   -0.0000   -0.0010   -0.0535
     6 CR     6s         0.0000    0.0002    0.0000   -0.0000   -0.0000   -0.0238   -0.0000   -0.0000    0.0003   -0.0000
     7 CR     7s        -0.0000   -0.0000    0.0000   -0.0000    0.0000   -0.0085   -0.0000    0.0000    0.0002    0.0129
     8 CR     8s         0.0000   -0.0001   -0.0000   -0.0000   -0.0000    0.0057    0.0000    0.0000   -0.0001   -0.0006
     9 CR     9s        -0.0001    0.0002   -0.0000   -0.0000   -0.0000    0.0020    0.0000    0.0000   -0.0000   -0.0025
    10 CR    10s         0.0001   -0.0002   -0.0000   -0.0000    0.0000    0.0004    0.0000    0.0000   -0.0000   -0.0003
    11 CR     2px       -0.0000   -0.0000    0.9970   -0.0772   -0.0000    0.0000    0.0024   -0.0000   -0.0000    0.0000
    12 CR     3px        0.0000   -0.0000   -0.0024    0.0002    0.0000   -0.0000    0.9935   -0.0086   -0.0000    0.0007
    13 CR     4px        0.0000    0.0000    0.0003   -0.0000   -0.0000   -0.0000   -0.0784    0.0007    0.0000    0.0042
    14 CR     5px        0.0000   -0.0000   -0.0005    0.0000    0.0000    0.0000    0.0808   -0.0007   -0.0000   -0.0021
    15 CR     6px       -0.0000    0.0000    0.0001   -0.0000   -0.0000   -0.0000    0.0005   -0.0000   -0.0000   -0.0009
    16 CR     7px       -0.0000   -0.0000    0.0001   -0.0000   -0.0000    0.0000   -0.0146    0.0001    0.0000    0.0008
    17 CR     8px       -0.0000   -0.0000   -0.0002    0.0000    0.0000    0.0000    0.0016   -0.0000   -0.0000    0.0004
    18 CR     9px        0.0000   -0.0000    0.0003   -0.0000   -0.0000   -0.0000    0.0037   -0.0000   -0.0000   -0.0001
    19 CR    10px       -0.0000    0.0000   -0.0002    0.0000    0.0000   -0.0000    0.0004   -0.0000   -0.0000   -0.0001
    20 CR    11px        0.0000   -0.0000    0.0002   -0.0000   -0.0000   -0.0000   -0.0003    0.0000    0.0000   -0.0000
    21 CR     2py        0.0000   -0.0000    0.0772    0.9970   -0.0000   -0.0000    0.0000    0.0024   -0.0000   -0.0001
    22 CR     3py        0.0000    0.0000   -0.0002   -0.0024    0.0000   -0.0000    0.0086    0.9935   -0.0000    0.0797
    23 CR     4py       -0.0000   -0.0000    0.0000    0.0003   -0.0000   -0.0000   -0.0007   -0.0784    0.0000    0.6451
    24 CR     5py       -0.0000   -0.0000   -0.0000   -0.0005    0.0000   -0.0000    0.0007    0.0808   -0.0000   -0.3253
    25 CR     6py       -0.0000   -0.0000    0.0000    0.0001   -0.0000   -0.0000    0.0000    0.0005    0.0000   -0.1427
    26 CR     7py        0.0000    0.0000    0.0000    0.0001   -0.0000    0.0000   -0.0001   -0.0146    0.0000    0.1175
    27 CR     8py        0.0000    0.0000   -0.0000   -0.0002    0.0000    0.0000    0.0000    0.0016   -0.0000    0.0550
    28 CR     9py        0.0000   -0.0000    0.0000    0.0003   -0.0000   -0.0000    0.0000    0.0037   -0.0000   -0.0231
    29 CR    10py        0.0000   -0.0000   -0.0000   -0.0002    0.0000   -0.0000    0.0000    0.0004   -0.0000   -0.0172
    30 CR    11py       -0.0000   -0.0000    0.0000    0.0002   -0.0000   -0.0000   -0.0000   -0.0003    0.0000   -0.0029
    31 CR     2pz        0.0000    0.0001    0.0000   -0.0000    1.0000   -0.0000    0.0000   -0.0000    0.0024   -0.0000
    32 CR     3pz       -0.0000    0.0000   -0.0000    0.0000   -0.0024    0.0031    0.0000   -0.0000    0.9935    0.0003
    33 CR     4pz        0.0000   -0.0000    0.0000   -0.0000    0.0003    0.0000   -0.0000    0.0000   -0.0787    0.0046
    34 CR     5pz       -0.0000    0.0000   -0.0000    0.0000   -0.0005   -0.0002    0.0000   -0.0000    0.0811   -0.0021
    35 CR     6pz        0.0000   -0.0000    0.0000   -0.0000    0.0001    0.0001    0.0000   -0.0000    0.0005   -0.0011
    36 CR     7pz       -0.0000    0.0000    0.0000   -0.0000    0.0001   -0.0000   -0.0000    0.0000   -0.0147    0.0007
    37 CR     8pz        0.0000   -0.0000   -0.0000    0.0000   -0.0002   -0.0000    0.0000   -0.0000    0.0016    0.0004
    38 CR     9pz       -0.0000    0.0000    0.0000   -0.0000    0.0003    0.0000    0.0000   -0.0000    0.0037   -0.0001
    39 CR    10pz        0.0000   -0.0000   -0.0000    0.0000   -0.0002    0.0000    0.0000   -0.0000    0.0004   -0.0001
    40 CR    11pz       -0.0000    0.0000    0.0000   -0.0000    0.0002    0.0000   -0.0000    0.0000   -0.0003   -0.0000
    41 CR     3d2-       0.0000    0.0000    0.0000    0.0000   -0.0000    0.0000    0.0000    0.0003   -0.0000    0.0534
    42 CR     4d2-       0.0000    0.0000   -0.0000   -0.0000    0.0000    0.0000    0.0000    0.0000   -0.0000   -0.0059
    43 CR     5d2-      -0.0000   -0.0000   -0.0000   -0.0000   -0.0000    0.0000   -0.0000   -0.0000    0.0000    0.0030
    44 CR     6d2-       0.0000   -0.0000    0.0000    0.0000   -0.0000    0.0000   -0.0000   -0.0000    0.0000    0.0003
    45 CR     7d2-      -0.0000   -0.0000   -0.0000   -0.0000   -0.0000    0.0000    0.0000    0.0000    0.0000   -0.0007
    46 CR     8d2-      -0.0000    0.0000    0.0000    0.0000   -0.0000    0.0000    0.0000    0.0000   -0.0000   -0.0011
    47 CR     9d2-      -0.0000    0.0000   -0.0000   -0.0000    0.0000    0.0000   -0.0000   -0.0000   -0.0000   -0.0001
    48 CR    10d2-       0.0000   -0.0000    0.0000    0.0000   -0.0000    0.0000   -0.0000   -0.0000    0.0000    0.0001
    49 CR     3d1-      -0.0000   -0.0000    0.0000    0.0000   -0.0000    0.0000    0.0000    0.0022   -0.0000   -0.2285
    50 CR     4d1-       0.0000    0.0000   -0.0000   -0.0000    0.0000    0.0000   -0.0000   -0.0003   -0.0000    0.1183
    51 CR     5d1-      -0.0000   -0.0000    0.0000    0.0000   -0.0000   -0.0000   -0.0000   -0.0003    0.0000    0.0023
    52 CR     6d1-      -0.0000   -0.0000   -0.0000   -0.0000   -0.0000   -0.0000    0.0000    0.0001    0.0000   -0.0083
    53 CR     7d1-      -0.0000   -0.0000   -0.0000   -0.0000   -0.0000    0.0000    0.0000    0.0001    0.0000   -0.0081
    54 CR     8d1-      -0.0000    0.0000   -0.0000   -0.0000    0.0000    0.0000   -0.0000   -0.0000   -0.0000    0.0013
    55 CR     9d1-       0.0000    0.0000    0.0000    0.0000    0.0000    0.0000   -0.0000   -0.0000   -0.0000    0.0024
    56 CR    10d1-       0.0000   -0.0000   -0.0000   -0.0000    0.0000    0.0000   -0.0000   -0.0000   -0.0000    0.0005
    57 CR     3d0       -0.0000   -0.0000    0.0000   -0.0000    0.0000   -0.0004    0.0000   -0.0000    0.0016    0.1201
    58 CR     4d0        0.0000    0.0000   -0.0000    0.0000   -0.0000    0.0000   -0.0000    0.0000   -0.0004   -0.0439
    59 CR     5d0       -0.0000   -0.0000    0.0000    0.0000    0.0000    0.0001   -0.0000    0.0000   -0.0002    0.0006
    60 CR     6d0        0.0000    0.0000   -0.0000    0.0000   -0.0000   -0.0000    0.0000   -0.0000    0.0001    0.0025
    61 CR     7d0       -0.0000   -0.0000    0.0000    0.0000    0.0000   -0.0000    0.0000   -0.0000    0.0001    0.0022
    62 CR     8d0       -0.0000    0.0000   -0.0000    0.0000   -0.0000    0.0000   -0.0000    0.0000   -0.0000   -0.0007
[...]
   18         1.362886       9 0.5  1.0000    8 0.5  0.0000    7 0.5  0.0000    6 0.5  0.0000    5 0.5  0.0000
 -------------------------------------------------------------------------------------------------------


      ****************************************************************************************************
      *                                                                                                  *
      *                                    Special properties section                                    *
      *                                                                                                  *
      ****************************************************************************************************


++ Dipole transition strengths (SO states):
   ----------------------------------------
    for osc. strength at least    1.0000000000000001E-005

      From   To        Osc. strength     Einstein coefficients Ax, Ay, Az (sec-1)    Total A (sec-1)
     -----------------------------------------------------------------------------------------------
         1   13       4.19521036E-02  2.42550295E+09  4.57475451E+04  3.00093409E+07  2.45555804E+09
         1   15       4.14394125E-02  4.57475461E+04  2.42550295E+09  2.99370314E+02  2.42554899E+09
         1   17       5.56083523E-04  4.66859475E+02  3.31865596E+07  4.94855456E-12  3.31870265E+07
         2   14       4.19521036E-02  2.42550295E+09  4.57475451E+04  3.00093409E+07  2.45555804E+09
         2   16       4.14394125E-02  4.57475461E+04  2.42550295E+09  2.99370314E+02  2.42554899E+09
         2   18       5.56083523E-04  4.66859475E+02  3.31865596E+07  4.94855456E-12  3.31870265E+07
         3   13       4.14394124E-02  4.57475452E+04  2.42550294E+09  2.99370497E+02  2.42554898E+09
         3   15       4.19521038E-02  2.42550295E+09  4.57475451E+04  3.00093574E+07  2.45555805E+09
         3   17       5.56083559E-04  3.31865617E+07  4.66859986E+02  9.09969681E-09  3.31870286E+07
         4   14       4.14394124E-02  4.57475452E+04  2.42550294E+09  2.99370497E+02  2.42554898E+09
         4   16       4.19521038E-02  2.42550295E+09  4.57475451E+04  3.00093574E+07  2.45555805E+09
         4   18       5.56083559E-04  3.31865617E+07  4.66859986E+02  9.09969681E-09  3.31870286E+07
         5   11       2.10516082E-04  7.61043833E+06  7.89624034E+02  6.21547737E-11  7.61122795E+06
         5   13       4.53696354E-04  3.05271874E+03  2.62774973E+07  2.15842517E+05  2.64963925E+07
         5   15       4.06048676E-02  2.62775049E+07  3.05271942E+03  2.34509073E+09  2.37137129E+09
         5   17       4.20440060E-02  2.50335112E+09  2.59736188E+05  5.93230227E-07  2.50361086E+09
         6   12       2.10516082E-04  7.61043833E+06  7.89624034E+02  6.21547737E-11  7.61122795E+06
         6   14       4.53696354E-04  3.05271874E+03  2.62774973E+07  2.15842517E+05  2.64963925E+07
         6   16       4.06048676E-02  2.62775049E+07  3.05271942E+03  2.34509073E+09  2.37137129E+09
         6   18       4.20440060E-02  2.50335112E+09  2.59736188E+05  5.93230227E-07  2.50361086E+09
         7   11       2.10516079E-04  7.89624042E+02  7.61043823E+06  5.46736332E-14  7.61122785E+06
         7   13       4.06048676E-02  2.62774892E+07  3.05271846E+03  2.34509075E+09  2.37137129E+09
         7   15       4.53696333E-04  3.05271878E+03  2.62774960E+07  2.15842517E+05  2.64963912E+07
         7   17       4.20440060E-02  2.59736189E+05  2.50335112E+09  1.38843274E-11  2.50361086E+09
         8   12       2.10516079E-04  7.89624042E+02  7.61043823E+06  5.46736332E-14  7.61122785E+06
         8   14       4.06048676E-02  2.62774892E+07  3.05271846E+03  2.34509075E+09  2.37137129E+09
         8   16       4.53696333E-04  3.05271878E+03  2.62774960E+07  2.15842517E+05  2.64963912E+07
         8   18       4.20440060E-02  2.59736189E+05  2.50335112E+09  1.38843274E-11  2.50361086E+09
         9   11       9.53706322E-05  1.48791109E-09  4.59326969E-14  3.44480272E+06  3.44480272E+06
         9   13       1.45716603E-02  2.98245651E+02  8.50354647E+08  1.14055772E-11  8.50354945E+08
         9   15       1.45716600E-02  8.50354629E+08  2.98245572E+02  2.09029803E-07  8.50354928E+08
         9   17       5.37191751E-02  6.88937449E-07  1.49509221E-11  3.19642862E+09  3.19642862E+09
        10   12       9.53706322E-05  1.48791109E-09  4.59326969E-14  3.44480272E+06  3.44480272E+06
        10   14       1.45716603E-02  2.98245651E+02  8.50354647E+08  1.14055772E-11  8.50354945E+08
        10   16       1.45716600E-02  8.50354629E+08  2.98245572E+02  2.09029803E-07  8.50354928E+08
        10   18       5.37191751E-02  6.88937449E-07  1.49509221E-11  3.19642862E+09  3.19642862E+09
        11   13       2.87036558E-01  2.67199541E+02  7.61836420E+08  1.73757069E-14  7.61836687E+08
        11   15       2.87036558E-01  7.61836420E+08  2.67199541E+02  1.38673880E-07  7.61836687E+08
        11   17       2.86237894E-01  1.52798837E-07  9.40616139E-15  8.30915490E+08  8.30915490E+08
        12   14       2.87036558E-01  2.67199541E+02  7.61836420E+08  1.73757069E-14  7.61836687E+08
        12   16       2.87036558E-01  7.61836420E+08  2.67199541E+02  1.38673880E-07  7.61836687E+08
        12   18       2.86237894E-01  1.52798837E-07  9.40616139E-15  8.30915490E+08  8.30915490E+08
     -----------------------------------------------------------------------------------------------
--

++ Velocity transition strengths (SO states):
   ------------------------------------------
    for osc. strength at least    1.0000000000000001E-005

      From   To        Osc. strength     Einstein coefficients Ax, Ay, Az (sec-1)    Total A (sec-1)
     -----------------------------------------------------------------------------------------------
         1    5       3.70142531E-05  5.29582009E-04  2.72632664E+00  6.63445325E-08  2.72685629E+00
         1    7       3.70359991E-05  2.72632663E+00  5.29581980E-04  1.60211446E-03  2.72845832E+00
         1   13       3.71995170E-02  2.15071476E+09  4.05647498E+04  2.66299039E+07  2.17738523E+09
         1   15       3.67445631E-02  4.05647507E+04  2.15071475E+09  2.65657374E+02  2.15075558E+09
         1   17       4.93872230E-04  4.14631475E+02  2.94739486E+07  4.23826115E-12  2.94743632E+07
         2    6       3.70142531E-05  5.29582009E-04  2.72632664E+00  6.63445325E-08  2.72685629E+00
         2    8       3.70359991E-05  2.72632663E+00  5.29581980E-04  1.60211446E-03  2.72845832E+00
         2   14       3.71995170E-02  2.15071476E+09  4.05647498E+04  2.66299039E+07  2.17738523E+09
         2   16       3.67445631E-02  4.05647507E+04  2.15071475E+09  2.65657374E+02  2.15075558E+09
         2   18       4.93872230E-04  4.14631475E+02  2.94739486E+07  4.23826115E-12  2.94743632E+07
         3    5       3.70359994E-05  2.72632666E+00  5.29581986E-04  1.60210792E-03  2.72845835E+00
         3    7       3.70142522E-05  5.29581998E-04  2.72632658E+00  6.63439533E-08  2.72685622E+00
         3   13       3.67445629E-02  4.05647499E+04  2.15071474E+09  2.65657535E+02  2.15075557E+09
         3   15       3.71995172E-02  2.15071475E+09  4.05647498E+04  2.66299185E+07  2.17738524E+09
         3   17       4.93872261E-04  2.94739505E+07  4.14631928E+02  8.05475081E-09  2.94743651E+07
         4    6       3.70359994E-05  2.72632666E+00  5.29581986E-04  1.60210792E-03  2.72845835E+00
         4    8       3.70142522E-05  5.29581998E-04  2.72632658E+00  6.63439533E-08  2.72685622E+00
         4   14       3.67445629E-02  4.05647499E+04  2.15071474E+09  2.65657535E+02  2.15075557E+09
         4   16       3.71995172E-02  2.15071475E+09  4.05647498E+04  2.66299185E+07  2.17738524E+09
         4   18       4.93872261E-04  2.94739505E+07  4.14631928E+02  8.05475081E-09  2.94743651E+07
         5    9       3.50538925E-04  2.95814779E+00  3.06923796E-04  1.57953407E-15  2.95845472E+00
         5   11       1.83587591E-04  6.63696041E+06  6.88620448E+02  5.51886250E-11  6.63764903E+06
         5   13       4.01833632E-04  2.70374973E+03  2.32736069E+07  1.91320326E+05  2.34676310E+07
         5   15       3.59912466E-02  2.32736137E+07  2.70375033E+03  2.07866147E+09  2.10193779E+09
         5   17       3.72907920E-02  2.22034671E+09  2.30372953E+05  5.26020112E-07  2.22057708E+09
         6   10       3.50538925E-04  2.95814779E+00  3.06923796E-04  1.57953407E-15  2.95845472E+00
         6   12       1.83587591E-04  6.63696041E+06  6.88620448E+02  5.51886250E-11  6.63764903E+06
         6   14       4.01833632E-04  2.70374973E+03  2.32736069E+07  1.91320326E+05  2.34676310E+07
         6   16       3.59912466E-02  2.32736137E+07  2.70375033E+03  2.07866147E+09  2.10193779E+09
         6   18       3.72907920E-02  2.22034671E+09  2.30372953E+05  5.26020112E-07  2.22057708E+09
         7    9       3.50538928E-04  3.06923799E-04  2.95814782E+00  1.00123646E-19  2.95845474E+00
         7   11       1.83587589E-04  6.88620455E+02  6.63696032E+06  4.94159582E-14  6.63764894E+06
         7   13       3.59912466E-02  2.32735998E+07  2.70374947E+03  2.07866149E+09  2.10193779E+09
         7   15       4.01833612E-04  2.70374976E+03  2.32736058E+07  1.91320326E+05  2.34676299E+07
         7   17       3.72907920E-02  2.30372954E+05  2.22034671E+09  1.24122650E-11  2.22057709E+09
         8   10       3.50538928E-04  3.06923799E-04  2.95814782E+00  1.00123646E-19  2.95845474E+00
         8   12       1.83587589E-04  6.88620455E+02  6.63696032E+06  4.94159582E-14  6.63764894E+06
         8   14       3.59912466E-02  2.32735998E+07  2.70374947E+03  2.07866149E+09  2.10193779E+09
         8   16       4.01833612E-04  2.70374976E+03  2.32736058E+07  1.91320326E+05  2.34676299E+07
         8   18       3.72907920E-02  2.30372954E+05  2.22034671E+09  1.24122650E-11  2.22057709E+09
         9   11       8.27786983E-05  1.29415032E-09  4.13446668E-14  2.98999042E+06  2.98999042E+06
         9   13       1.29441683E-02  2.64935858E+02  7.55382140E+08  1.01044304E-11  7.55382405E+08
         9   15       1.29441680E-02  7.55382125E+08  2.64935788E+02  1.85675294E-07  7.55382390E+08
         9   17       4.75783675E-02  6.10248272E-07  1.32463615E-11  2.83104467E+09  2.83104467E+09
        10   12       8.27786983E-05  1.29415032E-09  4.13446668E-14  2.98999042E+06  2.98999042E+06
        10   14       1.29441683E-02  2.64935858E+02  7.55382140E+08  1.01044304E-11  7.55382405E+08
        10   16       1.29441680E-02  7.55382125E+08  2.64935788E+02  1.85675294E-07  7.55382390E+08
        10   18       4.75783675E-02  6.10248272E-07  1.32463615E-11  2.83104467E+09  2.83104467E+09
        11   13       3.34053192E-01  3.10967949E+02  8.86628429E+08  1.85142530E-14  8.86628740E+08
        11   15       3.34053192E-01  8.86628428E+08  3.10967949E+02  1.61757493E-07  8.86628739E+08
        11   17       3.34221846E-01  1.77970442E-07  9.99120102E-15  9.70210724E+08  9.70210724E+08
        12   14       3.34053192E-01  3.10967949E+02  8.86628429E+08  1.85142530E-14  8.86628740E+08
        12   16       3.34053192E-01  8.86628428E+08  3.10967949E+02  1.61757493E-07  8.86628739E+08
        12   18       3.34221846E-01  1.77970442E-07  9.99120102E-15  9.70210724E+08  9.70210724E+08
        13   17       1.89777542E-04  3.70726361E-04  1.05701098E+03  1.19560104E-17  1.05701135E+03
        14   18       1.89777542E-04  3.70726361E-04  1.05701098E+03  1.19560104E-17  1.05701135E+03
        15   17       1.89777544E-04  1.05701099E+03  3.70726386E-04  2.16199048E-13  1.05701136E+03
        16   18       1.89777544E-04  1.05701099E+03  3.70726386E-04  2.16199048E-13  1.05701136E+03
     -----------------------------------------------------------------------------------------------
--

++ Length and velocity gauge comparison (SO states):

 --------------------------------------------------
 A comparison between the dipole oscillator strengths in 
 length and velocity gauge will be performed

 All dipole oscillator differences above the tolerance of   0.10000000000000001       will be printed 

 Due to basis set deficiency these oscillator may be problematic 

 The tolerance is defined as ABS(1-O_l/O_v) 
 O_l : dipole oscillator strength in length gauge
 O_p : dipole oscillator strength in velocity gauge
 --------------------------------------------------

  Problematic transitions have been found

      From   To       Difference (%) Osc. st. (len.) Osc. st. (vel.)
     ---------------------------------------------------------------
         1    5      --------------- below threshold  3.70142531E-05
         1    7      --------------- below threshold  3.70359991E-05
         1   13            12.775936  4.19521036E-02  3.71995170E-02
         1   15            12.776991  4.14394125E-02  3.67445631E-02
         1   17            12.596637  5.56083523E-04  4.93872230E-04
         2    6      --------------- below threshold  3.70142531E-05
         2    8      --------------- below threshold  3.70359991E-05
         2   14            12.775936  4.19521036E-02  3.71995170E-02
         2   16            12.776991  4.14394125E-02  3.67445631E-02
         2   18            12.596637  5.56083523E-04  4.93872230E-04
         3    5      --------------- below threshold  3.70359994E-05
         3    7      --------------- below threshold  3.70142522E-05
         3   13            12.776991  4.14394124E-02  3.67445629E-02
         3   15            12.775936  4.19521038E-02  3.71995172E-02
         3   17            12.596637  5.56083559E-04  4.93872261E-04
         4    6      --------------- below threshold  3.70359994E-05
         4    8      --------------- below threshold  3.70142522E-05
         4   14            12.776991  4.14394124E-02  3.67445629E-02
         4   16            12.775936  4.19521038E-02  3.71995172E-02
         4   18            12.596637  5.56083559E-04  4.93872261E-04
         5    9      --------------- below threshold  3.50538925E-04
         5   11            14.667925  2.10516082E-04  1.83587591E-04
         5   13            12.906516  4.53696354E-04  4.01833632E-04
         5   15            12.818731  4.06048676E-02  3.59912466E-02
         5   17            12.746348  4.20440060E-02  3.72907920E-02
         6   10      --------------- below threshold  3.50538925E-04
         6   12            14.667925  2.10516082E-04  1.83587591E-04
         6   14            12.906516  4.53696354E-04  4.01833632E-04
         6   16            12.818731  4.06048676E-02  3.59912466E-02
         6   18            12.746348  4.20440060E-02  3.72907920E-02
         7    9      --------------- below threshold  3.50538928E-04
         7   11            14.667925  2.10516079E-04  1.83587589E-04
         7   13            12.818731  4.06048676E-02  3.59912466E-02
         7   15            12.906516  4.53696333E-04  4.01833612E-04
         7   17            12.746348  4.20440060E-02  3.72907920E-02
         8   10      --------------- below threshold  3.50538928E-04
         8   12            14.667925  2.10516079E-04  1.83587589E-04
         8   14            12.818731  4.06048676E-02  3.59912466E-02
         8   16            12.906516  4.53696333E-04  4.01833612E-04
         8   18            12.746348  4.20440060E-02  3.72907920E-02
         9   11            15.211563  9.53706322E-05  8.27786983E-05
         9   13            12.573168  1.45716603E-02  1.29441683E-02
         9   15            12.573168  1.45716600E-02  1.29441680E-02
         9   17            12.906722  5.37191751E-02  4.75783675E-02
        10   12            15.211563  9.53706322E-05  8.27786983E-05
        10   14            12.573168  1.45716603E-02  1.29441683E-02
        10   16            12.573168  1.45716600E-02  1.29441680E-02
        10   18            12.906722  5.37191751E-02  4.75783675E-02
        11   13            14.074595  2.87036558E-01  3.34053192E-01
        11   15            14.074595  2.87036558E-01  3.34053192E-01
        11   17            14.356917  2.86237894E-01  3.34221846E-01
        12   14            14.074595  2.87036558E-01  3.34053192E-01
        12   16            14.074595  2.87036558E-01  3.34053192E-01
        12   18            14.356917  2.86237894E-01  3.34221846E-01
        13   17      --------------- below threshold  1.89777542E-04
        14   18      --------------- below threshold  1.89777542E-04
        15   17      --------------- below threshold  1.89777544E-04
        16   18      --------------- below threshold  1.89777544E-04
     ---------------------------------------------------------------

 Number of problematic transitions =                    58

--

 Electric-dipole - electric-octupole not included
++ I/O STATISTICS
 
  I. General I/O information
  - - - - - - - - - - - - - - - - - - - - - - - - - - - - - - - - - - - - - - - - - - -
  Unit  Name          Flsize      Write/Read            MBytes           Write/Read
                      (MBytes)       Calls              In/Out           Time, sec.
  - - - - - - - - - - - - - - - - - - - - - - - - - - - - - - - - - - - - - - - - - - -
   1  SCRATCH           0.00 .       9/      45 .      0.0/      0.0 .       0/       0
   2  ANNI              0.00 .       0/       0 .      0.0/      0.0 .       0/       0
   3  RUNFILE          14.85 .     322/    9923 .      2.3/     72.0 .       0/       0
   4  ONEINT            5.58 .       0/   23543 .      0.0/   3739.9 .       0/       0
   5  JOBIPH            6.48 .       0/      92 .      0.0/      0.8 .       0/       0
   6  ORDINT          506.53 .       1/    4053 .      0.0/   1013.0 .       0/       0
  - - - - - - - - - - - - - - - - - - - - - - - - - - - - - - - - - - - - - - - - - - -
   *  TOTAL           533.45 .     332/   37656 .      2.3/   4825.7 .       0/       0
  - - - - - - - - - - - - - - - - - - - - - - - - - - - - - - - - - - - - - - - - - - -
 
  II. I/O Access Patterns
  - - - - - - - - - - - - - - - - - - - -
  Unit  Name               % of random
                         Write/Read calls
  - - - - - - - - - - - - - - - - - - - -
   1  SCRATCH             88.9/ 100.0
   2  ANNI                 0.0/   0.0
   3  RUNFILE             28.6/  10.8
   4  ONEINT               0.0/  16.4
   5  JOBIPH               0.0/  76.1
   6  ORDINT             100.0/   0.0
  - - - - - - - - - - - - - - - - - - - -
--
--- Stop Module: rassi at Thu Jan  9 00:46:09 2025 /rc=_RC_ALL_IS_WELL_ ---
*** files: xmldump
    saved to directory /home4/s4752295/Internship/Initial_simulations/Point_charge_model/1_electron/active_space_9_non_rel/Cr/varying_bond_length
--- Module rassi spent 3 seconds ---

.##################.
.# Happy landing! #.
.##################.

    Timing: Wall=78.14 User=42.24 System=33.35

###############################################################################
Hbrk Cluster
Job 14530244 for user s4752295
Finished at: Thu Jan  9 00:46:09 CET 2025

Job details:
============

Job ID                         : 14530244
Name                           : Cr_no_c_light
User                           : s4752295
Partition                      : regularmedium
Nodes                          : node99
Number of Nodes                : 1
Cores                          : 1
Number of Tasks                : 1
State                          : RUNNING  
Submit                         : 2025-01-09T00:44:46
Start                          : 2025-01-09T00:44:47
End                            : --
Reserved walltime              : 15:00:00
Used walltime                  : 00:01:22
Used CPU time                  : -- 
% User (Computation)           : --
% System (I/O)                 : --
Total memory reserved          : 25000M
Maximum memory used            : --

Acknowledgements:
=================

Please see this page for information about acknowledging Hbrk in your publications:

https://wiki.hpc.rug.nl/habrok/introduction/scientific_output

################################################################################
