   This run of MOLCAS is using the pymolcas driver

                             OPE
                             OPE          NMOL  CASOP  ENMOLC A   SO
                 OPE        NMOLC        AS  OP EN  MO LC     AS  OP
                OPENM       OL CA        SO  PE NM  OL CA     SOP EN
                OP EN      MO   LC       AS  OP ENMOL  CASO   PENMOL
                OP  EN     MO   LC       AS  OP EN     MO     LC ASO
               OP   E  NMOL  C  AS       OP  EN MO     LC     AS  OP
               OP  E   NMO   LC AS        OPEN  MO     LCASOP EN   M
               O  PEN   MO  LCA  SO
            OPE   NMO   L   CAS    OP
        OPENMOL  CASOP     ENMOL   CASOPE
     OPENMOLCA   SOPENMOLCASOPEN   MOLCASOPE
    OPENMOLCAS   OP           EN   MOL    CAS
    OPENMOLCAS       OP  ENM        O     LCA
    OPENMOLCAS    OPEN  MOLCASO     P  E  NMO
    OPENMOLCAS     OP               E  N  MOL
    OPENMOLCA   SO           PENM   O  L  CAS    OPEN    MO    LCAS
    OPENMOLCA   SOP           ENM   O  L  CAS   OP  EN  MOLC  AS   O
    OPENMOLCA   SOPE           NM      O  LCA   S      OP  EN MO
    OPENMOLC                AS         O  PEN   M      OL  CA  SOPE
    OPENMO        LCASOPE  NMOL        C  ASO   P      ENMOLC     AS
    OPE     NMO      LCA  SO     P     E   NM   OL  CA SO  PE N   MO
          OPENMOLCA            SOPE   NMO        LCAS  O    P  ENMO
     OPENMOLCASOPENMOLCASOPENMOLCASOPENMOLCA
        OPENMOLCASOPENMOLCASOPENMOLCASOPE
            OPENMOLCASOPENMOLCASOPENM
               OPENMOLCASOPENMOLCA        version: o91e1abe7de707b ?
                   OPENMOLCASO
                       OPE                tag:

 OpenMolcas is free software; you can redistribute it and/or modify it
 under the terms of the GNU Lesser General Public License version 2.1.
 OpenMolcas is distributed in the hope that it will be useful, but it
 is provided "as is" and without any express or implied warranties.
 For more details see the full text of the license in the file
 LICENSE or in <http://www.gnu.org/licenses/>.

                 Copyright (C) The OpenMolcas Authors
           For the author list and the recommended citation,
                   consult the file CONTRIBUTORS.md

           *************************************************
           * pymolcas version py2.10                       *
           *   build 3068ae8b88c9345ec6cfef6fef7f1169      *
           *   (after the EMIL interpreter by V. Veryazov) *
           *************************************************

configuration info
------------------
Host name: login1 (Linux)
C Compiler ID: GNU
C flags: -std=gnu99
Fortran Compiler ID: GNU
Fortran flags: -fno-aggressive-loop-optimizations -cpp -fdefault-integer-8 -fmax-stack-var-size=1048576
Definitions: _MOLCAS_;_I8_;_LINUX_;_MKL_
Parallel: OFF (GA=OFF)


   ----------------------------------------------------------------------------------------------------------------------------------------------
  |
  |           Project: molybdenum_so_cf
  |    Submitted from: /home4/s4752295/Internship/Initial_simulations/Point_charge_model/1_electron/active_space_9_non_rel/Mo/varying_bond_length
  |      Scratch area: /tmp/molybdenum_so_cf
  |   Save outputs to: /home4/s4752295/Internship/Initial_simulations/Point_charge_model/1_electron/active_space_9_non_rel/Mo/varying_bond_length
  |            Molcas: /home4/s4752295/Internship/Molcas/recomp_try/OpenMolcas-master/build
  |
  | Scratch area is empty
  |
  |    MOLCAS_DRIVER = /home4/s4752295/Internship/Molcas/bin/pymolcas
  |    MOLCAS_NPROCS = 1
  |    MOLCAS_SOURCE = /home4/s4752295/Internship/Molcas/recomp_try/OpenMolcas-master
  | MOLCAS_STRUCTURE = 0
  |
   ----------------------------------------------------------------------------------------------------------------------------------------------

++ ---------   Input file   ---------

&SEWARD
AMFi

CLIG
$R

Basis Set
Mo.ANO-rcc.Roos.21s18p13d6f4g2h.10s9p9d6f4g2h.
Spherical d
Mo            0.0       0.0     0.0
End of Basis

Xfield

4
0.000000,  0.0000,  1.890       -1.0
1.636788,  0.0000, -0.945       -1.0
-0.818394,  1.4175, -0.945      -1.0
-0.818394, -1.4175, -0.945      -1.0

End of input

&SCF
Occupied
18
Iterations
   50  100
End of Input

&RASSCF
LumOrb
Symmetry
1
Spin
2
Nactel
1 0 0
CIRoot
9 9 1
inactive
18
ras2
9
End of Input

>>> COPY molybdenum_so_cf.JobIph $SLURM_SUBMIT_DIR/molybdenum_so_cf.doublet.JobIph

>>> COPY $SLURM_SUBMIT_DIR/molybdenum_so_cf.doublet.JobIph ./JOB002

&RASSI
NROFJobIph
1 All
SpinOrbit
End of Input

EOF

-- ----------------------------------

--- Start Module: seward at Thu Jan  9 00:55:48 2025 ---

()()()()()()()()()()()()()()()()()()()()()()()()()()()()()()()()()()()()()()()()()()()()()()()()()()

                                              &SEWARD

                                   only a single process is used
                       available to each process: 4.1 GB of memory, 1 thread?
                                            pid: 1479618
()()()()()()()()()()()()()()()()()()()()()()()()()()()()()()()()()()()()()()()()()()()()()()()()()()

 The speed of LIGHT in this CALCULATION =   137.03599917700001     
               SEWARD will generate:
                  Multipole Moment integrals up to order  2
                  Kinetic Energy integrals
                  Nuclear Attraction integrals (point charge)
                  One-Electron Hamiltonian integrals
                  Velocity integrals
                  Relativistic Douglas-Kroll-Hess integrals:
                    - Parametrization         : EXP
                    - DKH order of Hamiltonian: 2
                    - DKH order of Properties : 0
                         - multipole moment operators
                         - electric potential operators
                         - contact operators
                  External field from     4 point(s) added to the one-electron Hamiltonian
                  Orbital angular momentum around ( 0.0000  0.0000  0.0000 )
                  Velocity quadrupole around ( 0.0000  0.0000  0.0000 )
                  Atomic mean-field integrals
                  Two-Electron Repulsion integrals

                   Integrals are discarded if absolute value <: 0.10E-13
                   Integral cutoff threshold is set to       <: 0.10E-15

++    Symmetry information:
      ---------------------

                    Character Table for C1 

                             E  
                    a        1  x, y, xy, Rz, z, xz, Ry, yz, Rx, I
--


++    Basis set information:
      ----------------------


      Basis set label: MO.ANO-RCC.ROOS.21S18P13D6F4G2H.10S9P9D6F4G2H......

      Electronic valence basis set:
      ------------------
      Associated Effective Charge  42.000000 au
      Associated Actual Charge     42.000000 au
      Nuclear Model: Point charge

      Shell  nPrim  nBasis  Cartesian Spherical Contaminant
         s      21      10        X                  
         p      18       9        X                  
         d      13       9                 X         
         f       6       6                 X         
         g       4       4                 X         
         h       2       2                 X         
--


++    Molecular structure info:
      -------------------------

                    ************************************************ 
                    **** Cartesian Coordinates / Bohr, Angstrom **** 
                    ************************************************ 

     Center  Label                x              y              z                     x              y              z
        1      MO               0.000000       0.000000       0.000000              0.000000       0.000000       0.000000
--


++    Operator info:
      --------------


  Net charge from external field:   -4.0000000000000000     
--


            Nuclear Potential Energy              0.00000000 au

                    Nuclear-External Field Potential Energy     -88.88888909 au
                    External Field Potential Energy               1.97463006 au 


            Total Nuclear Potential Energy            -88.88888909 au


      Basis set specifications :
      Symmetry species         a  
      Basis functions          182

 Sorry, Molden does not know how to handle
 functions with angular momentum larger than g
Note: The following floating-point exceptions are signalling: IEEE_UNDERFLOW_FLAG IEEE_DENORMAL
--- Stop Module: seward at Thu Jan  9 00:56:00 2025 /rc=_RC_ALL_IS_WELL_ ---
*** files: molybdenum_so_cf.GssOrb xmldump
    saved to directory /home4/s4752295/Internship/Initial_simulations/Point_charge_model/1_electron/active_space_9_non_rel/Mo/varying_bond_length
--- Module seward spent 12 seconds ---

*** symbolic link created: INPORB -> molybdenum_so_cf.GssOrb
--- Start Module: scf at Thu Jan  9 00:56:00 2025 ---

()()()()()()()()()()()()()()()()()()()()()()()()()()()()()()()()()()()()()()()()()()()()()()()()()()

                                                &SCF

                                   only a single process is used
                       available to each process: 4.1 GB of memory, 1 thread?
                                            pid: 1479621
()()()()()()()()()()()()()()()()()()()()()()()()()()()()()()()()()()()()()()()()()()()()()()()()()()

++    Input section:
      --------------

      Header of the integral files:
      
       Integrals generated by seward 4.2.0  , Thu Jan  9 00:55:48 2025


      Cartesian coordinates in Angstrom:
      -----------------------------------------------------
      No.  Label        X            Y            Z        
      -----------------------------------------------------
       1   MO         0.00000000   0.00000000   0.00000000
      -----------------------------------------------------
      Nuclear repulsion energy =  -88.88888909
--

++    Orbital specifications:
      -----------------------

      Symmetry species               1
                                     a
      Frozen orbitals                0
      Occupied orbitals             18
      Secondary orbitals           164
      Deleted orbitals               0
      Total number of orbitals     182
      Number of basis functions    182
--

      Molecular charge                           6.000

++    Optimization specifications:
      ----------------------------

      SCF Algorithm: Conventional
      Minimized density differences are used
      Number of density matrices in core                5
      Maximum number of NDDO SCF iterations            50
      Maximum number of HF SCF iterations             100
      Threshold for SCF energy change            0.10E-08
      Threshold for density matrix               0.10E-03
      Threshold for Fock matrix                  0.15E-03
      Threshold for linear dependence            0.10E-08
      Threshold at which DIIS is turned on       0.15E+00
      Threshold at which QNR/C2DIIS is turned on 0.75E-01
      Threshold for Norm(delta) (QNR/C2DIIS)     0.20E-04
      DIIS extrapolation of the SCF procedure
      All orbitals punched on: SCFORB
--

      Detected guessorb starting orbitals                                             


++ Convergence information
                                   SCF        iterations: Energy and convergence statistics

Iter     Tot. SCF        One-elec.       Two-elec.     Energy      Max Dij or  Max Fij      DNorm      TNorm      AccCon     Time
         Energy          Energy          Energy        Change      Delta Norm                                                in Sec.

 The total and one-electron energies are shifted by a value of      4000. a.u.

   1   -50.678648055 -1367.814208254  1406.024449289   0.00E+00    0.11E+00*   0.23E+00*    0.85E+01   0.55E+03   None         1.
   2   -50.968742758 -1383.335597850  1421.255744182  -0.29E+00*   0.32E-01*   0.45E-01*    0.80E+00   0.55E+03   EDIIS        1.
   3   -50.979971505 -1379.143396205  1417.052313790  -0.11E-01*   0.90E-02*   0.24E-01*    0.15E+00   0.55E+03   EDIIS        1.
   4   -50.981342234 -1380.862052146  1418.769599001  -0.14E-02*   0.35E-02*   0.79E-02*    0.32E-01   0.55E+03   c2DIIS       1.
   5   -50.981569587 -1380.297530864  1418.204850367  -0.23E-03*   0.13E-02*   0.12E-02*    0.33E-02   0.55E+03   QNRc2DIIS    1.
   6   -50.981581589 -1380.373181556  1418.280489057  -0.12E-04*   0.68E-03*   0.46E-03*    0.79E-03   0.55E+03   QNRc2DIIS    1.
   7   -50.981583193 -1380.346196344  1418.253502240  -0.16E-05*   0.40E-04*   0.53E-04     0.93E-04   0.55E+03   QNRc2DIIS    1.
   8   -50.981583203 -1380.348958325  1418.256264212  -0.10E-07*   0.21E-05    0.18E-05     0.11E-04   0.55E+03   QNRc2DIIS    1.
   9   -50.981583203 -1380.348945986  1418.256251873  -0.29E-10    0.44E-06    0.87E-06     0.61E-02   0.55E+03   QNRc2DIIS    1.

       Convergence after  9 Macro Iterations
--

 *****************************************************************************************************************************
 *                                                                                                                           *
 *                                             SCF/KS-DFT Program, Final results                                             *
 *                                                                                                                           *
 *                                                                                                                           *
 *                                                                                                                           *
 *                                                       Final Results                                                       *
 *                                                                                                                           *
 *****************************************************************************************************************************

::    Total SCF energy                              -4050.9815832031
      One-electron energy                           -5380.3489459862
      Two-electron energy                            1418.2562518728
      Nuclear repulsion energy                        -88.8888890898
      Kinetic energy (interpolated)                  4468.7647588150
      Virial theorem                                    0.9065103674
      Total spin, S(S+1)                                0.0000000000
      Total spin, S                                     0.0000000000
      Max non-diagonal density matrix element           0.0000004401
      Max non-diagonal Fock matrix element              0.0000002019


      All orbitals with orbital energies smaller than  E(LUMO)+0.5 are printed

++    Molecular orbitals:
      -------------------

      Title: SCF orbitals

      Molecular orbitals for symmetry species 1: a  

          Orbital            1         2         3         4         5         6         7         8         9        10    
          Energy         -739.8424 -108.2974  -96.7507  -96.7507  -96.7502  -20.5554  -16.6578  -16.6578  -16.6516  -10.2937
          Occ. No.          2.0000    2.0000    2.0000    2.0000    2.0000    2.0000    2.0000    2.0000    2.0000    2.0000

        1 MO     1s         1.0000   -0.0000   -0.0000    0.0000   -0.0000    0.0000    0.0000    0.0000    0.0000   -0.0000
        2 MO     2s         0.0000    1.0000   -0.0000    0.0000   -0.0001    0.0001    0.0000    0.0000   -0.0000   -0.0000
        3 MO     3s        -0.0000   -0.0001   -0.0000    0.0000    0.0000    1.0000    0.0000    0.0000   -0.0018   -0.0000
        4 MO     4s         0.0000    0.0000    0.0000   -0.0000   -0.0000   -0.0017   -0.0000   -0.0000    0.0005    0.0000
        5 MO     5s        -0.0000   -0.0000   -0.0000    0.0000    0.0000    0.0002    0.0000    0.0000   -0.0001    0.0000
        6 MO     6s         0.0000    0.0000    0.0000   -0.0000   -0.0000   -0.0002   -0.0000   -0.0000    0.0001   -0.0000
        7 MO     7s        -0.0000   -0.0000   -0.0000    0.0000    0.0000    0.0006    0.0000    0.0000   -0.0002   -0.0000
        8 MO     8s         0.0000    0.0000    0.0000   -0.0000   -0.0000   -0.0005   -0.0000   -0.0000    0.0001   -0.0000
        9 MO     9s        -0.0000   -0.0000   -0.0000    0.0000    0.0000    0.0004   -0.0000   -0.0000   -0.0000   -0.0000
       10 MO    10s         0.0000    0.0000    0.0000   -0.0000   -0.0000   -0.0003    0.0000    0.0000    0.0000   -0.0000
       11 MO     2px       -0.0000    0.0000    0.9922   -0.1250   -0.0000    0.0000    0.0001    0.0000   -0.0000   -0.0000
       12 MO     3px        0.0000   -0.0000   -0.0001    0.0000    0.0000   -0.0000    0.9997    0.0225   -0.0000    0.0003
       13 MO     4px       -0.0000    0.0000    0.0001   -0.0000   -0.0000   -0.0000   -0.0022   -0.0001    0.0000   -0.0005
       14 MO     5px        0.0000   -0.0000   -0.0000    0.0000    0.0000    0.0000    0.0004    0.0000   -0.0000    0.0000
       15 MO     6px       -0.0000    0.0000    0.0000   -0.0000   -0.0000   -0.0000   -0.0008   -0.0000    0.0000    0.0000
       16 MO     7px        0.0000   -0.0000   -0.0000    0.0000    0.0000    0.0000    0.0005    0.0000   -0.0000   -0.0001
       17 MO     8px       -0.0000    0.0000    0.0000   -0.0000   -0.0000   -0.0000   -0.0005   -0.0000    0.0000    0.0001
       18 MO     9px        0.0000   -0.0000   -0.0000    0.0000    0.0000    0.0000    0.0004    0.0000   -0.0000   -0.0000
       19 MO    10px       -0.0000   -0.0000    0.0000   -0.0000   -0.0000   -0.0000   -0.0002   -0.0000    0.0000    0.0000
       20 MO     2py        0.0000    0.0000    0.1250    0.9922   -0.0000    0.0000   -0.0000    0.0001   -0.0000   -0.0000
       21 MO     3py        0.0000   -0.0000   -0.0000   -0.0001    0.0000    0.0000   -0.0225    0.9997   -0.0000    0.0000
       22 MO     4py        0.0000    0.0000    0.0000    0.0001   -0.0000   -0.0000    0.0001   -0.0022   -0.0000   -0.0000
       23 MO     5py       -0.0000   -0.0000   -0.0000   -0.0000    0.0000    0.0000   -0.0000    0.0004    0.0000    0.0000
       24 MO     6py        0.0000    0.0000    0.0000    0.0000   -0.0000   -0.0000    0.0000   -0.0008    0.0000    0.0000
       25 MO     7py        0.0000   -0.0000   -0.0000   -0.0000    0.0000    0.0000   -0.0000    0.0005   -0.0000   -0.0000
       26 MO     8py       -0.0000    0.0000    0.0000    0.0000   -0.0000   -0.0000    0.0000   -0.0005   -0.0000    0.0000
       27 MO     9py        0.0000   -0.0000   -0.0000   -0.0000    0.0000    0.0000   -0.0000    0.0004    0.0000   -0.0000
       28 MO    10py       -0.0000    0.0000    0.0000    0.0000   -0.0000   -0.0000    0.0000   -0.0002    0.0000    0.0000
       29 MO     2pz        0.0000    0.0001    0.0000   -0.0000    1.0000   -0.0000    0.0000    0.0000    0.0001    0.0000
       30 MO     3pz       -0.0000    0.0000   -0.0000    0.0000   -0.0001    0.0018    0.0000    0.0000    1.0000    0.0000
       31 MO     4pz        0.0000   -0.0000    0.0000   -0.0000    0.0001    0.0003   -0.0000   -0.0000   -0.0028    0.0000
       32 MO     5pz       -0.0000    0.0000   -0.0000    0.0000   -0.0000   -0.0001    0.0000    0.0000    0.0005   -0.0000
       33 MO     6pz        0.0000   -0.0000    0.0000   -0.0000    0.0000    0.0001   -0.0000   -0.0000   -0.0010   -0.0000
       34 MO     7pz       -0.0000    0.0000   -0.0000    0.0000   -0.0000   -0.0001    0.0000    0.0000    0.0007    0.0000
       35 MO     8pz        0.0000   -0.0000    0.0000   -0.0000    0.0000    0.0001   -0.0000   -0.0000   -0.0006   -0.0000
       36 MO     9pz       -0.0000    0.0000   -0.0000    0.0000   -0.0000   -0.0000    0.0000    0.0000    0.0004    0.0000
       37 MO    10pz        0.0000   -0.0000    0.0000   -0.0000    0.0000    0.0000   -0.0000   -0.0000   -0.0002   -0.0000
       38 MO     3d2-       0.0000    0.0000   -0.0000   -0.0000   -0.0000   -0.0000   -0.0000    0.0005   -0.0000   -0.0027
       39 MO     4d2-       0.0000   -0.0000   -0.0000   -0.0000    0.0000    0.0000   -0.0000    0.0002   -0.0000    0.0000
       40 MO     5d2-      -0.0000    0.0000    0.0000    0.0000    0.0000   -0.0000    0.0000   -0.0001   -0.0000   -0.0000
       41 MO     6d2-      -0.0000   -0.0000   -0.0000   -0.0000   -0.0000    0.0000   -0.0000    0.0000    0.0000    0.0000
       42 MO     7d2-       0.0000    0.0000    0.0000    0.0000   -0.0000   -0.0000   -0.0000    0.0000    0.0000   -0.0000
       43 MO     8d2-      -0.0000   -0.0000    0.0000    0.0000    0.0000    0.0000    0.0000   -0.0001    0.0000    0.0000
       44 MO     9d2-      -0.0000    0.0000   -0.0000   -0.0000    0.0000   -0.0000   -0.0000    0.0000   -0.0000   -0.0000
       45 MO    10d2-       0.0000   -0.0000    0.0000    0.0000   -0.0000    0.0000    0.0000   -0.0000    0.0000    0.0000
       46 MO    11d2-      -0.0000    0.0000   -0.0000   -0.0000    0.0000    0.0000   -0.0000    0.0000    0.0000   -0.0000
       47 MO     3d1-       0.0000   -0.0000    0.0000    0.0000   -0.0000   -0.0000   -0.0000    0.0015   -0.0000    0.0004
       48 MO     4d1-       0.0000    0.0000   -0.0000   -0.0000    0.0000    0.0000   -0.0000    0.0003   -0.0000   -0.0000
       49 MO     5d1-      -0.0000   -0.0000    0.0000    0.0000   -0.0000   -0.0000    0.0000   -0.0002    0.0000    0.0000
       50 MO     6d1-      -0.0000    0.0000   -0.0000   -0.0000    0.0000    0.0000   -0.0000    0.0001   -0.0000   -0.0000
       51 MO     7d1-       0.0000   -0.0000    0.0000    0.0000    0.0000   -0.0000    0.0000   -0.0000   -0.0000    0.0000
       52 MO     8d1-      -0.0000    0.0000    0.0000    0.0000   -0.0000   -0.0000    0.0000   -0.0000   -0.0000   -0.0000
       53 MO     9d1-       0.0000   -0.0000   -0.0000   -0.0000    0.0000    0.0000   -0.0000    0.0000    0.0000    0.0000
       54 MO    10d1-      -0.0000    0.0000    0.0000    0.0000   -0.0000   -0.0000    0.0000   -0.0000    0.0000   -0.0000
       55 MO    11d1-       0.0000   -0.0000   -0.0000   -0.0000    0.0000    0.0000   -0.0000    0.0000    0.0000    0.0000
       56 MO     3d0       -0.0000   -0.0000    0.0000   -0.0000    0.0000   -0.0005    0.0000    0.0000    0.0004   -0.0000
       57 MO     4d0        0.0000    0.0000    0.0000   -0.0000    0.0000   -0.0001   -0.0000   -0.0000   -0.0001    0.0000
       58 MO     5d0       -0.0000   -0.0000   -0.0000    0.0000   -0.0000    0.0001   -0.0000   -0.0000    0.0000   -0.0000
       59 MO     6d0        0.0000    0.0000    0.0000   -0.0000    0.0000   -0.0001    0.0000    0.0000    0.0000    0.0000
       60 MO     7d0       -0.0000   -0.0000   -0.0000    0.0000    0.0000    0.0001   -0.0000   -0.0000   -0.0001   -0.0000
       61 MO     8d0        0.0000    0.0000    0.0000    0.0000   -0.0000   -0.0000    0.0000    0.0000    0.0001    0.0000
       62 MO     9d0       -0.0000   -0.0000    0.0000   -0.0000    0.0000    0.0000   -0.0000   -0.0000   -0.0001   -0.0000
       63 MO    10d0        0.0000    0.0000   -0.0000    0.0000   -0.0000   -0.0000    0.0000    0.0000    0.0001    0.0000
       64 MO    11d0       -0.0000   -0.0000    0.0000   -0.0000    0.0000    0.0000    0.0000    0.0000   -0.0000   -0.0000
       65 MO     3d1+       0.0000    0.0000    0.0000   -0.0000    0.0000    0.0000    0.0015    0.0000   -0.0000    0.1536
       66 MO     4d1+       0.0000   -0.0000   -0.0000    0.0000    0.0000    0.0000    0.0003    0.0000   -0.0000   -0.0000
       67 MO     5d1+       0.0000    0.0000    0.0000   -0.0000    0.0000   -0.0000   -0.0002   -0.0000    0.0000    0.0000
       68 MO     6d1+      -0.0000   -0.0000   -0.0000    0.0000   -0.0000    0.0000    0.0001    0.0000   -0.0000   -0.0000
       69 MO     7d1+       0.0000    0.0000    0.0000   -0.0000    0.0000   -0.0000   -0.0000   -0.0000    0.0000    0.0001
       70 MO     8d1+      -0.0000   -0.0000    0.0000   -0.0000   -0.0000    0.0000   -0.0000   -0.0000   -0.0000   -0.0001
       71 MO     9d1+       0.0000    0.0000   -0.0000    0.0000    0.0000   -0.0000    0.0000    0.0000   -0.0000    0.0001
       72 MO    10d1+      -0.0000   -0.0000    0.0000   -0.0000   -0.0000    0.0000   -0.0000   -0.0000    0.0000   -0.0001
       73 MO    11d1+       0.0000   -0.0000   -0.0000    0.0000    0.0000    0.0000    0.0000    0.0000   -0.0000    0.0000
       74 MO     3d2+       0.0000    0.0000    0.0000   -0.0000   -0.0000    0.0000   -0.0005   -0.0000    0.0000    0.9881
       75 MO     4d2+      -0.0000   -0.0000    0.0000   -0.0000   -0.0000    0.0000   -0.0002   -0.0000    0.0000   -0.0021
       76 MO     5d2+       0.0000    0.0000   -0.0000    0.0000    0.0000   -0.0000    0.0001    0.0000   -0.0000    0.0014
       77 MO     6d2+      -0.0000    0.0000    0.0000   -0.0000   -0.0000   -0.0000   -0.0000   -0.0000    0.0000   -0.0006
       78 MO     7d2+       0.0000    0.0000   -0.0000    0.0000   -0.0000   -0.0000   -0.0000   -0.0000    0.0000    0.0003
       79 MO     8d2+      -0.0000   -0.0000   -0.0000    0.0000    0.0000    0.0000    0.0001    0.0000   -0.0000   -0.0003
       80 MO     9d2+       0.0000    0.0000    0.0000   -0.0000   -0.0000   -0.0000   -0.0000   -0.0000    0.0000    0.0003
       81 MO    10d2+      -0.0000   -0.0000   -0.0000    0.0000    0.0000    0.0000    0.0000    0.0000   -0.0000   -0.0004
       82 MO    11d2+      -0.0000    0.0000    0.0000   -0.0000   -0.0000   -0.0000   -0.0000   -0.0000    0.0000    0.0000
       83 MO     4f3-      -0.0000    0.0000    0.0000    0.0000    0.0000    0.0000   -0.0000    0.0000   -0.0000    0.0000
       84 MO     5f3-      -0.0000    0.0000    0.0000    0.0000    0.0000    0.0000   -0.0000    0.0000    0.0000    0.0000
       85 MO     6f3-       0.0000   -0.0000   -0.0000   -0.0000   -0.0000   -0.0000    0.0000   -0.0000    0.0000   -0.0000
       86 MO     7f3-      -0.0000    0.0000    0.0000    0.0000    0.0000    0.0000   -0.0000    0.0000   -0.0000    0.0000
       87 MO     8f3-       0.0000   -0.0000    0.0000    0.0000   -0.0000    0.0000   -0.0000    0.0000    0.0000    0.0000
       88 MO     9f3-      -0.0000    0.0000   -0.0000   -0.0000   -0.0000   -0.0000    0.0000   -0.0000   -0.0000   -0.0000
       89 MO     4f2-      -0.0000   -0.0000   -0.0000   -0.0000    0.0000   -0.0000    0.0000   -0.0001    0.0000   -0.0000
       90 MO     5f2-       0.0000   -0.0000   -0.0000   -0.0000    0.0000   -0.0000    0.0000   -0.0001    0.0000   -0.0000
       91 MO     6f2-      -0.0000    0.0000    0.0000    0.0000   -0.0000    0.0000   -0.0000    0.0000   -0.0000    0.0000
       92 MO     7f2-       0.0000   -0.0000   -0.0000   -0.0000    0.0000   -0.0000    0.0000   -0.0000    0.0000   -0.0000
       93 MO     8f2-      -0.0000   -0.0000    0.0000    0.0000   -0.0000   -0.0000    0.0000   -0.0000    0.0000   -0.0000
       94 MO     9f2-       0.0000    0.0000   -0.0000   -0.0000    0.0000    0.0000   -0.0000    0.0000   -0.0000    0.0000
       95 MO     4f1-      -0.0000    0.0000   -0.0000   -0.0000    0.0000    0.0000    0.0000   -0.0002    0.0000    0.0000
       96 MO     5f1-       0.0000    0.0000   -0.0000   -0.0000    0.0000    0.0000    0.0000   -0.0001    0.0000    0.0000
       97 MO     6f1-      -0.0000   -0.0000    0.0000    0.0000   -0.0000   -0.0000   -0.0000    0.0001   -0.0000   -0.0000
       98 MO     7f1-       0.0000    0.0000   -0.0000   -0.0000    0.0000    0.0000    0.0000   -0.0001   -0.0000    0.0000
       99 MO     8f1-       0.0000   -0.0000   -0.0000   -0.0000    0.0000    0.0000    0.0000   -0.0000    0.0000    0.0000
      100 MO     9f1-       0.0000    0.0000    0.0000    0.0000   -0.0000   -0.0000   -0.0000    0.0001   -0.0000   -0.0000
      101 MO     4f0       -0.0000    0.0000   -0.0000    0.0000   -0.0000   -0.0003   -0.0000   -0.0000   -0.0002    0.0000
      102 MO     5f0       -0.0000    0.0000   -0.0000    0.0000   -0.0000   -0.0002   -0.0000   -0.0000   -0.0002   -0.0000
      103 MO     6f0        0.0000   -0.0000    0.0000   -0.0000    0.0000    0.0001    0.0000    0.0000    0.0001    0.0000
      104 MO     7f0       -0.0000    0.0000   -0.0000    0.0000   -0.0000   -0.0000   -0.0000   -0.0000   -0.0001   -0.0000
      105 MO     8f0        0.0000   -0.0000   -0.0000    0.0000   -0.0000    0.0000   -0.0000   -0.0000   -0.0000   -0.0000
      106 MO     9f0       -0.0000    0.0000    0.0000   -0.0000    0.0000   -0.0000    0.0000    0.0000    0.0001    0.0000
      107 MO     4f1+      -0.0000    0.0000   -0.0000    0.0000   -0.0000   -0.0000   -0.0002   -0.0000    0.0000    0.0002
      108 MO     5f1+      -0.0000    0.0000   -0.0000    0.0000    0.0000   -0.0000   -0.0001   -0.0000    0.0000    0.0001
      109 MO     6f1+       0.0000   -0.0000    0.0000   -0.0000   -0.0000    0.0000    0.0001    0.0000   -0.0000   -0.0000
      110 MO     7f1+      -0.0000    0.0000   -0.0000    0.0000    0.0000   -0.0000   -0.0001   -0.0000    0.0000    0.0000
      111 MO     8f1+       0.0000   -0.0000   -0.0000    0.0000    0.0000    0.0000   -0.0000   -0.0000    0.0000    0.0000
      112 MO     9f1+      -0.0000    0.0000    0.0000   -0.0000   -0.0000   -0.0000    0.0001    0.0000   -0.0000   -0.0000
      113 MO     4f2+       0.0000    0.0000    0.0000   -0.0000   -0.0000    0.0000    0.0001    0.0000   -0.0000    0.0009
      114 MO     5f2+       0.0000   -0.0000    0.0000   -0.0000   -0.0000    0.0000    0.0001    0.0000   -0.0000    0.0006
      115 MO     6f2+      -0.0000    0.0000   -0.0000    0.0000   -0.0000   -0.0000   -0.0000   -0.0000    0.0000   -0.0002
      116 MO     7f2+      -0.0000    0.0000    0.0000   -0.0000    0.0000    0.0000    0.0000    0.0000   -0.0000    0.0001
      117 MO     8f2+      -0.0000    0.0000   -0.0000    0.0000    0.0000    0.0000    0.0000    0.0000    0.0000    0.0000
      118 MO     9f2+       0.0000   -0.0000    0.0000   -0.0000   -0.0000   -0.0000   -0.0000   -0.0000   -0.0000   -0.0002
      119 MO     4f3+      -0.0000    0.0000   -0.0000    0.0000    0.0000   -0.0002    0.0000    0.0000    0.0001   -0.0000
      120 MO     5f3+      -0.0000    0.0000   -0.0000    0.0000    0.0000   -0.0001    0.0000    0.0000    0.0001   -0.0000
      121 MO     6f3+       0.0000   -0.0000   -0.0000    0.0000   -0.0000    0.0000   -0.0000   -0.0000   -0.0000    0.0000
      122 MO     7f3+      -0.0000    0.0000    0.0000   -0.0000    0.0000   -0.0000    0.0000    0.0000    0.0000   -0.0000
      123 MO     8f3+       0.0000   -0.0000    0.0000   -0.0000   -0.0000    0.0000    0.0000    0.0000    0.0000   -0.0000
      124 MO     9f3+      -0.0000    0.0000   -0.0000    0.0000    0.0000   -0.0000   -0.0000   -0.0000   -0.0000    0.0000
      125 MO     5g4-      -0.0000    0.0000    0.0000    0.0000   -0.0000    0.0000    0.0000   -0.0002    0.0000   -0.0000
      126 MO     6g4-       0.0000   -0.0000   -0.0000   -0.0000    0.0000   -0.0000   -0.0000    0.0001   -0.0000    0.0000
      127 MO     7g4-      -0.0000    0.0000    0.0000    0.0000   -0.0000    0.0000    0.0000   -0.0000    0.0000    0.0000
      128 MO     8g4-       0.0000   -0.0000   -0.0000   -0.0000    0.0000   -0.0000   -0.0000    0.0000   -0.0000   -0.0000
      129 MO     5g3-       0.0000    0.0000   -0.0000   -0.0000    0.0000    0.0000    0.0000   -0.0000    0.0000   -0.0000
      130 MO     6g3-      -0.0000   -0.0000    0.0000    0.0000   -0.0000   -0.0000   -0.0000    0.0000   -0.0000    0.0000
      131 MO     7g3-       0.0000    0.0000   -0.0000   -0.0000    0.0000    0.0000   -0.0000    0.0000    0.0000   -0.0000
      132 MO     8g3-      -0.0000   -0.0000    0.0000    0.0000    0.0000   -0.0000    0.0000   -0.0000   -0.0000    0.0000
      133 MO     5g2-      -0.0000   -0.0000    0.0000    0.0000   -0.0000   -0.0000   -0.0000    0.0000   -0.0000    0.0000
      134 MO     6g2-       0.0000    0.0000   -0.0000   -0.0000    0.0000    0.0000    0.0000   -0.0000    0.0000   -0.0000
      135 MO     7g2-      -0.0000   -0.0000    0.0000    0.0000   -0.0000   -0.0000    0.0000   -0.0000   -0.0000    0.0000
      136 MO     8g2-       0.0000    0.0000   -0.0000   -0.0000    0.0000    0.0000   -0.0000    0.0000    0.0000   -0.0000
      137 MO     5g1-      -0.0000   -0.0000    0.0000    0.0000   -0.0000    0.0000    0.0000   -0.0002    0.0000   -0.0000
      138 MO     6g1-      -0.0000    0.0000   -0.0000   -0.0000    0.0000   -0.0000   -0.0000    0.0001   -0.0000    0.0000
      139 MO     7g1-       0.0000   -0.0000    0.0000    0.0000   -0.0000    0.0000    0.0000   -0.0000    0.0000   -0.0000
      140 MO     8g1-      -0.0000    0.0000   -0.0000   -0.0000    0.0000    0.0000   -0.0000    0.0000   -0.0000    0.0000
      141 MO     5g0       -0.0000    0.0000    0.0000    0.0000    0.0000   -0.0000   -0.0000   -0.0000   -0.0003    0.0000
      142 MO     6g0        0.0000   -0.0000   -0.0000    0.0000   -0.0000    0.0000    0.0000    0.0000    0.0002   -0.0000
      143 MO     7g0       -0.0000    0.0000    0.0000   -0.0000    0.0000   -0.0000   -0.0000   -0.0000   -0.0001    0.0000
      144 MO     8g0        0.0000   -0.0000    0.0000    0.0000   -0.0000    0.0000    0.0000    0.0000    0.0000    0.0000
      145 MO     5g1+      -0.0000    0.0000    0.0000   -0.0000    0.0000   -0.0000   -0.0002   -0.0000    0.0000   -0.0002
      146 MO     6g1+       0.0000   -0.0000   -0.0000    0.0000   -0.0000    0.0000    0.0001    0.0000   -0.0000    0.0001
      147 MO     7g1+      -0.0000   -0.0000    0.0000   -0.0000    0.0000   -0.0000   -0.0000   -0.0000    0.0000   -0.0000
      148 MO     8g1+       0.0000    0.0000   -0.0000    0.0000   -0.0000    0.0000    0.0000    0.0000   -0.0000    0.0000
      149 MO     5g2+      -0.0000    0.0000   -0.0000    0.0000    0.0000   -0.0000   -0.0000   -0.0000    0.0000   -0.0002
      150 MO     6g2+       0.0000   -0.0000    0.0000   -0.0000   -0.0000    0.0000    0.0000    0.0000   -0.0000    0.0001
      151 MO     7g2+      -0.0000    0.0000   -0.0000    0.0000    0.0000   -0.0000    0.0000    0.0000    0.0000   -0.0001
      152 MO     8g2+       0.0000   -0.0000    0.0000   -0.0000   -0.0000    0.0000   -0.0000   -0.0000   -0.0000    0.0001
      153 MO     5g3+       0.0000   -0.0000    0.0000   -0.0000    0.0000    0.0001   -0.0000   -0.0000   -0.0002    0.0000
      154 MO     6g3+      -0.0000    0.0000   -0.0000    0.0000   -0.0000   -0.0001    0.0000    0.0000    0.0001   -0.0000
      155 MO     7g3+       0.0000   -0.0000    0.0000   -0.0000    0.0000    0.0000    0.0000    0.0000   -0.0000    0.0000
      156 MO     8g3+      -0.0000    0.0000   -0.0000    0.0000   -0.0000   -0.0000   -0.0000   -0.0000    0.0000   -0.0000
      157 MO     5g4+      -0.0000    0.0000    0.0000   -0.0000   -0.0000   -0.0000   -0.0002   -0.0000    0.0000   -0.0000
      158 MO     6g4+       0.0000   -0.0000   -0.0000    0.0000   -0.0000    0.0000    0.0001    0.0000   -0.0000    0.0000
      159 MO     7g4+      -0.0000    0.0000    0.0000   -0.0000    0.0000   -0.0000   -0.0000   -0.0000    0.0000    0.0000
      160 MO     8g4+       0.0000   -0.0000   -0.0000    0.0000   -0.0000    0.0000    0.0000    0.0000   -0.0000   -0.0000
      161 MO     6h5-      -0.0000   -0.0000    0.0000    0.0000   -0.0000   -0.0000   -0.0000    0.0000   -0.0000    0.0000
      162 MO     7h5-       0.0000    0.0000   -0.0000   -0.0000    0.0000    0.0000    0.0000   -0.0000   -0.0000   -0.0000
      163 MO     6h4-       0.0000   -0.0000   -0.0000   -0.0000    0.0000    0.0000   -0.0000    0.0001   -0.0000    0.0000
      164 MO     7h4-       0.0000   -0.0000    0.0000    0.0000   -0.0000    0.0000    0.0000   -0.0001    0.0000    0.0000
      165 MO     6h3-      -0.0000   -0.0000    0.0000    0.0000   -0.0000   -0.0000    0.0000   -0.0000    0.0000    0.0000
      166 MO     7h3-       0.0000    0.0000    0.0000   -0.0000    0.0000    0.0000   -0.0000    0.0000    0.0000   -0.0000
      167 MO     6h2-       0.0000   -0.0000   -0.0000   -0.0000    0.0000    0.0000   -0.0000    0.0000   -0.0000    0.0000
      168 MO     7h2-       0.0000   -0.0000    0.0000    0.0000   -0.0000   -0.0000    0.0000   -0.0000    0.0000   -0.0000
      169 MO     6h1-      -0.0000   -0.0000    0.0000    0.0000   -0.0000   -0.0000   -0.0000    0.0000   -0.0000   -0.0000
      170 MO     7h1-       0.0000    0.0000   -0.0000   -0.0000    0.0000    0.0000    0.0000   -0.0000   -0.0000    0.0000
      171 MO     6h0       -0.0000    0.0000   -0.0000    0.0000   -0.0000   -0.0000   -0.0000   -0.0000   -0.0000    0.0000
      172 MO     7h0        0.0000    0.0000    0.0000   -0.0000    0.0000    0.0000    0.0000    0.0000    0.0000   -0.0000
      173 MO     6h1+       0.0000   -0.0000    0.0000   -0.0000   -0.0000    0.0000    0.0000    0.0000   -0.0000   -0.0000
      174 MO     7h1+      -0.0000    0.0000   -0.0000    0.0000    0.0000   -0.0000   -0.0000   -0.0000    0.0000    0.0000
      175 MO     6h2+       0.0000   -0.0000    0.0000   -0.0000    0.0000    0.0000   -0.0000   -0.0000    0.0000   -0.0002
      176 MO     7h2+      -0.0000   -0.0000   -0.0000    0.0000   -0.0000   -0.0000    0.0000    0.0000   -0.0000    0.0001
      177 MO     6h3+      -0.0000    0.0000   -0.0000    0.0000   -0.0000   -0.0000    0.0000    0.0000    0.0001   -0.0000
      178 MO     7h3+       0.0000    0.0000    0.0000   -0.0000    0.0000    0.0000   -0.0000   -0.0000   -0.0000    0.0000
      179 MO     6h4+       0.0000   -0.0000   -0.0000    0.0000    0.0000    0.0000    0.0001    0.0000   -0.0000    0.0000
      180 MO     7h4+      -0.0000    0.0000    0.0000   -0.0000   -0.0000   -0.0000   -0.0001   -0.0000    0.0000    0.0000
      181 MO     6h5+       0.0000   -0.0000   -0.0000    0.0000   -0.0000    0.0000   -0.0000   -0.0000    0.0000   -0.0003
      182 MO     7h5+      -0.0000   -0.0000    0.0000   -0.0000   -0.0000   -0.0000    0.0000    0.0000   -0.0000    0.0001

          Orbital           11        12        13        14        15        16        17        18        19        20    
          Energy          -10.2937  -10.2888  -10.2888  -10.2871   -3.8103   -2.6070   -2.6070   -2.5277   -0.5841   -0.5841
          Occ. No.          2.0000    2.0000    2.0000    2.0000    2.0000    2.0000    2.0000    2.0000    0.0000    0.0000

        1 MO     1s         0.0000   -0.0000    0.0000    0.0000    0.0000   -0.0000   -0.0000   -0.0000    0.0000   -0.0000
        2 MO     2s        -0.0000   -0.0000    0.0000    0.0000    0.0000   -0.0000   -0.0000    0.0000    0.0000   -0.0000
        3 MO     3s        -0.0000   -0.0000   -0.0000    0.0005   -0.0017    0.0000    0.0000   -0.0004   -0.0000    0.0000
        4 MO     4s         0.0000    0.0000    0.0000   -0.0009   -0.9965    0.0000   -0.0000   -0.0448   -0.0000   -0.0000
        5 MO     5s        -0.0000   -0.0000   -0.0000    0.0001    0.0295    0.0000   -0.0000    0.0094    0.0000    0.0000
        6 MO     6s        -0.0000    0.0000    0.0000   -0.0001   -0.0270   -0.0000   -0.0000   -0.0087   -0.0000   -0.0000
        7 MO     7s        -0.0000   -0.0000   -0.0000    0.0001    0.0377    0.0000    0.0000    0.0125    0.0000    0.0000
        8 MO     8s        -0.0000   -0.0000   -0.0000    0.0000   -0.0001    0.0000    0.0000   -0.0001    0.0000    0.0000
        9 MO     9s        -0.0000    0.0000    0.0000   -0.0000   -0.0047   -0.0000    0.0000   -0.0017    0.0000    0.0000
       10 MO    10s         0.0000    0.0000   -0.0000    0.0000   -0.0006   -0.0000    0.0000   -0.0002    0.0000    0.0000
       11 MO     2px       -0.0000   -0.0000   -0.0000    0.0000    0.0000   -0.0001    0.0000    0.0000   -0.0000   -0.0000
       12 MO     3px        0.0000   -0.0000   -0.0016    0.0000   -0.0000    0.0022   -0.0000   -0.0000    0.0000    0.0000
       13 MO     4px       -0.0000    0.0000    0.0013   -0.0000    0.0000    0.9925   -0.0004   -0.0000    0.0037    0.0000
       14 MO     5px        0.0000   -0.0000   -0.0001    0.0000   -0.0000   -0.0514    0.0000    0.0000   -0.0007   -0.0000
       15 MO     6px        0.0000    0.0000    0.0001    0.0000    0.0000    0.0554   -0.0000   -0.0000    0.0046    0.0000
       16 MO     7px       -0.0000    0.0000    0.0001   -0.0000    0.0000   -0.0057    0.0000    0.0000   -0.0009   -0.0000
       17 MO     8px        0.0000   -0.0000   -0.0002    0.0000   -0.0000   -0.0051    0.0000    0.0000   -0.0012   -0.0000
       18 MO     9px       -0.0000    0.0000    0.0001   -0.0000   -0.0000   -0.0000    0.0000   -0.0000   -0.0001   -0.0000
       19 MO    10px        0.0000   -0.0000   -0.0000    0.0000   -0.0000    0.0003   -0.0000   -0.0000    0.0001    0.0000
       20 MO     2py        0.0000   -0.0000    0.0000    0.0000   -0.0000   -0.0000   -0.0001    0.0000   -0.0000    0.0000
       21 MO     3py       -0.0003   -0.0016    0.0000   -0.0000    0.0000    0.0000    0.0022    0.0000    0.0000   -0.0000
       22 MO     4py        0.0005    0.0013   -0.0000    0.0000    0.0000    0.0004    0.9925   -0.0000    0.0000   -0.0037
       23 MO     5py       -0.0000   -0.0001    0.0000   -0.0000   -0.0000   -0.0000   -0.0514    0.0000   -0.0000    0.0007
       24 MO     6py       -0.0000    0.0001   -0.0000    0.0000    0.0000    0.0000    0.0554    0.0000    0.0000   -0.0046
       25 MO     7py        0.0001    0.0001   -0.0000    0.0000   -0.0000   -0.0000   -0.0057    0.0000   -0.0000    0.0009
       26 MO     8py       -0.0001   -0.0002    0.0000   -0.0000    0.0000   -0.0000   -0.0051    0.0000   -0.0000    0.0012
       27 MO     9py        0.0000    0.0001   -0.0000    0.0000   -0.0000   -0.0000   -0.0000   -0.0000   -0.0000    0.0001
       28 MO    10py       -0.0000   -0.0000    0.0000   -0.0000    0.0000    0.0000    0.0003   -0.0000    0.0000   -0.0001
       29 MO     2pz        0.0000    0.0000   -0.0000   -0.0000   -0.0000   -0.0000    0.0000   -0.0001   -0.0000   -0.0000
       30 MO     3pz        0.0000    0.0000    0.0000   -0.0004    0.0004    0.0000    0.0000    0.0028    0.0000    0.0000
       31 MO     4pz       -0.0000   -0.0000   -0.0000   -0.0005   -0.0451    0.0000   -0.0000    0.9927    0.0000   -0.0000
       32 MO     5pz        0.0000    0.0000    0.0000   -0.0000    0.0012   -0.0000    0.0000   -0.0576    0.0000   -0.0000
       33 MO     6pz       -0.0000   -0.0000    0.0000    0.0002    0.0008    0.0000   -0.0000    0.0670   -0.0000   -0.0000
       34 MO     7pz       -0.0000    0.0000   -0.0000   -0.0002   -0.0019   -0.0000    0.0000   -0.0105   -0.0000   -0.0000
       35 MO     8pz       -0.0000   -0.0000    0.0000    0.0002    0.0008   -0.0000    0.0000   -0.0054   -0.0000   -0.0000
       36 MO     9pz        0.0000    0.0000   -0.0000   -0.0001    0.0005   -0.0000   -0.0000    0.0012   -0.0000   -0.0000
       37 MO    10pz        0.0000   -0.0000    0.0000    0.0000    0.0001    0.0000   -0.0000    0.0006   -0.0000    0.0000
       38 MO     3d2-       0.9881    0.1536   -0.0001    0.0000    0.0000   -0.0000   -0.0005   -0.0000   -0.0000    0.0017
       39 MO     4d2-      -0.0021   -0.0007    0.0000   -0.0000    0.0000    0.0000    0.0458   -0.0000   -0.0000    0.8654
       40 MO     5d2-       0.0014    0.0005   -0.0000    0.0000   -0.0000   -0.0000   -0.0154   -0.0000    0.0000   -0.0638
       41 MO     6d2-      -0.0006   -0.0002    0.0000   -0.0000    0.0000   -0.0000   -0.0035   -0.0000    0.0000   -0.0062
       42 MO     7d2-       0.0003    0.0001   -0.0000    0.0000    0.0000    0.0000    0.0046   -0.0000    0.0000   -0.0091
       43 MO     8d2-      -0.0003   -0.0000    0.0000   -0.0000   -0.0000   -0.0000   -0.0012    0.0000   -0.0000    0.0016
       44 MO     9d2-       0.0003    0.0000   -0.0000    0.0000   -0.0000   -0.0000   -0.0012    0.0000   -0.0000    0.0035
       45 MO    10d2-      -0.0004   -0.0001    0.0000   -0.0000   -0.0000   -0.0000   -0.0001    0.0000   -0.0000    0.0021
       46 MO    11d2-       0.0000    0.0000   -0.0000   -0.0000    0.0000    0.0000    0.0001    0.0000   -0.0000    0.0001
       47 MO     3d1-      -0.1536    0.9881   -0.0008    0.0000    0.0000   -0.0000   -0.0009   -0.0000    0.0000   -0.0010
       48 MO     4d1-       0.0000   -0.0026    0.0000   -0.0000    0.0000    0.0000    0.0708   -0.0000    0.0000   -0.4872
       49 MO     5d1-      -0.0000    0.0018   -0.0000    0.0000   -0.0000   -0.0000   -0.0242    0.0000   -0.0000    0.0394
       50 MO     6d1-       0.0000   -0.0008    0.0000   -0.0000    0.0000   -0.0000   -0.0045   -0.0000   -0.0000    0.0053
       51 MO     7d1-      -0.0001    0.0004   -0.0000    0.0000   -0.0000    0.0000    0.0065    0.0000   -0.0000    0.0036
       52 MO     8d1-       0.0001   -0.0003    0.0000   -0.0000    0.0000   -0.0000   -0.0018   -0.0000    0.0000   -0.0011
       53 MO     9d1-      -0.0001    0.0003   -0.0000    0.0000   -0.0000   -0.0000   -0.0016    0.0000    0.0000   -0.0011
       54 MO    10d1-       0.0001   -0.0004    0.0000   -0.0000    0.0000   -0.0000   -0.0001   -0.0000    0.0000   -0.0008
       55 MO    11d1-      -0.0000    0.0000   -0.0000    0.0000   -0.0000    0.0000    0.0002   -0.0000    0.0000   -0.0001
       56 MO     3d0       -0.0000   -0.0000    0.0000    1.0000   -0.0009   -0.0000    0.0000    0.0002   -0.0000    0.0000
       57 MO     4d0        0.0000    0.0000   -0.0000   -0.0028    0.0182   -0.0000    0.0000   -0.0458   -0.0000    0.0000
       58 MO     5d0       -0.0000   -0.0000    0.0000    0.0019   -0.0074    0.0000   -0.0000    0.0145   -0.0000   -0.0000
       59 MO     6d0        0.0000    0.0000   -0.0000   -0.0009   -0.0008    0.0000   -0.0000    0.0047    0.0000   -0.0000
       60 MO     7d0       -0.0000   -0.0000    0.0000    0.0004    0.0022   -0.0000    0.0000   -0.0053    0.0000    0.0000
       61 MO     8d0        0.0000    0.0000   -0.0000   -0.0004   -0.0011    0.0000    0.0000    0.0012   -0.0000    0.0000
       62 MO     9d0        0.0000   -0.0000    0.0000    0.0003   -0.0002    0.0000   -0.0000    0.0016   -0.0000    0.0000
       63 MO    10d0        0.0000    0.0000   -0.0000   -0.0004    0.0002    0.0000   -0.0000    0.0001   -0.0000    0.0000
       64 MO    11d0        0.0000   -0.0000    0.0000    0.0000    0.0001   -0.0000   -0.0000   -0.0002    0.0000    0.0000
       65 MO     3d1+       0.0004    0.0008    0.9881   -0.0000    0.0000   -0.0009    0.0000    0.0000    0.0010    0.0000
       66 MO     4d1+      -0.0000   -0.0000   -0.0026    0.0000   -0.0000    0.0708   -0.0000   -0.0000    0.4872    0.0000
       67 MO     5d1+       0.0000    0.0000    0.0018   -0.0000    0.0000   -0.0242    0.0000    0.0000   -0.0394   -0.0000
       68 MO     6d1+      -0.0000   -0.0000   -0.0008    0.0000   -0.0000   -0.0045    0.0000    0.0000   -0.0053   -0.0000
       69 MO     7d1+       0.0000    0.0000    0.0004   -0.0000   -0.0000    0.0065   -0.0000   -0.0000   -0.0036   -0.0000
       70 MO     8d1+      -0.0000   -0.0000   -0.0003    0.0000    0.0000   -0.0018    0.0000    0.0000    0.0011    0.0000
       71 MO     9d1+       0.0000    0.0000    0.0003   -0.0000   -0.0000   -0.0016    0.0000    0.0000    0.0011    0.0000
       72 MO    10d1+      -0.0000   -0.0000   -0.0004    0.0000   -0.0000   -0.0001    0.0000   -0.0000    0.0008    0.0000
       73 MO    11d1+       0.0000    0.0000    0.0000   -0.0000   -0.0000    0.0002   -0.0000   -0.0000    0.0001    0.0000
       74 MO     3d2+       0.0027   -0.0001   -0.1536    0.0000    0.0000    0.0005   -0.0000   -0.0000    0.0017    0.0000
       75 MO     4d2+      -0.0000    0.0000    0.0007   -0.0000   -0.0000   -0.0458    0.0000    0.0000    0.8654    0.0000
       76 MO     5d2+       0.0000   -0.0000   -0.0005    0.0000    0.0000    0.0154   -0.0000   -0.0000   -0.0638   -0.0000
       77 MO     6d2+      -0.0000    0.0000    0.0002   -0.0000    0.0000    0.0035   -0.0000   -0.0000   -0.0062   -0.0000
       78 MO     7d2+       0.0000   -0.0000   -0.0001    0.0000   -0.0000   -0.0046    0.0000    0.0000   -0.0091   -0.0000
       79 MO     8d2+      -0.0000    0.0000    0.0000   -0.0000   -0.0000    0.0012   -0.0000   -0.0000    0.0016    0.0000
       80 MO     9d2+       0.0000   -0.0000   -0.0000    0.0000    0.0000    0.0012   -0.0000   -0.0000    0.0035    0.0000
       81 MO    10d2+      -0.0000    0.0000    0.0001   -0.0000    0.0000    0.0001   -0.0000    0.0000    0.0021    0.0000
       82 MO    11d2+       0.0000   -0.0000   -0.0000    0.0000    0.0000   -0.0001    0.0000    0.0000    0.0001    0.0000
       83 MO     4f3-      -0.0000   -0.0000    0.0000   -0.0000    0.0000    0.0000    0.0000    0.0000   -0.0000   -0.0000
       84 MO     5f3-      -0.0000   -0.0000    0.0000   -0.0000    0.0000   -0.0000   -0.0000   -0.0000    0.0000   -0.0000
       85 MO     6f3-       0.0000    0.0000   -0.0000    0.0000    0.0000    0.0000    0.0000   -0.0000    0.0000   -0.0000
       86 MO     7f3-      -0.0000   -0.0000    0.0000   -0.0000   -0.0000   -0.0000   -0.0000   -0.0000   -0.0000    0.0000
       87 MO     8f3-      -0.0000   -0.0000   -0.0000   -0.0000   -0.0000    0.0000    0.0000    0.0000    0.0000   -0.0000
       88 MO     9f3-       0.0000    0.0000   -0.0000    0.0000    0.0000    0.0000   -0.0000   -0.0000    0.0000    0.0000
       89 MO     4f2-       0.0009    0.0006   -0.0000    0.0000   -0.0000   -0.0000   -0.0162    0.0000   -0.0000    0.0733
       90 MO     5f2-       0.0006    0.0003   -0.0000    0.0000   -0.0000   -0.0000   -0.0008    0.0000    0.0000   -0.0252
       91 MO     6f2-      -0.0002   -0.0001    0.0000   -0.0000   -0.0000   -0.0000   -0.0039    0.0000    0.0000   -0.0011
       92 MO     7f2-       0.0001   -0.0000    0.0000   -0.0000    0.0000    0.0000    0.0007   -0.0000   -0.0000    0.0013
       93 MO     8f2-       0.0000   -0.0000    0.0000   -0.0000   -0.0000   -0.0000   -0.0007    0.0000   -0.0000    0.0006
       94 MO     9f2-      -0.0002   -0.0000    0.0000   -0.0000    0.0000    0.0000    0.0001    0.0000    0.0000   -0.0003
       95 MO     4f1-      -0.0002    0.0003   -0.0000    0.0000    0.0000   -0.0000   -0.0117    0.0000    0.0000   -0.0267
       96 MO     5f1-      -0.0001    0.0003   -0.0000    0.0000   -0.0000   -0.0000   -0.0013    0.0000   -0.0000    0.0098
       97 MO     6f1-       0.0000   -0.0002    0.0000   -0.0000    0.0000   -0.0000   -0.0019    0.0000   -0.0000    0.0016
       98 MO     7f1-      -0.0000    0.0001   -0.0000    0.0000   -0.0000    0.0000    0.0003   -0.0000    0.0000   -0.0002
       99 MO     8f1-      -0.0000    0.0001   -0.0000    0.0000   -0.0000   -0.0000   -0.0004   -0.0000   -0.0000    0.0001
      100 MO     9f1-       0.0000   -0.0002    0.0000   -0.0000    0.0000    0.0000    0.0002    0.0000   -0.0000    0.0002
      101 MO     4f0        0.0000    0.0000    0.0000   -0.0001    0.0306   -0.0000    0.0000   -0.0165    0.0000   -0.0000
      102 MO     5f0       -0.0000    0.0000    0.0000    0.0001    0.0052   -0.0000    0.0000   -0.0013    0.0000    0.0000
      103 MO     6f0        0.0000   -0.0000   -0.0000   -0.0002    0.0060   -0.0000    0.0000   -0.0028    0.0000    0.0000
      104 MO     7f0        0.0000   -0.0000    0.0000    0.0002   -0.0024    0.0000   -0.0000    0.0003    0.0000   -0.0000
      105 MO     8f0        0.0000   -0.0000    0.0000    0.0001    0.0005   -0.0000   -0.0000   -0.0006    0.0000    0.0000
      106 MO     9f0        0.0000    0.0000   -0.0000   -0.0002   -0.0003    0.0000   -0.0000    0.0002   -0.0000    0.0000
      107 MO     4f1+       0.0000    0.0000    0.0003   -0.0000    0.0000   -0.0117    0.0000    0.0000    0.0267    0.0000
      108 MO     5f1+       0.0000    0.0000    0.0003   -0.0000    0.0000   -0.0013    0.0000    0.0000   -0.0098   -0.0000
      109 MO     6f1+      -0.0000   -0.0000   -0.0002    0.0000    0.0000   -0.0019    0.0000    0.0000   -0.0016   -0.0000
      110 MO     7f1+       0.0000    0.0000    0.0001   -0.0000   -0.0000    0.0003   -0.0000   -0.0000    0.0002    0.0000
      111 MO     8f1+       0.0000    0.0000    0.0001   -0.0000   -0.0000   -0.0004    0.0000    0.0000   -0.0001   -0.0000
      112 MO     9f1+      -0.0000   -0.0000   -0.0002    0.0000   -0.0000    0.0002   -0.0000   -0.0000   -0.0002   -0.0000
      113 MO     4f2+       0.0000   -0.0000   -0.0006    0.0000    0.0000    0.0162   -0.0000   -0.0000    0.0733    0.0000
      114 MO     5f2+       0.0000   -0.0000   -0.0003    0.0000   -0.0000    0.0008   -0.0000   -0.0000   -0.0252   -0.0000
      115 MO     6f2+      -0.0000    0.0000    0.0001   -0.0000    0.0000    0.0039   -0.0000   -0.0000   -0.0011   -0.0000
      116 MO     7f2+       0.0000    0.0000    0.0000   -0.0000    0.0000   -0.0007    0.0000    0.0000    0.0013    0.0000
      117 MO     8f2+       0.0000    0.0000    0.0000   -0.0000    0.0000    0.0007   -0.0000    0.0000    0.0006    0.0000
      118 MO     9f2+      -0.0000    0.0000    0.0000   -0.0000    0.0000   -0.0001    0.0000    0.0000   -0.0003   -0.0000
      119 MO     4f3+      -0.0000   -0.0000    0.0000    0.0004    0.0198    0.0000   -0.0000    0.0171   -0.0000    0.0000
      120 MO     5f3+      -0.0000   -0.0000    0.0000    0.0002    0.0034   -0.0000    0.0000    0.0009    0.0000   -0.0000
      121 MO     6f3+       0.0000   -0.0000   -0.0000   -0.0000    0.0038    0.0000   -0.0000    0.0039    0.0000   -0.0000
      122 MO     7f3+      -0.0000    0.0000   -0.0000   -0.0000   -0.0016    0.0000   -0.0000   -0.0007   -0.0000   -0.0000
      123 MO     8f3+      -0.0000    0.0000   -0.0000   -0.0000    0.0003    0.0000   -0.0000    0.0007    0.0000    0.0000
      124 MO     9f3+       0.0000   -0.0000   -0.0000    0.0000   -0.0002    0.0000   -0.0000   -0.0002    0.0000   -0.0000
      125 MO     5g4-       0.0000    0.0002   -0.0000    0.0000   -0.0000   -0.0000   -0.0139    0.0000    0.0000   -0.0036
      126 MO     6g4-      -0.0000   -0.0001    0.0000   -0.0000    0.0000   -0.0000   -0.0023    0.0000    0.0000   -0.0022
      127 MO     7g4-      -0.0000    0.0000   -0.0000    0.0000    0.0000    0.0000    0.0033   -0.0000    0.0000   -0.0002
      128 MO     8g4-       0.0000    0.0000   -0.0000    0.0000   -0.0000    0.0000    0.0008   -0.0000   -0.0000    0.0001
      129 MO     5g3-       0.0000    0.0000   -0.0000   -0.0000    0.0000   -0.0000   -0.0000    0.0000   -0.0000    0.0000
      130 MO     6g3-      -0.0000   -0.0000    0.0000    0.0000   -0.0000   -0.0000   -0.0000   -0.0000   -0.0000   -0.0000
      131 MO     7g3-       0.0000    0.0000   -0.0000   -0.0000    0.0000    0.0000    0.0000    0.0000    0.0000   -0.0000
      132 MO     8g3-      -0.0000   -0.0000    0.0000    0.0000   -0.0000    0.0000    0.0000    0.0000    0.0000   -0.0000
      133 MO     5g2-      -0.0002   -0.0002    0.0000   -0.0000    0.0000    0.0000    0.0011   -0.0000    0.0000   -0.0043
      134 MO     6g2-       0.0001    0.0001   -0.0000    0.0000   -0.0000    0.0000    0.0004    0.0000    0.0000   -0.0024
      135 MO     7g2-      -0.0001   -0.0000    0.0000   -0.0000    0.0000   -0.0000   -0.0006   -0.0000    0.0000   -0.0002
      136 MO     8g2-       0.0001    0.0000   -0.0000    0.0000   -0.0000   -0.0000   -0.0002    0.0000   -0.0000    0.0002
      137 MO     5g1-       0.0002   -0.0002    0.0000   -0.0000   -0.0000   -0.0000   -0.0173    0.0000   -0.0000    0.0166
      138 MO     6g1-      -0.0001    0.0001   -0.0000    0.0000    0.0000   -0.0000   -0.0029    0.0000   -0.0000    0.0095
      139 MO     7g1-       0.0000   -0.0001    0.0000   -0.0000    0.0000    0.0000    0.0039   -0.0000    0.0000   -0.0005
      140 MO     8g1-      -0.0000    0.0001   -0.0000    0.0000   -0.0000    0.0000    0.0010   -0.0000    0.0000   -0.0011
      141 MO     5g0        0.0000    0.0000   -0.0000   -0.0005    0.0017   -0.0000    0.0000   -0.0288    0.0000   -0.0000
      142 MO     6g0       -0.0000   -0.0000    0.0000    0.0002    0.0002   -0.0000    0.0000   -0.0053    0.0000   -0.0000
      143 MO     7g0        0.0000    0.0000   -0.0000   -0.0001   -0.0004    0.0000   -0.0000    0.0072    0.0000   -0.0000
      144 MO     8g0        0.0000   -0.0000    0.0000    0.0001   -0.0001    0.0000   -0.0000    0.0020   -0.0000   -0.0000
      145 MO     5g1+      -0.0000   -0.0000   -0.0002    0.0000    0.0000   -0.0173    0.0000    0.0000   -0.0166   -0.0000
      146 MO     6g1+       0.0000    0.0000    0.0001   -0.0000   -0.0000   -0.0029    0.0000    0.0000   -0.0095   -0.0000
      147 MO     7g1+      -0.0000   -0.0000   -0.0001    0.0000    0.0000    0.0039   -0.0000   -0.0000    0.0005    0.0000
      148 MO     8g1+       0.0000    0.0000    0.0001   -0.0000    0.0000    0.0010   -0.0000   -0.0000    0.0011    0.0000
      149 MO     5g2+      -0.0000    0.0000    0.0002   -0.0000    0.0000   -0.0011    0.0000    0.0000   -0.0043   -0.0000
      150 MO     6g2+       0.0000   -0.0000   -0.0001    0.0000   -0.0000   -0.0004    0.0000   -0.0000   -0.0024   -0.0000
      151 MO     7g2+      -0.0000    0.0000    0.0000   -0.0000   -0.0000    0.0006   -0.0000   -0.0000   -0.0002   -0.0000
      152 MO     8g2+       0.0000   -0.0000   -0.0000    0.0000    0.0000    0.0002   -0.0000    0.0000    0.0002    0.0000
      153 MO     5g3+       0.0000   -0.0000   -0.0000   -0.0001   -0.0115   -0.0000    0.0000   -0.0172    0.0000    0.0000
      154 MO     6g3+      -0.0000    0.0000    0.0000    0.0000   -0.0009   -0.0000    0.0000   -0.0032    0.0000    0.0000
      155 MO     7g3+       0.0000   -0.0000   -0.0000   -0.0000    0.0030    0.0000   -0.0000    0.0045    0.0000    0.0000
      156 MO     8g3+      -0.0000   -0.0000   -0.0000   -0.0000    0.0003    0.0000   -0.0000    0.0013    0.0000    0.0000
      157 MO     5g4+      -0.0000    0.0000    0.0002   -0.0000    0.0000   -0.0139    0.0000    0.0000    0.0036    0.0000
      158 MO     6g4+       0.0000   -0.0000   -0.0001    0.0000   -0.0000   -0.0023    0.0000    0.0000    0.0022    0.0000
      159 MO     7g4+       0.0000    0.0000    0.0000    0.0000   -0.0000    0.0033   -0.0000   -0.0000    0.0002    0.0000
      160 MO     8g4+      -0.0000    0.0000    0.0000   -0.0000    0.0000    0.0008   -0.0000   -0.0000   -0.0001   -0.0000
      161 MO     6h5-      -0.0003   -0.0001    0.0000   -0.0000   -0.0000    0.0000    0.0018    0.0000    0.0000   -0.0137
      162 MO     7h5-       0.0001    0.0000   -0.0000    0.0000    0.0000    0.0000    0.0009   -0.0000    0.0000   -0.0087
      163 MO     6h4-      -0.0000   -0.0003    0.0000   -0.0000    0.0000    0.0000    0.0089   -0.0000   -0.0000    0.0051
      164 MO     7h4-      -0.0000    0.0001   -0.0000    0.0000   -0.0000    0.0000    0.0035   -0.0000   -0.0000    0.0031
      165 MO     6h3-      -0.0000   -0.0000    0.0000    0.0000   -0.0000    0.0000    0.0000    0.0000   -0.0000   -0.0000
      166 MO     7h3-       0.0000   -0.0000   -0.0000   -0.0000    0.0000    0.0000    0.0000   -0.0000   -0.0000    0.0000
      167 MO     6h2-      -0.0002   -0.0001    0.0000   -0.0000    0.0000    0.0000    0.0028   -0.0000    0.0000   -0.0109
      168 MO     7h2-       0.0001    0.0000   -0.0000    0.0000   -0.0000    0.0000    0.0011   -0.0000    0.0000   -0.0069
      169 MO     6h1-       0.0000   -0.0004    0.0000   -0.0000   -0.0000    0.0000    0.0019    0.0000   -0.0000    0.0092
      170 MO     7h1-      -0.0000    0.0001   -0.0000    0.0000    0.0000    0.0000    0.0011   -0.0000   -0.0000    0.0058
      171 MO     6h0        0.0000    0.0000   -0.0000   -0.0005    0.0022   -0.0000    0.0000   -0.0057    0.0000   -0.0000
      172 MO     7h0       -0.0000   -0.0000    0.0000    0.0002    0.0008   -0.0000    0.0000   -0.0029    0.0000   -0.0000
      173 MO     6h1+      -0.0000   -0.0000   -0.0004    0.0000   -0.0000    0.0019   -0.0000   -0.0000   -0.0092   -0.0000
      174 MO     7h1+       0.0000    0.0000    0.0001   -0.0000    0.0000    0.0011   -0.0000   -0.0000   -0.0058   -0.0000
      175 MO     6h2+      -0.0000    0.0000    0.0001   -0.0000   -0.0000   -0.0028    0.0000    0.0000   -0.0109   -0.0000
      176 MO     7h2+       0.0000   -0.0000   -0.0000   -0.0000   -0.0000   -0.0011    0.0000    0.0000   -0.0069   -0.0000
      177 MO     6h3+      -0.0000    0.0000    0.0000   -0.0001    0.0036    0.0000   -0.0000    0.0090   -0.0000   -0.0000
      178 MO     7h3+       0.0000   -0.0000   -0.0000    0.0001    0.0012    0.0000   -0.0000    0.0035   -0.0000   -0.0000
      179 MO     6h4+       0.0000   -0.0000   -0.0003    0.0000   -0.0000    0.0089   -0.0000   -0.0000   -0.0051   -0.0000
      180 MO     7h4+       0.0000    0.0000    0.0001   -0.0000   -0.0000    0.0035   -0.0000   -0.0000   -0.0031   -0.0000
      181 MO     6h5+      -0.0000    0.0000    0.0001   -0.0000   -0.0000   -0.0018    0.0000    0.0000   -0.0137   -0.0000
      182 MO     7h5+       0.0000   -0.0000   -0.0000    0.0000   -0.0000   -0.0009    0.0000   -0.0000   -0.0087   -0.0000

          Orbital           21        22        23        24        25        26        27        28        29        30    
          Energy           -0.4990   -0.4706   -0.4706   -0.4319   -0.3290   -0.3290   -0.3048   -0.2084   -0.1941   -0.1941
          Occ. No.          0.0000    0.0000    0.0000    0.0000    0.0000    0.0000    0.0000    0.0000    0.0000    0.0000

        1 MO     1s        -0.0000    0.0000    0.0000    0.0000   -0.0000    0.0000   -0.0000   -0.0000    0.0000   -0.0000
        2 MO     2s        -0.0000   -0.0000    0.0000   -0.0000   -0.0000    0.0000   -0.0000   -0.0000    0.0000   -0.0000
        3 MO     3s         0.0002   -0.0000   -0.0000   -0.0000    0.0000   -0.0000    0.0001    0.0001    0.0000   -0.0000
        4 MO     4s        -0.0140   -0.0000    0.0000    0.0298    0.0000    0.0000   -0.0057   -0.0141    0.0000   -0.0000
        5 MO     5s        -0.7051   -0.0000    0.0000    0.6362   -0.0000    0.0000   -0.1989    0.2010   -0.0000    0.0000
        6 MO     6s         0.1825    0.0000   -0.0000   -0.0763    0.0000    0.0000    0.0019    0.9485   -0.0000    0.0000
        7 MO     7s        -0.0220   -0.0000    0.0000   -0.0327   -0.0000   -0.0000    0.0031    0.1141   -0.0000    0.0000
        8 MO     8s        -0.0178   -0.0000   -0.0000   -0.0159   -0.0000   -0.0000    0.0077    0.0284   -0.0000    0.0000
        9 MO     9s        -0.0083   -0.0000    0.0000    0.0003    0.0000   -0.0000    0.0031   -0.0039   -0.0000    0.0000
       10 MO    10s        -0.0012   -0.0000    0.0000    0.0008    0.0000   -0.0000    0.0002   -0.0018   -0.0000    0.0000
       11 MO     2px        0.0000   -0.0000    0.0000   -0.0000    0.0000    0.0000   -0.0000   -0.0000    0.0000   -0.0000
       12 MO     3px       -0.0000    0.0000   -0.0006    0.0000   -0.0000   -0.0000    0.0000    0.0000   -0.0000    0.0000
       13 MO     4px       -0.0000    0.0000   -0.0560    0.0000    0.0626    0.0000    0.0000   -0.0000   -0.0046    0.0000
       14 MO     5px        0.0000   -0.0000    0.3076   -0.0000    0.9289    0.0001   -0.0000   -0.0000   -0.0090    0.0000
       15 MO     6px       -0.0000    0.0000   -0.0749    0.0000    0.1767    0.0000   -0.0000    0.0000   -0.0024    0.0000
       16 MO     7px       -0.0000    0.0000   -0.0311    0.0000    0.0419    0.0000   -0.0000    0.0000    0.0050   -0.0000
       17 MO     8px        0.0000    0.0000   -0.0026    0.0000   -0.0186   -0.0000    0.0000    0.0000    0.0036   -0.0000
       18 MO     9px       -0.0000    0.0000   -0.0014    0.0000   -0.0136   -0.0000    0.0000    0.0000    0.0013   -0.0000
       19 MO    10px       -0.0000    0.0000   -0.0004    0.0000   -0.0022   -0.0000   -0.0000    0.0000    0.0002   -0.0000
       20 MO     2py       -0.0000    0.0000    0.0000    0.0000   -0.0000    0.0000   -0.0000    0.0000   -0.0000   -0.0000
       21 MO     3py       -0.0000   -0.0006   -0.0000   -0.0000    0.0000   -0.0000    0.0000    0.0000    0.0000    0.0000
       22 MO     4py        0.0000   -0.0560   -0.0000    0.0000   -0.0000    0.0626   -0.0000    0.0000    0.0000    0.0046
       23 MO     5py       -0.0000    0.3076    0.0000   -0.0000   -0.0001    0.9289    0.0000   -0.0000    0.0000    0.0090
       24 MO     6py        0.0000   -0.0749   -0.0000   -0.0000   -0.0000    0.1767    0.0000   -0.0000    0.0000    0.0024
       25 MO     7py        0.0000   -0.0311   -0.0000    0.0000   -0.0000    0.0419    0.0000    0.0000   -0.0000   -0.0050
       26 MO     8py        0.0000   -0.0026   -0.0000    0.0000    0.0000   -0.0186    0.0000    0.0000   -0.0000   -0.0036
       27 MO     9py       -0.0000   -0.0014   -0.0000    0.0000    0.0000   -0.0136    0.0000   -0.0000   -0.0000   -0.0013
       28 MO    10py        0.0000   -0.0004   -0.0000    0.0000    0.0000   -0.0022    0.0000   -0.0000   -0.0000   -0.0002
       29 MO     2pz       -0.0000   -0.0000   -0.0000   -0.0000   -0.0000   -0.0000    0.0000   -0.0000    0.0000    0.0000
       30 MO     3pz        0.0002   -0.0000    0.0000    0.0002   -0.0000   -0.0000   -0.0002    0.0000   -0.0000    0.0000
       31 MO     4pz        0.0218   -0.0000    0.0000    0.0300   -0.0000   -0.0000    0.0425   -0.0023    0.0000   -0.0000
       32 MO     5pz       -0.1898   -0.0000    0.0000    0.0950   -0.0000   -0.0000    0.9462    0.0130    0.0000   -0.0000
       33 MO     6pz        0.0444   -0.0000   -0.0000    0.0323   -0.0000   -0.0000    0.2129    0.1061   -0.0000    0.0000
       34 MO     7pz        0.0216    0.0000   -0.0000   -0.0090    0.0000    0.0000    0.0906    0.1037   -0.0000    0.0000
       35 MO     8pz        0.0020    0.0000   -0.0000   -0.0106   -0.0000   -0.0000   -0.0010    0.0426   -0.0000    0.0000
       36 MO     9pz        0.0009   -0.0000    0.0000   -0.0031   -0.0000   -0.0000   -0.0093    0.0151   -0.0000    0.0000
       37 MO    10pz        0.0003    0.0000    0.0000   -0.0002   -0.0000   -0.0000   -0.0018    0.0021   -0.0000    0.0000
       38 MO     3d2-       0.0000    0.0012    0.0000    0.0000    0.0000   -0.0004   -0.0000    0.0000   -0.0000   -0.0004
       39 MO     4d2-      -0.0000    0.4500    0.0000    0.0000    0.0000   -0.1313    0.0000   -0.0000    0.0001    0.0407
       40 MO     5d2-      -0.0000    0.0079    0.0000   -0.0000   -0.0000    0.0359    0.0000   -0.0000    0.0010    0.5734
       41 MO     6d2-       0.0000    0.0204    0.0000    0.0000    0.0000   -0.0051   -0.0000   -0.0000    0.0010    0.5840
       42 MO     7d2-       0.0000   -0.0118   -0.0000    0.0000    0.0000   -0.0000   -0.0000   -0.0000    0.0007    0.4248
       43 MO     8d2-       0.0000   -0.0028   -0.0000    0.0000   -0.0000    0.0010   -0.0000   -0.0000    0.0003    0.1461
       44 MO     9d2-       0.0000    0.0036    0.0000    0.0000    0.0000   -0.0009   -0.0000   -0.0000   -0.0000   -0.0086
       45 MO    10d2-       0.0000    0.0031    0.0000    0.0000    0.0000   -0.0013   -0.0000    0.0000   -0.0000   -0.0173
       46 MO    11d2-       0.0000    0.0000    0.0000    0.0000    0.0000   -0.0001   -0.0000   -0.0000   -0.0000   -0.0018
       47 MO     3d1-      -0.0000    0.0023    0.0000   -0.0000    0.0000   -0.0008   -0.0000   -0.0000    0.0000    0.0001
       48 MO     4d1-      -0.0000    0.8194    0.0000    0.0000    0.0000   -0.2414    0.0000   -0.0000   -0.0001   -0.0346
       49 MO     5d1-       0.0000    0.0063    0.0000   -0.0000   -0.0000    0.1050    0.0000   -0.0000   -0.0004   -0.2092
       50 MO     6d1-       0.0000    0.0339    0.0000    0.0000   -0.0000    0.0223    0.0000   -0.0000   -0.0004   -0.2128
       51 MO     7d1-       0.0000   -0.0179   -0.0000    0.0000   -0.0000    0.0085    0.0000   -0.0000   -0.0003   -0.1512
       52 MO     8d1-       0.0000   -0.0050   -0.0000    0.0000    0.0000   -0.0019   -0.0000   -0.0000   -0.0001   -0.0519
       53 MO     9d1-      -0.0000    0.0045    0.0000    0.0000    0.0000   -0.0051   -0.0000   -0.0000    0.0000    0.0027
       54 MO    10d1-      -0.0000    0.0049    0.0000    0.0000    0.0000   -0.0024   -0.0000    0.0000    0.0000    0.0059
       55 MO    11d1-       0.0000    0.0001    0.0000    0.0000    0.0000   -0.0002   -0.0000    0.0000    0.0000    0.0006
       56 MO     3d0        0.0018   -0.0000   -0.0000    0.0021    0.0000    0.0000    0.0001   -0.0001    0.0000   -0.0000
       57 MO     4d0        0.6454    0.0000   -0.0000    0.7457    0.0000    0.0000    0.0343   -0.0608    0.0000   -0.0000
       58 MO     5d0        0.0035    0.0000   -0.0000   -0.0418   -0.0000    0.0000    0.0206   -0.0476   -0.0000    0.0000
       59 MO     6d0        0.0160   -0.0000   -0.0000    0.0343    0.0000   -0.0000    0.0347   -0.0784   -0.0000    0.0000
       60 MO     7d0       -0.0150   -0.0000    0.0000   -0.0092   -0.0000   -0.0000    0.0151   -0.0524   -0.0000    0.0000
       61 MO     8d0       -0.0016    0.0000    0.0000   -0.0055   -0.0000   -0.0000   -0.0025   -0.0139   -0.0000    0.0000
       62 MO     9d0        0.0041    0.0000   -0.0000    0.0022    0.0000   -0.0000   -0.0050    0.0036    0.0000   -0.0000
       63 MO    10d0        0.0032    0.0000   -0.0000    0.0045    0.0000   -0.0000   -0.0005    0.0019    0.0000   -0.0000
       64 MO    11d0        0.0000    0.0000   -0.0000    0.0002    0.0000   -0.0000   -0.0000    0.0002    0.0000   -0.0000
       65 MO     3d1+       0.0000   -0.0000    0.0023   -0.0000   -0.0008   -0.0000   -0.0000    0.0000   -0.0001    0.0000
       66 MO     4d1+       0.0000   -0.0000    0.8194   -0.0000   -0.2414   -0.0000   -0.0000    0.0000    0.0346   -0.0001
       67 MO     5d1+      -0.0000   -0.0000    0.0063   -0.0000    0.1050    0.0000    0.0000    0.0000    0.2092   -0.0004
       68 MO     6d1+       0.0000   -0.0000    0.0339   -0.0000    0.0223    0.0000    0.0000    0.0000    0.2128   -0.0004
       69 MO     7d1+      -0.0000    0.0000   -0.0179    0.0000    0.0085    0.0000    0.0000    0.0000    0.1512   -0.0003
       70 MO     8d1+      -0.0000    0.0000   -0.0050    0.0000   -0.0019   -0.0000   -0.0000    0.0000    0.0519   -0.0001
       71 MO     9d1+       0.0000   -0.0000    0.0045   -0.0000   -0.0051   -0.0000   -0.0000   -0.0000   -0.0027    0.0000
       72 MO    10d1+       0.0000   -0.0000    0.0049   -0.0000   -0.0024   -0.0000    0.0000   -0.0000   -0.0059    0.0000
       73 MO    11d1+       0.0000   -0.0000    0.0001   -0.0000   -0.0002   -0.0000   -0.0000   -0.0000   -0.0006    0.0000
       74 MO     3d2+       0.0000    0.0000   -0.0012    0.0000    0.0004    0.0000    0.0000   -0.0000   -0.0004    0.0000
       75 MO     4d2+       0.0000    0.0000   -0.4500    0.0000    0.1313    0.0000    0.0000    0.0000    0.0407   -0.0001
       76 MO     5d2+      -0.0000    0.0000   -0.0079    0.0000   -0.0359   -0.0000   -0.0000    0.0000    0.5734   -0.0010
       77 MO     6d2+      -0.0000    0.0000   -0.0204    0.0000    0.0051    0.0000   -0.0000    0.0000    0.5840   -0.0010
       78 MO     7d2+       0.0000   -0.0000    0.0118   -0.0000    0.0000    0.0000   -0.0000    0.0000    0.4248   -0.0007
       79 MO     8d2+       0.0000   -0.0000    0.0028   -0.0000   -0.0010   -0.0000    0.0000    0.0000    0.1461   -0.0003
       80 MO     9d2+      -0.0000    0.0000   -0.0036    0.0000    0.0009    0.0000    0.0000   -0.0000   -0.0086    0.0000
       81 MO    10d2+      -0.0000    0.0000   -0.0031    0.0000    0.0013    0.0000    0.0000   -0.0000   -0.0173    0.0000
       82 MO    11d2+       0.0000    0.0000   -0.0000   -0.0000    0.0001    0.0000    0.0000   -0.0000   -0.0018    0.0000
       83 MO     4f3-      -0.0000   -0.0000   -0.0000   -0.0000   -0.0000    0.0000   -0.0000   -0.0000    0.0000    0.0000
       84 MO     5f3-       0.0000    0.0000   -0.0000   -0.0000    0.0000   -0.0000    0.0000    0.0000   -0.0000   -0.0000
       85 MO     6f3-      -0.0000   -0.0000   -0.0000   -0.0000    0.0000   -0.0000   -0.0000    0.0000   -0.0000   -0.0000
       86 MO     7f3-      -0.0000   -0.0000   -0.0000   -0.0000    0.0000   -0.0000   -0.0000    0.0000   -0.0000   -0.0000
       87 MO     8f3-      -0.0000   -0.0000   -0.0000    0.0000   -0.0000    0.0000    0.0000   -0.0000    0.0000    0.0000
       88 MO     9f3-      -0.0000    0.0000   -0.0000    0.0000   -0.0000    0.0000    0.0000    0.0000    0.0000    0.0000
       89 MO     4f2-      -0.0000    0.1218    0.0000    0.0000    0.0000   -0.0733    0.0000   -0.0000    0.0000    0.0047
       90 MO     5f2-       0.0000   -0.0418   -0.0000   -0.0000   -0.0000    0.0408   -0.0000    0.0000   -0.0001   -0.0414
       91 MO     6f2-       0.0000   -0.0015   -0.0000   -0.0000   -0.0000    0.0127    0.0000    0.0000   -0.0001   -0.0548
       92 MO     7f2-       0.0000   -0.0002   -0.0000    0.0000   -0.0000    0.0046   -0.0000    0.0000   -0.0001   -0.0488
       93 MO     8f2-      -0.0000    0.0030    0.0000   -0.0000    0.0000   -0.0037    0.0000   -0.0000    0.0001    0.0383
       94 MO     9f2-      -0.0000   -0.0005   -0.0000   -0.0000    0.0000   -0.0001    0.0000   -0.0000    0.0000    0.0026
       95 MO     4f1-      -0.0000    0.0184    0.0000   -0.0000    0.0000   -0.0286   -0.0000    0.0000   -0.0000   -0.0074
       96 MO     5f1-       0.0000   -0.0046   -0.0000   -0.0000   -0.0000    0.0261    0.0000   -0.0000    0.0000    0.0185
       97 MO     6f1-       0.0000   -0.0015   -0.0000   -0.0000   -0.0000    0.0158    0.0000   -0.0000    0.0000    0.0226
       98 MO     7f1-       0.0000   -0.0011   -0.0000   -0.0000   -0.0000    0.0078    0.0000   -0.0000    0.0000    0.0203
       99 MO     8f1-      -0.0000    0.0006    0.0000    0.0000    0.0000   -0.0029   -0.0000    0.0000   -0.0000   -0.0163
      100 MO     9f1-       0.0000   -0.0003   -0.0000    0.0000    0.0000   -0.0001    0.0000    0.0000   -0.0000   -0.0010
      101 MO     4f0        0.0324    0.0000   -0.0000   -0.0987   -0.0000   -0.0000   -0.0124    0.0587   -0.0000    0.0000
      102 MO     5f0       -0.0436   -0.0000    0.0000    0.0586   -0.0000   -0.0000    0.0179   -0.0399    0.0000   -0.0000
      103 MO     6f0       -0.0185   -0.0000    0.0000    0.0112   -0.0000   -0.0000    0.0147   -0.0060    0.0000   -0.0000
      104 MO     7f0       -0.0014    0.0000   -0.0000    0.0006    0.0000    0.0000    0.0088    0.0065    0.0000   -0.0000
      105 MO     8f0       -0.0016   -0.0000   -0.0000   -0.0025   -0.0000   -0.0000   -0.0035   -0.0066   -0.0000    0.0000
      106 MO     9f0        0.0006    0.0000   -0.0000   -0.0006    0.0000    0.0000   -0.0001   -0.0001   -0.0000    0.0000
      107 MO     4f1+       0.0000   -0.0000    0.0184   -0.0000   -0.0286   -0.0000    0.0000    0.0000    0.0074   -0.0000
      108 MO     5f1+      -0.0000    0.0000   -0.0046    0.0000    0.0261    0.0000   -0.0000   -0.0000   -0.0185    0.0000
      109 MO     6f1+      -0.0000    0.0000   -0.0015   -0.0000    0.0158    0.0000   -0.0000   -0.0000   -0.0226    0.0000
      110 MO     7f1+      -0.0000    0.0000   -0.0011    0.0000    0.0078    0.0000   -0.0000   -0.0000   -0.0203    0.0000
      111 MO     8f1+       0.0000   -0.0000    0.0006   -0.0000   -0.0029   -0.0000    0.0000    0.0000    0.0163   -0.0000
      112 MO     9f1+       0.0000    0.0000   -0.0003    0.0000   -0.0001   -0.0000    0.0000    0.0000    0.0010   -0.0000
      113 MO     4f2+      -0.0000    0.0000   -0.1218    0.0000    0.0733    0.0000    0.0000    0.0000    0.0047   -0.0000
      114 MO     5f2+      -0.0000   -0.0000    0.0418   -0.0000   -0.0408   -0.0000   -0.0000   -0.0000   -0.0414    0.0001
      115 MO     6f2+      -0.0000   -0.0000    0.0015    0.0000   -0.0127   -0.0000   -0.0000   -0.0000   -0.0548    0.0001
      116 MO     7f2+       0.0000   -0.0000    0.0002   -0.0000   -0.0046   -0.0000   -0.0000   -0.0000   -0.0488    0.0001
      117 MO     8f2+      -0.0000    0.0000   -0.0030    0.0000    0.0037    0.0000    0.0000    0.0000    0.0383   -0.0001
      118 MO     9f2+       0.0000   -0.0000    0.0005   -0.0000    0.0001    0.0000    0.0000    0.0000    0.0026   -0.0000
      119 MO     4f3+       0.0759    0.0000   -0.0000    0.0146    0.0000    0.0000    0.0380    0.0279    0.0000   -0.0000
      120 MO     5f3+      -0.0427   -0.0000    0.0000    0.0090   -0.0000   -0.0000   -0.0342   -0.0191   -0.0000    0.0000
      121 MO     6f3+      -0.0080   -0.0000    0.0000    0.0070   -0.0000   -0.0000   -0.0165   -0.0019   -0.0000    0.0000
      122 MO     7f3+       0.0008    0.0000   -0.0000    0.0012   -0.0000   -0.0000   -0.0066    0.0042   -0.0000    0.0000
      123 MO     8f3+       0.0005    0.0000   -0.0000    0.0005    0.0000    0.0000    0.0035   -0.0036    0.0000   -0.0000
      124 MO     9f3+       0.0003    0.0000   -0.0000   -0.0005    0.0000    0.0000    0.0004   -0.0000    0.0000   -0.0000
      125 MO     5g4-      -0.0000    0.0165    0.0000    0.0000    0.0000   -0.0200    0.0000    0.0000   -0.0000   -0.0011
      126 MO     6g4-      -0.0000    0.0057    0.0000    0.0000    0.0000   -0.0225   -0.0000    0.0000   -0.0000   -0.0013
      127 MO     7g4-       0.0000   -0.0044   -0.0000    0.0000    0.0000   -0.0086   -0.0000    0.0000   -0.0000   -0.0007
      128 MO     8g4-       0.0000   -0.0023   -0.0000   -0.0000    0.0000   -0.0014   -0.0000   -0.0000   -0.0000   -0.0002
      129 MO     5g3-      -0.0000    0.0000    0.0000    0.0000    0.0000   -0.0000    0.0000   -0.0000   -0.0000   -0.0000
      130 MO     6g3-      -0.0000    0.0000    0.0000    0.0000    0.0000   -0.0000    0.0000    0.0000   -0.0000   -0.0000
      131 MO     7g3-      -0.0000   -0.0000   -0.0000   -0.0000    0.0000   -0.0000    0.0000   -0.0000   -0.0000   -0.0000
      132 MO     8g3-      -0.0000   -0.0000   -0.0000   -0.0000   -0.0000   -0.0000    0.0000    0.0000   -0.0000   -0.0000
      133 MO     5g2-       0.0000   -0.0177   -0.0000   -0.0000   -0.0000    0.0058   -0.0000   -0.0000    0.0000    0.0011
      134 MO     6g2-       0.0000   -0.0100   -0.0000   -0.0000   -0.0000    0.0021   -0.0000    0.0000   -0.0000   -0.0008
      135 MO     7g2-      -0.0000    0.0013    0.0000    0.0000    0.0000   -0.0023   -0.0000    0.0000   -0.0000   -0.0017
      136 MO     8g2-       0.0000    0.0015    0.0000    0.0000    0.0000   -0.0014   -0.0000    0.0000   -0.0000   -0.0008
      137 MO     5g1-      -0.0000   -0.0048   -0.0000    0.0000    0.0000   -0.0147   -0.0000    0.0000   -0.0000   -0.0019
      138 MO     6g1-      -0.0000   -0.0095   -0.0000    0.0000    0.0000   -0.0217   -0.0000    0.0000    0.0000    0.0015
      139 MO     7g1-       0.0000   -0.0070   -0.0000    0.0000    0.0000   -0.0106   -0.0000   -0.0000    0.0000    0.0029
      140 MO     8g1-       0.0000   -0.0020   -0.0000   -0.0000    0.0000   -0.0024   -0.0000    0.0000    0.0000    0.0013
      141 MO     5g0       -0.0201    0.0000   -0.0000   -0.0351    0.0000    0.0000   -0.0240    0.0061   -0.0000    0.0000
      142 MO     6g0       -0.0073    0.0000   -0.0000   -0.0237    0.0000   -0.0000   -0.0342    0.0068   -0.0000    0.0000
      143 MO     7g0        0.0041    0.0000   -0.0000   -0.0010    0.0000    0.0000   -0.0168    0.0022    0.0000   -0.0000
      144 MO     8g0        0.0023    0.0000   -0.0000    0.0021    0.0000    0.0000   -0.0036    0.0001    0.0000   -0.0000
      145 MO     5g1+      -0.0000    0.0000   -0.0048    0.0000   -0.0147   -0.0000   -0.0000   -0.0000    0.0019   -0.0000
      146 MO     6g1+      -0.0000    0.0000   -0.0095    0.0000   -0.0217   -0.0000   -0.0000   -0.0000   -0.0015    0.0000
      147 MO     7g1+      -0.0000    0.0000   -0.0070    0.0000   -0.0106   -0.0000   -0.0000   -0.0000   -0.0029    0.0000
[...]
         3    9       1.32693823E-03  8.07123670E-02  5.68343291E+05  2.69125121E-06  5.68343372E+05
         3   11       8.47129395E-04  4.84636474E-01  6.82694530E+05  1.64335757E-16  6.82695014E+05
         3   13       4.57665905E-02  4.26959764E+00  1.05540535E+08  8.06474378E+01  1.05540620E+08
         3   15       6.16473641E-02  1.05540536E+08  4.26959626E+00  3.66221372E+07  1.42162678E+08
         3   17       1.77420215E-02  3.48733741E+01  4.91251900E+07  7.69490224E-15  4.91252248E+07
         4    6       2.79242569E-05  5.36356100E-03  7.55550391E+03  1.34564517E-17  7.55550927E+03
         4    8       1.32694192E-03  5.68343289E+05  8.07123528E-02  1.57243287E+00  5.68344942E+05
         4   10       1.32693823E-03  8.07123670E-02  5.68343291E+05  2.69125121E-06  5.68343372E+05
         4   12       8.47129395E-04  4.84636474E-01  6.82694530E+05  1.64335757E-16  6.82695014E+05
         4   14       4.57665905E-02  4.26959764E+00  1.05540535E+08  8.06474378E+01  1.05540620E+08
         4   16       6.16473641E-02  1.05540536E+08  4.26959626E+00  3.66221372E+07  1.42162678E+08
         4   18       1.77420215E-02  3.48733741E+01  4.91251900E+07  7.69490224E-15  4.91252248E+07
         5    7       5.02317060E-03  1.96464300E-02  9.05874792E+04  3.17063901E-18  9.05874988E+04
         5    9       5.02317088E-03  9.05874896E+04  1.96464305E-02  7.64001986E-13  9.05875093E+04
         5   11       9.40428549E-03  5.22243926E-10  1.55318701E-16  1.34052519E+06  1.34052519E+06
         5   13       2.78169290E-01  2.77283976E+08  1.14078313E+02  8.80805461E-09  2.77284090E+08
         5   15       2.78169291E-01  1.14078315E+02  2.77283979E+08  2.15448593E-15  2.77284093E+08
         5   17       6.01873774E-02  1.47047071E-08  1.04818129E-16  7.87453084E+07  7.87453084E+07
         6    8       5.02317060E-03  1.96464300E-02  9.05874792E+04  3.17063901E-18  9.05874988E+04
         6   10       5.02317088E-03  9.05874896E+04  1.96464305E-02  7.64001986E-13  9.05875093E+04
         6   12       9.40428549E-03  5.22243926E-10  1.55318701E-16  1.34052519E+06  1.34052519E+06
         6   14       2.78169290E-01  2.77283976E+08  1.14078313E+02  8.80805461E-09  2.77284090E+08
         6   16       2.78169291E-01  1.14078315E+02  2.77283979E+08  2.15448593E-15  2.77284093E+08
         6   18       6.01873774E-02  1.47047071E-08  1.04818129E-16  7.87453084E+07  7.87453084E+07
         7   11       6.21853292E-03  7.98074433E-02  3.67983159E+05  3.60920259E-18  3.67983239E+05
         7   13       6.59192861E-03  6.03315097E+00  4.92217626E+06  6.02911408E-01  4.92218289E+06
         7   15       3.27435298E-02  4.92217642E+06  6.03315156E+00  1.95273608E+07  2.44495433E+07
         7   17       2.33180249E-02  5.15406108E+00  2.37647989E+07  4.20964844E-15  2.37648040E+07
         8   12       6.21853292E-03  7.98074433E-02  3.67983159E+05  3.60920259E-18  3.67983239E+05
         8   14       6.59192861E-03  6.03315097E+00  4.92217626E+06  6.02911408E-01  4.92218289E+06
         8   16       3.27435298E-02  4.92217642E+06  6.03315156E+00  1.95273608E+07  2.44495433E+07
         8   18       2.33180249E-02  5.15406108E+00  2.37647989E+07  4.20964844E-15  2.37648040E+07
         9   11       6.21853291E-03  3.67983147E+05  7.98074386E-02  7.72051717E-11  3.67983226E+05
         9   13       3.27435281E-02  4.92217548E+06  6.03315176E+00  1.95273600E+07  2.44495415E+07
         9   15       6.59193039E-03  6.03315053E+00  4.92217759E+06  6.02911332E-01  4.92218422E+06
         9   17       2.33180247E-02  2.37647985E+07  5.15406117E+00  3.47621609E-08  2.37648037E+07
        10   12       6.21853291E-03  3.67983147E+05  7.98074386E-02  7.72051717E-11  3.67983226E+05
        10   14       3.27435281E-02  4.92217548E+06  6.03315176E+00  1.95273600E+07  2.44495415E+07
        10   16       6.59193039E-03  6.03315053E+00  4.92217759E+06  6.02911332E-01  4.92218422E+06
        10   18       2.33180247E-02  2.37647985E+07  5.15406117E+00  3.47621609E-08  2.37648037E+07
        11   13       1.01702029E-01  3.92024604E+07  1.61284132E+01  2.06365712E-10  3.92024765E+07
        11   15       1.01702029E-01  1.61284137E+01  3.92024610E+07  3.01523727E-16  3.92024772E+07
        11   17       3.28509041E-01  3.30162992E-10  7.15360155E-18  1.92893094E+08  1.92893094E+08
        12   14       1.01702029E-01  3.92024604E+07  1.61284132E+01  2.06365712E-10  3.92024765E+07
        12   16       1.01702029E-01  1.61284137E+01  3.92024610E+07  3.01523727E-16  3.92024772E+07
        12   18       3.28509041E-01  3.30162992E-10  7.15360155E-18  1.92893094E+08  1.92893094E+08
        13   17       3.68035676E-03  7.78257272E+04  3.20185375E-02  4.14270723E-13  7.78257592E+04
        14   18       3.68035676E-03  7.78257272E+04  3.20185375E-02  4.14270723E-13  7.78257592E+04
        15   17       3.68035660E-03  3.20185352E-02  7.78257190E+04  4.20170238E-19  7.78257510E+04
        16   18       3.68035660E-03  3.20185352E-02  7.78257190E+04  4.20170238E-19  7.78257510E+04
     -----------------------------------------------------------------------------------------------
--

++ Velocity transition strengths (SO states):
   ------------------------------------------
    for osc. strength at least    1.0000000000000001E-005

      From   To        Osc. strength     Einstein coefficients Ax, Ay, Az (sec-1)    Total A (sec-1)
     -----------------------------------------------------------------------------------------------
         1    7       4.35992244E-04  2.65197561E-02  1.86741260E+05  6.92945862E-03  1.86741294E+05
         1    9       4.45445005E-04  1.86741294E+05  2.65197626E-02  4.04871929E+03  1.90790040E+05
         1   11       5.23464756E-04  4.21857360E+05  2.99471414E-01  2.08631802E-10  4.21857659E+05
         1   13       4.98909157E-02  8.56489617E+07  3.46489234E+00  2.94030070E+07  1.15051972E+08
         1   15       3.71406770E-02  3.46489150E+00  8.56489542E+07  6.47498298E+01  8.56490224E+07
         1   17       1.46743281E-02  4.06313149E+07  2.88436742E+01  1.92175648E-08  4.06313437E+07
         2    8       4.35992244E-04  2.65197561E-02  1.86741260E+05  6.92945862E-03  1.86741294E+05
         2   10       4.45445005E-04  1.86741294E+05  2.65197626E-02  4.04871929E+03  1.90790040E+05
         2   12       5.23464756E-04  4.21857360E+05  2.99471414E-01  2.08631802E-10  4.21857659E+05
         2   14       4.98909157E-02  8.56489617E+07  3.46489234E+00  2.94030070E+07  1.15051972E+08
         2   16       3.71406770E-02  3.46489150E+00  8.56489542E+07  6.47498298E+01  8.56490224E+07
         2   18       1.46743281E-02  4.06313149E+07  2.88436742E+01  1.92175648E-08  4.06313437E+07
         3    7       4.45444988E-04  1.86741282E+05  2.65197500E-02  4.04871980E+03  1.90790029E+05
         3    9       4.35992296E-04  2.65197612E-02  1.86741283E+05  6.92945800E-03  1.86741317E+05
         3   11       5.23464744E-04  2.99471408E-01  4.21857348E+05  1.96442994E-16  4.21857647E+05
         3   13       3.71406788E-02  3.46489239E+00  8.56489577E+07  6.47498291E+01  8.56490260E+07
         3   15       4.98909140E-02  8.56489589E+07  3.46489126E+00  2.94030062E+07  1.15051969E+08
         3   17       1.46743276E-02  2.88436746E+01  4.06313136E+07  1.08687123E-14  4.06313424E+07
         4    8       4.45444988E-04  1.86741282E+05  2.65197500E-02  4.04871980E+03  1.90790029E+05
         4   10       4.35992296E-04  2.65197612E-02  1.86741283E+05  6.92945800E-03  1.86741317E+05
         4   12       5.23464744E-04  2.99471408E-01  4.21857348E+05  1.96442994E-16  4.21857647E+05
         4   14       3.71406788E-02  3.46489239E+00  8.56489577E+07  6.47498291E+01  8.56490260E+07
         4   16       4.98909140E-02  8.56489589E+07  3.46489126E+00  2.94030062E+07  1.15051969E+08
         4   18       1.46743276E-02  2.88436746E+01  4.06313136E+07  1.08687123E-14  4.06313424E+07
         5    7       4.13754498E-03  1.61826665E-02  7.46164330E+04  1.50385070E-17  7.46164492E+04
         5    9       4.13754529E-03  7.46164431E+04  1.61826661E-02  3.25567943E-12  7.46164593E+04
         5   11       1.05301958E-02  3.30170834E-10  6.37065431E-16  1.50102225E+06  1.50102225E+06
         5   13       2.56116815E-01  2.55302574E+08  1.05034873E+02  6.43790751E-09  2.55302679E+08
         5   15       2.56116816E-01  1.05034873E+02  2.55302577E+08  1.27358375E-15  2.55302682E+08
         5   17       6.57570611E-02  1.17260745E-08  2.96318029E-17  8.60326248E+07  8.60326248E+07
         6    8       4.13754498E-03  1.61826665E-02  7.46164330E+04  1.50385070E-17  7.46164492E+04
         6   10       4.13754529E-03  7.46164431E+04  1.61826661E-02  3.25567943E-12  7.46164593E+04
         6   12       1.05301958E-02  3.30170834E-10  6.37065431E-16  1.50102225E+06  1.50102225E+06
         6   14       2.56116815E-01  2.55302574E+08  1.05034873E+02  6.43790751E-09  2.55302679E+08
         6   16       2.56116816E-01  1.05034873E+02  2.55302577E+08  1.27358375E-15  2.55302682E+08
         6   18       6.57570611E-02  1.17260745E-08  2.96318029E-17  8.60326248E+07  8.60326248E+07
         7   11       2.40931068E-03  3.09207246E-02  1.42572027E+05  4.01889025E-19  1.42572057E+05
         7   13       4.57113608E-03  4.18366945E+00  3.41326749E+06  4.27803296E-01  3.41327210E+06
         7   15       2.31272644E-02  3.41326763E+06  4.18366991E+00  1.38558810E+07  1.72691528E+07
         7   17       1.78050991E-02  3.93553429E+00  1.81463083E+07  3.67745821E-15  1.81463122E+07
         8   12       2.40931068E-03  3.09207246E-02  1.42572027E+05  4.01889025E-19  1.42572057E+05
         8   14       4.57113608E-03  4.18366945E+00  3.41326749E+06  4.27803296E-01  3.41327210E+06
         8   16       2.31272644E-02  3.41326763E+06  4.18366991E+00  1.38558810E+07  1.72691528E+07
         8   18       1.78050991E-02  3.93553429E+00  1.81463083E+07  3.67745821E-15  1.81463122E+07
         9   11       2.40931066E-03  1.42572020E+05  3.09207264E-02  1.01225049E-10  1.42572051E+05
         9   13       2.31272630E-02  3.41326685E+06  4.18367003E+00  1.38558804E+07  1.72691514E+07
         9   15       4.57113750E-03  4.18366891E+00  3.41326856E+06  4.27803164E-01  3.41327317E+06
         9   17       1.78050990E-02  1.81463081E+07  3.93553447E+00  3.53728822E-08  1.81463120E+07
        10   12       2.40931066E-03  1.42572020E+05  3.09207264E-02  1.01225049E-10  1.42572051E+05
        10   14       2.31272630E-02  3.41326685E+06  4.18367003E+00  1.38558804E+07  1.72691514E+07
        10   16       4.57113750E-03  4.18366891E+00  3.41326856E+06  4.27803164E-01  3.41327317E+06
        10   18       1.78050990E-02  1.81463081E+07  3.93553447E+00  3.53728822E-08  1.81463120E+07
        11   13       1.03617682E-01  3.99410144E+07  1.64322643E+01  1.30131626E-10  3.99410308E+07
        11   15       1.03617682E-01  1.64322643E+01  3.99410151E+07  4.22825755E-18  3.99410315E+07
        11   17       2.97512964E-01  2.53100258E-10  1.98695365E-17  1.74693504E+08  1.74693504E+08
        12   14       1.03617682E-01  3.99410144E+07  1.64322643E+01  1.30131626E-10  3.99410308E+07
        12   16       1.03617682E-01  1.64322643E+01  3.99410151E+07  4.22825755E-18  3.99410315E+07
        12   18       2.97512964E-01  2.53100258E-10  1.98695365E-17  1.74693504E+08  1.74693504E+08
        13   17       2.21743804E-03  4.68906519E+04  1.92914331E-02  3.15778403E-13  4.68906712E+04
        14   18       2.21743804E-03  4.68906519E+04  1.92914331E-02  3.15778403E-13  4.68906712E+04
        15   17       2.21743791E-03  1.92914340E-02  4.68906463E+04  5.63254858E-17  4.68906656E+04
        16   18       2.21743791E-03  1.92914340E-02  4.68906463E+04  5.63254858E-17  4.68906656E+04
     -----------------------------------------------------------------------------------------------
--

++ Length and velocity gauge comparison (SO states):

 --------------------------------------------------
 A comparison between the dipole oscillator strengths in 
 length and velocity gauge will be performed

 All dipole oscillator differences above the tolerance of   0.10000000000000001       will be printed 

 Due to basis set deficiency these oscillator may be problematic 

 The tolerance is defined as ABS(1-O_l/O_v) 
 O_l : dipole oscillator strength in length gauge
 O_p : dipole oscillator strength in velocity gauge
 --------------------------------------------------

  Problematic transitions have been found

      From   To       Difference (%) Osc. st. (len.) Osc. st. (vel.)
     ---------------------------------------------------------------
         1    5      ---------------  2.79242557E-05 below threshold
         1    7           204.349023  1.32693814E-03  4.35992244E-04
         1    9           197.891306  1.32694194E-03  4.45445005E-04
         1   11            61.831222  8.47129411E-04  5.23464756E-04
         1   13            23.564311  6.16473660E-02  4.98909157E-02
         1   15            23.224971  4.57665883E-02  3.71406770E-02
         1   17            20.905175  1.77420220E-02  1.46743281E-02
         2    6      ---------------  2.79242557E-05 below threshold
         2    8           204.349023  1.32693814E-03  4.35992244E-04
         2   10           197.891306  1.32694194E-03  4.45445005E-04
         2   12            61.831222  8.47129411E-04  5.23464756E-04
         2   14            23.564311  6.16473660E-02  4.98909157E-02
         2   16            23.224971  4.57665883E-02  3.71406770E-02
         2   18            20.905175  1.77420220E-02  1.46743281E-02
         3    5      ---------------  2.79242569E-05 below threshold
         3    7           197.891311  1.32694192E-03  4.45444988E-04
         3    9           204.349009  1.32693823E-03  4.35992296E-04
         3   11            61.831223  8.47129395E-04  5.23464744E-04
         3   13            23.224970  4.57665905E-02  3.71406788E-02
         3   15            23.564311  6.16473641E-02  4.98909140E-02
         3   17            20.905175  1.77420215E-02  1.46743276E-02
         4    6      ---------------  2.79242569E-05 below threshold
         4    8           197.891311  1.32694192E-03  4.45444988E-04
         4   10           204.349009  1.32693823E-03  4.35992296E-04
         4   12            61.831223  8.47129395E-04  5.23464744E-04
         4   14            23.224970  4.57665905E-02  3.71406788E-02
         4   16            23.564311  6.16473641E-02  4.98909140E-02
         4   18            20.905175  1.77420215E-02  1.46743276E-02
         5    7            21.404616  5.02317060E-03  4.13754498E-03
         5    9            21.404614  5.02317088E-03  4.13754529E-03
         5   11            10.692207  9.40428549E-03  1.05301958E-02
         6    8            21.404616  5.02317060E-03  4.13754498E-03
         6   10            21.404614  5.02317088E-03  4.13754529E-03
         6   12            10.692207  9.40428549E-03  1.05301958E-02
         7   11           158.104235  6.21853292E-03  2.40931068E-03
         7   13            44.207665  6.59192861E-03  4.57113608E-03
         7   15            41.579779  3.27435298E-02  2.31272644E-02
         7   17            30.962624  2.33180249E-02  1.78050991E-02
         8   12           158.104235  6.21853292E-03  2.40931068E-03
         8   14            44.207665  6.59192861E-03  4.57113608E-03
         8   16            41.579779  3.27435298E-02  2.31272644E-02
         8   18            30.962624  2.33180249E-02  1.78050991E-02
         9   11           158.104237  6.21853291E-03  2.40931066E-03
         9   13            41.579780  3.27435281E-02  2.31272630E-02
         9   15            44.207659  6.59193039E-03  4.57113750E-03
         9   17            30.962624  2.33180247E-02  1.78050990E-02
        10   12           158.104237  6.21853291E-03  2.40931066E-03
        10   14            41.579780  3.27435281E-02  2.31272630E-02
        10   16            44.207659  6.59193039E-03  4.57113750E-03
        10   18            30.962624  2.33180247E-02  1.78050990E-02
        11   17            10.418396  3.28509041E-01  2.97512964E-01
        12   18            10.418396  3.28509041E-01  2.97512964E-01
        13   17            65.973376  3.68035676E-03  2.21743804E-03
        14   18            65.973376  3.68035676E-03  2.21743804E-03
        15   17            65.973378  3.68035660E-03  2.21743791E-03
        16   18            65.973378  3.68035660E-03  2.21743791E-03
     ---------------------------------------------------------------

 Number of problematic transitions =                    56

--

 Electric-dipole - electric-octupole not included
++ I/O STATISTICS
 
  I. General I/O information
  - - - - - - - - - - - - - - - - - - - - - - - - - - - - - - - - - - - - - - - - - - -
  Unit  Name          Flsize      Write/Read            MBytes           Write/Read
                      (MBytes)       Calls              In/Out           Time, sec.
  - - - - - - - - - - - - - - - - - - - - - - - - - - - - - - - - - - - - - - - - - - -
   1  SCRATCH           0.00 .       9/      45 .      0.0/      0.0 .       0/       0
   2  ANNI              0.00 .       0/       0 .      0.0/      0.0 .       0/       0
   3  RUNFILE          14.89 .     322/   10085 .      2.3/     73.1 .       0/       0
   4  ONEINT            5.68 .       0/   24849 .      0.0/   3743.6 .       0/       0
   5  JOBIPH            6.59 .       0/      92 .      0.0/      0.8 .       0/       0
   6  ORDINT          529.03 .       1/    4233 .      0.0/   1058.0 .       0/       0
  - - - - - - - - - - - - - - - - - - - - - - - - - - - - - - - - - - - - - - - - - - -
   *  TOTAL           556.21 .     332/   39304 .      2.3/   4875.5 .       0/       0
  - - - - - - - - - - - - - - - - - - - - - - - - - - - - - - - - - - - - - - - - - - -
 
  II. I/O Access Patterns
  - - - - - - - - - - - - - - - - - - - -
  Unit  Name               % of random
                         Write/Read calls
  - - - - - - - - - - - - - - - - - - - -
   1  SCRATCH             88.9/ 100.0
   2  ANNI                 0.0/   0.0
   3  RUNFILE             28.6/  10.8
   4  ONEINT               0.0/  15.5
   5  JOBIPH               0.0/  76.1
   6  ORDINT             100.0/   0.0
  - - - - - - - - - - - - - - - - - - - -
--
--- Stop Module: rassi at Thu Jan  9 00:57:20 2025 /rc=_RC_ALL_IS_WELL_ ---
*** files: xmldump
    saved to directory /home4/s4752295/Internship/Initial_simulations/Point_charge_model/1_electron/active_space_9_non_rel/Mo/varying_bond_length
--- Module rassi spent 3 seconds ---

.##################.
.# Happy landing! #.
.##################.

    Timing: Wall=91.93 User=51.05 System=39.10

###############################################################################
Hbrk Cluster
Job 14530297 for user s4752295
Finished at: Thu Jan  9 00:57:20 CET 2025

Job details:
============

Job ID                         : 14530297
Name                           : Mo_no_c_light
User                           : s4752295
Partition                      : regularmedium
Nodes                          : node99
Number of Nodes                : 1
Cores                          : 1
Number of Tasks                : 1
State                          : RUNNING  
Submit                         : 2025-01-09T00:55:44
Start                          : 2025-01-09T00:55:45
End                            : --
Reserved walltime              : 15:00:00
Used walltime                  : 00:01:35
Used CPU time                  : -- 
% User (Computation)           : --
% System (I/O)                 : --
Total memory reserved          : 25000M
Maximum memory used            : --

Acknowledgements:
=================

Please see this page for information about acknowledging Hbrk in your publications:

https://wiki.hpc.rug.nl/habrok/introduction/scientific_output

################################################################################
