   This run of MOLCAS is using the pymolcas driver

                             OPE
                             OPE          NMOL  CASOP  ENMOLC A   SO
                 OPE        NMOLC        AS  OP EN  MO LC     AS  OP
                OPENM       OL CA        SO  PE NM  OL CA     SOP EN
                OP EN      MO   LC       AS  OP ENMOL  CASO   PENMOL
                OP  EN     MO   LC       AS  OP EN     MO     LC ASO
               OP   E  NMOL  C  AS       OP  EN MO     LC     AS  OP
               OP  E   NMO   LC AS        OPEN  MO     LCASOP EN   M
               O  PEN   MO  LCA  SO
            OPE   NMO   L   CAS    OP
        OPENMOL  CASOP     ENMOL   CASOPE
     OPENMOLCA   SOPENMOLCASOPEN   MOLCASOPE
    OPENMOLCAS   OP           EN   MOL    CAS
    OPENMOLCAS       OP  ENM        O     LCA
    OPENMOLCAS    OPEN  MOLCASO     P  E  NMO
    OPENMOLCAS     OP               E  N  MOL
    OPENMOLCA   SO           PENM   O  L  CAS    OPEN    MO    LCAS
    OPENMOLCA   SOP           ENM   O  L  CAS   OP  EN  MOLC  AS   O
    OPENMOLCA   SOPE           NM      O  LCA   S      OP  EN MO
    OPENMOLC                AS         O  PEN   M      OL  CA  SOPE
    OPENMO        LCASOPE  NMOL        C  ASO   P      ENMOLC     AS
    OPE     NMO      LCA  SO     P     E   NM   OL  CA SO  PE N   MO
          OPENMOLCA            SOPE   NMO        LCAS  O    P  ENMO
     OPENMOLCASOPENMOLCASOPENMOLCASOPENMOLCA
        OPENMOLCASOPENMOLCASOPENMOLCASOPE
            OPENMOLCASOPENMOLCASOPENM
               OPENMOLCASOPENMOLCA        version: o91e1abe7de707b ?
                   OPENMOLCASO
                       OPE                tag:

 OpenMolcas is free software; you can redistribute it and/or modify it
 under the terms of the GNU Lesser General Public License version 2.1.
 OpenMolcas is distributed in the hope that it will be useful, but it
 is provided "as is" and without any express or implied warranties.
 For more details see the full text of the license in the file
 LICENSE or in <http://www.gnu.org/licenses/>.

                 Copyright (C) The OpenMolcas Authors
           For the author list and the recommended citation,
                   consult the file CONTRIBUTORS.md

           *************************************************
           * pymolcas version py2.10                       *
           *   build 3068ae8b88c9345ec6cfef6fef7f1169      *
           *   (after the EMIL interpreter by V. Veryazov) *
           *************************************************

configuration info
------------------
Host name: login1 (Linux)
C Compiler ID: GNU
C flags: -std=gnu99
Fortran Compiler ID: GNU
Fortran flags: -fno-aggressive-loop-optimizations -cpp -fdefault-integer-8 -fmax-stack-var-size=1048576
Definitions: _MOLCAS_;_I8_;_LINUX_;_MKL_
Parallel: OFF (GA=OFF)


   ----------------------------------------------------------------------------------------------------------------------------------------------
  |
  |           Project: molybdenum_so_cf
  |    Submitted from: /home4/s4752295/Internship/Initial_simulations/Point_charge_model/1_electron/active_space_9_non_rel/Mo/varying_bond_length
  |      Scratch area: /tmp/molybdenum_so_cf
  |   Save outputs to: /home4/s4752295/Internship/Initial_simulations/Point_charge_model/1_electron/active_space_9_non_rel/Mo/varying_bond_length
  |            Molcas: /home4/s4752295/Internship/Molcas/recomp_try/OpenMolcas-master/build
  |
  | Scratch area is empty
  |
  |    MOLCAS_DRIVER = /home4/s4752295/Internship/Molcas/bin/pymolcas
  |    MOLCAS_NPROCS = 1
  |    MOLCAS_SOURCE = /home4/s4752295/Internship/Molcas/recomp_try/OpenMolcas-master
  | MOLCAS_STRUCTURE = 0
  |
   ----------------------------------------------------------------------------------------------------------------------------------------------

++ ---------   Input file   ---------

&SEWARD
AMFi

CLIG
$R

Basis Set
Mo.ANO-rcc.Roos.21s18p13d6f4g2h.10s9p9d6f4g2h.
Spherical d
Mo            0.0       0.0     0.0
End of Basis

Xfield

4
0.000000,  0.000,  3.78         -1.0
3.273576,  0.000, -1.89         -1.0
-1.636788,  2.835, -1.89        -1.0
-1.636788, -2.835, -1.89        -1.0

End of input

&SCF
Occupied
18
Iterations
   50  100
End of Input

&RASSCF
LumOrb
Symmetry
1
Spin
2
Nactel
1 0 0
CIRoot
9 9 1
inactive
18
ras2
9
End of Input

>>> COPY molybdenum_so_cf.JobIph $SLURM_SUBMIT_DIR/molybdenum_so_cf.doublet.JobIph

>>> COPY $SLURM_SUBMIT_DIR/molybdenum_so_cf.doublet.JobIph ./JOB002

&RASSI
NROFJobIph
1 All
SpinOrbit
End of Input

EOF

-- ----------------------------------

--- Start Module: seward at Thu Jan  9 00:50:43 2025 ---

()()()()()()()()()()()()()()()()()()()()()()()()()()()()()()()()()()()()()()()()()()()()()()()()()()

                                              &SEWARD

                                   only a single process is used
                       available to each process: 4.1 GB of memory, 1 thread?
                                            pid: 1478750
()()()()()()()()()()()()()()()()()()()()()()()()()()()()()()()()()()()()()()()()()()()()()()()()()()

 The speed of LIGHT in this CALCULATION =   137.03599917700001     
               SEWARD will generate:
                  Multipole Moment integrals up to order  2
                  Kinetic Energy integrals
                  Nuclear Attraction integrals (point charge)
                  One-Electron Hamiltonian integrals
                  Velocity integrals
                  Relativistic Douglas-Kroll-Hess integrals:
                    - Parametrization         : EXP
                    - DKH order of Hamiltonian: 2
                    - DKH order of Properties : 0
                         - multipole moment operators
                         - electric potential operators
                         - contact operators
                  External field from     4 point(s) added to the one-electron Hamiltonian
                  Orbital angular momentum around ( 0.0000  0.0000  0.0000 )
                  Velocity quadrupole around ( 0.0000  0.0000  0.0000 )
                  Atomic mean-field integrals
                  Two-Electron Repulsion integrals

                   Integrals are discarded if absolute value <: 0.10E-13
                   Integral cutoff threshold is set to       <: 0.10E-15

++    Symmetry information:
      ---------------------

                    Character Table for C1 

                             E  
                    a        1  x, y, xy, Rz, z, xz, Ry, yz, Rx, I
--


++    Basis set information:
      ----------------------


      Basis set label: MO.ANO-RCC.ROOS.21S18P13D6F4G2H.10S9P9D6F4G2H......

      Electronic valence basis set:
      ------------------
      Associated Effective Charge  42.000000 au
      Associated Actual Charge     42.000000 au
      Nuclear Model: Point charge

      Shell  nPrim  nBasis  Cartesian Spherical Contaminant
         s      21      10        X                  
         p      18       9        X                  
         d      13       9                 X         
         f       6       6                 X         
         g       4       4                 X         
         h       2       2                 X         
--


++    Molecular structure info:
      -------------------------

                    ************************************************ 
                    **** Cartesian Coordinates / Bohr, Angstrom **** 
                    ************************************************ 

     Center  Label                x              y              z                     x              y              z
        1      MO               0.000000       0.000000       0.000000              0.000000       0.000000       0.000000
--


++    Operator info:
      --------------


  Net charge from external field:   -4.0000000000000000     
--


            Nuclear Potential Energy              0.00000000 au

                    Nuclear-External Field Potential Energy     -44.44444454 au
                    External Field Potential Energy               0.98731503 au 


            Total Nuclear Potential Energy            -44.44444454 au


      Basis set specifications :
      Symmetry species         a  
      Basis functions          182

 Sorry, Molden does not know how to handle
 functions with angular momentum larger than g
Note: The following floating-point exceptions are signalling: IEEE_UNDERFLOW_FLAG IEEE_DENORMAL
--- Stop Module: seward at Thu Jan  9 00:50:56 2025 /rc=_RC_ALL_IS_WELL_ ---
*** files: molybdenum_so_cf.GssOrb xmldump
    saved to directory /home4/s4752295/Internship/Initial_simulations/Point_charge_model/1_electron/active_space_9_non_rel/Mo/varying_bond_length
--- Module seward spent 12 seconds ---

*** symbolic link created: INPORB -> molybdenum_so_cf.GssOrb
--- Start Module: scf at Thu Jan  9 00:50:56 2025 ---

()()()()()()()()()()()()()()()()()()()()()()()()()()()()()()()()()()()()()()()()()()()()()()()()()()

                                                &SCF

                                   only a single process is used
                       available to each process: 4.1 GB of memory, 1 thread?
                                            pid: 1478755
()()()()()()()()()()()()()()()()()()()()()()()()()()()()()()()()()()()()()()()()()()()()()()()()()()

++    Input section:
      --------------

      Header of the integral files:
      
       Integrals generated by seward 4.2.0  , Thu Jan  9 00:50:44 2025


      Cartesian coordinates in Angstrom:
      -----------------------------------------------------
      No.  Label        X            Y            Z        
      -----------------------------------------------------
       1   MO         0.00000000   0.00000000   0.00000000
      -----------------------------------------------------
      Nuclear repulsion energy =  -44.44444454
--

++    Orbital specifications:
      -----------------------

      Symmetry species               1
                                     a
      Frozen orbitals                0
      Occupied orbitals             18
      Secondary orbitals           164
      Deleted orbitals               0
      Total number of orbitals     182
      Number of basis functions    182
--

      Molecular charge                           6.000

++    Optimization specifications:
      ----------------------------

      SCF Algorithm: Conventional
      Minimized density differences are used
      Number of density matrices in core                5
      Maximum number of NDDO SCF iterations            50
      Maximum number of HF SCF iterations             100
      Threshold for SCF energy change            0.10E-08
      Threshold for density matrix               0.10E-03
      Threshold for Fock matrix                  0.15E-03
      Threshold for linear dependence            0.10E-08
      Threshold at which DIIS is turned on       0.15E+00
      Threshold at which QNR/C2DIIS is turned on 0.75E-01
      Threshold for Norm(delta) (QNR/C2DIIS)     0.20E-04
      DIIS extrapolation of the SCF procedure
      All orbitals punched on: SCFORB
--

      Detected guessorb starting orbitals                                             


++ Convergence information
                                   SCF        iterations: Energy and convergence statistics

Iter     Tot. SCF        One-elec.       Two-elec.     Energy      Max Dij or  Max Fij      DNorm      TNorm      AccCon     Time
         Energy          Energy          Energy        Change      Delta Norm                                                in Sec.

 The total and one-electron energies are shifted by a value of      4000. a.u.

   1   -44.158569357 -1405.738574101  1406.024449289   0.00E+00    0.19E+00*   0.22E+00*    0.85E+01   0.55E+03   None         1.
   2   -44.411457309 -1423.512294281  1423.545281517  -0.25E+00*   0.13E-01*   0.52E-01*    0.79E+00   0.56E+03   EDIIS        1.
   3   -44.418562402 -1419.125338343  1419.151220486  -0.71E-02*   0.42E-02*   0.26E-01*    0.88E-01   0.55E+03   EDIIS        1.
   4   -44.419577150 -1420.988263676  1421.013131071  -0.10E-02*   0.54E-03*   0.76E-02*    0.12E-01   0.55E+03   c2DIIS       1.
   5   -44.419787740 -1420.453768244  1420.478425048  -0.21E-03*   0.14E-03*   0.20E-03*    0.11E-02   0.55E+03   QNRc2DIIS    1.
   6   -44.419787874 -1420.447841885  1420.472498556  -0.13E-06*   0.65E-04*   0.51E-04     0.20E-03   0.55E+03   QNRc2DIIS    1.
   7   -44.419787889 -1420.450369471  1420.475026127  -0.15E-07*   0.61E-05    0.12E-04     0.33E-04   0.55E+03   QNRc2DIIS    1.
   8   -44.419787889 -1420.449824529  1420.474481185  -0.42E-09    0.89E-06    0.10E-05     0.38E-04   0.55E+03   QNRc2DIIS    1.

       Convergence after  8 Macro Iterations
--

 *****************************************************************************************************************************
 *                                                                                                                           *
 *                                             SCF/KS-DFT Program, Final results                                             *
 *                                                                                                                           *
 *                                                                                                                           *
 *                                                                                                                           *
 *                                                       Final Results                                                       *
 *                                                                                                                           *
 *****************************************************************************************************************************

::    Total SCF energy                              -4044.4197878893
      One-electron energy                           -5420.4498245292
      Two-electron energy                            1420.4744811848
      Nuclear repulsion energy                        -44.4444445449
      Kinetic energy (interpolated)                  4470.0487123619
      Virial theorem                                    0.9047820389
      Total spin, S(S+1)                                0.0000000000
      Total spin, S                                     0.0000000000
      Max non-diagonal density matrix element           0.0000007625
      Max non-diagonal Fock matrix element              0.0000001240


      All orbitals with orbital energies smaller than  E(LUMO)+0.5 are printed

++    Molecular orbitals:
      -------------------

      Title: SCF orbitals

      Molecular orbitals for symmetry species 1: a  

          Orbital            1         2         3         4         5         6         7         8         9        10    
          Energy         -740.8170 -109.2802  -97.7326  -97.7326  -97.7325  -21.5474  -17.6484  -17.6484  -17.6477  -11.2814
          Occ. No.          2.0000    2.0000    2.0000    2.0000    2.0000    2.0000    2.0000    2.0000    2.0000    2.0000

        1 MO     1s         1.0000   -0.0000    0.0000   -0.0000   -0.0000    0.0000   -0.0000   -0.0000    0.0000    0.0000
        2 MO     2s         0.0000    1.0000   -0.0000   -0.0000   -0.0000    0.0001    0.0000    0.0000   -0.0000   -0.0000
        3 MO     3s        -0.0000   -0.0001   -0.0000    0.0000    0.0000    1.0000    0.0000    0.0000   -0.0003   -0.0000
        4 MO     4s         0.0000    0.0000    0.0000   -0.0000   -0.0000   -0.0015   -0.0000   -0.0000    0.0001    0.0000
        5 MO     5s        -0.0000    0.0000   -0.0000    0.0000    0.0000    0.0002    0.0000    0.0000   -0.0000    0.0000
        6 MO     6s         0.0000    0.0000    0.0000   -0.0000   -0.0000   -0.0002   -0.0000   -0.0000    0.0000   -0.0000
        7 MO     7s        -0.0000   -0.0000   -0.0000    0.0000    0.0000    0.0006    0.0000    0.0000   -0.0000   -0.0000
        8 MO     8s         0.0000    0.0000    0.0000   -0.0000   -0.0000   -0.0005   -0.0000   -0.0000    0.0000   -0.0000
        9 MO     9s        -0.0000   -0.0000    0.0000    0.0000    0.0000    0.0004    0.0000   -0.0000   -0.0000   -0.0000
       10 MO    10s         0.0000    0.0000    0.0000   -0.0000   -0.0000   -0.0003   -0.0000   -0.0000    0.0000   -0.0000
       11 MO     2px       -0.0000    0.0000    0.9902   -0.1395    0.0000    0.0000    0.0001    0.0000   -0.0000   -0.0000
       12 MO     3px        0.0000   -0.0000   -0.0001    0.0000   -0.0000   -0.0000    0.9976    0.0688   -0.0000    0.0000
       13 MO     4px       -0.0000    0.0000    0.0001   -0.0000    0.0000   -0.0000   -0.0022   -0.0001    0.0000   -0.0000
       14 MO     5px        0.0000   -0.0000   -0.0000    0.0000   -0.0000    0.0000    0.0004    0.0000   -0.0000   -0.0000
       15 MO     6px       -0.0000    0.0000    0.0000   -0.0000    0.0000   -0.0000   -0.0008   -0.0001    0.0000    0.0000
       16 MO     7px        0.0000   -0.0000   -0.0000    0.0000   -0.0000    0.0000    0.0005    0.0000   -0.0000   -0.0000
       17 MO     8px       -0.0000    0.0000    0.0000   -0.0000    0.0000   -0.0000   -0.0005   -0.0000    0.0000    0.0000
       18 MO     9px        0.0000   -0.0000   -0.0000    0.0000   -0.0000    0.0000    0.0004    0.0000   -0.0000   -0.0000
       19 MO    10px       -0.0000    0.0000    0.0000   -0.0000    0.0000   -0.0000   -0.0002   -0.0000    0.0000    0.0000
       20 MO     2py        0.0000    0.0000    0.1395    0.9902   -0.0000    0.0000   -0.0000    0.0001   -0.0000    0.0000
       21 MO     3py        0.0000   -0.0000   -0.0000   -0.0001    0.0000    0.0000   -0.0688    0.9976   -0.0000   -0.0000
       22 MO     4py        0.0000    0.0000    0.0000    0.0001   -0.0000   -0.0000    0.0001   -0.0022    0.0000    0.0000
       23 MO     5py       -0.0000   -0.0000   -0.0000   -0.0000    0.0000    0.0000   -0.0000    0.0004   -0.0000    0.0000
       24 MO     6py        0.0000    0.0000    0.0000    0.0000   -0.0000   -0.0000    0.0001   -0.0008    0.0000   -0.0000
       25 MO     7py        0.0000   -0.0000   -0.0000   -0.0000    0.0000    0.0000   -0.0000    0.0005   -0.0000    0.0000
       26 MO     8py       -0.0000    0.0000    0.0000    0.0000   -0.0000   -0.0000    0.0000   -0.0005    0.0000   -0.0000
       27 MO     9py        0.0000   -0.0000   -0.0000   -0.0000    0.0000    0.0000   -0.0000    0.0004   -0.0000    0.0000
       28 MO    10py       -0.0000    0.0000    0.0000    0.0000   -0.0000   -0.0000    0.0000   -0.0002    0.0000   -0.0000
       29 MO     2pz        0.0000    0.0000   -0.0000    0.0000    1.0000   -0.0000    0.0000    0.0000    0.0001    0.0000
       30 MO     3pz       -0.0000    0.0000    0.0000   -0.0000   -0.0001    0.0003    0.0000    0.0000    1.0000    0.0000
       31 MO     4pz        0.0000   -0.0000   -0.0000    0.0000    0.0001    0.0001   -0.0000   -0.0000   -0.0022   -0.0000
       32 MO     5pz       -0.0000    0.0000    0.0000   -0.0000   -0.0000   -0.0000    0.0000    0.0000    0.0004    0.0000
       33 MO     6pz        0.0000   -0.0000   -0.0000    0.0000    0.0000    0.0000   -0.0000   -0.0000   -0.0008   -0.0000
       34 MO     7pz       -0.0000    0.0000    0.0000   -0.0000   -0.0000   -0.0000    0.0000    0.0000    0.0005    0.0000
       35 MO     8pz        0.0000   -0.0000   -0.0000    0.0000    0.0000    0.0000   -0.0000   -0.0000   -0.0005   -0.0000
       36 MO     9pz       -0.0000    0.0000    0.0000   -0.0000   -0.0000   -0.0000    0.0000    0.0000    0.0004    0.0000
       37 MO    10pz        0.0000   -0.0000   -0.0000    0.0000    0.0000    0.0000   -0.0000   -0.0000   -0.0002   -0.0000
       38 MO     3d2-       0.0000    0.0000   -0.0000   -0.0000   -0.0000   -0.0000   -0.0000    0.0000   -0.0000    0.0072
       39 MO     4d2-      -0.0000   -0.0000   -0.0000   -0.0000    0.0000    0.0000   -0.0000    0.0000   -0.0000   -0.0000
       40 MO     5d2-       0.0000    0.0000    0.0000    0.0000    0.0000   -0.0000    0.0000   -0.0000   -0.0000    0.0000
       41 MO     6d2-      -0.0000   -0.0000   -0.0000   -0.0000   -0.0000    0.0000   -0.0000    0.0000    0.0000   -0.0000
       42 MO     7d2-       0.0000    0.0000    0.0000    0.0000   -0.0000   -0.0000   -0.0000    0.0000    0.0000    0.0000
       43 MO     8d2-      -0.0000   -0.0000    0.0000    0.0000    0.0000    0.0000    0.0000   -0.0000    0.0000   -0.0000
       44 MO     9d2-      -0.0000    0.0000   -0.0000   -0.0000    0.0000   -0.0000   -0.0000    0.0000   -0.0000    0.0000
       45 MO    10d2-       0.0000   -0.0000    0.0000    0.0000   -0.0000    0.0000    0.0000   -0.0000    0.0000   -0.0000
       46 MO    11d2-      -0.0000    0.0000   -0.0000   -0.0000    0.0000    0.0000   -0.0000    0.0000    0.0000    0.0000
       47 MO     3d1-       0.0000   -0.0000   -0.0000   -0.0000    0.0000   -0.0000   -0.0000    0.0002   -0.0000   -0.0003
       48 MO     4d1-      -0.0000    0.0000   -0.0000   -0.0000    0.0000    0.0000   -0.0000    0.0000   -0.0000    0.0000
       49 MO     5d1-       0.0000   -0.0000    0.0000    0.0000    0.0000   -0.0000    0.0000   -0.0000    0.0000   -0.0000
       50 MO     6d1-      -0.0000    0.0000    0.0000    0.0000    0.0000    0.0000   -0.0000    0.0000   -0.0000    0.0000
       51 MO     7d1-       0.0000   -0.0000   -0.0000   -0.0000    0.0000   -0.0000    0.0000   -0.0000    0.0000   -0.0000
       52 MO     8d1-      -0.0000    0.0000    0.0000    0.0000   -0.0000   -0.0000   -0.0000    0.0000   -0.0000    0.0000
       53 MO     9d1-       0.0000   -0.0000   -0.0000   -0.0000    0.0000    0.0000    0.0000   -0.0000    0.0000   -0.0000
       54 MO    10d1-      -0.0000    0.0000    0.0000    0.0000   -0.0000   -0.0000   -0.0000    0.0000   -0.0000    0.0000
       55 MO    11d1-       0.0000   -0.0000   -0.0000   -0.0000    0.0000    0.0000   -0.0000    0.0000    0.0000   -0.0000
       56 MO     3d0       -0.0000   -0.0000    0.0000   -0.0000    0.0000   -0.0001    0.0000    0.0000    0.0002   -0.0000
       57 MO     4d0        0.0000    0.0000    0.0000   -0.0000    0.0000   -0.0000    0.0000    0.0000    0.0000    0.0000
       58 MO     5d0       -0.0000   -0.0000   -0.0000    0.0000   -0.0000    0.0000   -0.0000   -0.0000   -0.0000   -0.0000
       59 MO     6d0        0.0000    0.0000   -0.0000    0.0000    0.0000   -0.0000    0.0000    0.0000    0.0000    0.0000
       60 MO     7d0       -0.0000   -0.0000    0.0000   -0.0000   -0.0000    0.0000   -0.0000   -0.0000   -0.0000   -0.0000
       61 MO     8d0        0.0000    0.0000   -0.0000    0.0000    0.0000   -0.0000    0.0000    0.0000    0.0000    0.0000
       62 MO     9d0       -0.0000   -0.0000    0.0000   -0.0000   -0.0000    0.0000   -0.0000   -0.0000   -0.0000   -0.0000
       63 MO    10d0        0.0000    0.0000    0.0000    0.0000   -0.0000   -0.0000    0.0000    0.0000    0.0000    0.0000
       64 MO    11d0       -0.0000   -0.0000   -0.0000   -0.0000    0.0000    0.0000    0.0000    0.0000    0.0000   -0.0000
       65 MO     3d1+       0.0000    0.0000   -0.0000    0.0000   -0.0000    0.0000    0.0002    0.0000   -0.0000    0.0425
       66 MO     4d1+      -0.0000   -0.0000   -0.0000    0.0000   -0.0000    0.0000    0.0000    0.0000   -0.0000   -0.0001
       67 MO     5d1+       0.0000    0.0000    0.0000   -0.0000    0.0000   -0.0000   -0.0000   -0.0000    0.0000    0.0000
       68 MO     6d1+      -0.0000   -0.0000    0.0000   -0.0000   -0.0000    0.0000    0.0000    0.0000   -0.0000   -0.0000
       69 MO     7d1+       0.0000    0.0000   -0.0000    0.0000    0.0000   -0.0000   -0.0000   -0.0000    0.0000    0.0000
       70 MO     8d1+      -0.0000   -0.0000    0.0000   -0.0000   -0.0000    0.0000    0.0000    0.0000   -0.0000   -0.0000
       71 MO     9d1+       0.0000    0.0000   -0.0000    0.0000    0.0000   -0.0000   -0.0000   -0.0000    0.0000    0.0000
       72 MO    10d1+      -0.0000   -0.0000    0.0000   -0.0000   -0.0000    0.0000    0.0000    0.0000   -0.0000   -0.0000
       73 MO    11d1+       0.0000    0.0000   -0.0000    0.0000    0.0000   -0.0000    0.0000    0.0000   -0.0000    0.0000
       74 MO     3d2+       0.0000   -0.0000    0.0000   -0.0000    0.0000    0.0000   -0.0000   -0.0000    0.0000    0.9991
       75 MO     4d2+       0.0000    0.0000    0.0000   -0.0000    0.0000    0.0000   -0.0000   -0.0000    0.0000   -0.0020
       76 MO     5d2+      -0.0000   -0.0000   -0.0000    0.0000   -0.0000   -0.0000    0.0000    0.0000   -0.0000    0.0013
       77 MO     6d2+       0.0000    0.0000    0.0000   -0.0000    0.0000    0.0000   -0.0000   -0.0000    0.0000   -0.0005
       78 MO     7d2+      -0.0000   -0.0000   -0.0000    0.0000   -0.0000   -0.0000   -0.0000   -0.0000    0.0000    0.0002
       79 MO     8d2+       0.0000    0.0000   -0.0000    0.0000   -0.0000    0.0000    0.0000    0.0000   -0.0000   -0.0003
       80 MO     9d2+      -0.0000   -0.0000    0.0000   -0.0000    0.0000   -0.0000   -0.0000   -0.0000    0.0000    0.0003
       81 MO    10d2+       0.0000    0.0000   -0.0000    0.0000   -0.0000    0.0000    0.0000    0.0000   -0.0000   -0.0004
       82 MO    11d2+      -0.0000   -0.0000    0.0000   -0.0000    0.0000   -0.0000   -0.0000   -0.0000    0.0000    0.0000
       83 MO     4f3-      -0.0000    0.0000    0.0000    0.0000    0.0000    0.0000   -0.0000    0.0000   -0.0000   -0.0000
       84 MO     5f3-      -0.0000    0.0000   -0.0000    0.0000    0.0000    0.0000   -0.0000    0.0000    0.0000   -0.0000
       85 MO     6f3-       0.0000   -0.0000    0.0000   -0.0000   -0.0000   -0.0000    0.0000   -0.0000    0.0000    0.0000
       86 MO     7f3-       0.0000    0.0000   -0.0000    0.0000    0.0000    0.0000   -0.0000    0.0000   -0.0000   -0.0000
       87 MO     8f3-       0.0000   -0.0000   -0.0000    0.0000   -0.0000    0.0000   -0.0000    0.0000    0.0000   -0.0000
       88 MO     9f3-      -0.0000    0.0000   -0.0000   -0.0000   -0.0000   -0.0000    0.0000   -0.0000   -0.0000    0.0000
       89 MO     4f2-       0.0000   -0.0000   -0.0000   -0.0000    0.0000   -0.0000    0.0000   -0.0000    0.0000    0.0000
       90 MO     5f2-       0.0000   -0.0000   -0.0000   -0.0000    0.0000   -0.0000    0.0000   -0.0000    0.0000    0.0000
       91 MO     6f2-      -0.0000    0.0000    0.0000    0.0000   -0.0000    0.0000   -0.0000    0.0000   -0.0000   -0.0000
       92 MO     7f2-       0.0000   -0.0000    0.0000    0.0000   -0.0000   -0.0000    0.0000   -0.0000    0.0000    0.0000
       93 MO     8f2-       0.0000   -0.0000   -0.0000   -0.0000   -0.0000   -0.0000   -0.0000    0.0000    0.0000    0.0000
       94 MO     9f2-       0.0000    0.0000   -0.0000   -0.0000    0.0000    0.0000   -0.0000    0.0000   -0.0000   -0.0000
       95 MO     4f1-      -0.0000    0.0000   -0.0000   -0.0000    0.0000    0.0000    0.0000   -0.0000    0.0000   -0.0000
       96 MO     5f1-       0.0000    0.0000   -0.0000   -0.0000    0.0000    0.0000    0.0000   -0.0000    0.0000   -0.0000
       97 MO     6f1-      -0.0000   -0.0000    0.0000    0.0000   -0.0000   -0.0000   -0.0000    0.0000   -0.0000    0.0000
       98 MO     7f1-       0.0000    0.0000   -0.0000   -0.0000    0.0000    0.0000    0.0000   -0.0000   -0.0000   -0.0000
       99 MO     8f1-       0.0000   -0.0000   -0.0000   -0.0000    0.0000    0.0000    0.0000   -0.0000    0.0000   -0.0000
      100 MO     9f1-       0.0000    0.0000    0.0000    0.0000   -0.0000   -0.0000   -0.0000    0.0000   -0.0000    0.0000
      101 MO     4f0       -0.0000    0.0000   -0.0000   -0.0000   -0.0000   -0.0000   -0.0000   -0.0000   -0.0000   -0.0000
      102 MO     5f0       -0.0000    0.0000   -0.0000   -0.0000   -0.0000   -0.0000   -0.0000   -0.0000   -0.0000   -0.0000
      103 MO     6f0        0.0000   -0.0000   -0.0000    0.0000    0.0000    0.0000    0.0000    0.0000    0.0000    0.0000
      104 MO     7f0       -0.0000    0.0000   -0.0000    0.0000   -0.0000    0.0000   -0.0000   -0.0000   -0.0000   -0.0000
      105 MO     8f0        0.0000    0.0000    0.0000   -0.0000   -0.0000    0.0000   -0.0000   -0.0000   -0.0000   -0.0000
      106 MO     9f0       -0.0000    0.0000   -0.0000   -0.0000    0.0000   -0.0000    0.0000    0.0000    0.0000    0.0000
      107 MO     4f1+      -0.0000    0.0000   -0.0000    0.0000    0.0000   -0.0000   -0.0000   -0.0000    0.0000    0.0000
      108 MO     5f1+      -0.0000    0.0000   -0.0000    0.0000    0.0000   -0.0000   -0.0000   -0.0000    0.0000    0.0000
      109 MO     6f1+       0.0000   -0.0000    0.0000   -0.0000   -0.0000    0.0000    0.0000    0.0000   -0.0000   -0.0000
      110 MO     7f1+      -0.0000    0.0000   -0.0000    0.0000    0.0000    0.0000   -0.0000   -0.0000    0.0000    0.0000
      111 MO     8f1+       0.0000    0.0000   -0.0000    0.0000    0.0000    0.0000   -0.0000   -0.0000    0.0000    0.0000
      112 MO     9f1+      -0.0000    0.0000    0.0000   -0.0000   -0.0000   -0.0000    0.0000    0.0000   -0.0000   -0.0000
      113 MO     4f2+       0.0000   -0.0000    0.0000   -0.0000    0.0000    0.0000    0.0000    0.0000   -0.0000    0.0001
      114 MO     5f2+       0.0000   -0.0000    0.0000   -0.0000    0.0000    0.0000    0.0000    0.0000   -0.0000    0.0001
      115 MO     6f2+      -0.0000    0.0000   -0.0000    0.0000   -0.0000   -0.0000   -0.0000   -0.0000    0.0000   -0.0000
      116 MO     7f2+       0.0000   -0.0000   -0.0000    0.0000    0.0000    0.0000    0.0000    0.0000    0.0000    0.0000
      117 MO     8f2+      -0.0000    0.0000    0.0000   -0.0000    0.0000   -0.0000   -0.0000   -0.0000    0.0000    0.0000
      118 MO     9f2+       0.0000   -0.0000    0.0000   -0.0000   -0.0000    0.0000   -0.0000   -0.0000   -0.0000   -0.0000
      119 MO     4f3+      -0.0000    0.0000   -0.0000    0.0000    0.0000   -0.0000    0.0000    0.0000    0.0000   -0.0000
      120 MO     5f3+      -0.0000    0.0000   -0.0000    0.0000    0.0000   -0.0000    0.0000    0.0000    0.0000   -0.0000
      121 MO     6f3+       0.0000   -0.0000   -0.0000   -0.0000   -0.0000    0.0000   -0.0000   -0.0000   -0.0000    0.0000
      122 MO     7f3+      -0.0000    0.0000   -0.0000   -0.0000   -0.0000    0.0000    0.0000    0.0000    0.0000   -0.0000
      123 MO     8f3+       0.0000    0.0000    0.0000   -0.0000    0.0000    0.0000    0.0000    0.0000   -0.0000   -0.0000
      124 MO     9f3+      -0.0000    0.0000   -0.0000   -0.0000    0.0000   -0.0000   -0.0000   -0.0000   -0.0000    0.0000
      125 MO     5g4-      -0.0000    0.0000    0.0000    0.0000   -0.0000    0.0000    0.0000   -0.0000    0.0000    0.0000
      126 MO     6g4-       0.0000   -0.0000   -0.0000   -0.0000    0.0000   -0.0000   -0.0000    0.0000   -0.0000    0.0000
      127 MO     7g4-      -0.0000    0.0000    0.0000    0.0000   -0.0000    0.0000    0.0000   -0.0000    0.0000   -0.0000
      128 MO     8g4-       0.0000   -0.0000   -0.0000   -0.0000    0.0000   -0.0000    0.0000   -0.0000   -0.0000   -0.0000
      129 MO     5g3-       0.0000    0.0000   -0.0000   -0.0000    0.0000    0.0000   -0.0000    0.0000    0.0000    0.0000
      130 MO     6g3-      -0.0000   -0.0000    0.0000    0.0000   -0.0000   -0.0000    0.0000   -0.0000   -0.0000   -0.0000
      131 MO     7g3-       0.0000    0.0000   -0.0000   -0.0000    0.0000    0.0000   -0.0000    0.0000    0.0000    0.0000
      132 MO     8g3-      -0.0000   -0.0000    0.0000    0.0000    0.0000   -0.0000   -0.0000    0.0000   -0.0000   -0.0000
      133 MO     5g2-      -0.0000   -0.0000    0.0000    0.0000   -0.0000   -0.0000    0.0000   -0.0000    0.0000   -0.0000
      134 MO     6g2-       0.0000    0.0000   -0.0000   -0.0000    0.0000    0.0000   -0.0000    0.0000    0.0000    0.0000
      135 MO     7g2-      -0.0000   -0.0000    0.0000    0.0000   -0.0000   -0.0000    0.0000   -0.0000   -0.0000   -0.0000
      136 MO     8g2-       0.0000    0.0000   -0.0000   -0.0000    0.0000    0.0000    0.0000   -0.0000    0.0000    0.0000
      137 MO     5g1-      -0.0000   -0.0000    0.0000    0.0000   -0.0000    0.0000    0.0000   -0.0000    0.0000    0.0000
      138 MO     6g1-      -0.0000    0.0000   -0.0000   -0.0000    0.0000   -0.0000   -0.0000    0.0000   -0.0000   -0.0000
      139 MO     7g1-       0.0000   -0.0000    0.0000    0.0000   -0.0000   -0.0000    0.0000   -0.0000    0.0000    0.0000
      140 MO     8g1-      -0.0000    0.0000   -0.0000   -0.0000    0.0000    0.0000    0.0000   -0.0000   -0.0000   -0.0000
      141 MO     5g0       -0.0000    0.0000   -0.0000    0.0000    0.0000   -0.0000   -0.0000   -0.0000   -0.0000    0.0000
      142 MO     6g0       -0.0000   -0.0000    0.0000    0.0000   -0.0000    0.0000    0.0000    0.0000    0.0000   -0.0000
      143 MO     7g0       -0.0000   -0.0000   -0.0000    0.0000    0.0000    0.0000   -0.0000   -0.0000   -0.0000    0.0000
      144 MO     8g0        0.0000   -0.0000    0.0000   -0.0000   -0.0000    0.0000   -0.0000   -0.0000   -0.0000   -0.0000
      145 MO     5g1+      -0.0000    0.0000    0.0000   -0.0000    0.0000   -0.0000   -0.0000   -0.0000    0.0000   -0.0000
      146 MO     6g1+       0.0000    0.0000   -0.0000    0.0000   -0.0000    0.0000    0.0000    0.0000   -0.0000    0.0000
      147 MO     7g1+      -0.0000   -0.0000    0.0000   -0.0000    0.0000   -0.0000   -0.0000   -0.0000    0.0000   -0.0000
      148 MO     8g1+       0.0000   -0.0000   -0.0000    0.0000   -0.0000    0.0000   -0.0000   -0.0000    0.0000    0.0000
      149 MO     5g2+      -0.0000    0.0000   -0.0000    0.0000   -0.0000   -0.0000    0.0000    0.0000    0.0000   -0.0000
      150 MO     6g2+       0.0000    0.0000    0.0000   -0.0000    0.0000    0.0000   -0.0000   -0.0000   -0.0000    0.0000
      151 MO     7g2+      -0.0000   -0.0000   -0.0000    0.0000   -0.0000   -0.0000    0.0000    0.0000    0.0000   -0.0000
      152 MO     8g2+       0.0000    0.0000    0.0000   -0.0000    0.0000    0.0000    0.0000    0.0000   -0.0000    0.0000
      153 MO     5g3+       0.0000   -0.0000   -0.0000    0.0000    0.0000    0.0000   -0.0000   -0.0000   -0.0000    0.0000
      154 MO     6g3+       0.0000    0.0000    0.0000   -0.0000   -0.0000   -0.0000    0.0000    0.0000    0.0000   -0.0000
      155 MO     7g3+       0.0000    0.0000   -0.0000    0.0000    0.0000    0.0000   -0.0000   -0.0000   -0.0000    0.0000
      156 MO     8g3+       0.0000    0.0000    0.0000   -0.0000   -0.0000   -0.0000   -0.0000   -0.0000   -0.0000   -0.0000
      157 MO     5g4+      -0.0000    0.0000    0.0000   -0.0000    0.0000   -0.0000   -0.0000   -0.0000    0.0000   -0.0000
      158 MO     6g4+       0.0000   -0.0000   -0.0000    0.0000   -0.0000    0.0000    0.0000    0.0000   -0.0000   -0.0000
      159 MO     7g4+      -0.0000   -0.0000    0.0000   -0.0000    0.0000   -0.0000   -0.0000   -0.0000    0.0000    0.0000
      160 MO     8g4+      -0.0000   -0.0000   -0.0000    0.0000   -0.0000    0.0000   -0.0000   -0.0000    0.0000    0.0000
      161 MO     6h5-      -0.0000   -0.0000    0.0000    0.0000   -0.0000   -0.0000   -0.0000    0.0000   -0.0000   -0.0000
      162 MO     7h5-       0.0000    0.0000   -0.0000   -0.0000    0.0000    0.0000    0.0000   -0.0000   -0.0000    0.0000
      163 MO     6h4-       0.0000   -0.0000   -0.0000   -0.0000    0.0000    0.0000   -0.0000    0.0000   -0.0000    0.0000
      164 MO     7h4-       0.0000   -0.0000   -0.0000   -0.0000    0.0000   -0.0000    0.0000   -0.0000    0.0000   -0.0000
      165 MO     6h3-      -0.0000   -0.0000   -0.0000    0.0000   -0.0000   -0.0000    0.0000   -0.0000    0.0000   -0.0000
      166 MO     7h3-       0.0000    0.0000    0.0000    0.0000    0.0000    0.0000   -0.0000    0.0000    0.0000    0.0000
      167 MO     6h2-       0.0000    0.0000   -0.0000   -0.0000    0.0000   -0.0000   -0.0000    0.0000   -0.0000   -0.0000
      168 MO     7h2-       0.0000   -0.0000   -0.0000   -0.0000    0.0000   -0.0000    0.0000   -0.0000    0.0000    0.0000
      169 MO     6h1-      -0.0000   -0.0000    0.0000    0.0000   -0.0000   -0.0000   -0.0000    0.0000   -0.0000    0.0000
      170 MO     7h1-       0.0000    0.0000   -0.0000   -0.0000    0.0000    0.0000   -0.0000    0.0000   -0.0000   -0.0000
      171 MO     6h0       -0.0000    0.0000   -0.0000   -0.0000    0.0000   -0.0000   -0.0000   -0.0000   -0.0000    0.0000
      172 MO     7h0       -0.0000    0.0000    0.0000    0.0000    0.0000    0.0000   -0.0000    0.0000    0.0000   -0.0000
      173 MO     6h1+       0.0000   -0.0000    0.0000   -0.0000    0.0000    0.0000    0.0000    0.0000   -0.0000   -0.0000
      174 MO     7h1+       0.0000   -0.0000   -0.0000    0.0000    0.0000   -0.0000    0.0000    0.0000    0.0000    0.0000
      175 MO     6h2+       0.0000   -0.0000    0.0000   -0.0000    0.0000    0.0000   -0.0000   -0.0000    0.0000   -0.0000
      176 MO     7h2+       0.0000   -0.0000    0.0000   -0.0000    0.0000   -0.0000    0.0000    0.0000    0.0000    0.0000
      177 MO     6h3+      -0.0000    0.0000    0.0000   -0.0000   -0.0000   -0.0000    0.0000    0.0000    0.0000   -0.0000
      178 MO     7h3+      -0.0000    0.0000   -0.0000   -0.0000   -0.0000    0.0000   -0.0000   -0.0000   -0.0000    0.0000
      179 MO     6h4+       0.0000   -0.0000   -0.0000    0.0000   -0.0000    0.0000    0.0000    0.0000   -0.0000   -0.0000
      180 MO     7h4+       0.0000   -0.0000   -0.0000    0.0000    0.0000   -0.0000   -0.0000   -0.0000    0.0000    0.0000
      181 MO     6h5+       0.0000   -0.0000   -0.0000    0.0000   -0.0000    0.0000   -0.0000   -0.0000    0.0000   -0.0000
      182 MO     7h5+       0.0000    0.0000    0.0000   -0.0000    0.0000   -0.0000    0.0000    0.0000   -0.0000    0.0000

          Orbital           11        12        13        14        15        16        17        18        19        20    
          Energy          -11.2814  -11.2809  -11.2809  -11.2807   -4.8208   -3.5824   -3.5824   -3.5728   -1.4181   -1.4181
          Occ. No.          2.0000    2.0000    2.0000    2.0000    2.0000    2.0000    2.0000    2.0000    0.0000    0.0000

        1 MO     1s        -0.0000   -0.0000   -0.0000    0.0000   -0.0000    0.0000   -0.0000   -0.0000    0.0000   -0.0000
        2 MO     2s        -0.0000    0.0000    0.0000    0.0000   -0.0000   -0.0000    0.0000    0.0000    0.0000   -0.0000
        3 MO     3s         0.0000   -0.0000   -0.0000    0.0001    0.0015    0.0000   -0.0000   -0.0001   -0.0000    0.0000
        4 MO     4s        -0.0000    0.0000    0.0000   -0.0001    0.9977    0.0000   -0.0000   -0.0108   -0.0000   -0.0000
        5 MO     5s        -0.0000   -0.0000   -0.0000    0.0000   -0.0387   -0.0000    0.0000    0.0030    0.0000    0.0000
        6 MO     6s         0.0000    0.0000    0.0000   -0.0000    0.0339    0.0000   -0.0000   -0.0026   -0.0000   -0.0000
        7 MO     7s         0.0000    0.0000    0.0000    0.0000   -0.0414   -0.0000    0.0000    0.0033    0.0000    0.0000
        8 MO     8s         0.0000   -0.0000   -0.0000    0.0000   -0.0045   -0.0000    0.0000    0.0003    0.0000    0.0000
        9 MO     9s         0.0000    0.0000    0.0000   -0.0000    0.0047    0.0000   -0.0000   -0.0004    0.0000    0.0000
       10 MO    10s         0.0000   -0.0000   -0.0000    0.0000    0.0009    0.0000   -0.0000   -0.0001    0.0000    0.0000
       11 MO     2px        0.0000    0.0000    0.0000   -0.0000   -0.0000   -0.0001    0.0000    0.0000   -0.0000   -0.0000
       12 MO     3px       -0.0000   -0.0001   -0.0002    0.0000    0.0000    0.0022   -0.0000   -0.0000   -0.0000   -0.0000
       13 MO     4px        0.0000    0.0001    0.0002   -0.0000   -0.0000    0.9942   -0.0115   -0.0000   -0.0004   -0.0000
       14 MO     5px        0.0000   -0.0000   -0.0000    0.0000    0.0000   -0.0747    0.0009    0.0000   -0.0044   -0.0000
       15 MO     6px       -0.0000    0.0000    0.0000   -0.0000    0.0000    0.0742   -0.0009   -0.0000    0.0020    0.0000
       16 MO     7px        0.0000    0.0000    0.0000   -0.0000   -0.0000    0.0001   -0.0000    0.0000    0.0015    0.0000
       17 MO     8px       -0.0000   -0.0000   -0.0000    0.0000    0.0000   -0.0104    0.0001    0.0000   -0.0002   -0.0000
       18 MO     9px        0.0000    0.0000    0.0000   -0.0000    0.0000   -0.0034    0.0000    0.0000   -0.0004   -0.0000
       19 MO    10px       -0.0000   -0.0000   -0.0000    0.0000    0.0000   -0.0002    0.0000    0.0000   -0.0001   -0.0000
       20 MO     2py        0.0000    0.0000   -0.0000    0.0000    0.0000   -0.0000   -0.0001    0.0000   -0.0000    0.0000
       21 MO     3py       -0.0000   -0.0002    0.0001   -0.0000   -0.0000    0.0000    0.0022    0.0000   -0.0000    0.0000
       22 MO     4py        0.0000    0.0002   -0.0001    0.0000   -0.0000    0.0115    0.9942   -0.0000   -0.0000    0.0004
       23 MO     5py        0.0000   -0.0000    0.0000   -0.0000    0.0000   -0.0009   -0.0747    0.0000   -0.0000    0.0044
       24 MO     6py       -0.0000    0.0000   -0.0000    0.0000   -0.0000    0.0009    0.0742   -0.0000    0.0000   -0.0020
       25 MO     7py        0.0000    0.0000   -0.0000    0.0000    0.0000    0.0000    0.0001    0.0000    0.0000   -0.0015
       26 MO     8py       -0.0000   -0.0000    0.0000   -0.0000   -0.0000   -0.0001   -0.0104    0.0000   -0.0000    0.0002
       27 MO     9py        0.0000    0.0000   -0.0000    0.0000    0.0000   -0.0000   -0.0034   -0.0000   -0.0000    0.0004
       28 MO    10py       -0.0000   -0.0000    0.0000   -0.0000   -0.0000   -0.0000   -0.0002   -0.0000   -0.0000    0.0001
       29 MO     2pz       -0.0000   -0.0000   -0.0000   -0.0000    0.0000   -0.0000    0.0000   -0.0001   -0.0000   -0.0000
       30 MO     3pz       -0.0000    0.0000    0.0000   -0.0002   -0.0001    0.0000   -0.0000    0.0023    0.0000   -0.0000
       31 MO     4pz        0.0000   -0.0000   -0.0000    0.0001    0.0112    0.0000   -0.0000    0.9940    0.0000   -0.0000
       32 MO     5pz       -0.0000   -0.0000   -0.0000   -0.0000   -0.0001   -0.0000    0.0000   -0.0764   -0.0000   -0.0000
       33 MO     6pz        0.0000    0.0000    0.0000    0.0000   -0.0004    0.0000   -0.0000    0.0763    0.0000    0.0000
       34 MO     7pz       -0.0000   -0.0000   -0.0000   -0.0000    0.0004    0.0000   -0.0000   -0.0002    0.0000   -0.0000
       35 MO     8pz       -0.0000    0.0000    0.0000    0.0000   -0.0001   -0.0000    0.0000   -0.0107   -0.0000   -0.0000
       36 MO     9pz        0.0000   -0.0000   -0.0000   -0.0000   -0.0001   -0.0000    0.0000   -0.0035   -0.0000   -0.0000
       37 MO    10pz        0.0000    0.0000    0.0000    0.0000   -0.0000   -0.0000    0.0000   -0.0002   -0.0000   -0.0000
       38 MO     3d2-       0.9991    0.0388   -0.0174    0.0000   -0.0000   -0.0000   -0.0000    0.0000   -0.0000    0.0022
       39 MO     4d2-      -0.0020   -0.0001    0.0000   -0.0000    0.0000    0.0000    0.0042   -0.0000   -0.0001    0.9000
       40 MO     5d2-       0.0013    0.0001   -0.0000    0.0000    0.0000   -0.0000   -0.0007   -0.0000    0.0000   -0.2766
       41 MO     6d2-      -0.0005   -0.0000    0.0000   -0.0000   -0.0000   -0.0000   -0.0006    0.0000    0.0000   -0.0148
       42 MO     7d2-       0.0002    0.0000   -0.0000    0.0000    0.0000    0.0000    0.0002   -0.0000   -0.0000    0.0246
       43 MO     8d2-      -0.0003   -0.0000    0.0000   -0.0000    0.0000    0.0000    0.0001    0.0000   -0.0000    0.0034
       44 MO     9d2-       0.0003    0.0000   -0.0000    0.0000   -0.0000   -0.0000   -0.0001    0.0000    0.0000   -0.0094
       45 MO    10d2-      -0.0004   -0.0000    0.0000   -0.0000    0.0000   -0.0000   -0.0001    0.0000    0.0000   -0.0019
       46 MO    11d2-       0.0000    0.0000   -0.0000   -0.0000   -0.0000   -0.0000   -0.0000    0.0000   -0.0000    0.0002
       47 MO     3d1-      -0.0425    0.9119   -0.4082    0.0000   -0.0000   -0.0000   -0.0001   -0.0000    0.0000   -0.0008
       48 MO     4d1-       0.0001   -0.0019    0.0009   -0.0000   -0.0000    0.0001    0.0114   -0.0000    0.0000   -0.3203
       49 MO     5d1-      -0.0000    0.0012   -0.0005    0.0000    0.0000   -0.0000   -0.0029    0.0000   -0.0000    0.0964
       50 MO     6d1-       0.0000   -0.0005    0.0002   -0.0000   -0.0000   -0.0000   -0.0011    0.0000   -0.0000    0.0054
       51 MO     7d1-      -0.0000    0.0002   -0.0001    0.0000    0.0000    0.0000    0.0008    0.0000    0.0000   -0.0081
       52 MO     8d1-       0.0000   -0.0002    0.0001   -0.0000   -0.0000    0.0000    0.0000   -0.0000    0.0000   -0.0013
       53 MO     9d1-      -0.0000    0.0003   -0.0001    0.0000    0.0000   -0.0000   -0.0002    0.0000   -0.0000    0.0029
       54 MO    10d1-       0.0000   -0.0003    0.0002   -0.0000   -0.0000   -0.0000   -0.0001   -0.0000   -0.0000    0.0005
       55 MO    11d1-      -0.0000    0.0000   -0.0000    0.0000    0.0000    0.0000    0.0000    0.0000    0.0000   -0.0001
       56 MO     3d0        0.0000    0.0000    0.0000    1.0000    0.0001   -0.0000    0.0000   -0.0001   -0.0000    0.0000
       57 MO     4d0       -0.0000   -0.0000   -0.0000   -0.0021   -0.0025    0.0000   -0.0000    0.0015   -0.0000    0.0000
       58 MO     5d0        0.0000    0.0000    0.0000    0.0013    0.0007   -0.0000    0.0000   -0.0016    0.0000   -0.0000
       59 MO     6d0       -0.0000   -0.0000   -0.0000   -0.0005    0.0003    0.0000   -0.0000    0.0004    0.0000   -0.0000
       60 MO     7d0        0.0000    0.0000    0.0000    0.0002   -0.0002    0.0000   -0.0000    0.0003   -0.0000    0.0000
       61 MO     8d0       -0.0000   -0.0000   -0.0000   -0.0003    0.0000   -0.0000    0.0000   -0.0003   -0.0000    0.0000
       62 MO     9d0        0.0000    0.0000    0.0000    0.0003    0.0000   -0.0000    0.0000   -0.0000    0.0000   -0.0000
       63 MO    10d0       -0.0000   -0.0000   -0.0000   -0.0004    0.0000    0.0000   -0.0000    0.0001   -0.0000   -0.0000
       64 MO    11d0        0.0000    0.0000    0.0000    0.0000   -0.0000    0.0000   -0.0000    0.0000   -0.0000    0.0000
       65 MO     3d1+      -0.0003    0.4082    0.9119   -0.0000   -0.0000   -0.0001    0.0000    0.0000    0.0008    0.0000
       66 MO     4d1+       0.0000   -0.0009   -0.0019    0.0000    0.0000    0.0114   -0.0001   -0.0000    0.3203    0.0000
       67 MO     5d1+      -0.0000    0.0005    0.0012   -0.0000   -0.0000   -0.0029    0.0000    0.0000   -0.0964   -0.0000
       68 MO     6d1+       0.0000   -0.0002   -0.0005    0.0000   -0.0000   -0.0011    0.0000    0.0000   -0.0054   -0.0000
       69 MO     7d1+      -0.0000    0.0001    0.0002   -0.0000    0.0000    0.0008   -0.0000   -0.0000    0.0081    0.0000
       70 MO     8d1+       0.0000   -0.0001   -0.0002    0.0000   -0.0000    0.0000   -0.0000    0.0000    0.0013    0.0000
       71 MO     9d1+      -0.0000    0.0001    0.0003   -0.0000   -0.0000   -0.0002    0.0000    0.0000   -0.0029   -0.0000
       72 MO    10d1+       0.0000   -0.0002   -0.0003    0.0000   -0.0000   -0.0001    0.0000    0.0000   -0.0005   -0.0000
       73 MO    11d1+      -0.0000    0.0000    0.0000   -0.0000    0.0000    0.0000   -0.0000   -0.0000    0.0001    0.0000
       74 MO     3d2+      -0.0072   -0.0174   -0.0388    0.0000   -0.0000    0.0000   -0.0000   -0.0000    0.0022    0.0000
       75 MO     4d2+       0.0000    0.0000    0.0001   -0.0000    0.0000   -0.0042    0.0000    0.0000    0.9000    0.0001
       76 MO     5d2+      -0.0000   -0.0000   -0.0001    0.0000   -0.0000    0.0007   -0.0000   -0.0000   -0.2766   -0.0000
       77 MO     6d2+       0.0000    0.0000    0.0000   -0.0000   -0.0000    0.0006   -0.0000   -0.0000   -0.0148   -0.0000
       78 MO     7d2+      -0.0000   -0.0000   -0.0000    0.0000    0.0000   -0.0002    0.0000    0.0000    0.0246    0.0000
       79 MO     8d2+       0.0000    0.0000    0.0000   -0.0000    0.0000   -0.0001    0.0000    0.0000    0.0034    0.0000
       80 MO     9d2+      -0.0000   -0.0000   -0.0000    0.0000   -0.0000    0.0001   -0.0000   -0.0000   -0.0094   -0.0000
       81 MO    10d2+       0.0000    0.0000    0.0000   -0.0000   -0.0000    0.0001   -0.0000   -0.0000   -0.0019   -0.0000
       82 MO    11d2+      -0.0000   -0.0000   -0.0000    0.0000   -0.0000    0.0000   -0.0000   -0.0000    0.0002    0.0000
       83 MO     4f3-      -0.0000   -0.0000    0.0000   -0.0000   -0.0000    0.0000    0.0000    0.0000    0.0000   -0.0000
       84 MO     5f3-      -0.0000   -0.0000    0.0000   -0.0000   -0.0000   -0.0000   -0.0000   -0.0000   -0.0000    0.0000
       85 MO     6f3-       0.0000    0.0000   -0.0000    0.0000   -0.0000    0.0000    0.0000   -0.0000    0.0000   -0.0000
       86 MO     7f3-      -0.0000   -0.0000    0.0000   -0.0000    0.0000    0.0000    0.0000   -0.0000    0.0000   -0.0000
       87 MO     8f3-      -0.0000   -0.0000    0.0000   -0.0000    0.0000    0.0000    0.0000    0.0000    0.0000   -0.0000
       88 MO     9f3-       0.0000    0.0000   -0.0000    0.0000   -0.0000    0.0000    0.0000   -0.0000    0.0000    0.0000
       89 MO     4f2-       0.0001    0.0000   -0.0000    0.0000    0.0000   -0.0000   -0.0011    0.0000   -0.0000    0.0203
       90 MO     5f2-       0.0001    0.0000   -0.0000    0.0000    0.0000    0.0000    0.0004   -0.0000    0.0000   -0.0090
       91 MO     6f2-      -0.0000   -0.0000    0.0000   -0.0000    0.0000   -0.0000   -0.0001    0.0000    0.0000   -0.0004
       92 MO     7f2-       0.0000   -0.0000    0.0000   -0.0000    0.0000   -0.0000   -0.0001    0.0000   -0.0000    0.0019
       93 MO     8f2-       0.0000    0.0000   -0.0000   -0.0000    0.0000   -0.0000   -0.0000   -0.0000    0.0000   -0.0008
       94 MO     9f2-      -0.0000    0.0000   -0.0000    0.0000   -0.0000   -0.0000   -0.0000    0.0000    0.0000   -0.0000
       95 MO     4f1-      -0.0000    0.0001   -0.0000    0.0000   -0.0000   -0.0000   -0.0019    0.0000    0.0000   -0.0067
       96 MO     5f1-      -0.0000    0.0001   -0.0000    0.0000   -0.0000    0.0000    0.0001   -0.0000   -0.0000    0.0025
       97 MO     6f1-       0.0000   -0.0000    0.0000   -0.0000   -0.0000   -0.0000   -0.0003    0.0000    0.0000   -0.0001
       98 MO     7f1-      -0.0000    0.0000   -0.0000    0.0000    0.0000   -0.0000   -0.0001   -0.0000    0.0000   -0.0006
       99 MO     8f1-      -0.0000    0.0000   -0.0000    0.0000    0.0000   -0.0000   -0.0001   -0.0000   -0.0000    0.0001
      100 MO     9f1-       0.0000   -0.0000    0.0000   -0.0000   -0.0000    0.0000    0.0000    0.0000   -0.0000    0.0000
      101 MO     4f0        0.0000    0.0000    0.0000    0.0001   -0.0026   -0.0000    0.0000   -0.0026    0.0000    0.0000
      102 MO     5f0        0.0000    0.0000    0.0000    0.0001    0.0002    0.0000   -0.0000    0.0003   -0.0000   -0.0000
      103 MO     6f0       -0.0000   -0.0000   -0.0000   -0.0000   -0.0005   -0.0000    0.0000   -0.0004   -0.0000    0.0000
      104 MO     7f0        0.0000    0.0000    0.0000    0.0000   -0.0001   -0.0000    0.0000   -0.0001    0.0000   -0.0000
      105 MO     8f0        0.0000    0.0000    0.0000    0.0000   -0.0001   -0.0000    0.0000   -0.0001   -0.0000   -0.0000
      106 MO     9f0       -0.0000   -0.0000   -0.0000   -0.0000   -0.0000   -0.0000    0.0000   -0.0000   -0.0000    0.0000
      107 MO     4f1+      -0.0000    0.0000    0.0001   -0.0000   -0.0000   -0.0019    0.0000    0.0000    0.0067    0.0000
      108 MO     5f1+      -0.0000    0.0000    0.0001   -0.0000    0.0000    0.0001   -0.0000   -0.0000   -0.0025   -0.0000
      109 MO     6f1+       0.0000   -0.0000   -0.0000    0.0000   -0.0000   -0.0003    0.0000    0.0000    0.0001    0.0000
      110 MO     7f1+      -0.0000    0.0000    0.0000   -0.0000   -0.0000   -0.0001    0.0000    0.0000    0.0006    0.0000
      111 MO     8f1+      -0.0000    0.0000    0.0000   -0.0000   -0.0000   -0.0001    0.0000    0.0000   -0.0001   -0.0000
      112 MO     9f1+       0.0000   -0.0000   -0.0000    0.0000   -0.0000    0.0000   -0.0000   -0.0000   -0.0000   -0.0000
      113 MO     4f2+      -0.0000   -0.0000   -0.0000    0.0000    0.0000    0.0011   -0.0000   -0.0000    0.0203    0.0000
      114 MO     5f2+      -0.0000   -0.0000   -0.0000    0.0000   -0.0000   -0.0004    0.0000    0.0000   -0.0090   -0.0000
      115 MO     6f2+       0.0000    0.0000    0.0000   -0.0000    0.0000    0.0001   -0.0000   -0.0000   -0.0004   -0.0000
      116 MO     7f2+      -0.0000    0.0000    0.0000    0.0000    0.0000    0.0001   -0.0000   -0.0000    0.0019    0.0000
      117 MO     8f2+      -0.0000   -0.0000   -0.0000    0.0000    0.0000    0.0000   -0.0000   -0.0000   -0.0008   -0.0000
      118 MO     9f2+       0.0000   -0.0000   -0.0000   -0.0000    0.0000    0.0000   -0.0000   -0.0000   -0.0000   -0.0000
      119 MO     4f3+       0.0000    0.0000    0.0000    0.0000   -0.0017    0.0000   -0.0000    0.0010   -0.0000   -0.0000
      120 MO     5f3+       0.0000    0.0000    0.0000    0.0000    0.0002   -0.0000    0.0000   -0.0004    0.0000    0.0000
      121 MO     6f3+      -0.0000   -0.0000   -0.0000    0.0000   -0.0003    0.0000   -0.0000    0.0001   -0.0000   -0.0000
      122 MO     7f3+       0.0000   -0.0000   -0.0000   -0.0000   -0.0001    0.0000   -0.0000    0.0001   -0.0000   -0.0000
      123 MO     8f3+       0.0000   -0.0000   -0.0000   -0.0000   -0.0001   -0.0000    0.0000    0.0000   -0.0000   -0.0000
      124 MO     9f3+      -0.0000    0.0000    0.0000    0.0000   -0.0000    0.0000   -0.0000    0.0000   -0.0000   -0.0000
      125 MO     5g4-       0.0000    0.0000   -0.0000    0.0000    0.0000   -0.0000   -0.0015    0.0000    0.0000   -0.0003
      126 MO     6g4-       0.0000   -0.0000    0.0000   -0.0000    0.0000   -0.0000   -0.0008    0.0000    0.0000   -0.0002
      127 MO     7g4-      -0.0000   -0.0000    0.0000   -0.0000   -0.0000    0.0000    0.0001   -0.0000   -0.0000    0.0000
      128 MO     8g4-      -0.0000   -0.0000    0.0000   -0.0000    0.0000    0.0000    0.0002   -0.0000   -0.0000    0.0001
      129 MO     5g3-       0.0000    0.0000   -0.0000   -0.0000   -0.0000   -0.0000   -0.0000    0.0000   -0.0000    0.0000
      130 MO     6g3-      -0.0000   -0.0000    0.0000    0.0000    0.0000   -0.0000   -0.0000   -0.0000   -0.0000    0.0000
      131 MO     7g3-       0.0000    0.0000   -0.0000   -0.0000   -0.0000   -0.0000   -0.0000    0.0000   -0.0000    0.0000
      132 MO     8g3-      -0.0000   -0.0000    0.0000   -0.0000    0.0000   -0.0000   -0.0000    0.0000    0.0000   -0.0000
      133 MO     5g2-      -0.0000   -0.0000    0.0000   -0.0000   -0.0000   -0.0000   -0.0001   -0.0000    0.0000   -0.0020
      134 MO     6g2-       0.0000    0.0000   -0.0000    0.0000    0.0000    0.0000    0.0000    0.0000    0.0000   -0.0016
      135 MO     7g2-      -0.0000   -0.0000    0.0000   -0.0000   -0.0000    0.0000    0.0001   -0.0000    0.0000   -0.0004
      136 MO     8g2-       0.0000    0.0000   -0.0000    0.0000    0.0000    0.0000    0.0000    0.0000   -0.0000    0.0000
      137 MO     5g1-       0.0000   -0.0000    0.0000   -0.0000   -0.0000   -0.0000   -0.0018    0.0000   -0.0000    0.0027
      138 MO     6g1-      -0.0000    0.0000   -0.0000    0.0000    0.0000   -0.0000   -0.0010    0.0000   -0.0000    0.0029
      139 MO     7g1-       0.0000   -0.0000    0.0000   -0.0000   -0.0000    0.0000    0.0002   -0.0000   -0.0000    0.0011
      140 MO     8g1-      -0.0000    0.0000   -0.0000    0.0000    0.0000    0.0000    0.0002   -0.0000   -0.0000    0.0002
      141 MO     5g0       -0.0000   -0.0000   -0.0000   -0.0000   -0.0001   -0.0000    0.0000   -0.0026   -0.0000   -0.0000
      142 MO     6g0        0.0000    0.0000    0.0000    0.0000   -0.0000   -0.0000    0.0000   -0.0015    0.0000   -0.0000
      143 MO     7g0       -0.0000   -0.0000   -0.0000   -0.0000    0.0000    0.0000   -0.0000    0.0002    0.0000   -0.0000
      144 MO     8g0        0.0000    0.0000    0.0000    0.0000    0.0000    0.0000   -0.0000    0.0003    0.0000   -0.0000
      145 MO     5g1+       0.0000   -0.0000   -0.0000    0.0000   -0.0000   -0.0018    0.0000    0.0000   -0.0027   -0.0000
      146 MO     6g1+      -0.0000    0.0000    0.0000   -0.0000   -0.0000   -0.0010    0.0000    0.0000   -0.0029   -0.0000
      147 MO     7g1+       0.0000   -0.0000   -0.0000    0.0000    0.0000    0.0002   -0.0000   -0.0000   -0.0011   -0.0000
      148 MO     8g1+      -0.0000    0.0000    0.0000   -0.0000    0.0000    0.0002   -0.0000   -0.0000   -0.0002   -0.0000
      149 MO     5g2+       0.0000    0.0000    0.0000   -0.0000   -0.0000    0.0001   -0.0000    0.0000   -0.0020   -0.0000
      150 MO     6g2+      -0.0000   -0.0000   -0.0000    0.0000   -0.0000   -0.0000    0.0000    0.0000   -0.0016   -0.0000
      151 MO     7g2+       0.0000    0.0000    0.0000   -0.0000    0.0000   -0.0001    0.0000   -0.0000   -0.0004   -0.0000
      152 MO     8g2+      -0.0000   -0.0000   -0.0000    0.0000    0.0000   -0.0000    0.0000   -0.0000    0.0000    0.0000
      153 MO     5g3+      -0.0000   -0.0000   -0.0000   -0.0000    0.0006   -0.0000    0.0000   -0.0013    0.0000    0.0000
      154 MO     6g3+       0.0000    0.0000    0.0000    0.0000    0.0003   -0.0000    0.0000   -0.0008    0.0000    0.0000
      155 MO     7g3+      -0.0000    0.0000    0.0000    0.0000   -0.0001   -0.0000    0.0000    0.0001    0.0000   -0.0000
      156 MO     8g3+       0.0000    0.0000    0.0000    0.0000   -0.0001    0.0000   -0.0000    0.0001   -0.0000   -0.0000
      157 MO     5g4+       0.0000    0.0000    0.0000   -0.0000   -0.0000   -0.0015    0.0000    0.0000    0.0003    0.0000
      158 MO     6g4+       0.0000   -0.0000   -0.0000    0.0000   -0.0000   -0.0008    0.0000    0.0000    0.0002    0.0000
      159 MO     7g4+      -0.0000   -0.0000   -0.0000    0.0000    0.0000    0.0001   -0.0000   -0.0000   -0.0000   -0.0000
      160 MO     8g4+      -0.0000   -0.0000   -0.0000    0.0000    0.0000    0.0002   -0.0000   -0.0000   -0.0001   -0.0000
      161 MO     6h5-      -0.0000   -0.0000    0.0000    0.0000   -0.0000    0.0000    0.0001    0.0000    0.0000   -0.0025
      162 MO     7h5-       0.0000    0.0000   -0.0000   -0.0000    0.0000    0.0000    0.0001   -0.0000    0.0000   -0.0023
      163 MO     6h4-       0.0000   -0.0000    0.0000   -0.0000   -0.0000    0.0000    0.0006   -0.0000   -0.0000    0.0006
      164 MO     7h4-      -0.0000    0.0000   -0.0000    0.0000   -0.0000    0.0000    0.0005   -0.0000   -0.0000    0.0005
      165 MO     6h3-      -0.0000    0.0000   -0.0000    0.0000    0.0000   -0.0000   -0.0000    0.0000   -0.0000   -0.0000
      166 MO     7h3-       0.0000   -0.0000    0.0000   -0.0000    0.0000   -0.0000   -0.0000   -0.0000    0.0000   -0.0000
      167 MO     6h2-      -0.0000   -0.0000    0.0000   -0.0000   -0.0000    0.0000    0.0002   -0.0000    0.0000   -0.0020
      168 MO     7h2-       0.0000    0.0000   -0.0000    0.0000    0.0000    0.0000    0.0001   -0.0000    0.0000   -0.0019
      169 MO     6h1-       0.0000   -0.0000    0.0000   -0.0000   -0.0000    0.0000    0.0000    0.0000   -0.0000    0.0011
      170 MO     7h1-      -0.0000    0.0000   -0.0000    0.0000   -0.0000    0.0000    0.0001   -0.0000   -0.0000    0.0010
      171 MO     6h0        0.0000   -0.0000   -0.0000   -0.0000   -0.0001   -0.0000    0.0000   -0.0002    0.0000   -0.0000
      172 MO     7h0       -0.0000    0.0000    0.0000    0.0000   -0.0001   -0.0000    0.0000   -0.0002    0.0000   -0.0000
      173 MO     6h1+       0.0000   -0.0000   -0.0000    0.0000    0.0000    0.0000   -0.0000   -0.0000   -0.0011   -0.0000
      174 MO     7h1+      -0.0000    0.0000    0.0000   -0.0000    0.0000    0.0001   -0.0000   -0.0000   -0.0010   -0.0000
      175 MO     6h2+       0.0000    0.0000    0.0000   -0.0000    0.0000   -0.0002    0.0000    0.0000   -0.0020   -0.0000
      176 MO     7h2+      -0.0000   -0.0000   -0.0000    0.0000    0.0000   -0.0001    0.0000    0.0000   -0.0019   -0.0000
      177 MO     6h3+      -0.0000   -0.0000   -0.0000   -0.0000   -0.0001    0.0000   -0.0000    0.0005   -0.0000   -0.0000
      178 MO     7h3+      -0.0000    0.0000    0.0000    0.0000   -0.0001    0.0000   -0.0000    0.0004   -0.0000   -0.0000
      179 MO     6h4+       0.0000   -0.0000   -0.0000    0.0000    0.0000    0.0006   -0.0000   -0.0000   -0.0006   -0.0000
      180 MO     7h4+      -0.0000    0.0000    0.0000   -0.0000    0.0000    0.0005   -0.0000   -0.0000   -0.0005   -0.0000
      181 MO     6h5+       0.0000    0.0000    0.0000   -0.0000    0.0000   -0.0001    0.0000    0.0000   -0.0025   -0.0000
      182 MO     7h5+      -0.0000   -0.0000   -0.0000    0.0000    0.0000   -0.0001    0.0000    0.0000   -0.0023   -0.0000

          Orbital           21        22        23    
          Energy           -1.4038   -1.4038   -1.4004
          Occ. No.          0.0000    0.0000    0.0000

        1 MO     1s         0.0000   -0.0000   -0.0000
        2 MO     2s        -0.0000    0.0000   -0.0000
        3 MO     3s        -0.0000   -0.0000    0.0000
        4 MO     4s        -0.0000   -0.0000    0.0009
        5 MO     5s         0.0000   -0.0000   -0.0224
        6 MO     6s        -0.0000    0.0000    0.0144
        7 MO     7s         0.0000   -0.0000   -0.0089
        8 MO     8s         0.0000   -0.0000   -0.0050
        9 MO     9s        -0.0000   -0.0000   -0.0009
       10 MO    10s        -0.0000   -0.0000    0.0000
       11 MO     2px       -0.0000    0.0000   -0.0000
       12 MO     3px        0.0000   -0.0001    0.0000
       13 MO     4px        0.0000   -0.0085    0.0000
       14 MO     5px       -0.0000    0.0322   -0.0000
       15 MO     6px        0.0000   -0.0206    0.0000
       16 MO     7px        0.0000   -0.0072    0.0000
       17 MO     8px       -0.0000    0.0029   -0.0000
       18 MO     9px       -0.0000    0.0025   -0.0000
       19 MO    10px       -0.0000    0.0004   -0.0000
       20 MO     2py        0.0000    0.0000    0.0000
       21 MO     3py       -0.0001   -0.0000   -0.0000
       22 MO     4py       -0.0085   -0.0000    0.0000
       23 MO     5py        0.0322    0.0000   -0.0000
       24 MO     6py       -0.0206   -0.0000    0.0000
       25 MO     7py       -0.0072   -0.0000   -0.0000
       26 MO     8py        0.0029    0.0000   -0.0000
       27 MO     9py        0.0025    0.0000   -0.0000
       28 MO    10py        0.0004    0.0000    0.0000
       29 MO     2pz       -0.0000   -0.0000   -0.0000
       30 MO     3pz       -0.0000    0.0000   -0.0000
       31 MO     4pz        0.0000    0.0000   -0.0028
       32 MO     5pz        0.0000   -0.0000   -0.0095
       33 MO     6pz       -0.0000    0.0000    0.0034
       34 MO     7pz       -0.0000    0.0000    0.0037
       35 MO     8pz        0.0000   -0.0000   -0.0001
       36 MO     9pz       -0.0000   -0.0000   -0.0007
       37 MO    10pz       -0.0000   -0.0000   -0.0002
       38 MO     3d2-       0.0008    0.0000    0.0000
       39 MO     4d2-       0.3175    0.0000   -0.0000
       40 MO     5d2-      -0.1028   -0.0000    0.0000
       41 MO     6d2-      -0.0042   -0.0000    0.0000
       42 MO     7d2-       0.0099    0.0000   -0.0000
       43 MO     8d2-       0.0008    0.0000    0.0000
       44 MO     9d2-      -0.0041   -0.0000    0.0000
       45 MO    10d2-      -0.0008   -0.0000    0.0000
       46 MO    11d2-       0.0001    0.0000    0.0000
       47 MO     3d1-       0.0023    0.0000    0.0000
       48 MO     4d1-       0.8970    0.0000    0.0000
       49 MO     5d1-      -0.2844   -0.0000   -0.0000
       50 MO     6d1-      -0.0124   -0.0000   -0.0000
       51 MO     7d1-       0.0260    0.0000    0.0000
       52 MO     8d1-       0.0027    0.0000    0.0000
       53 MO     9d1-      -0.0103   -0.0000   -0.0000
       54 MO    10d1-      -0.0019   -0.0000   -0.0000
       55 MO    11d1-       0.0002    0.0000    0.0000
       56 MO     3d0       -0.0000    0.0000    0.0024
       57 MO     4d0       -0.0000    0.0000    0.9514
       58 MO     5d0        0.0000   -0.0000   -0.3042
       59 MO     6d0        0.0000   -0.0000   -0.0126
       60 MO     7d0       -0.0000    0.0000    0.0280
       61 MO     8d0       -0.0000    0.0000    0.0027
       62 MO     9d0        0.0000   -0.0000   -0.0112
       63 MO    10d0        0.0000   -0.0000   -0.0021
       64 MO    11d0       -0.0000    0.0000    0.0002
       65 MO     3d1+      -0.0000    0.0023   -0.0000
       66 MO     4d1+      -0.0000    0.8970   -0.0000
       67 MO     5d1+       0.0000   -0.2844    0.0000
       68 MO     6d1+       0.0000   -0.0124    0.0000
       69 MO     7d1+      -0.0000    0.0260   -0.0000
       70 MO     8d1+      -0.0000    0.0027   -0.0000
       71 MO     9d1+       0.0000   -0.0103    0.0000
       72 MO    10d1+       0.0000   -0.0019    0.0000
       73 MO    11d1+      -0.0000    0.0002   -0.0000
       74 MO     3d2+       0.0000   -0.0008    0.0000
       75 MO     4d2+       0.0000   -0.3175    0.0000
       76 MO     5d2+      -0.0000    0.1028   -0.0000
       77 MO     6d2+      -0.0000    0.0042   -0.0000
       78 MO     7d2+       0.0000   -0.0099    0.0000
       79 MO     8d2+       0.0000   -0.0008    0.0000
       80 MO     9d2+      -0.0000    0.0041   -0.0000
       81 MO    10d2+      -0.0000    0.0008   -0.0000
       82 MO    11d2+       0.0000   -0.0001    0.0000
       83 MO     4f3-      -0.0000    0.0000   -0.0000
       84 MO     5f3-       0.0000    0.0000    0.0000
       85 MO     6f3-       0.0000    0.0000   -0.0000
       86 MO     7f3-      -0.0000    0.0000   -0.0000
       87 MO     8f3-       0.0000    0.0000   -0.0000
       88 MO     9f3-       0.0000   -0.0000   -0.0000
       89 MO     4f2-       0.0165    0.0000    0.0000
       90 MO     5f2-      -0.0091   -0.0000   -0.0000
       91 MO     6f2-      -0.0013   -0.0000   -0.0000
       92 MO     7f2-       0.0017    0.0000    0.0000
       93 MO     8f2-      -0.0013   -0.0000   -0.0000
       94 MO     9f2-      -0.0000   -0.0000   -0.0000
       95 MO     4f1-       0.0100    0.0000   -0.0000
       96 MO     5f1-      -0.0025   -0.0000   -0.0000
       97 MO     6f1-       0.0006    0.0000   -0.0000
       98 MO     7f1-       0.0008    0.0000    0.0000
       99 MO     8f1-       0.0001    0.0000   -0.0000
      100 MO     9f1-      -0.0000   -0.0000    0.0000
      101 MO     4f0        0.0000    0.0000    0.0033
      102 MO     5f0       -0.0000   -0.0000    0.0023
      103 MO     6f0       -0.0000    0.0000    0.0018
      104 MO     7f0       -0.0000    0.0000   -0.0000
      105 MO     8f0       -0.0000    0.0000    0.0010
      106 MO     9f0       -0.0000    0.0000   -0.0000
      107 MO     4f1+      -0.0000    0.0100   -0.0000
      108 MO     5f1+       0.0000   -0.0025    0.0000
      109 MO     6f1+      -0.0000    0.0006   -0.0000
      110 MO     7f1+      -0.0000    0.0008   -0.0000
      111 MO     8f1+      -0.0000    0.0001   -0.0000
      112 MO     9f1+       0.0000   -0.0000    0.0000
      113 MO     4f2+       0.0000   -0.0165    0.0000
      114 MO     5f2+      -0.0000    0.0091   -0.0000
      115 MO     6f2+      -0.0000    0.0013   -0.0000
      116 MO     7f2+       0.0000   -0.0017    0.0000
      117 MO     8f2+      -0.0000    0.0013   -0.0000
      118 MO     9f2+      -0.0000    0.0000   -0.0000
      119 MO     4f3+      -0.0000    0.0000    0.0090
      120 MO     5f3+       0.0000   -0.0000   -0.0052
      121 MO     6f3+       0.0000   -0.0000   -0.0007
      122 MO     7f3+      -0.0000    0.0000    0.0009
      123 MO     8f3+       0.0000   -0.0000   -0.0007
      124 MO     9f3+       0.0000    0.0000   -0.0000
      125 MO     5g4-       0.0021    0.0000    0.0000
      126 MO     6g4-       0.0028    0.0000    0.0000
      127 MO     7g4-       0.0014    0.0000    0.0000
      128 MO     8g4-       0.0004    0.0000    0.0000
      129 MO     5g3-       0.0000    0.0000   -0.0000
      130 MO     6g3-       0.0000    0.0000    0.0000
      131 MO     7g3-       0.0000    0.0000   -0.0000
      132 MO     8g3-       0.0000    0.0000   -0.0000
      133 MO     5g2-      -0.0027   -0.0000   -0.0000
      134 MO     6g2-      -0.0030   -0.0000   -0.0000
      135 MO     7g2-      -0.0013   -0.0000   -0.0000
      136 MO     8g2-      -0.0003   -0.0000   -0.0000
      137 MO     5g1-      -0.0027   -0.0000   -0.0000
      138 MO     6g1-      -0.0019   -0.0000   -0.0000
      139 MO     7g1-      -0.0000   -0.0000    0.0000
      140 MO     8g1-       0.0003    0.0000    0.0000
      141 MO     5g0        0.0000   -0.0000   -0.0058
      142 MO     6g0        0.0000   -0.0000   -0.0062
      143 MO     7g0        0.0000   -0.0000   -0.0026
      144 MO     8g0        0.0000   -0.0000   -0.0005
      145 MO     5g1+       0.0000   -0.0027    0.0000
      146 MO     6g1+       0.0000   -0.0019    0.0000
      147 MO     7g1+       0.0000   -0.0000    0.0000
      148 MO     8g1+      -0.0000    0.0003   -0.0000
      149 MO     5g2+      -0.0000    0.0027   -0.0000
      150 MO     6g2+      -0.0000    0.0030   -0.0000
      151 MO     7g2+      -0.0000    0.0013   -0.0000
      152 MO     8g2+      -0.0000    0.0003   -0.0000
      153 MO     5g3+       0.0000   -0.0000   -0.0010
      154 MO     6g3+       0.0000   -0.0000   -0.0013
      155 MO     7g3+       0.0000   -0.0000   -0.0007
      156 MO     8g3+       0.0000    0.0000   -0.0002
      157 MO     5g4+      -0.0000    0.0021   -0.0000
      158 MO     6g4+      -0.0000    0.0028   -0.0000
      159 MO     7g4+      -0.0000    0.0014   -0.0000
      160 MO     8g4+      -0.0000    0.0004   -0.0000
      161 MO     6h5-      -0.0010   -0.0000   -0.0000
      162 MO     7h5-      -0.0010   -0.0000    0.0000
      163 MO     6h4-      -0.0021   -0.0000   -0.0000
      164 MO     7h4-      -0.0020   -0.0000   -0.0000
      165 MO     6h3-      -0.0000    0.0000   -0.0000
      166 MO     7h3-      -0.0000   -0.0000    0.0000
      167 MO     6h2-      -0.0011   -0.0000   -0.0000
      168 MO     7h2-      -0.0010   -0.0000   -0.0000
      169 MO     6h1-      -0.0036   -0.0000   -0.0000
      170 MO     7h1-      -0.0034   -0.0000   -0.0000
      171 MO     6h0        0.0000   -0.0000   -0.0045
      172 MO     7h0        0.0000   -0.0000   -0.0043
      173 MO     6h1+       0.0000   -0.0036    0.0000
      174 MO     7h1+       0.0000   -0.0034    0.0000
      175 MO     6h2+      -0.0000    0.0011   -0.0000
      176 MO     7h2+      -0.0000    0.0010   -0.0000
      177 MO     6h3+       0.0000   -0.0000   -0.0014
      178 MO     7h3+       0.0000   -0.0000   -0.0013
      179 MO     6h4+       0.0000   -0.0021    0.0000
      180 MO     7h4+       0.0000   -0.0020    0.0000
      181 MO     6h5+      -0.0000    0.0010   -0.0000
      182 MO     7h5+      -0.0000    0.0010   -0.0000
--


++    Molecular charges:
      ------------------

      Mulliken charges per centre and basis function type
      ---------------------------------------------------

                MO    
      1s       2.0000
      2s       2.0000
      2px      2.0000
      2pz      2.0000
      2py      2.0000
      3s       2.0000
      3px      2.0000
      3pz      2.0000
      3py      2.0000
      4s       1.9911
      3d2+     2.0000
      3d1+     2.0000
      3d0      2.0000
      3d1-     2.0000
      3d2-     2.0000
      4px      1.9773
      4pz      1.9763
      4py      1.9773
      5s       0.0030
      4d2+     0.0000
      4d1+     0.0003
      4d0      0.0000
      4d1-     0.0003
      4d2-     0.0000
      5px      0.0111
      5pz      0.0117
      5py      0.0111
      6s       0.0023
      4f3+     0.0000
      4f2+     0.0000
      4f1+     0.0000
      4f0      0.0000
      4f1-     0.0000
      4f2-     0.0000
      4f3-     0.0000
      5d2+     0.0000
      5d1+     0.0000
      5d0      0.0000
      5d1-     0.0000
      5d2-     0.0000
      6px      0.0110
      6pz      0.0116
      6py      0.0110
      7s       0.0035
      5f3+     0.0000
      5f2+     0.0000
      5f1+     0.0000
      5f0      0.0000
      5f1-     0.0000
      5f2-     0.0000
      5f3-     0.0000
      6d2+     0.0000
      6d1+     0.0000
      6d0      0.0000
      6d1-     0.0000
      6d2-     0.0000
      7px      0.0000
      7pz      0.0000
      7py      0.0000
      5g4+     0.0000
      5g3+     0.0000
      5g2+     0.0000
      5g1+     0.0000
      5g0      0.0000
      5g1-     0.0000
      5g2-     0.0000
      5g3-     0.0000
      5g4-     0.0000
      6f3+     0.0000
      6f2+     0.0000
      6f1+     0.0000
      6f0      0.0000
      6f1-     0.0000
      6f2-     0.0000
      6f3-     0.0000
      6g4+     0.0000
      6g3+     0.0000
      6g2+     0.0000
      6g1+     0.0000
      6g0      0.0000
      6g1-     0.0000
      6g2-     0.0000
      6g3-     0.0000
      6g4-     0.0000
      6h5+     0.0000
      6h4+     0.0000
      6h3+     0.0000
      6h2+     0.0000
      6h1+     0.0000
      6h0      0.0000
      6h1-     0.0000
      6h2-     0.0000
      6h3-     0.0000
      6h4-     0.0000
      6h5-     0.0000
      7d2+     0.0000
      7d1+     0.0000
      7d0      0.0000
      7d1-     0.0000
      7d2-     0.0000
      7f3+     0.0000
      7f2+     0.0000
      7f1+     0.0000
      7f0      0.0000
      7f1-     0.0000
      7f2-     0.0000
      7f3-     0.0000
      7g4+     0.0000
      7g3+     0.0000
      7g2+     0.0000
      7g1+     0.0000
      7g0      0.0000
      7g1-     0.0000
      7g2-     0.0000
      7g3-     0.0000
      7g4-     0.0000
      7h5+     0.0000
      7h4+     0.0000
      7h3+     0.0000
      7h2+     0.0000
      7h1+     0.0000
      7h0      0.0000
      7h1-     0.0000
      7h2-     0.0000
      7h3-     0.0000
      7h4-     0.0000
      7h5-     0.0000
      8s       0.0000
      8px      0.0002
      8pz      0.0002
      8py      0.0002
      8d2+     0.0000
      8d1+     0.0000
      8d0      0.0000
      8d1-     0.0000
      8d2-     0.0000
      8f3+     0.0000
      8f2+     0.0000
      8f1+     0.0000
      8f0      0.0000
      8f1-     0.0000
      8f2-     0.0000
      8f3-     0.0000
      8g4+     0.0000
      8g3+     0.0000
      8g2+     0.0000
      8g1+     0.0000
      8g0      0.0000
      8g1-     0.0000
      8g2-     0.0000
      8g3-     0.0000
      8g4-     0.0000
      9s       0.0000
      9px      0.0000
      9pz      0.0000
      9py      0.0000
      9d2+     0.0000
      9d1+     0.0000
      9d0      0.0000
      9d1-     0.0000
      9d2-     0.0000
      9f3+     0.0000
      9f2+     0.0000
      9f1+     0.0000
      9f0      0.0000
      9f1-     0.0000
      9f2-     0.0000
      9f3-     0.0000
     10s       0.0000
     10px      0.0000
     10pz      0.0000
     10py      0.0000
     10d2+     0.0000
     10d1+     0.0000
     10d0      0.0000
     10d1-     0.0000
     10d2-     0.0000
     11d2+     0.0000
     11d1+     0.0000
     11d0      0.0000
     11d1-     0.0000
     11d2-     0.0000
      Total   36.0000

      N-E      6.0000

      Total electronic charge=   36.000000

      Total            charge=    6.000000
--

 Sorry, Molden does not know how to handle
 functions with angular momentum larger than g

++    Static properties:
      ------------------


      LoProp Charges per center


                   MO    
      Nuclear     42.0000
      Electronic -36.0000

      Total        6.0000
--


++    Molecular properties:
      ---------------------

      Charge (e):
                      =    6.0000
      Dipole Moment (Debye):
      Origin of the operator (Ang)=    0.0000    0.0000    0.0000
                   X=  3.7014E-09               Y= -5.4496E-13               Z= -1.5853E-01           Total=  1.5853E-01
      Center of Charge (Ang)
                     X=    0.00000000               Y=   -0.00000000               Z=   -0.00550072
      Quadrupole Moment (Debye*Ang):
      Origin of the operator (Ang)=    0.0000    0.0000    0.0000
                  XX= -7.0243E+00              XY= -2.5838E-14              XZ= -5.6546E-10              YY= -7.0243E+00
                  YZ= -2.6345E-14              ZZ= -6.9856E+00
      In traceless form (Debye*Ang)
                  XX= -1.9385E-02              XY= -3.8757E-14              XZ= -8.4819E-10              YY= -1.9385E-02
                  YZ= -3.9517E-14              ZZ=  3.8770E-02
--

 Sorry, Molden does not know how to handle
 functions with angular momentum larger than g
 ###############################################################################
 ###############################################################################
 ###                                                                         ###
 ###                                                                         ###
 ###    WARNING: RunFile label nBas                                          ###
 ###    was used       62 times                                              ###
 ###                                                                         ###
 ###                                                                         ###
 ###############################################################################
 ###############################################################################
Note: The following floating-point exceptions are signalling: IEEE_UNDERFLOW_FLAG IEEE_DENORMAL
--- Stop Module: scf at Thu Jan  9 00:51:15 2025 /rc=_RC_ALL_IS_WELL_ ---
*** files: molybdenum_so_cf.LprOrb molybdenum_so_cf.ScfOrb xmldump
    saved to directory /home4/s4752295/Internship/Initial_simulations/Point_charge_model/1_electron/active_space_9_non_rel/Mo/varying_bond_length
--- Module scf spent 18 seconds ---

*** symbolic link created: INPORB -> molybdenum_so_cf.ScfOrb
--- Start Module: rasscf at Thu Jan  9 00:51:15 2025 ---

()()()()()()()()()()()()()()()()()()()()()()()()()()()()()()()()()()()()()()()()()()()()()()()()()()

                                              &RASSCF

                                   only a single process is used
                       available to each process: 4.1 GB of memory, 1 thread?
                                            pid: 1478758
()()()()()()()()()()()()()()()()()()()()()()()()()()()()()()()()()()()()()()()()()()()()()()()()()()


      Header of the ONEINT file:
      --------------------------
      
      Integrals generated by seward 4.2.0  , Thu Jan  9 00:50:44 2025


      OrdInt status: non-squared


      Cartesian coordinates in Angstrom:
      -----------------------------------------------------
      No.  Label        X            Y            Z        
      -----------------------------------------------------
       1   MO         0.00000000   0.00000000   0.00000000
      -----------------------------------------------------
      Nuclear repulsion energy =  -44.44444454

++    Wave function specifications:
      -----------------------------

      Number of closed shell electrons          36
      Number of electrons in active shells       1
      Max number of holes in RAS1 space          0
      Max nr of electrons in RAS3 space          0
      Number of inactive orbitals               18
      Number of active orbitals                  9
      Number of secondary orbitals             155
      Spin quantum number                      0.5
      State symmetry                             1
--

++    Orbital specifications:
      -----------------------

      Symmetry species                           1
[...]
         1   11       1.56198055E-05  5.37422586E+00  1.38117321E+05  3.47198382E-14  1.38122696E+05
         1   13       7.75220991E-02  5.44720264E+04  1.53482172E+09  8.74539514E+03  1.53488494E+09
         1   15       8.79176566E-02  1.53482174E+09  5.44720259E+04  2.05833711E+08  1.74070993E+09
         1   17       1.84759724E-02  1.65120209E+04  4.24358087E+08  6.55408021E-14  4.24374599E+08
         2   12       1.56198055E-05  5.37422586E+00  1.38117321E+05  3.47198382E-14  1.38122696E+05
         2   14       7.75220991E-02  5.44720264E+04  1.53482172E+09  8.74539514E+03  1.53488494E+09
         2   16       8.79176566E-02  1.53482174E+09  5.44720259E+04  2.05833711E+08  1.74070993E+09
         2   18       1.84759724E-02  1.65120209E+04  4.24358087E+08  6.55408021E-14  4.24374599E+08
         3   11       1.56198048E-05  1.38117315E+05  5.37422812E+00  6.77614235E-10  1.38122690E+05
         3   13       8.79176575E-02  1.53482174E+09  5.44720265E+04  2.05833732E+08  1.74070994E+09
         3   15       7.75220984E-02  5.44720271E+04  1.53482171E+09  8.74539386E+03  1.53488493E+09
         3   17       1.84759726E-02  4.24358091E+08  1.65120200E+04  6.86834822E-09  4.24374603E+08
         4   12       1.56198048E-05  1.38117315E+05  5.37422812E+00  6.77614235E-10  1.38122690E+05
         4   14       8.79176575E-02  1.53482174E+09  5.44720265E+04  2.05833732E+08  1.74070994E+09
         4   16       7.75220984E-02  5.44720271E+04  1.53482171E+09  8.74539386E+03  1.53488493E+09
         4   18       1.84759726E-02  4.24358091E+08  1.65120200E+04  6.86834822E-09  4.24374603E+08
         5   11       6.47136702E-03  5.41780907E+07  1.51312251E-01  8.52397344E-09  5.41780909E+07
         5   13       6.54229741E-02  1.28522411E+08  1.42737956E+01  1.12050778E+09  1.24903020E+09
         5   15       6.73188033E-03  1.42737971E+01  1.28522392E+08  5.80252263E+01  1.28522464E+08
         5   17       7.44375901E-02  1.65297973E+09  4.61655271E+00  6.95533553E-07  1.65297973E+09
         6   12       6.47136702E-03  5.41780907E+07  1.51312251E-01  8.52397344E-09  5.41780909E+07
         6   14       6.54229741E-02  1.28522411E+08  1.42737956E+01  1.12050778E+09  1.24903020E+09
         6   16       6.73188033E-03  1.42737971E+01  1.28522392E+08  5.80252263E+01  1.28522464E+08
         6   18       7.44375901E-02  1.65297973E+09  4.61655271E+00  6.95533553E-07  1.65297973E+09
         7   11       6.47136692E-03  1.51312136E-01  5.41780899E+07  4.84506704E-15  5.41780900E+07
         7   13       6.73188055E-03  1.42737872E+01  1.28522396E+08  5.80252133E+01  1.28522469E+08
         7   15       6.54229742E-02  1.28522390E+08  1.42737632E+01  1.12050780E+09  1.24903021E+09
         7   17       7.44375906E-02  4.61655875E+00  1.65297974E+09  6.11368104E-12  1.65297974E+09
         8   12       6.47136692E-03  1.51312136E-01  5.41780899E+07  4.84506704E-15  5.41780900E+07
         8   14       6.73188055E-03  1.42737872E+01  1.28522396E+08  5.80252133E+01  1.28522469E+08
         8   16       6.54229742E-02  1.28522390E+08  1.42737632E+01  1.12050780E+09  1.24903021E+09
         8   18       7.44375906E-02  4.61655875E+00  1.65297974E+09  6.11368104E-12  1.65297974E+09
         9   11       7.20157385E-05  1.84186991E-08  2.07345075E-13  5.95028044E+05  5.95028044E+05
         9   13       4.02737788E-02  7.62224597E+08  5.99336311E+01  2.66692552E-07  7.62224657E+08
         9   15       4.02737806E-02  5.99336617E+01  7.62224631E+08  3.82842279E-12  7.62224691E+08
         9   17       7.71298549E-02  3.95545986E-07  4.66478723E-12  1.69899265E+09  1.69899265E+09
        10   12       7.20157385E-05  1.84186991E-08  2.07345075E-13  5.95028044E+05  5.95028044E+05
        10   14       4.02737788E-02  7.62224597E+08  5.99336311E+01  2.66692552E-07  7.62224657E+08
        10   16       4.02737806E-02  5.99336617E+01  7.62224631E+08  3.82842279E-12  7.62224691E+08
        10   18       7.71298549E-02  3.95545986E-07  4.66478723E-12  1.69899265E+09  1.69899265E+09
        11   13       3.86075960E-01  8.41049634E+08  6.61316497E+01  6.04459001E-08  8.41049700E+08
        11   15       3.86075960E-01  6.61316504E+01  8.41049637E+08  5.53597960E-15  8.41049703E+08
        11   17       3.86550598E-01  1.09426259E-07  4.80532563E-16  1.27888416E+09  1.27888416E+09
        12   14       3.86075960E-01  8.41049634E+08  6.61316497E+01  6.04459001E-08  8.41049700E+08
        12   16       3.86075960E-01  6.61316504E+01  8.41049637E+08  5.53597960E-15  8.41049703E+08
        12   18       3.86550598E-01  1.09426259E-07  4.80532563E-16  1.27888416E+09  1.27888416E+09
        13   17       2.54446564E-04  2.99276274E+04  2.35320632E-03  1.91877652E-10  2.99276298E+04
        14   18       2.54446564E-04  2.99276274E+04  2.35320632E-03  1.91877652E-10  2.99276298E+04
        15   17       2.54446550E-04  2.35320637E-03  2.99276252E+04  9.77778989E-19  2.99276276E+04
        16   18       2.54446550E-04  2.35320637E-03  2.99276252E+04  9.77778989E-19  2.99276276E+04
     -----------------------------------------------------------------------------------------------
--

++ Velocity transition strengths (SO states):
   ------------------------------------------
    for osc. strength at least    1.0000000000000001E-005

      From   To        Osc. strength     Einstein coefficients Ax, Ay, Az (sec-1)    Total A (sec-1)
     -----------------------------------------------------------------------------------------------
         1    5       5.83767079E-05  1.43802050E-02  3.75913319E+02  8.12787590E-04  3.75928512E+02
         1    7       6.15660287E-05  3.75913310E+02  1.43802032E-02  2.05390915E+01  3.96466782E+02
         1   11       1.76812257E-05  6.08350881E+00  1.56345867E+05  2.01987467E-14  1.56351950E+05
         1   13       6.53942336E-02  4.59503653E+04  1.29471260E+09  7.38988990E+03  1.29476594E+09
         1   15       7.41784860E-02  1.29471261E+09  4.59503648E+04  1.73930216E+08  1.46868878E+09
         1   17       1.58804858E-02  1.41924777E+04  3.64745945E+08  1.54077905E-14  3.64760137E+08
         2    6       5.83767079E-05  1.43802050E-02  3.75913319E+02  8.12787590E-04  3.75928512E+02
         2    8       6.15660287E-05  3.75913310E+02  1.43802032E-02  2.05390915E+01  3.96466782E+02
         2   12       1.76812257E-05  6.08350881E+00  1.56345867E+05  2.01987467E-14  1.56351950E+05
         2   14       6.53942336E-02  4.59503653E+04  1.29471260E+09  7.38988990E+03  1.29476594E+09
         2   16       7.41784860E-02  1.29471261E+09  4.59503648E+04  1.73930216E+08  1.46868878E+09
         2   18       1.58804858E-02  1.41924777E+04  3.64745945E+08  1.54077905E-14  3.64760137E+08
         3    5       6.15660312E-05  3.75913317E+02  1.43802051E-02  2.05391007E+01  3.96466798E+02
         3    7       5.83767041E-05  1.43802028E-02  3.75913294E+02  8.12787644E-04  3.75928487E+02
         3   11       1.76812248E-05  1.56345859E+05  6.08351137E+00  5.46946098E-10  1.56351942E+05
         3   13       7.41784869E-02  1.29471261E+09  4.59503654E+04  1.73930234E+08  1.46868880E+09
         3   15       6.53942330E-02  4.59503659E+04  1.29471259E+09  7.38988883E+03  1.29476593E+09
         3   17       1.58804860E-02  3.64745949E+08  1.41924769E+04  5.35576941E-09  3.64760141E+08
         4    6       6.15660312E-05  3.75913317E+02  1.43802051E-02  2.05391007E+01  3.96466798E+02
         4    8       5.83767041E-05  1.43802028E-02  3.75913294E+02  8.12787644E-04  3.75928487E+02
         4   12       1.76812248E-05  1.56345859E+05  6.08351137E+00  5.46946098E-10  1.56351942E+05
         4   14       7.41784869E-02  1.29471261E+09  4.59503654E+04  1.73930234E+08  1.46868880E+09
         4   16       6.53942330E-02  4.59503659E+04  1.29471259E+09  7.38988883E+03  1.29476593E+09
         4   18       1.58804860E-02  3.64745949E+08  1.41924769E+04  5.35576941E-09  3.64760141E+08
         5    9       5.88010546E-04  2.11915906E+02  5.91849994E-07  1.84535451E-13  2.11915907E+02
         5   11       5.49519321E-03  4.60057528E+07  1.28487916E-01  7.90182882E-09  4.60057530E+07
         5   13       5.47742846E-02  1.07058018E+08  1.18899440E+01  9.38675135E+08  1.04573316E+09
         5   15       5.60757658E-03  1.18899452E+01  1.07058002E+08  4.86090667E+01  1.07058063E+08
         5   17       6.32092415E-02  1.40364509E+09  3.92019420E+00  5.84627037E-07  1.40364510E+09
         6   10       5.88010546E-04  2.11915906E+02  5.91849994E-07  1.84535451E-13  2.11915907E+02
         6   12       5.49519321E-03  4.60057528E+07  1.28487916E-01  7.90182882E-09  4.60057530E+07
         6   14       5.47742846E-02  1.07058018E+08  1.18899440E+01  9.38675135E+08  1.04573316E+09
         6   16       5.60757658E-03  1.18899452E+01  1.07058002E+08  4.86090667E+01  1.07058063E+08
         6   18       6.32092415E-02  1.40364509E+09  3.92019420E+00  5.84627037E-07  1.40364510E+09
         7    9       5.88010559E-04  5.91855152E-07  2.11915911E+02  2.77887423E-19  2.11915912E+02
         7   11       5.49519313E-03  1.28487927E-01  4.60057521E+07  7.97116295E-15  4.60057523E+07
         7   13       5.60757677E-03  1.18899368E+01  1.07058006E+08  4.86090552E+01  1.07058067E+08
         7   15       5.47742847E-02  1.07058000E+08  1.18899165E+01  9.38675156E+08  1.04573317E+09
         7   17       6.32092420E-02  3.92019948E+00  1.40364510E+09  5.02238601E-12  1.40364511E+09
         8   10       5.88010559E-04  5.91855152E-07  2.11915911E+02  2.77887423E-19  2.11915912E+02
         8   12       5.49519313E-03  1.28487927E-01  4.60057521E+07  7.97116295E-15  4.60057523E+07
         8   14       5.60757677E-03  1.18899368E+01  1.07058006E+08  4.86090552E+01  1.07058067E+08
         8   16       5.47742847E-02  1.07058000E+08  1.18899165E+01  9.38675156E+08  1.04573317E+09
         8   18       6.32092420E-02  3.92019948E+00  1.40364510E+09  5.02238601E-12  1.40364511E+09
         9   11       1.01063465E-04  1.58051665E-08  1.27798433E-13  8.35036981E+05  8.35036981E+05
         9   13       3.45270325E-02  6.53463513E+08  5.13817600E+01  2.27452638E-07  6.53463564E+08
         9   15       3.45270340E-02  5.13817858E+01  6.53463541E+08  3.19137671E-12  6.53463593E+08
         9   17       6.44470474E-02  3.30849632E-07  3.93401857E-12  1.41962461E+09  1.41962461E+09
        10   12       1.01063465E-04  1.58051665E-08  1.27798433E-13  8.35036981E+05  8.35036981E+05
        10   14       3.45270325E-02  6.53463513E+08  5.13817600E+01  2.27452638E-07  6.53463564E+08
        10   16       3.45270340E-02  5.13817858E+01  6.53463541E+08  3.19137671E-12  6.53463593E+08
        10   18       6.44470474E-02  3.30849632E-07  3.93401857E-12  1.41962461E+09  1.41962461E+09
        11   13       3.65094505E-01  7.95345215E+08  6.25379158E+01  5.77378088E-08  7.95345277E+08
        11   15       3.65094505E-01  6.25379164E+01  7.95345218E+08  4.54779732E-15  7.95345280E+08
        11   17       3.68882243E-01  1.03268946E-07  6.33316974E-16  1.22043350E+09  1.22043350E+09
        12   14       3.65094505E-01  7.95345215E+08  6.25379158E+01  5.77378088E-08  7.95345277E+08
        12   16       3.65094505E-01  6.25379164E+01  7.95345218E+08  4.54779732E-15  7.95345280E+08
        12   18       3.68882243E-01  1.03268946E-07  6.33316974E-16  1.22043350E+09  1.22043350E+09
        13   17       1.78106942E-04  2.09487471E+04  1.64719761E-03  1.40699872E-10  2.09487487E+04
        14   18       1.78106942E-04  2.09487471E+04  1.64719761E-03  1.40699872E-10  2.09487487E+04
        15   17       1.78106931E-04  1.64719867E-03  2.09487455E+04  4.05020835E-16  2.09487471E+04
        16   18       1.78106931E-04  1.64719867E-03  2.09487455E+04  4.05020835E-16  2.09487471E+04
     -----------------------------------------------------------------------------------------------
--

++ Length and velocity gauge comparison (SO states):

 --------------------------------------------------
 A comparison between the dipole oscillator strengths in 
 length and velocity gauge will be performed

 All dipole oscillator differences above the tolerance of   0.10000000000000001       will be printed 

 Due to basis set deficiency these oscillator may be problematic 

 The tolerance is defined as ABS(1-O_l/O_v) 
 O_l : dipole oscillator strength in length gauge
 O_p : dipole oscillator strength in velocity gauge
 --------------------------------------------------

  Problematic transitions have been found

      From   To       Difference (%) Osc. st. (len.) Osc. st. (vel.)
     ---------------------------------------------------------------
         1    5      --------------- below threshold  5.83767079E-05
         1    7      --------------- below threshold  6.15660287E-05
         1   11            11.658808  1.56198055E-05  1.76812257E-05
         1   13            18.545772  7.75220991E-02  6.53942336E-02
         1   15            18.521773  8.79176566E-02  7.41784860E-02
         1   17            16.343874  1.84759724E-02  1.58804858E-02
         2    6      --------------- below threshold  5.83767079E-05
         2    8      --------------- below threshold  6.15660287E-05
         2   12            11.658808  1.56198055E-05  1.76812257E-05
         2   14            18.545772  7.75220991E-02  6.53942336E-02
         2   16            18.521773  8.79176566E-02  7.41784860E-02
         2   18            16.343874  1.84759724E-02  1.58804858E-02
         3    5      --------------- below threshold  6.15660312E-05
         3    7      --------------- below threshold  5.83767041E-05
         3   11            11.658808  1.56198048E-05  1.76812248E-05
         3   13            18.521773  8.79176575E-02  7.41784869E-02
         3   15            18.545772  7.75220984E-02  6.53942330E-02
         3   17            16.343874  1.84759726E-02  1.58804860E-02
         4    6      --------------- below threshold  6.15660312E-05
         4    8      --------------- below threshold  5.83767041E-05
         4   12            11.658808  1.56198048E-05  1.76812248E-05
         4   14            18.521773  8.79176575E-02  7.41784869E-02
         4   16            18.545772  7.75220984E-02  6.53942330E-02
         4   18            16.343874  1.84759726E-02  1.58804860E-02
         5    9      --------------- below threshold  5.88010546E-04
         5   11            17.764140  6.47136702E-03  5.49519321E-03
         5   13            19.441038  6.54229741E-02  5.47742846E-02
         5   15            20.049726  6.73188033E-03  5.60757658E-03
         5   17            17.763777  7.44375901E-02  6.32092415E-02
         6   10      --------------- below threshold  5.88010546E-04
         6   12            17.764140  6.47136702E-03  5.49519321E-03
         6   14            19.441038  6.54229741E-02  5.47742846E-02
         6   16            20.049726  6.73188033E-03  5.60757658E-03
         6   18            17.763777  7.44375901E-02  6.32092415E-02
         7    9      --------------- below threshold  5.88010559E-04
         7   11            17.764140  6.47136692E-03  5.49519313E-03
         7   13            20.049726  6.73188055E-03  5.60757677E-03
         7   15            19.441038  6.54229742E-02  5.47742847E-02
         7   17            17.763777  7.44375906E-02  6.32092420E-02
         8   10      --------------- below threshold  5.88010559E-04
         8   12            17.764140  6.47136692E-03  5.49519313E-03
         8   14            20.049726  6.73188055E-03  5.60757677E-03
         8   16            19.441038  6.54229742E-02  5.47742847E-02
         8   18            17.763777  7.44375906E-02  6.32092420E-02
         9   11            28.742065  7.20157385E-05  1.01063465E-04
         9   13            16.644194  4.02737788E-02  3.45270325E-02
         9   15            16.644194  4.02737806E-02  3.45270340E-02
         9   17            19.679424  7.71298549E-02  6.44470474E-02
        10   12            28.742065  7.20157385E-05  1.01063465E-04
        10   14            16.644194  4.02737788E-02  3.45270325E-02
        10   16            16.644194  4.02737806E-02  3.45270340E-02
        10   18            19.679424  7.71298549E-02  6.44470474E-02
        13   17            42.861677  2.54446564E-04  1.78106942E-04
        14   18            42.861677  2.54446564E-04  1.78106942E-04
        15   17            42.861678  2.54446550E-04  1.78106931E-04
        16   18            42.861678  2.54446550E-04  1.78106931E-04
     ---------------------------------------------------------------

 Number of problematic transitions =                    56

--

 Electric-dipole - electric-octupole not included
++ I/O STATISTICS
 
  I. General I/O information
  - - - - - - - - - - - - - - - - - - - - - - - - - - - - - - - - - - - - - - - - - - -
  Unit  Name          Flsize      Write/Read            MBytes           Write/Read
                      (MBytes)       Calls              In/Out           Time, sec.
  - - - - - - - - - - - - - - - - - - - - - - - - - - - - - - - - - - - - - - - - - - -
   1  SCRATCH           0.00 .       9/      45 .      0.0/      0.0 .       0/       0
   2  ANNI              0.00 .       0/       0 .      0.0/      0.0 .       0/       0
   3  RUNFILE          14.89 .     322/    9977 .      2.3/     72.4 .       0/       0
   4  ONEINT            5.68 .       0/   24849 .      0.0/   3743.6 .       0/       0
   5  JOBIPH            6.59 .       0/      92 .      0.0/      0.8 .       0/       0
   6  ORDINT          529.03 .       1/    4233 .      0.0/   1058.0 .       0/       0
  - - - - - - - - - - - - - - - - - - - - - - - - - - - - - - - - - - - - - - - - - - -
   *  TOTAL           556.21 .     332/   39196 .      2.3/   4874.7 .       0/       0
  - - - - - - - - - - - - - - - - - - - - - - - - - - - - - - - - - - - - - - - - - - -
 
  II. I/O Access Patterns
  - - - - - - - - - - - - - - - - - - - -
  Unit  Name               % of random
                         Write/Read calls
  - - - - - - - - - - - - - - - - - - - -
   1  SCRATCH             88.9/ 100.0
   2  ANNI                 0.0/   0.0
   3  RUNFILE             28.6/  10.8
   4  ONEINT               0.0/  15.5
   5  JOBIPH               0.0/  76.1
   6  ORDINT             100.0/   0.0
  - - - - - - - - - - - - - - - - - - - -
--
--- Stop Module: rassi at Thu Jan  9 00:52:08 2025 /rc=_RC_ALL_IS_WELL_ ---
*** files: xmldump
    saved to directory /home4/s4752295/Internship/Initial_simulations/Point_charge_model/1_electron/active_space_9_non_rel/Mo/varying_bond_length
--- Module rassi spent 3 seconds ---

.##################.
.# Happy landing! #.
.##################.

    Timing: Wall=84.24 User=46.70 System=35.73

###############################################################################
Hbrk Cluster
Job 14530273 for user s4752295
Finished at: Thu Jan  9 00:52:08 CET 2025

Job details:
============

Job ID                         : 14530273
Name                           : Mo_no_c_light
User                           : s4752295
Partition                      : regularmedium
Nodes                          : node99
Number of Nodes                : 1
Cores                          : 1
Number of Tasks                : 1
State                          : RUNNING  
Submit                         : 2025-01-09T00:50:40
Start                          : 2025-01-09T00:50:41
End                            : --
Reserved walltime              : 15:00:00
Used walltime                  : 00:01:27
Used CPU time                  : -- 
% User (Computation)           : --
% System (I/O)                 : --
Total memory reserved          : 25000M
Maximum memory used            : --

Acknowledgements:
=================

Please see this page for information about acknowledging Hbrk in your publications:

https://wiki.hpc.rug.nl/habrok/introduction/scientific_output

################################################################################
