   This run of MOLCAS is using the pymolcas driver

                             OPE
                             OPE          NMOL  CASOP  ENMOLC A   SO
                 OPE        NMOLC        AS  OP EN  MO LC     AS  OP
                OPENM       OL CA        SO  PE NM  OL CA     SOP EN
                OP EN      MO   LC       AS  OP ENMOL  CASO   PENMOL
                OP  EN     MO   LC       AS  OP EN     MO     LC ASO
               OP   E  NMOL  C  AS       OP  EN MO     LC     AS  OP
               OP  E   NMO   LC AS        OPEN  MO     LCASOP EN   M
               O  PEN   MO  LCA  SO
            OPE   NMO   L   CAS    OP
        OPENMOL  CASOP     ENMOL   CASOPE
     OPENMOLCA   SOPENMOLCASOPEN   MOLCASOPE
    OPENMOLCAS   OP           EN   MOL    CAS
    OPENMOLCAS       OP  ENM        O     LCA
    OPENMOLCAS    OPEN  MOLCASO     P  E  NMO
    OPENMOLCAS     OP               E  N  MOL
    OPENMOLCA   SO           PENM   O  L  CAS    OPEN    MO    LCAS
    OPENMOLCA   SOP           ENM   O  L  CAS   OP  EN  MOLC  AS   O
    OPENMOLCA   SOPE           NM      O  LCA   S      OP  EN MO
    OPENMOLC                AS         O  PEN   M      OL  CA  SOPE
    OPENMO        LCASOPE  NMOL        C  ASO   P      ENMOLC     AS
    OPE     NMO      LCA  SO     P     E   NM   OL  CA SO  PE N   MO
          OPENMOLCA            SOPE   NMO        LCAS  O    P  ENMO
     OPENMOLCASOPENMOLCASOPENMOLCASOPENMOLCA
        OPENMOLCASOPENMOLCASOPENMOLCASOPE
            OPENMOLCASOPENMOLCASOPENM
               OPENMOLCASOPENMOLCA        version: o91e1abe7de707b ?
                   OPENMOLCASO
                       OPE                tag:

 OpenMolcas is free software; you can redistribute it and/or modify it
 under the terms of the GNU Lesser General Public License version 2.1.
 OpenMolcas is distributed in the hope that it will be useful, but it
 is provided "as is" and without any express or implied warranties.
 For more details see the full text of the license in the file
 LICENSE or in <http://www.gnu.org/licenses/>.

                 Copyright (C) The OpenMolcas Authors
           For the author list and the recommended citation,
                   consult the file CONTRIBUTORS.md

           *************************************************
           * pymolcas version py2.10                       *
           *   build 3068ae8b88c9345ec6cfef6fef7f1169      *
           *   (after the EMIL interpreter by V. Veryazov) *
           *************************************************

configuration info
------------------
Host name: login1 (Linux)
C Compiler ID: GNU
C flags: -std=gnu99
Fortran Compiler ID: GNU
Fortran flags: -fno-aggressive-loop-optimizations -cpp -fdefault-integer-8 -fmax-stack-var-size=1048576
Definitions: _MOLCAS_;_I8_;_LINUX_;_MKL_
Parallel: OFF (GA=OFF)


   ----------------------------------------------------------------------------------------------------------------------------------------------
  |
  |           Project: niobium_so_cf
  |    Submitted from: /home4/s4752295/Internship/Initial_simulations/Point_charge_model/1_electron/active_space_9_non_rel/Nb/varying_bond_length
  |      Scratch area: /tmp/niobium_so_cf
  |   Save outputs to: /home4/s4752295/Internship/Initial_simulations/Point_charge_model/1_electron/active_space_9_non_rel/Nb/varying_bond_length
  |            Molcas: /home4/s4752295/Internship/Molcas/recomp_try/OpenMolcas-master/build
  |
  | Scratch area is empty
  |
  |    MOLCAS_DRIVER = /home4/s4752295/Internship/Molcas/bin/pymolcas
  |    MOLCAS_NPROCS = 1
  |    MOLCAS_SOURCE = /home4/s4752295/Internship/Molcas/recomp_try/OpenMolcas-master
  | MOLCAS_STRUCTURE = 0
  |
   ----------------------------------------------------------------------------------------------------------------------------------------------

++ ---------   Input file   ---------

&SEWARD
AMFi

CLIG
$R

Basis Set
Nb.ANO-rcc.Roos.21s18p13d6f4g2h.10s9p8d5f4g2h.
Spherical d
Nb            0.0       0.0     0.0
End of Basis

Xfield

4
0.000000,  0.0000,  1.890       -1.0
1.636788,  0.0000, -0.945       -1.0
-0.818394,  1.4175, -0.945      -1.0
-0.818394, -1.4175, -0.945      -1.0

End of input

&SCF
Occupied
18
Iterations
   50  100
End of Input

&RASSCF
LumOrb
Symmetry
1
Spin
2
Nactel
1 0 0
CIRoot
9 9 1
inactive
18
ras2
9
Alter
4
1 19 24
1 20 25
1 21 26
1 22 27
End of Input

>>> COPY niobium_so_cf.JobIph $SLURM_SUBMIT_DIR/niobium_so_cf.doublet.JobIph

>>> COPY $SLURM_SUBMIT_DIR/niobium_so_cf.doublet.JobIph ./JOB002

&RASSI
NROFJobIph
1 All
SpinOrbit
End of Input

EOF

-- ----------------------------------

--- Start Module: seward at Thu Jan  9 00:56:23 2025 ---

()()()()()()()()()()()()()()()()()()()()()()()()()()()()()()()()()()()()()()()()()()()()()()()()()()

                                              &SEWARD

                                   only a single process is used
                       available to each process: 4.1 GB of memory, 1 thread?
                                            pid: 1144845
()()()()()()()()()()()()()()()()()()()()()()()()()()()()()()()()()()()()()()()()()()()()()()()()()()

 The speed of LIGHT in this CALCULATION =   137.03599917700001     
               SEWARD will generate:
                  Multipole Moment integrals up to order  2
                  Kinetic Energy integrals
                  Nuclear Attraction integrals (point charge)
                  One-Electron Hamiltonian integrals
                  Velocity integrals
                  Relativistic Douglas-Kroll-Hess integrals:
                    - Parametrization         : EXP
                    - DKH order of Hamiltonian: 2
                    - DKH order of Properties : 0
                         - multipole moment operators
                         - electric potential operators
                         - contact operators
                  External field from     4 point(s) added to the one-electron Hamiltonian
                  Orbital angular momentum around ( 0.0000  0.0000  0.0000 )
                  Velocity quadrupole around ( 0.0000  0.0000  0.0000 )
                  Atomic mean-field integrals
                  Two-Electron Repulsion integrals

                   Integrals are discarded if absolute value <: 0.10E-13
                   Integral cutoff threshold is set to       <: 0.10E-15

++    Symmetry information:
      ---------------------

                    Character Table for C1 

                             E  
                    a        1  x, y, xy, Rz, z, xz, Ry, yz, Rx, I
--


++    Basis set information:
      ----------------------


      Basis set label: NB.ANO-RCC.ROOS.21S18P13D6F4G2H.10S9P8D5F4G2H......

      Electronic valence basis set:
      ------------------
      Associated Effective Charge  41.000000 au
      Associated Actual Charge     41.000000 au
      Nuclear Model: Point charge

      Shell  nPrim  nBasis  Cartesian Spherical Contaminant
         s      21      10        X                  
         p      18       9        X                  
         d      13       8                 X         
         f       6       5                 X         
         g       4       4                 X         
         h       2       2                 X         
--


++    Molecular structure info:
      -------------------------

                    ************************************************ 
                    **** Cartesian Coordinates / Bohr, Angstrom **** 
                    ************************************************ 

     Center  Label                x              y              z                     x              y              z
        1      NB               0.000000       0.000000       0.000000              0.000000       0.000000       0.000000
--


++    Operator info:
      --------------


  Net charge from external field:   -4.0000000000000000     
--


            Nuclear Potential Energy              0.00000000 au

                    Nuclear-External Field Potential Energy     -86.77248697 au
                    External Field Potential Energy               1.97463006 au 


            Total Nuclear Potential Energy            -86.77248697 au


      Basis set specifications :
      Symmetry species         a  
      Basis functions          170

 Sorry, Molden does not know how to handle
 functions with angular momentum larger than g
Note: The following floating-point exceptions are signalling: IEEE_UNDERFLOW_FLAG IEEE_DENORMAL
--- Stop Module: seward at Thu Jan  9 00:56:31 2025 /rc=_RC_ALL_IS_WELL_ ---
*** files: niobium_so_cf.GssOrb xmldump
    saved to directory /home4/s4752295/Internship/Initial_simulations/Point_charge_model/1_electron/active_space_9_non_rel/Nb/varying_bond_length
--- Module seward spent 8 seconds ---

*** symbolic link created: INPORB -> niobium_so_cf.GssOrb
--- Start Module: scf at Thu Jan  9 00:56:31 2025 ---

()()()()()()()()()()()()()()()()()()()()()()()()()()()()()()()()()()()()()()()()()()()()()()()()()()

                                                &SCF

                                   only a single process is used
                       available to each process: 4.1 GB of memory, 1 thread?
                                            pid: 1148036
()()()()()()()()()()()()()()()()()()()()()()()()()()()()()()()()()()()()()()()()()()()()()()()()()()

++    Input section:
      --------------

      Header of the integral files:
      
       Integrals generated by seward 4.2.0  , Thu Jan  9 00:56:23 2025


      Cartesian coordinates in Angstrom:
      -----------------------------------------------------
      No.  Label        X            Y            Z        
      -----------------------------------------------------
       1   NB         0.00000000   0.00000000   0.00000000
      -----------------------------------------------------
      Nuclear repulsion energy =  -86.77248697
--

++    Orbital specifications:
      -----------------------

      Symmetry species               1
                                     a
      Frozen orbitals                0
      Occupied orbitals             18
      Secondary orbitals           152
      Deleted orbitals               0
      Total number of orbitals     170
      Number of basis functions    170
--

      Molecular charge                           5.000

++    Optimization specifications:
      ----------------------------

      SCF Algorithm: Conventional
      Minimized density differences are used
      Number of density matrices in core                5
      Maximum number of NDDO SCF iterations            50
      Maximum number of HF SCF iterations             100
      Threshold for SCF energy change            0.10E-08
      Threshold for density matrix               0.10E-03
      Threshold for Fock matrix                  0.15E-03
      Threshold for linear dependence            0.10E-08
      Threshold at which DIIS is turned on       0.15E+00
      Threshold at which QNR/C2DIIS is turned on 0.75E-01
      Threshold for Norm(delta) (QNR/C2DIIS)     0.20E-04
      DIIS extrapolation of the SCF procedure
      All orbitals punched on: SCFORB
--

      Detected guessorb starting orbitals                                             


++ Convergence information
                                   SCF        iterations: Energy and convergence statistics

Iter     Tot. SCF        One-elec.       Two-elec.     Energy      Max Dij or  Max Fij      DNorm      TNorm      AccCon     Time
         Energy          Energy          Energy        Change      Delta Norm                                                in Sec.

 The total and one-electron energies are shifted by a value of      3000. a.u.

   1  -822.718182369 -2091.350131453  1355.404436053   0.00E+00    0.10E+00*   0.13E+00*    0.85E+01   0.49E+03   None         1.
   2  -822.940331553 -2100.880992889  1364.713148305  -0.22E+00*   0.38E-01*   0.33E-01*    0.71E+00   0.49E+03   EDIIS        1.
   3  -822.950413258 -2097.887882518  1361.709956229  -0.10E-01*   0.91E-02*   0.17E-01*    0.15E+00   0.49E+03   EDIIS        1.
   4  -822.951518778 -2099.117315507  1362.938283698  -0.11E-02*   0.41E-02*   0.67E-02*    0.30E-01   0.49E+03   c2DIIS       1.
   5  -822.951677845 -2098.622650303  1362.443459427  -0.16E-03*   0.16E-02*   0.22E-02*    0.51E-02   0.49E+03   QNRc2DIIS    1.
   6  -822.951695847 -2098.776584400  1362.597375522  -0.18E-04*   0.64E-03*   0.95E-03*    0.10E-02   0.49E+03   QNRc2DIIS    1.
   7  -822.951698806 -2098.731863697  1362.552651860  -0.30E-05*   0.13E-03*   0.89E-04     0.87E-04   0.49E+03   QNRc2DIIS    1.
   8  -822.951698862 -2098.727166846  1362.547954953  -0.57E-07*   0.32E-05    0.25E-05     0.33E-04   0.49E+03   QNRc2DIIS    1.
   9  -822.951698862 -2098.727160327  1362.547948434  -0.59E-10    0.65E-06    0.44E-06     0.29E-02   0.49E+03   QNRc2DIIS    1.

       Convergence after  9 Macro Iterations
--

 *****************************************************************************************************************************
 *                                                                                                                           *
 *                                             SCF/KS-DFT Program, Final results                                             *
 *                                                                                                                           *
 *                                                                                                                           *
 *                                                                                                                           *
 *                                                       Final Results                                                       *
 *                                                                                                                           *
 *****************************************************************************************************************************

::    Total SCF energy                              -3822.9516988625
      One-electron energy                           -5098.7271603274
      Two-electron energy                            1362.5479484336
      Nuclear repulsion energy                        -86.7724869686
      Kinetic energy (interpolated)                  4198.1587902273
      Virial theorem                                    0.9106257981
      Total spin, S(S+1)                                0.0000000000
      Total spin, S                                     0.0000000000
      Max non-diagonal density matrix element           0.0000003417
      Max non-diagonal Fock matrix element              0.0000001089


      All orbitals with orbital energies smaller than  E(LUMO)+0.5 are printed

++    Molecular orbitals:
      -------------------

      Title: SCF orbitals

      Molecular orbitals for symmetry species 1: a  

          Orbital            1         2         3         4         5         6         7         8         9        10    
          Energy         -701.6204 -101.2082  -90.2237  -90.2237  -90.2231  -18.3555  -14.6555  -14.6555  -14.6486   -8.5858
          Occ. No.          2.0000    2.0000    2.0000    2.0000    2.0000    2.0000    2.0000    2.0000    2.0000    2.0000

        1 NB     1s         1.0000   -0.0000    0.0000   -0.0000   -0.0000    0.0000    0.0000    0.0000    0.0000   -0.0000
        2 NB     2s         0.0000    1.0000    0.0000   -0.0000   -0.0002    0.0001   -0.0000    0.0000   -0.0000   -0.0000
        3 NB     3s        -0.0000   -0.0001   -0.0000   -0.0000    0.0000    1.0000    0.0000    0.0000   -0.0024   -0.0000
        4 NB     4s         0.0000    0.0000   -0.0000    0.0000   -0.0000   -0.0013   -0.0000   -0.0000    0.0006    0.0000
        5 NB     5s        -0.0000   -0.0000    0.0000    0.0000    0.0000    0.0002    0.0000    0.0000   -0.0001    0.0000
        6 NB     6s         0.0000    0.0000   -0.0000    0.0000   -0.0000   -0.0002   -0.0000   -0.0000    0.0001   -0.0000
        7 NB     7s        -0.0000   -0.0000    0.0000   -0.0000    0.0000    0.0005    0.0000    0.0000   -0.0002    0.0000
        8 NB     8s         0.0000    0.0000    0.0000    0.0000   -0.0000   -0.0003   -0.0000   -0.0000    0.0001    0.0000
        9 NB     9s        -0.0000   -0.0000   -0.0000   -0.0000    0.0000    0.0003   -0.0000   -0.0000   -0.0001    0.0000
       10 NB    10s         0.0000    0.0000   -0.0000    0.0000   -0.0000   -0.0002    0.0000    0.0000    0.0000    0.0000
       11 NB     2px       -0.0000   -0.0000   -0.0042    1.0000   -0.0000    0.0000    0.0001    0.0000   -0.0000   -0.0000
       12 NB     3px        0.0000   -0.0000    0.0000   -0.0001    0.0000   -0.0000    0.9896    0.1441   -0.0000    0.0003
       13 NB     4px       -0.0000    0.0000   -0.0000    0.0000   -0.0000   -0.0000   -0.0016   -0.0002    0.0000   -0.0006
       14 NB     5px        0.0000   -0.0000    0.0000   -0.0000    0.0000    0.0000    0.0003    0.0000   -0.0000    0.0000
       15 NB     6px       -0.0000    0.0000   -0.0000    0.0000   -0.0000   -0.0000   -0.0006   -0.0001    0.0000    0.0000
       16 NB     7px        0.0000   -0.0000    0.0000   -0.0000    0.0000    0.0000    0.0004    0.0001   -0.0000   -0.0001
       17 NB     8px       -0.0000    0.0000   -0.0000    0.0000   -0.0000   -0.0000   -0.0004   -0.0001    0.0000    0.0001
       18 NB     9px        0.0000   -0.0000    0.0000   -0.0000    0.0000    0.0000    0.0003    0.0000   -0.0000   -0.0001
       19 NB    10px       -0.0000   -0.0000   -0.0000    0.0000   -0.0000   -0.0000   -0.0002   -0.0000    0.0000    0.0000
       20 NB     2py        0.0000    0.0000    1.0000    0.0042    0.0000    0.0000   -0.0000    0.0001   -0.0000    0.0000
       21 NB     3py       -0.0000   -0.0000   -0.0001   -0.0000   -0.0000    0.0000   -0.1441    0.9896    0.0000   -0.0000
       22 NB     4py        0.0000    0.0000    0.0000    0.0000    0.0000   -0.0000    0.0002   -0.0016   -0.0000    0.0000
       23 NB     5py       -0.0000   -0.0000   -0.0000   -0.0000   -0.0000    0.0000   -0.0000    0.0003    0.0000   -0.0000
       24 NB     6py        0.0000    0.0000    0.0000    0.0000    0.0000   -0.0000    0.0001   -0.0006   -0.0000   -0.0000
       25 NB     7py       -0.0000   -0.0000   -0.0000   -0.0000   -0.0000    0.0000   -0.0001    0.0004    0.0000    0.0000
       26 NB     8py        0.0000    0.0000    0.0000    0.0000    0.0000   -0.0000    0.0001   -0.0004   -0.0000   -0.0000
       27 NB     9py       -0.0000   -0.0000   -0.0000   -0.0000   -0.0000    0.0000   -0.0000    0.0003    0.0000    0.0000
       28 NB    10py        0.0000    0.0000    0.0000    0.0000    0.0000   -0.0000    0.0000   -0.0002    0.0000   -0.0000
       29 NB     2pz        0.0000    0.0002   -0.0000    0.0000    1.0000   -0.0000    0.0000    0.0000    0.0001    0.0000
       30 NB     3pz       -0.0000    0.0000    0.0000   -0.0000   -0.0001    0.0024    0.0000    0.0000    1.0000    0.0000
       31 NB     4pz        0.0000   -0.0000   -0.0000    0.0000    0.0001    0.0003   -0.0000   -0.0000   -0.0022   -0.0000
       32 NB     5pz       -0.0000    0.0000    0.0000   -0.0000   -0.0000   -0.0001    0.0000    0.0000    0.0004   -0.0000
       33 NB     6pz        0.0000   -0.0000   -0.0000    0.0000    0.0000    0.0001   -0.0000   -0.0000   -0.0009    0.0000
       34 NB     7pz       -0.0000    0.0000    0.0000   -0.0000   -0.0000   -0.0001    0.0000    0.0000    0.0005    0.0000
       35 NB     8pz        0.0000   -0.0000   -0.0000    0.0000    0.0000    0.0001   -0.0000   -0.0000   -0.0004   -0.0000
       36 NB     9pz       -0.0000    0.0000    0.0000   -0.0000   -0.0000   -0.0000    0.0000    0.0000    0.0003    0.0000
       37 NB    10pz        0.0000   -0.0000   -0.0000    0.0000    0.0000    0.0000   -0.0000   -0.0000   -0.0002    0.0000
       38 NB     3d2-      -0.0000   -0.0000   -0.0000   -0.0000   -0.0000   -0.0000   -0.0001    0.0006    0.0000    0.0014
       39 NB     4d2-       0.0000    0.0000   -0.0000   -0.0000   -0.0000    0.0000   -0.0000    0.0002    0.0000   -0.0000
       40 NB     5d2-      -0.0000   -0.0000    0.0000    0.0000    0.0000   -0.0000    0.0000   -0.0001   -0.0000    0.0000
       41 NB     6d2-       0.0000    0.0000   -0.0000   -0.0000   -0.0000    0.0000   -0.0000    0.0001    0.0000   -0.0000
       42 NB     7d2-      -0.0000   -0.0000    0.0000    0.0000    0.0000   -0.0000    0.0000   -0.0000   -0.0000    0.0000
       43 NB     8d2-       0.0000    0.0000    0.0000    0.0000    0.0000    0.0000    0.0000   -0.0000   -0.0000   -0.0000
       44 NB     9d2-      -0.0000   -0.0000   -0.0000   -0.0000   -0.0000   -0.0000   -0.0000    0.0001    0.0000    0.0000
       45 NB    10d2-      -0.0000    0.0000   -0.0000   -0.0000   -0.0000   -0.0000   -0.0000    0.0001    0.0000    0.0000
       46 NB     3d1-       0.0000    0.0000    0.0000    0.0000    0.0000    0.0000   -0.0003    0.0018    0.0000   -0.0002
       47 NB     4d1-       0.0000    0.0000   -0.0000   -0.0000   -0.0000    0.0000   -0.0000    0.0003    0.0000   -0.0000
       48 NB     5d1-      -0.0000   -0.0000    0.0000    0.0000    0.0000   -0.0000    0.0000   -0.0003   -0.0000    0.0000
       49 NB     6d1-      -0.0000   -0.0000   -0.0000   -0.0000   -0.0000   -0.0000   -0.0000    0.0002    0.0000   -0.0000
       50 NB     7d1-       0.0000    0.0000    0.0000    0.0000    0.0000    0.0000    0.0000   -0.0001   -0.0000   -0.0000
       51 NB     8d1-      -0.0000   -0.0000   -0.0000   -0.0000   -0.0000    0.0000   -0.0000    0.0000    0.0000    0.0000
       52 NB     9d1-       0.0000    0.0000    0.0000    0.0000    0.0000    0.0000   -0.0000    0.0000   -0.0000   -0.0000
       53 NB    10d1-       0.0000    0.0000   -0.0000   -0.0000   -0.0000    0.0000   -0.0000    0.0000   -0.0000   -0.0000
       54 NB     3d0       -0.0000   -0.0000   -0.0000    0.0000    0.0000   -0.0006    0.0000    0.0000    0.0005   -0.0000
       55 NB     4d0        0.0000    0.0000   -0.0000    0.0000    0.0000   -0.0001   -0.0000   -0.0000   -0.0002    0.0000
       56 NB     5d0       -0.0000   -0.0000    0.0000   -0.0000   -0.0000    0.0001   -0.0000   -0.0000    0.0001   -0.0000
       57 NB     6d0        0.0000    0.0000    0.0000    0.0000   -0.0000   -0.0001    0.0000    0.0000   -0.0000    0.0000
       58 NB     7d0       -0.0000   -0.0000   -0.0000   -0.0000    0.0000    0.0001   -0.0000   -0.0000   -0.0001   -0.0000
       59 NB     8d0        0.0000    0.0000    0.0000    0.0000   -0.0000   -0.0001    0.0000    0.0000    0.0002    0.0000
       60 NB     9d0       -0.0000   -0.0000   -0.0000    0.0000    0.0000    0.0000   -0.0000   -0.0000   -0.0002   -0.0000
       61 NB    10d0       -0.0000   -0.0000   -0.0000    0.0000    0.0000    0.0000   -0.0000   -0.0000   -0.0001   -0.0000
       62 NB     3d1+       0.0000    0.0000   -0.0000    0.0000   -0.0000    0.0000    0.0018    0.0003   -0.0000    0.1624
       63 NB     4d1+       0.0000   -0.0000    0.0000   -0.0000    0.0000    0.0000    0.0003    0.0000   -0.0000    0.0001
       64 NB     5d1+      -0.0000    0.0000   -0.0000    0.0000   -0.0000   -0.0000   -0.0003   -0.0000    0.0000   -0.0001
       65 NB     6d1+      -0.0000   -0.0000    0.0000   -0.0000    0.0000    0.0000    0.0002    0.0000   -0.0000    0.0000
       66 NB     7d1+       0.0000    0.0000   -0.0000    0.0000   -0.0000   -0.0000   -0.0001   -0.0000    0.0000    0.0000
       67 NB     8d1+      -0.0000   -0.0000    0.0000   -0.0000   -0.0000    0.0000    0.0000    0.0000   -0.0000   -0.0001
       68 NB     9d1+       0.0000    0.0000   -0.0000    0.0000    0.0000   -0.0000    0.0000    0.0000    0.0000    0.0001
       69 NB    10d1+       0.0000   -0.0000    0.0000   -0.0000    0.0000   -0.0000    0.0000    0.0000    0.0000    0.0000
       70 NB     3d2+       0.0000    0.0000   -0.0000    0.0000   -0.0000    0.0000   -0.0006   -0.0001    0.0000    0.9867
       71 NB     4d2+      -0.0000   -0.0000   -0.0000    0.0000   -0.0000    0.0000   -0.0002   -0.0000    0.0000   -0.0016
       72 NB     5d2+       0.0000    0.0000    0.0000   -0.0000    0.0000   -0.0000    0.0001    0.0000   -0.0000    0.0011
       73 NB     6d2+      -0.0000   -0.0000   -0.0000    0.0000   -0.0000   -0.0000   -0.0001   -0.0000    0.0000   -0.0006
       74 NB     7d2+       0.0000    0.0000    0.0000   -0.0000    0.0000    0.0000    0.0000    0.0000   -0.0000    0.0004
       75 NB     8d2+      -0.0000   -0.0000    0.0000   -0.0000    0.0000    0.0000    0.0000    0.0000   -0.0000   -0.0003
       76 NB     9d2+       0.0000    0.0000   -0.0000    0.0000   -0.0000   -0.0000   -0.0001   -0.0000    0.0000    0.0003
       77 NB    10d2+       0.0000    0.0000   -0.0000    0.0000   -0.0000   -0.0000   -0.0001   -0.0000    0.0000    0.0003
       78 NB     4f3-      -0.0000    0.0000    0.0000    0.0000    0.0000    0.0000   -0.0000    0.0000   -0.0000   -0.0000
       79 NB     5f3-       0.0000    0.0000    0.0000   -0.0000    0.0000    0.0000   -0.0000    0.0000   -0.0000   -0.0000
       80 NB     6f3-      -0.0000   -0.0000   -0.0000   -0.0000   -0.0000   -0.0000    0.0000   -0.0000    0.0000    0.0000
       81 NB     7f3-       0.0000    0.0000    0.0000    0.0000   -0.0000    0.0000   -0.0000    0.0000    0.0000   -0.0000
       82 NB     8f3-      -0.0000   -0.0000    0.0000    0.0000   -0.0000    0.0000   -0.0000    0.0000    0.0000   -0.0000
       83 NB     4f2-      -0.0000   -0.0000   -0.0000   -0.0000   -0.0000   -0.0000    0.0000   -0.0002   -0.0000    0.0000
       84 NB     5f2-      -0.0000    0.0000   -0.0000   -0.0000   -0.0000    0.0000    0.0000   -0.0001   -0.0000    0.0000
       85 NB     6f2-       0.0000   -0.0000    0.0000    0.0000    0.0000   -0.0000   -0.0000    0.0001    0.0000   -0.0000
       86 NB     7f2-      -0.0000    0.0000   -0.0000   -0.0000   -0.0000    0.0000    0.0000   -0.0000   -0.0000    0.0000
       87 NB     8f2-      -0.0000    0.0000   -0.0000   -0.0000   -0.0000   -0.0000    0.0000   -0.0000   -0.0000    0.0000
       88 NB     4f1-      -0.0000   -0.0000   -0.0000   -0.0000   -0.0000   -0.0000    0.0000   -0.0002   -0.0000   -0.0000
       89 NB     5f1-      -0.0000   -0.0000   -0.0000   -0.0000   -0.0000    0.0000    0.0000   -0.0001   -0.0000   -0.0000
       90 NB     6f1-      -0.0000    0.0000    0.0000    0.0000    0.0000   -0.0000   -0.0000    0.0001    0.0000    0.0000
       91 NB     7f1-       0.0000   -0.0000   -0.0000   -0.0000   -0.0000   -0.0000    0.0000   -0.0001   -0.0000   -0.0000
       92 NB     8f1-      -0.0000   -0.0000   -0.0000   -0.0000   -0.0000   -0.0000    0.0000   -0.0000   -0.0000   -0.0000
       93 NB     4f0       -0.0000    0.0000    0.0000   -0.0000   -0.0000   -0.0003   -0.0000   -0.0000   -0.0002    0.0000
       94 NB     5f0       -0.0000    0.0000    0.0000   -0.0000   -0.0000   -0.0002   -0.0000   -0.0000   -0.0002   -0.0000
       95 NB     6f0        0.0000   -0.0000   -0.0000    0.0000    0.0000    0.0001    0.0000    0.0000    0.0001    0.0000
       96 NB     7f0       -0.0000    0.0000    0.0000   -0.0000   -0.0000   -0.0000   -0.0000   -0.0000   -0.0001   -0.0000
       97 NB     8f0        0.0000    0.0000    0.0000   -0.0000   -0.0000   -0.0000   -0.0000   -0.0000   -0.0001   -0.0000
       98 NB     4f1+      -0.0000    0.0000    0.0000   -0.0000   -0.0000   -0.0000   -0.0002   -0.0000    0.0000    0.0002
       99 NB     5f1+      -0.0000    0.0000    0.0000   -0.0000    0.0000   -0.0000   -0.0001   -0.0000    0.0000    0.0001
      100 NB     6f1+       0.0000   -0.0000   -0.0000    0.0000   -0.0000    0.0000    0.0001    0.0000   -0.0000   -0.0001
      101 NB     7f1+      -0.0000    0.0000    0.0000   -0.0000    0.0000   -0.0000   -0.0001   -0.0000    0.0000    0.0000
      102 NB     8f1+       0.0000    0.0000    0.0000   -0.0000    0.0000    0.0000   -0.0000   -0.0000    0.0000    0.0000
      103 NB     4f2+      -0.0000    0.0000   -0.0000    0.0000   -0.0000    0.0000    0.0002    0.0000   -0.0000    0.0011
      104 NB     5f2+       0.0000    0.0000   -0.0000    0.0000   -0.0000    0.0000    0.0001    0.0000   -0.0000    0.0008
      105 NB     6f2+      -0.0000    0.0000    0.0000   -0.0000    0.0000   -0.0000   -0.0001   -0.0000    0.0000   -0.0003
      106 NB     7f2+       0.0000    0.0000   -0.0000    0.0000   -0.0000    0.0000    0.0000    0.0000   -0.0000    0.0001
      107 NB     8f2+      -0.0000    0.0000   -0.0000    0.0000    0.0000    0.0000    0.0000    0.0000   -0.0000    0.0001
      108 NB     4f3+      -0.0000    0.0000   -0.0000   -0.0000    0.0000   -0.0002    0.0000    0.0000    0.0001   -0.0000
      109 NB     5f3+      -0.0000    0.0000   -0.0000    0.0000    0.0000   -0.0001    0.0000    0.0000    0.0001   -0.0000
      110 NB     6f3+       0.0000   -0.0000    0.0000   -0.0000   -0.0000    0.0001   -0.0000   -0.0000   -0.0001    0.0000
      111 NB     7f3+      -0.0000    0.0000   -0.0000    0.0000    0.0000   -0.0000    0.0000    0.0000    0.0000   -0.0000
      112 NB     8f3+       0.0000    0.0000   -0.0000    0.0000    0.0000   -0.0000    0.0000    0.0000    0.0000   -0.0000
      113 NB     5g4-      -0.0000   -0.0000    0.0000    0.0000    0.0000   -0.0000    0.0000   -0.0002   -0.0000    0.0000
      114 NB     6g4-       0.0000    0.0000   -0.0000   -0.0000   -0.0000    0.0000   -0.0000    0.0001    0.0000   -0.0000
      115 NB     7g4-       0.0000    0.0000    0.0000    0.0000    0.0000   -0.0000    0.0000   -0.0001   -0.0000   -0.0000
      116 NB     8g4-       0.0000   -0.0000   -0.0000   -0.0000   -0.0000    0.0000   -0.0000    0.0000    0.0000    0.0000
      117 NB     5g3-      -0.0000   -0.0000   -0.0000   -0.0000   -0.0000   -0.0000    0.0000   -0.0000    0.0000    0.0000
      118 NB     6g3-      -0.0000    0.0000    0.0000    0.0000   -0.0000   -0.0000   -0.0000    0.0000    0.0000   -0.0000
      119 NB     7g3-       0.0000   -0.0000   -0.0000    0.0000    0.0000    0.0000   -0.0000    0.0000    0.0000    0.0000
      120 NB     8g3-      -0.0000   -0.0000   -0.0000    0.0000   -0.0000   -0.0000    0.0000   -0.0000   -0.0000   -0.0000
      121 NB     5g2-       0.0000    0.0000    0.0000    0.0000    0.0000   -0.0000   -0.0000    0.0000    0.0000   -0.0000
      122 NB     6g2-      -0.0000   -0.0000   -0.0000   -0.0000   -0.0000    0.0000    0.0000   -0.0000   -0.0000    0.0000
      123 NB     7g2-      -0.0000    0.0000    0.0000    0.0000    0.0000   -0.0000   -0.0000    0.0000    0.0000   -0.0000
      124 NB     8g2-       0.0000   -0.0000   -0.0000   -0.0000   -0.0000    0.0000   -0.0000    0.0000   -0.0000    0.0000
      125 NB     5g1-      -0.0000   -0.0000    0.0000    0.0000    0.0000    0.0000    0.0000   -0.0002   -0.0000    0.0000
      126 NB     6g1-      -0.0000   -0.0000   -0.0000   -0.0000   -0.0000   -0.0000   -0.0000    0.0001    0.0000   -0.0000
      127 NB     7g1-       0.0000    0.0000    0.0000    0.0000    0.0000    0.0000    0.0000   -0.0001   -0.0000    0.0000
      128 NB     8g1-       0.0000    0.0000   -0.0000   -0.0000   -0.0000    0.0000   -0.0000    0.0000    0.0000   -0.0000
      129 NB     5g0       -0.0000    0.0000   -0.0000    0.0000    0.0000   -0.0000   -0.0000   -0.0000   -0.0004    0.0000
      130 NB     6g0        0.0000   -0.0000   -0.0000   -0.0000   -0.0000    0.0000    0.0000    0.0000    0.0002   -0.0000
      131 NB     7g0       -0.0000    0.0000   -0.0000    0.0000    0.0000   -0.0000   -0.0000   -0.0000   -0.0001    0.0000
      132 NB     8g0        0.0000   -0.0000    0.0000   -0.0000   -0.0000    0.0000    0.0000    0.0000    0.0000    0.0000
      133 NB     5g1+      -0.0000   -0.0000   -0.0000    0.0000    0.0000   -0.0000   -0.0002   -0.0000    0.0000   -0.0003
      134 NB     6g1+       0.0000   -0.0000    0.0000   -0.0000   -0.0000    0.0000    0.0001    0.0000   -0.0000    0.0001
      135 NB     7g1+      -0.0000   -0.0000   -0.0000    0.0000    0.0000   -0.0000   -0.0001   -0.0000    0.0000   -0.0000
      136 NB     8g1+      -0.0000    0.0000    0.0000   -0.0000   -0.0000    0.0000    0.0000    0.0000   -0.0000    0.0000
      137 NB     5g2+      -0.0000    0.0000    0.0000   -0.0000    0.0000   -0.0000   -0.0000   -0.0000    0.0000   -0.0002
      138 NB     6g2+       0.0000   -0.0000   -0.0000    0.0000   -0.0000    0.0000    0.0000    0.0000   -0.0000    0.0001
      139 NB     7g2+      -0.0000    0.0000    0.0000   -0.0000    0.0000   -0.0000   -0.0000   -0.0000    0.0000   -0.0001
      140 NB     8g2+       0.0000    0.0000   -0.0000    0.0000   -0.0000    0.0000   -0.0000   -0.0000   -0.0000    0.0001
      141 NB     5g3+       0.0000   -0.0000   -0.0000    0.0000    0.0000    0.0001   -0.0000   -0.0000   -0.0002    0.0000
      142 NB     6g3+      -0.0000    0.0000    0.0000   -0.0000   -0.0000   -0.0001    0.0000    0.0000    0.0001   -0.0000
      143 NB     7g3+       0.0000    0.0000   -0.0000    0.0000    0.0000    0.0001    0.0000    0.0000   -0.0000    0.0000
      144 NB     8g3+      -0.0000    0.0000    0.0000   -0.0000   -0.0000   -0.0000   -0.0000   -0.0000    0.0000   -0.0000
      145 NB     5g4+      -0.0000    0.0000   -0.0000    0.0000   -0.0000   -0.0000   -0.0002   -0.0000    0.0000   -0.0000
      146 NB     6g4+       0.0000   -0.0000    0.0000   -0.0000    0.0000    0.0000    0.0001    0.0000   -0.0000    0.0000
      147 NB     7g4+      -0.0000    0.0000   -0.0000    0.0000   -0.0000   -0.0000   -0.0001   -0.0000    0.0000    0.0000
      148 NB     8g4+       0.0000    0.0000    0.0000   -0.0000   -0.0000    0.0000    0.0000    0.0000   -0.0000   -0.0000
      149 NB     6h5-       0.0000    0.0000    0.0000    0.0000   -0.0000    0.0000   -0.0000    0.0000    0.0000   -0.0000
      150 NB     7h5-      -0.0000    0.0000   -0.0000   -0.0000    0.0000   -0.0000    0.0000   -0.0000    0.0000    0.0000
      151 NB     6h4-       0.0000    0.0000   -0.0000   -0.0000   -0.0000    0.0000   -0.0000    0.0001    0.0000   -0.0000
      152 NB     7h4-       0.0000    0.0000    0.0000    0.0000    0.0000    0.0000    0.0000   -0.0001   -0.0000   -0.0000
      153 NB     6h3-      -0.0000   -0.0000    0.0000    0.0000   -0.0000   -0.0000    0.0000   -0.0000    0.0000   -0.0000
      154 NB     7h3-       0.0000   -0.0000   -0.0000   -0.0000    0.0000    0.0000   -0.0000    0.0000    0.0000    0.0000
      155 NB     6h2-       0.0000    0.0000   -0.0000   -0.0000   -0.0000    0.0000   -0.0000    0.0000    0.0000   -0.0000
      156 NB     7h2-       0.0000   -0.0000    0.0000    0.0000    0.0000    0.0000    0.0000   -0.0000   -0.0000    0.0000
      157 NB     6h1-       0.0000   -0.0000    0.0000    0.0000   -0.0000    0.0000   -0.0000    0.0000   -0.0000    0.0000
      158 NB     7h1-       0.0000    0.0000   -0.0000   -0.0000   -0.0000    0.0000    0.0000   -0.0000    0.0000   -0.0000
      159 NB     6h0       -0.0000    0.0000    0.0000   -0.0000   -0.0000   -0.0000   -0.0000   -0.0000   -0.0001    0.0000
      160 NB     7h0        0.0000    0.0000   -0.0000    0.0000    0.0000    0.0000    0.0000    0.0000    0.0000   -0.0000
      161 NB     6h1+       0.0000   -0.0000   -0.0000    0.0000   -0.0000    0.0000    0.0000    0.0000   -0.0000   -0.0000
      162 NB     7h1+      -0.0000    0.0000    0.0000   -0.0000    0.0000   -0.0000   -0.0000   -0.0000    0.0000    0.0000
      163 NB     6h2+       0.0000   -0.0000   -0.0000    0.0000    0.0000    0.0000   -0.0000   -0.0000    0.0000   -0.0003
      164 NB     7h2+      -0.0000   -0.0000    0.0000   -0.0000   -0.0000   -0.0000    0.0000    0.0000   -0.0000    0.0001
      165 NB     6h3+      -0.0000    0.0000    0.0000   -0.0000   -0.0000   -0.0000    0.0000    0.0000    0.0001   -0.0000
      166 NB     7h3+       0.0000    0.0000    0.0000    0.0000    0.0000    0.0000   -0.0000   -0.0000   -0.0001    0.0000
      167 NB     6h4+       0.0000   -0.0000    0.0000   -0.0000    0.0000    0.0000    0.0001    0.0000   -0.0000    0.0000
      168 NB     7h4+      -0.0000    0.0000   -0.0000    0.0000    0.0000   -0.0000   -0.0001   -0.0000    0.0000    0.0000
      169 NB     6h5+       0.0000   -0.0000    0.0000   -0.0000    0.0000    0.0000   -0.0000   -0.0000    0.0000   -0.0004
      170 NB     7h5+      -0.0000   -0.0000   -0.0000    0.0000    0.0000   -0.0000    0.0000    0.0000   -0.0000    0.0001

          Orbital           11        12        13        14        15        16        17        18        19        20    
          Energy           -8.5858   -8.5804   -8.5804   -8.5785   -2.8657   -1.7708   -1.7708   -1.6833   -0.1703   -0.1072
          Occ. No.          2.0000    2.0000    2.0000    2.0000    2.0000    2.0000    2.0000    2.0000    0.0000    0.0000

        1 NB     1s         0.0000   -0.0000    0.0000    0.0000    0.0000   -0.0000   -0.0000   -0.0000    0.0000   -0.0000
        2 NB     2s         0.0000   -0.0000    0.0000    0.0000    0.0000   -0.0000   -0.0000    0.0000    0.0000    0.0000
        3 NB     3s         0.0000   -0.0000   -0.0000    0.0006   -0.0013    0.0000    0.0000   -0.0004   -0.0001   -0.0000
        4 NB     4s        -0.0000    0.0000    0.0000   -0.0012   -0.9966    0.0000    0.0000   -0.0517    0.0103   -0.0000
        5 NB     5s         0.0000   -0.0000   -0.0000    0.0001    0.0179    0.0000    0.0000    0.0116    0.9417   -0.0000
        6 NB     6s         0.0000    0.0000    0.0000   -0.0001   -0.0163   -0.0000   -0.0000   -0.0104    0.1947   -0.0000
        7 NB     7s        -0.0000   -0.0000   -0.0000    0.0001    0.0240    0.0000    0.0000    0.0132   -0.0131   -0.0000
        8 NB     8s        -0.0000   -0.0000   -0.0000    0.0000   -0.0050    0.0000    0.0000   -0.0012   -0.0270   -0.0000
        9 NB     9s        -0.0000    0.0000    0.0000   -0.0000   -0.0035   -0.0000    0.0000   -0.0018   -0.0064   -0.0000
       10 NB    10s         0.0000    0.0000   -0.0000   -0.0000   -0.0002   -0.0000   -0.0000   -0.0002   -0.0004    0.0000
       11 NB     2px        0.0000   -0.0000   -0.0000    0.0000    0.0000   -0.0000   -0.0000    0.0000   -0.0000    0.0000
       12 NB     3px       -0.0000   -0.0000   -0.0019    0.0000   -0.0000    0.0015    0.0000   -0.0000   -0.0000   -0.0002
       13 NB     4px        0.0000    0.0000    0.0016   -0.0000    0.0000    0.9926    0.0001   -0.0000    0.0000   -0.0005
       14 NB     5px       -0.0000   -0.0000   -0.0002    0.0000   -0.0000   -0.0239   -0.0000    0.0000    0.0000    0.8473
       15 NB     6px       -0.0000    0.0000    0.0001    0.0000    0.0000    0.0296    0.0000   -0.0000    0.0000    0.3297
       16 NB     7px        0.0000    0.0000    0.0001   -0.0000    0.0000   -0.0081   -0.0000    0.0000    0.0000    0.2746
       17 NB     8px       -0.0000   -0.0000   -0.0002    0.0000   -0.0000   -0.0006   -0.0000   -0.0000    0.0000    0.0999
       18 NB     9px        0.0000    0.0000    0.0001   -0.0000   -0.0000    0.0020    0.0000   -0.0000    0.0000    0.0336
       19 NB    10px       -0.0000   -0.0000   -0.0000    0.0000    0.0000    0.0005    0.0000   -0.0000    0.0000    0.0044
       20 NB     2py        0.0000   -0.0000    0.0000    0.0000   -0.0000    0.0000   -0.0000    0.0000   -0.0000   -0.0000
       21 NB     3py       -0.0003   -0.0019    0.0000   -0.0000    0.0000   -0.0000    0.0015    0.0000    0.0000    0.0000
       22 NB     4py        0.0006    0.0016   -0.0000   -0.0000    0.0000   -0.0001    0.9926    0.0000   -0.0000    0.0000
       23 NB     5py       -0.0000   -0.0002    0.0000   -0.0000   -0.0000    0.0000   -0.0239    0.0000   -0.0000   -0.0003
       24 NB     6py       -0.0000    0.0001   -0.0000   -0.0000    0.0000   -0.0000    0.0296   -0.0000    0.0000   -0.0001
       25 NB     7py        0.0001    0.0001   -0.0000    0.0000    0.0000    0.0000   -0.0081   -0.0000   -0.0000   -0.0001
       26 NB     8py       -0.0001   -0.0002    0.0000   -0.0000   -0.0000    0.0000   -0.0006    0.0000    0.0000   -0.0000
       27 NB     9py        0.0001    0.0001   -0.0000    0.0000   -0.0000   -0.0000    0.0020    0.0000   -0.0000   -0.0000
       28 NB    10py       -0.0000   -0.0000    0.0000   -0.0000    0.0000   -0.0000    0.0005   -0.0000    0.0000   -0.0000
       29 NB     2pz        0.0000    0.0000   -0.0000   -0.0000   -0.0000   -0.0000    0.0000   -0.0001    0.0000   -0.0000
       30 NB     3pz       -0.0000    0.0000    0.0000   -0.0005    0.0005    0.0000   -0.0000    0.0022   -0.0001    0.0000
       31 NB     4pz        0.0000    0.0000   -0.0000   -0.0007   -0.0513    0.0000    0.0000    0.9936   -0.0079    0.0000
       32 NB     5pz       -0.0000    0.0000    0.0000   -0.0000    0.0006   -0.0000   -0.0000   -0.0296    0.2229    0.0000
       33 NB     6pz       -0.0000   -0.0000   -0.0000    0.0002    0.0016    0.0000    0.0000    0.0423    0.0455    0.0000
       34 NB     7pz        0.0000    0.0000   -0.0000   -0.0003   -0.0021   -0.0000   -0.0000   -0.0141    0.0319   -0.0000
       35 NB     8pz        0.0000    0.0000    0.0000    0.0003    0.0008   -0.0000   -0.0000   -0.0006    0.0090    0.0000
       36 NB     9pz        0.0000    0.0000   -0.0000   -0.0001    0.0005    0.0000   -0.0000    0.0035    0.0020    0.0000
       37 NB    10pz        0.0000    0.0000    0.0000    0.0000    0.0001    0.0000   -0.0000    0.0008    0.0002    0.0000
       38 NB     3d2-       0.9867    0.1624   -0.0000   -0.0000    0.0000    0.0000   -0.0007   -0.0000   -0.0000   -0.0000
       39 NB     4d2-      -0.0016   -0.0007    0.0000   -0.0000    0.0000   -0.0000    0.0555   -0.0000   -0.0000   -0.0000
       40 NB     5d2-       0.0011    0.0005   -0.0000    0.0000   -0.0000    0.0000   -0.0204   -0.0000   -0.0000   -0.0000
       41 NB     6d2-      -0.0006   -0.0003    0.0000   -0.0000    0.0000   -0.0000    0.0008   -0.0000    0.0000   -0.0000
       42 NB     7d2-       0.0004    0.0001   -0.0000    0.0000   -0.0000   -0.0000    0.0054    0.0000    0.0000   -0.0000
       43 NB     8d2-      -0.0003   -0.0000    0.0000   -0.0000    0.0000    0.0000   -0.0045   -0.0000    0.0000    0.0000
       44 NB     9d2-       0.0003    0.0000   -0.0000    0.0000   -0.0000    0.0000   -0.0017   -0.0000    0.0000    0.0000
       45 NB    10d2-       0.0003    0.0001   -0.0000   -0.0000   -0.0000   -0.0000    0.0002    0.0000   -0.0000   -0.0000
       46 NB     3d1-      -0.1624    0.9867   -0.0002    0.0000    0.0000    0.0000   -0.0012    0.0000   -0.0000   -0.0000
       47 NB     4d1-      -0.0001   -0.0023    0.0000   -0.0000    0.0000   -0.0000    0.0840    0.0000   -0.0000   -0.0001
       48 NB     5d1-       0.0001    0.0016   -0.0000    0.0000   -0.0000    0.0000   -0.0309   -0.0000   -0.0000   -0.0001
       49 NB     6d1-      -0.0000   -0.0009    0.0000   -0.0000    0.0000   -0.0000    0.0017    0.0000   -0.0000   -0.0000
       50 NB     7d1-      -0.0000    0.0006   -0.0000    0.0000   -0.0000   -0.0000    0.0074   -0.0000    0.0000   -0.0000
       51 NB     8d1-       0.0001   -0.0004    0.0000   -0.0000   -0.0000    0.0000   -0.0062   -0.0000    0.0000    0.0000
       52 NB     9d1-      -0.0001    0.0003   -0.0000    0.0000   -0.0000    0.0000   -0.0022   -0.0000    0.0000    0.0000
       53 NB    10d1-      -0.0000    0.0004   -0.0000    0.0000   -0.0000   -0.0000    0.0004    0.0000   -0.0000   -0.0000
       54 NB     3d0        0.0000   -0.0000    0.0000    1.0000   -0.0011    0.0000    0.0000    0.0004   -0.0002    0.0000
       55 NB     4d0       -0.0000    0.0000   -0.0000   -0.0025    0.0214   -0.0000   -0.0000   -0.0585   -0.1015   -0.0000
       56 NB     5d0        0.0000   -0.0000    0.0000    0.0017   -0.0096    0.0000    0.0000    0.0210   -0.0523   -0.0000
       57 NB     6d0       -0.0000    0.0000   -0.0000   -0.0010    0.0015    0.0000    0.0000    0.0001   -0.0088   -0.0000
       58 NB     7d0        0.0000   -0.0000    0.0000    0.0006    0.0019   -0.0000   -0.0000   -0.0067    0.0066   -0.0000
       59 NB     8d0       -0.0000    0.0000   -0.0000   -0.0004   -0.0025    0.0000    0.0000    0.0053    0.0014    0.0000
       60 NB     9d0        0.0000   -0.0000    0.0000    0.0003   -0.0002    0.0000   -0.0000    0.0023    0.0011    0.0000
       61 NB    10d0        0.0000   -0.0000    0.0000    0.0004   -0.0001   -0.0000   -0.0000   -0.0003   -0.0001   -0.0000
       62 NB     3d1+      -0.0002    0.0002    0.9867   -0.0000    0.0000   -0.0012   -0.0000    0.0000    0.0000    0.0003
       63 NB     4d1+      -0.0000   -0.0000   -0.0023    0.0000   -0.0000    0.0840    0.0000   -0.0000    0.0000    0.1910
       64 NB     5d1+       0.0000    0.0000    0.0016   -0.0000    0.0000   -0.0309   -0.0000    0.0000    0.0000    0.1726
       65 NB     6d1+      -0.0000   -0.0000   -0.0009    0.0000   -0.0000    0.0017    0.0000   -0.0000    0.0000    0.1067
       66 NB     7d1+      -0.0000    0.0000    0.0006   -0.0000    0.0000    0.0074    0.0000   -0.0000   -0.0000    0.0147
       67 NB     8d1+       0.0000   -0.0000   -0.0004    0.0000    0.0000   -0.0062   -0.0000    0.0000   -0.0000   -0.0111
       68 NB     9d1+      -0.0000    0.0000    0.0003   -0.0000   -0.0000   -0.0022   -0.0000    0.0000   -0.0000   -0.0094
       69 NB    10d1+      -0.0000    0.0000    0.0004   -0.0000    0.0000    0.0004    0.0000    0.0000    0.0000    0.0014
       70 NB     3d2+      -0.0014   -0.0000   -0.1624    0.0000    0.0000    0.0007    0.0000   -0.0000    0.0000   -0.0001
       71 NB     4d2+       0.0000    0.0000    0.0007   -0.0000   -0.0000   -0.0555   -0.0000    0.0000    0.0000   -0.0589
       72 NB     5d2+      -0.0000   -0.0000   -0.0005    0.0000    0.0000    0.0204    0.0000   -0.0000    0.0000   -0.0603
       73 NB     6d2+       0.0000    0.0000    0.0003   -0.0000    0.0000   -0.0008   -0.0000    0.0000    0.0000   -0.0293
       74 NB     7d2+      -0.0000   -0.0000   -0.0001    0.0000   -0.0000   -0.0054   -0.0000    0.0000   -0.0000   -0.0015
       75 NB     8d2+       0.0000    0.0000    0.0000   -0.0000    0.0000    0.0045    0.0000   -0.0000   -0.0000    0.0026
       76 NB     9d2+      -0.0000   -0.0000   -0.0000    0.0000    0.0000    0.0017    0.0000    0.0000   -0.0000    0.0023
       77 NB    10d2+      -0.0000   -0.0000   -0.0001    0.0000   -0.0000   -0.0002   -0.0000   -0.0000    0.0000   -0.0003
       78 NB     4f3-      -0.0000   -0.0000    0.0000   -0.0000    0.0000   -0.0000    0.0000   -0.0000    0.0000   -0.0000
       79 NB     5f3-      -0.0000   -0.0000    0.0000    0.0000    0.0000   -0.0000    0.0000    0.0000   -0.0000    0.0000
       80 NB     6f3-       0.0000    0.0000   -0.0000    0.0000    0.0000   -0.0000    0.0000   -0.0000   -0.0000    0.0000
       81 NB     7f3-      -0.0000    0.0000   -0.0000   -0.0000   -0.0000    0.0000   -0.0000   -0.0000   -0.0000    0.0000
       82 NB     8f3-      -0.0000   -0.0000    0.0000    0.0000   -0.0000   -0.0000    0.0000   -0.0000    0.0000   -0.0000
       83 NB     4f2-       0.0011    0.0007   -0.0000    0.0000   -0.0000    0.0000   -0.0188   -0.0000   -0.0000   -0.0000
       84 NB     5f2-       0.0008    0.0005   -0.0000    0.0000   -0.0000    0.0000   -0.0033   -0.0000    0.0000   -0.0000
       85 NB     6f2-      -0.0003   -0.0001    0.0000   -0.0000   -0.0000    0.0000   -0.0044   -0.0000    0.0000   -0.0000
       86 NB     7f2-       0.0001   -0.0000    0.0000   -0.0000    0.0000   -0.0000    0.0022    0.0000    0.0000    0.0000
       87 NB     8f2-       0.0001   -0.0000    0.0000   -0.0000    0.0000    0.0000   -0.0007   -0.0000    0.0000   -0.0000
       88 NB     4f1-      -0.0002    0.0004   -0.0000    0.0000   -0.0000    0.0000   -0.0136   -0.0000    0.0000    0.0000
       89 NB     5f1-      -0.0001    0.0003   -0.0000    0.0000   -0.0000    0.0000   -0.0026   -0.0000   -0.0000   -0.0000
       90 NB     6f1-       0.0001   -0.0002    0.0000   -0.0000   -0.0000    0.0000   -0.0022   -0.0000   -0.0000   -0.0000
       91 NB     7f1-      -0.0000    0.0001   -0.0000    0.0000    0.0000   -0.0000    0.0009    0.0000   -0.0000   -0.0000
       92 NB     8f1-      -0.0000    0.0001   -0.0000    0.0000   -0.0000    0.0000   -0.0005   -0.0000    0.0000    0.0000
       93 NB     4f0       -0.0000    0.0000    0.0000   -0.0002    0.0363   -0.0000   -0.0000   -0.0190   -0.0521    0.0000
       94 NB     5f0       -0.0000    0.0000    0.0000   -0.0000    0.0103   -0.0000   -0.0000   -0.0030    0.0502   -0.0000
       95 NB     6f0       -0.0000   -0.0000   -0.0000   -0.0001    0.0061   -0.0000   -0.0000   -0.0034    0.0164   -0.0000
       96 NB     7f0        0.0000   -0.0000    0.0000    0.0002   -0.0048    0.0000    0.0000    0.0010    0.0032   -0.0000
       97 NB     8f0        0.0000   -0.0000    0.0000    0.0002    0.0004    0.0000   -0.0000   -0.0008   -0.0019   -0.0000
       98 NB     4f1+      -0.0000    0.0000    0.0004   -0.0000    0.0000   -0.0136   -0.0000    0.0000   -0.0000   -0.0049
       99 NB     5f1+      -0.0000    0.0000    0.0003   -0.0000    0.0000   -0.0026   -0.0000    0.0000    0.0000    0.0095
      100 NB     6f1+       0.0000   -0.0000   -0.0002    0.0000    0.0000   -0.0022   -0.0000    0.0000    0.0000    0.0055
      101 NB     7f1+      -0.0000    0.0000    0.0001   -0.0000   -0.0000    0.0009    0.0000   -0.0000    0.0000    0.0020
      102 NB     8f1+      -0.0000    0.0000    0.0001   -0.0000   -0.0000   -0.0005   -0.0000    0.0000   -0.0000   -0.0007
      103 NB     4f2+      -0.0000   -0.0000   -0.0007    0.0000    0.0000    0.0188    0.0000   -0.0000    0.0000   -0.0081
      104 NB     5f2+      -0.0000   -0.0000   -0.0005    0.0000   -0.0000    0.0033    0.0000   -0.0000    0.0000   -0.0004
      105 NB     6f2+       0.0000    0.0000    0.0001   -0.0000    0.0000    0.0044    0.0000    0.0000   -0.0000   -0.0000
      106 NB     7f2+      -0.0000    0.0000    0.0000   -0.0000    0.0000   -0.0022   -0.0000    0.0000   -0.0000    0.0017
      107 NB     8f2+      -0.0000    0.0000    0.0000   -0.0000    0.0000    0.0007    0.0000    0.0000    0.0000   -0.0011
      108 NB     4f3+       0.0000    0.0000    0.0000    0.0005    0.0235    0.0000    0.0000    0.0210   -0.0378    0.0000
      109 NB     5f3+       0.0000    0.0000    0.0000    0.0003    0.0067   -0.0000   -0.0000    0.0037    0.0302   -0.0000
      110 NB     6f3+      -0.0000   -0.0000   -0.0000   -0.0001    0.0039    0.0000    0.0000    0.0047    0.0082   -0.0000
      111 NB     7f3+       0.0000    0.0000    0.0000   -0.0000   -0.0031    0.0000   -0.0000   -0.0022    0.0015   -0.0000
      112 NB     8f3+       0.0000   -0.0000   -0.0000   -0.0000    0.0002    0.0000    0.0000    0.0008   -0.0012    0.0000
      113 NB     5g4-       0.0000    0.0003   -0.0000    0.0000   -0.0000    0.0000   -0.0166   -0.0000    0.0000    0.0000
      114 NB     6g4-      -0.0000   -0.0001    0.0000   -0.0000   -0.0000    0.0000   -0.0014   -0.0000    0.0000    0.0000
      115 NB     7g4-      -0.0000    0.0000   -0.0000    0.0000    0.0000   -0.0000    0.0043    0.0000    0.0000    0.0000
      116 NB     8g4-       0.0000    0.0000   -0.0000    0.0000    0.0000   -0.0000    0.0007    0.0000    0.0000    0.0000
      117 NB     5g3-       0.0000    0.0000   -0.0000   -0.0000    0.0000    0.0000   -0.0000    0.0000    0.0000   -0.0000
      118 NB     6g3-      -0.0000   -0.0000    0.0000   -0.0000   -0.0000    0.0000   -0.0000   -0.0000    0.0000    0.0000
      119 NB     7g3-       0.0000    0.0000   -0.0000    0.0000   -0.0000   -0.0000    0.0000   -0.0000   -0.0000    0.0000
      120 NB     8g3-      -0.0000   -0.0000   -0.0000    0.0000    0.0000   -0.0000    0.0000   -0.0000    0.0000    0.0000
      121 NB     5g2-      -0.0002   -0.0003    0.0000   -0.0000    0.0000   -0.0000    0.0012    0.0000    0.0000    0.0000
      122 NB     6g2-       0.0001    0.0001   -0.0000    0.0000    0.0000   -0.0000    0.0001    0.0000    0.0000    0.0000
      123 NB     7g2-      -0.0001   -0.0000    0.0000   -0.0000   -0.0000    0.0000   -0.0008   -0.0000    0.0000    0.0000
      124 NB     8g2-       0.0001    0.0000   -0.0000   -0.0000   -0.0000    0.0000   -0.0001   -0.0000    0.0000    0.0000
      125 NB     5g1-       0.0003   -0.0002    0.0000   -0.0000   -0.0000    0.0000   -0.0207   -0.0000    0.0000    0.0000
      126 NB     6g1-      -0.0001    0.0002   -0.0000    0.0000    0.0000    0.0000   -0.0019   -0.0000    0.0000    0.0000
      127 NB     7g1-       0.0000   -0.0001    0.0000   -0.0000    0.0000   -0.0000    0.0053    0.0000    0.0000    0.0000
      128 NB     8g1-      -0.0000    0.0001   -0.0000    0.0000   -0.0000   -0.0000    0.0009    0.0000    0.0000    0.0000
      129 NB     5g0       -0.0000   -0.0000   -0.0000   -0.0006    0.0021   -0.0000   -0.0000   -0.0348   -0.0007   -0.0000
      130 NB     6g0       -0.0000   -0.0000    0.0000    0.0003    0.0000   -0.0000   -0.0000   -0.0033   -0.0044    0.0000
      131 NB     7g0        0.0000    0.0000   -0.0000   -0.0001   -0.0006    0.0000    0.0000    0.0096   -0.0026    0.0000
      132 NB     8g0        0.0000    0.0000    0.0000    0.0001   -0.0000    0.0000    0.0000    0.0016   -0.0005    0.0000
      133 NB     5g1+       0.0000   -0.0000   -0.0002    0.0000    0.0000   -0.0207   -0.0000    0.0000   -0.0000   -0.0086
      134 NB     6g1+      -0.0000    0.0000    0.0002   -0.0000   -0.0000   -0.0019   -0.0000    0.0000   -0.0000   -0.0143
      135 NB     7g1+       0.0000   -0.0000   -0.0001    0.0000    0.0000    0.0053    0.0000   -0.0000    0.0000   -0.0074
      136 NB     8g1+      -0.0000    0.0000    0.0001   -0.0000    0.0000    0.0009    0.0000    0.0000   -0.0000   -0.0018
      137 NB     5g2+       0.0000    0.0000    0.0003   -0.0000    0.0000   -0.0012   -0.0000    0.0000   -0.0000    0.0028
      138 NB     6g2+      -0.0000   -0.0000   -0.0001    0.0000   -0.0000   -0.0001   -0.0000   -0.0000   -0.0000    0.0023
      139 NB     7g2+       0.0000    0.0000    0.0000   -0.0000   -0.0000    0.0008    0.0000    0.0000   -0.0000    0.0007
      140 NB     8g2+      -0.0000   -0.0000   -0.0000    0.0000    0.0000    0.0001    0.0000    0.0000   -0.0000    0.0003
      141 NB     5g3+      -0.0000   -0.0000   -0.0000   -0.0001   -0.0140   -0.0000   -0.0000   -0.0211    0.0102   -0.0000
      142 NB     6g3+       0.0000    0.0000    0.0000    0.0001    0.0004   -0.0000   -0.0000   -0.0019    0.0097   -0.0000
      143 NB     7g3+      -0.0000   -0.0000   -0.0000   -0.0000    0.0038    0.0000    0.0000    0.0061    0.0004   -0.0000
      144 NB     8g3+       0.0000   -0.0000   -0.0000   -0.0000   -0.0001    0.0000    0.0000    0.0010   -0.0010   -0.0000
      145 NB     5g4+       0.0000    0.0000    0.0003   -0.0000    0.0000   -0.0166   -0.0000    0.0000   -0.0000   -0.0031
      146 NB     6g4+      -0.0000   -0.0000   -0.0001    0.0000   -0.0000   -0.0014   -0.0000    0.0000   -0.0000   -0.0082
      147 NB     7g4+      -0.0000    0.0000    0.0000    0.0000   -0.0000    0.0043    0.0000   -0.0000    0.0000   -0.0050
      148 NB     8g4+       0.0000    0.0000    0.0000   -0.0000    0.0000    0.0007    0.0000   -0.0000    0.0000   -0.0012
      149 NB     6h5-      -0.0004   -0.0001    0.0000   -0.0000   -0.0000   -0.0000    0.0021    0.0000    0.0000    0.0000
      150 NB     7h5-       0.0001    0.0000   -0.0000   -0.0000    0.0000   -0.0000    0.0009   -0.0000    0.0000    0.0000
      151 NB     6h4-      -0.0000   -0.0004    0.0000   -0.0000    0.0000   -0.0000    0.0105    0.0000   -0.0000    0.0000
      152 NB     7h4-      -0.0000    0.0001   -0.0000    0.0000    0.0000   -0.0000    0.0039    0.0000   -0.0000   -0.0000
      153 NB     6h3-      -0.0000   -0.0000    0.0000    0.0000   -0.0000   -0.0000    0.0000    0.0000   -0.0000    0.0000
      154 NB     7h3-       0.0000   -0.0000    0.0000    0.0000    0.0000   -0.0000    0.0000    0.0000    0.0000    0.0000
      155 NB     6h2-      -0.0003   -0.0001    0.0000   -0.0000    0.0000   -0.0000    0.0033    0.0000    0.0000    0.0000
      156 NB     7h2-       0.0001    0.0000   -0.0000    0.0000    0.0000   -0.0000    0.0012    0.0000   -0.0000   -0.0000
      157 NB     6h1-       0.0000   -0.0005    0.0000   -0.0000    0.0000   -0.0000    0.0022   -0.0000    0.0000    0.0000
      158 NB     7h1-      -0.0000    0.0002   -0.0000    0.0000    0.0000   -0.0000    0.0010   -0.0000    0.0000    0.0000
      159 NB     6h0       -0.0000    0.0000   -0.0000   -0.0007    0.0027   -0.0000   -0.0000   -0.0066    0.0012    0.0000
      160 NB     7h0        0.0000   -0.0000    0.0000    0.0002    0.0008   -0.0000   -0.0000   -0.0030    0.0001    0.0000
      161 NB     6h1+       0.0000   -0.0000   -0.0005    0.0000   -0.0000    0.0022    0.0000   -0.0000   -0.0000   -0.0034
      162 NB     7h1+      -0.0000    0.0000    0.0002   -0.0000    0.0000    0.0010    0.0000    0.0000   -0.0000   -0.0022
      163 NB     6h2+       0.0000    0.0000    0.0001   -0.0000   -0.0000   -0.0033   -0.0000    0.0000   -0.0000    0.0005
      164 NB     7h2+      -0.0000   -0.0000   -0.0000   -0.0000   -0.0000   -0.0012   -0.0000   -0.0000   -0.0000   -0.0000
      165 NB     6h3+       0.0000    0.0000    0.0000   -0.0002    0.0044    0.0000    0.0000    0.0110   -0.0014    0.0000
      166 NB     7h3+      -0.0000   -0.0000   -0.0000    0.0001    0.0013    0.0000    0.0000    0.0041   -0.0015    0.0000
      167 NB     6h4+      -0.0000   -0.0000   -0.0004    0.0000   -0.0000    0.0105    0.0000   -0.0000    0.0000   -0.0011
      168 NB     7h4+      -0.0000    0.0000    0.0001   -0.0000    0.0000    0.0039    0.0000   -0.0000    0.0000    0.0005
      169 NB     6h5+       0.0000    0.0000    0.0001   -0.0000   -0.0000   -0.0021   -0.0000   -0.0000   -0.0000    0.0007
      170 NB     7h5+      -0.0000   -0.0000   -0.0000    0.0000   -0.0000   -0.0009   -0.0000   -0.0000    0.0000    0.0003

          Orbital           21        22        23        24        25        26        27        28        29        30    
          Energy           -0.1072   -0.0861   -0.0771   -0.0771   -0.0515   -0.0495   -0.0495   -0.0352   -0.0216   -0.0216
          Occ. No.          0.0000    0.0000    0.0000    0.0000    0.0000    0.0000    0.0000    0.0000    0.0000    0.0000

        1 NB     1s         0.0000   -0.0000    0.0000    0.0000   -0.0000    0.0000    0.0000    0.0000    0.0000   -0.0000
        2 NB     2s         0.0000   -0.0000    0.0000    0.0000   -0.0000    0.0000    0.0000    0.0000    0.0000   -0.0000
        3 NB     3s        -0.0000    0.0000   -0.0000    0.0000    0.0000   -0.0000    0.0000   -0.0001   -0.0000   -0.0000
        4 NB     4s        -0.0000   -0.0015   -0.0000   -0.0000    0.0021   -0.0000    0.0000    0.0071    0.0000    0.0000
        5 NB     5s         0.0000   -0.1885   -0.0000   -0.0000    0.0384    0.0000    0.0000    0.1730    0.0000    0.0000
        6 NB     6s         0.0000   -0.1169   -0.0000   -0.0000    0.3045   -0.0000   -0.0000   -0.8203   -0.0000   -0.0000
        7 NB     7s         0.0000   -0.0221   -0.0000   -0.0000    0.0911   -0.0000   -0.0000   -0.3124   -0.0000   -0.0000
        8 NB     8s         0.0000   -0.0064   -0.0000   -0.0000    0.0490   -0.0000   -0.0000   -0.1837   -0.0000   -0.0000
        9 NB     9s         0.0000   -0.0008   -0.0000   -0.0000    0.0100   -0.0000   -0.0000   -0.0386   -0.0000   -0.0000
       10 NB    10s         0.0000   -0.0001   -0.0000   -0.0000    0.0007   -0.0000   -0.0000   -0.0029   -0.0000   -0.0000
       11 NB     2px        0.0000    0.0000   -0.0000   -0.0000   -0.0000    0.0000    0.0000    0.0000    0.0000    0.0000
       12 NB     3px       -0.0000   -0.0000    0.0000    0.0000   -0.0000   -0.0001   -0.0000   -0.0000   -0.0000   -0.0000
       13 NB     4px       -0.0000   -0.0000    0.0056    0.0000   -0.0000   -0.0198   -0.0000    0.0000   -0.0038   -0.0000
       14 NB     5px        0.0003   -0.0000   -0.0350   -0.0000   -0.0000   -0.1833   -0.0000    0.0000   -0.0112   -0.0000
       15 NB     6px        0.0001   -0.0000   -0.0056   -0.0000   -0.0000   -0.1362   -0.0000    0.0000   -0.0012   -0.0000
       16 NB     7px        0.0001   -0.0000   -0.0081   -0.0000   -0.0000   -0.1230   -0.0000   -0.0000    0.0062    0.0000
       17 NB     8px        0.0000   -0.0000   -0.0036   -0.0000   -0.0000   -0.0513   -0.0000   -0.0000    0.0051    0.0000
       18 NB     9px        0.0000   -0.0000   -0.0010   -0.0000   -0.0000   -0.0197   -0.0000   -0.0000    0.0022    0.0000
       19 NB    10px        0.0000   -0.0000   -0.0001   -0.0000   -0.0000   -0.0028   -0.0000   -0.0000    0.0003    0.0000
       20 NB     2py        0.0000    0.0000   -0.0000    0.0000   -0.0000   -0.0000    0.0000    0.0000    0.0000   -0.0000
       21 NB     3py       -0.0002   -0.0000    0.0000   -0.0000    0.0000    0.0000   -0.0001   -0.0000   -0.0000    0.0000
       22 NB     4py       -0.0005    0.0000    0.0000   -0.0056    0.0000    0.0000   -0.0198   -0.0000   -0.0000    0.0038
       23 NB     5py        0.8473   -0.0000   -0.0000    0.0350    0.0000    0.0000   -0.1833    0.0000   -0.0000    0.0112
       24 NB     6py        0.3297   -0.0000   -0.0000    0.0056    0.0000    0.0000   -0.1362    0.0000   -0.0000    0.0012
       25 NB     7py        0.2746   -0.0000   -0.0000    0.0081   -0.0000    0.0000   -0.1230    0.0000    0.0000   -0.0062
       26 NB     8py        0.0999   -0.0000   -0.0000    0.0036   -0.0000    0.0000   -0.0513    0.0000    0.0000   -0.0051
       27 NB     9py        0.0336   -0.0000   -0.0000    0.0010   -0.0000    0.0000   -0.0197    0.0000    0.0000   -0.0022
       28 NB    10py        0.0044   -0.0000   -0.0000    0.0001   -0.0000    0.0000   -0.0028    0.0000    0.0000   -0.0003
       29 NB     2pz        0.0000    0.0000    0.0000   -0.0000   -0.0000    0.0000   -0.0000    0.0000    0.0000    0.0000
       30 NB     3pz       -0.0000   -0.0001   -0.0000    0.0000    0.0001    0.0000    0.0000   -0.0000   -0.0000   -0.0000
       31 NB     4pz        0.0000    0.0132    0.0000    0.0000    0.0119   -0.0000    0.0000   -0.0080   -0.0000   -0.0000
       32 NB     5pz        0.0000    0.7985    0.0000    0.0000   -0.0876    0.0000    0.0000   -0.0217   -0.0000   -0.0000
       33 NB     6pz        0.0000    0.3946    0.0000    0.0000    0.0065   -0.0000   -0.0000   -0.1017   -0.0000   -0.0000
       34 NB     7pz        0.0000    0.3478    0.0000    0.0000    0.0087   -0.0000   -0.0000   -0.1138   -0.0000   -0.0000
       35 NB     8pz        0.0000    0.1355    0.0000    0.0000    0.0067   -0.0000   -0.0000   -0.0562   -0.0000   -0.0000
       36 NB     9pz        0.0000    0.0484    0.0000    0.0000    0.0039   -0.0000   -0.0000   -0.0234   -0.0000    0.0000
       37 NB    10pz        0.0000    0.0066    0.0000   -0.0000    0.0007   -0.0000   -0.0000   -0.0034   -0.0000    0.0000
       38 NB     3d2-       0.0001   -0.0000   -0.0000    0.0008   -0.0000   -0.0000    0.0001    0.0000    0.0000   -0.0006
       39 NB     4d2-       0.0589    0.0000   -0.0001    0.7054   -0.0000   -0.0000    0.1164    0.0000    0.0000   -0.4477
       40 NB     5d2-       0.0603    0.0000   -0.0000    0.4235   -0.0000   -0.0000    0.2344   -0.0000   -0.0000    0.2147
       41 NB     6d2-       0.0293    0.0000   -0.0000    0.3539   -0.0000   -0.0000    0.2883   -0.0000   -0.0000    0.5373
       42 NB     7d2-       0.0015    0.0000   -0.0000    0.1092   -0.0000   -0.0000    0.1557   -0.0000   -0.0000    0.4580
       43 NB     8d2-      -0.0026    0.0000    0.0000   -0.0137   -0.0000   -0.0000    0.0205   -0.0000   -0.0000    0.1250
       44 NB     9d2-      -0.0023    0.0000    0.0000   -0.0186   -0.0000   -0.0000    0.0009   -0.0000   -0.0000    0.0478
       45 NB    10d2-       0.0003   -0.0000   -0.0000    0.0035   -0.0000   -0.0000    0.0021    0.0000   -0.0000    0.0008
       46 NB     3d1-       0.0003   -0.0000    0.0000   -0.0004   -0.0000   -0.0000    0.0004   -0.0000   -0.0000    0.0004
       47 NB     4d1-       0.1910   -0.0000    0.0000   -0.3434   -0.0000   -0.0000    0.3366   -0.0000   -0.0000    0.2437
       48 NB     5d1-       0.1726   -0.0000    0.0000   -0.1760   -0.0000   -0.0000    0.4739   -0.0000    0.0000   -0.1261
       49 NB     6d1-       0.1067   -0.0000    0.0000   -0.1477   -0.0000   -0.0000    0.5643   -0.0000    0.0000   -0.2986
       50 NB     7d1-       0.0147   -0.0000    0.0000   -0.0460   -0.0000   -0.0000    0.2982    0.0000    0.0000   -0.2498
       51 NB     8d1-      -0.0111    0.0000   -0.0000    0.0067   -0.0000   -0.0000    0.0374    0.0000    0.0000   -0.0683
       52 NB     9d1-      -0.0094    0.0000   -0.0000    0.0086    0.0000   -0.0000    0.0005    0.0000    0.0000   -0.0264
       53 NB    10d1-       0.0014   -0.0000    0.0000   -0.0016   -0.0000   -0.0000    0.0040    0.0000    0.0000   -0.0003
       54 NB     3d0        0.0000    0.0000   -0.0000   -0.0000    0.0005   -0.0000   -0.0000   -0.0002   -0.0000    0.0000
       55 NB     4d0       -0.0000    0.0400   -0.0000   -0.0000    0.3946   -0.0000    0.0000   -0.0323    0.0000   -0.0000
       56 NB     5d0       -0.0000    0.0690   -0.0000   -0.0000    0.5251   -0.0000    0.0000    0.1458    0.0000    0.0000
       57 NB     6d0       -0.0000    0.0784   -0.0000   -0.0000    0.5988   -0.0000    0.0000    0.2698    0.0000    0.0000
       58 NB     7d0       -0.0000    0.0291   -0.0000   -0.0000    0.3053   -0.0000    0.0000    0.1865    0.0000    0.0000
       59 NB     8d0        0.0000   -0.0041    0.0000    0.0000    0.0347   -0.0000    0.0000    0.0370    0.0000    0.0000
       60 NB     9d0        0.0000   -0.0050    0.0000    0.0000   -0.0023   -0.0000    0.0000    0.0101    0.0000    0.0000
       61 NB    10d0        0.0000    0.0010   -0.0000   -0.0000    0.0045   -0.0000    0.0000    0.0015    0.0000    0.0000
       62 NB     3d1+       0.0000   -0.0000    0.0004    0.0000    0.0000    0.0004    0.0000    0.0000   -0.0004   -0.0000
       63 NB     4d1+       0.0001   -0.0000    0.3434    0.0000    0.0000    0.3366    0.0000    0.0000   -0.2437   -0.0000
       64 NB     5d1+       0.0001   -0.0000    0.1760    0.0000    0.0000    0.4739    0.0000   -0.0000    0.1261    0.0000
       65 NB     6d1+       0.0000   -0.0000    0.1477    0.0000    0.0000    0.5643    0.0000   -0.0000    0.2986    0.0000
       66 NB     7d1+       0.0000   -0.0000    0.0460    0.0000    0.0000    0.2982    0.0000   -0.0000    0.2498    0.0000
       67 NB     8d1+      -0.0000    0.0000   -0.0067   -0.0000    0.0000    0.0374    0.0000   -0.0000    0.0683    0.0000
       68 NB     9d1+      -0.0000    0.0000   -0.0086   -0.0000   -0.0000    0.0005    0.0000   -0.0000    0.0264    0.0000
       69 NB    10d1+       0.0000   -0.0000    0.0016    0.0000    0.0000    0.0040    0.0000   -0.0000    0.0003    0.0000
       70 NB     3d2+      -0.0000   -0.0000    0.0008    0.0000   -0.0000   -0.0001   -0.0000    0.0000   -0.0006   -0.0000
       71 NB     4d2+      -0.0000   -0.0000    0.7054    0.0001    0.0000   -0.1164   -0.0000    0.0000   -0.4477   -0.0000
       72 NB     5d2+      -0.0000   -0.0000    0.4235    0.0000   -0.0000   -0.2344   -0.0000   -0.0000    0.2147    0.0000
       73 NB     6d2+      -0.0000   -0.0000    0.3539    0.0000   -0.0000   -0.2883   -0.0000   -0.0000    0.5373    0.0000
       74 NB     7d2+      -0.0000   -0.0000    0.1092    0.0000   -0.0000   -0.1557   -0.0000   -0.0000    0.4580    0.0000
       75 NB     8d2+       0.0000    0.0000   -0.0137   -0.0000   -0.0000   -0.0205   -0.0000   -0.0000    0.1250    0.0000
       76 NB     9d2+       0.0000    0.0000   -0.0186   -0.0000   -0.0000   -0.0009   -0.0000   -0.0000    0.0478    0.0000
       77 NB    10d2+      -0.0000   -0.0000    0.0035    0.0000   -0.0000   -0.0021   -0.0000   -0.0000    0.0008    0.0000
       78 NB     4f3-       0.0000    0.0000   -0.0000    0.0000   -0.0000    0.0000   -0.0000   -0.0000    0.0000    0.0000
       79 NB     5f3-      -0.0000   -0.0000    0.0000   -0.0000    0.0000   -0.0000    0.0000   -0.0000   -0.0000    0.0000
       80 NB     6f3-      -0.0000   -0.0000    0.0000   -0.0000    0.0000   -0.0000    0.0000    0.0000    0.0000   -0.0000
       81 NB     7f3-      -0.0000   -0.0000    0.0000   -0.0000    0.0000   -0.0000    0.0000    0.0000    0.0000   -0.0000
       82 NB     8f3-       0.0000    0.0000   -0.0000    0.0000   -0.0000    0.0000   -0.0000   -0.0000   -0.0000    0.0000
       83 NB     4f2-       0.0081   -0.0000   -0.0000    0.0720   -0.0000   -0.0000    0.0376    0.0000    0.0000   -0.0548
       84 NB     5f2-       0.0004    0.0000    0.0000   -0.0504    0.0000    0.0000   -0.0339    0.0000   -0.0000    0.0265
       85 NB     6f2-       0.0000    0.0000    0.0000   -0.0294    0.0000    0.0000   -0.0248    0.0000   -0.0000    0.0043
       86 NB     7f2-      -0.0017   -0.0000    0.0000   -0.0192    0.0000    0.0000   -0.0176    0.0000    0.0000   -0.0006
       87 NB     8f2-       0.0011    0.0000   -0.0000    0.0134   -0.0000   -0.0000    0.0130   -0.0000   -0.0000    0.0024
       88 NB     4f1-      -0.0049   -0.0000    0.0000   -0.0256   -0.0000   -0.0000    0.0187   -0.0000   -0.0000    0.0185
       89 NB     5f1-       0.0095    0.0000   -0.0000    0.0210    0.0000    0.0000   -0.0260    0.0000    0.0000   -0.0082
       90 NB     6f1-       0.0055    0.0000   -0.0000    0.0140    0.0000    0.0000   -0.0270    0.0000   -0.0000    0.0006
       91 NB     7f1-       0.0020    0.0000   -0.0000    0.0088    0.0000    0.0000   -0.0205    0.0000   -0.0000    0.0029
       92 NB     8f1-      -0.0007   -0.0000    0.0000   -0.0059   -0.0000   -0.0000    0.0157   -0.0000    0.0000   -0.0035
       93 NB     4f0        0.0000   -0.0065    0.0000    0.0000    0.0046   -0.0000   -0.0000   -0.0429   -0.0000   -0.0000
       94 NB     5f0        0.0000    0.0114   -0.0000    0.0000   -0.0193    0.0000    0.0000    0.0350    0.0000    0.0000
       95 NB     6f0        0.0000    0.0095    0.0000    0.0000   -0.0205    0.0000   -0.0000    0.0028    0.0000    0.0000
       96 NB     7f0        0.0000    0.0054    0.0000    0.0000   -0.0139    0.0000   -0.0000   -0.0069    0.0000   -0.0000
       97 NB     8f0       -0.0000   -0.0029    0.0000   -0.0000    0.0107   -0.0000    0.0000    0.0067   -0.0000    0.0000
       98 NB     4f1+      -0.0000   -0.0000    0.0256    0.0000    0.0000    0.0187    0.0000    0.0000   -0.0185   -0.0000
       99 NB     5f1+       0.0000    0.0000   -0.0210   -0.0000   -0.0000   -0.0260   -0.0000    0.0000    0.0082    0.0000
      100 NB     6f1+       0.0000    0.0000   -0.0140   -0.0000   -0.0000   -0.0270   -0.0000    0.0000   -0.0006   -0.0000
      101 NB     7f1+       0.0000    0.0000   -0.0088   -0.0000   -0.0000   -0.0205   -0.0000    0.0000   -0.0029   -0.0000
      102 NB     8f1+      -0.0000   -0.0000    0.0059    0.0000    0.0000    0.0157    0.0000   -0.0000    0.0035    0.0000
      103 NB     4f2+      -0.0000   -0.0000    0.0720    0.0000   -0.0000   -0.0376   -0.0000    0.0000   -0.0548   -0.0000
      104 NB     5f2+      -0.0000    0.0000   -0.0504   -0.0000    0.0000    0.0339    0.0000    0.0000    0.0265    0.0000
      105 NB     6f2+      -0.0000   -0.0000   -0.0294   -0.0000    0.0000    0.0248    0.0000    0.0000    0.0043    0.0000
      106 NB     7f2+       0.0000    0.0000   -0.0192   -0.0000    0.0000    0.0176    0.0000    0.0000   -0.0006   -0.0000
      107 NB     8f2+      -0.0000   -0.0000    0.0134    0.0000   -0.0000   -0.0130   -0.0000   -0.0000    0.0024    0.0000
      108 NB     4f3+       0.0000    0.0167    0.0000    0.0000    0.0258   -0.0000   -0.0000   -0.0360   -0.0000   -0.0000
      109 NB     5f3+      -0.0000   -0.0178   -0.0000   -0.0000   -0.0186    0.0000    0.0000    0.0273    0.0000    0.0000
      110 NB     6f3+      -0.0000   -0.0088   -0.0000   -0.0000   -0.0087    0.0000   -0.0000    0.0062    0.0000    0.0000
      111 NB     7f3+      -0.0000   -0.0038   -0.0000   -0.0000   -0.0050    0.0000   -0.0000    0.0001    0.0000   -0.0000
      112 NB     8f3+       0.0000    0.0026    0.0000    0.0000    0.0035   -0.0000    0.0000    0.0003    0.0000    0.0000
      113 NB     5g4-      -0.0031   -0.0000    0.0000   -0.0025   -0.0000   -0.0000    0.0065   -0.0000   -0.0000    0.0022
      114 NB     6g4-      -0.0082   -0.0000    0.0000   -0.0023   -0.0000   -0.0000    0.0055    0.0000   -0.0000    0.0014
      115 NB     7g4-      -0.0050    0.0000    0.0000   -0.0008   -0.0000   -0.0000    0.0013    0.0000   -0.0000    0.0002
      116 NB     8g4-      -0.0012    0.0000    0.0000   -0.0002   -0.0000   -0.0000    0.0002    0.0000    0.0000   -0.0000
      117 NB     5g3-       0.0000   -0.0000   -0.0000    0.0000   -0.0000   -0.0000    0.0000    0.0000    0.0000   -0.0000
      118 NB     6g3-      -0.0000    0.0000    0.0000   -0.0000   -0.0000   -0.0000    0.0000   -0.0000   -0.0000    0.0000
      119 NB     7g3-      -0.0000    0.0000    0.0000   -0.0000   -0.0000   -0.0000    0.0000    0.0000   -0.0000    0.0000
      120 NB     8g3-      -0.0000   -0.0000    0.0000   -0.0000   -0.0000   -0.0000    0.0000    0.0000    0.0000    0.0000
      121 NB     5g2-      -0.0028    0.0000    0.0000   -0.0038    0.0000    0.0000   -0.0040    0.0000   -0.0000    0.0027
      122 NB     6g2-      -0.0023    0.0000    0.0000   -0.0031    0.0000    0.0000   -0.0029    0.0000   -0.0000    0.0016
      123 NB     7g2-      -0.0007    0.0000    0.0000   -0.0009   -0.0000    0.0000   -0.0002    0.0000   -0.0000    0.0001
      124 NB     8g2-      -0.0003   -0.0000    0.0000   -0.0002   -0.0000   -0.0000    0.0001   -0.0000    0.0000   -0.0001
      125 NB     5g1-      -0.0086    0.0000   -0.0000    0.0122    0.0000    0.0000   -0.0005    0.0000    0.0000   -0.0111
      126 NB     6g1-      -0.0143    0.0000   -0.0000    0.0079    0.0000    0.0000   -0.0010    0.0000    0.0000   -0.0068
      127 NB     7g1-      -0.0074    0.0000   -0.0000    0.0006    0.0000    0.0000   -0.0011    0.0000    0.0000   -0.0001
      128 NB     8g1-      -0.0018    0.0000    0.0000   -0.0002    0.0000    0.0000   -0.0004   -0.0000   -0.0000    0.0004
      129 NB     5g0       -0.0000   -0.0110   -0.0000   -0.0000   -0.0100    0.0000   -0.0000    0.0008   -0.0000    0.0000
      130 NB     6g0        0.0000   -0.0169   -0.0000   -0.0000   -0.0063    0.0000   -0.0000   -0.0018   -0.0000    0.0000
      131 NB     7g0       -0.0000   -0.0079   -0.0000   -0.0000   -0.0008    0.0000   -0.0000   -0.0014   -0.0000    0.0000
      132 NB     8g0       -0.0000   -0.0017   -0.0000   -0.0000   -0.0002    0.0000   -0.0000   -0.0003   -0.0000   -0.0000
      133 NB     5g1+      -0.0000    0.0000   -0.0122   -0.0000   -0.0000   -0.0005   -0.0000   -0.0000    0.0111    0.0000
      134 NB     6g1+      -0.0000    0.0000   -0.0079   -0.0000   -0.0000   -0.0010   -0.0000   -0.0000    0.0068    0.0000
      135 NB     7g1+      -0.0000   -0.0000   -0.0006   -0.0000   -0.0000   -0.0011   -0.0000    0.0000    0.0001    0.0000
      136 NB     8g1+      -0.0000   -0.0000    0.0002    0.0000   -0.0000   -0.0004   -0.0000    0.0000   -0.0004   -0.0000
      137 NB     5g2+       0.0000    0.0000   -0.0038   -0.0000    0.0000    0.0040    0.0000   -0.0000    0.0027    0.0000
      138 NB     6g2+       0.0000   -0.0000   -0.0031   -0.0000    0.0000    0.0029    0.0000   -0.0000    0.0016    0.0000
      139 NB     7g2+       0.0000   -0.0000   -0.0009   -0.0000    0.0000    0.0002    0.0000    0.0000    0.0001    0.0000
      140 NB     8g2+       0.0000   -0.0000   -0.0002   -0.0000    0.0000   -0.0001   -0.0000    0.0000   -0.0001   -0.0000
      141 NB     5g3+      -0.0000   -0.0073    0.0000    0.0000   -0.0030    0.0000    0.0000    0.0092    0.0000    0.0000
      142 NB     6g3+      -0.0000   -0.0104   -0.0000   -0.0000   -0.0013    0.0000    0.0000    0.0086    0.0000    0.0000
      143 NB     7g3+      -0.0000   -0.0041   -0.0000    0.0000    0.0011    0.0000    0.0000    0.0003   -0.0000   -0.0000
      144 NB     8g3+      -0.0000   -0.0006    0.0000    0.0000    0.0006    0.0000    0.0000   -0.0010   -0.0000   -0.0000
      145 NB     5g4+      -0.0000    0.0000    0.0025    0.0000    0.0000    0.0065    0.0000   -0.0000   -0.0022   -0.0000
      146 NB     6g4+      -0.0000    0.0000    0.0023    0.0000    0.0000    0.0055    0.0000   -0.0000   -0.0014   -0.0000
      147 NB     7g4+      -0.0000   -0.0000    0.0008    0.0000    0.0000    0.0013    0.0000   -0.0000   -0.0002   -0.0000
      148 NB     8g4+      -0.0000   -0.0000    0.0002    0.0000    0.0000    0.0002    0.0000   -0.0000    0.0000    0.0000
      149 NB     6h5-      -0.0007   -0.0000    0.0000   -0.0095    0.0000    0.0000   -0.0016   -0.0000   -0.0000    0.0082
      150 NB     7h5-      -0.0003    0.0000    0.0000   -0.0066    0.0000    0.0000   -0.0013   -0.0000   -0.0000    0.0055
      151 NB     6h4-      -0.0011    0.0000   -0.0000    0.0029    0.0000    0.0000   -0.0046    0.0000    0.0000   -0.0029
      152 NB     7h4-       0.0005    0.0000   -0.0000    0.0021    0.0000    0.0000   -0.0035    0.0000    0.0000   -0.0019
      153 NB     6h3-      -0.0000   -0.0000    0.0000   -0.0000    0.0000   -0.0000   -0.0000   -0.0000    0.0000    0.0000
      154 NB     7h3-      -0.0000    0.0000   -0.0000    0.0000    0.0000    0.0000   -0.0000   -0.0000   -0.0000   -0.0000
      155 NB     6h2-      -0.0005    0.0000    0.0000   -0.0076    0.0000    0.0000   -0.0018   -0.0000   -0.0000    0.0066
      156 NB     7h2-       0.0000   -0.0000    0.0000   -0.0053    0.0000    0.0000   -0.0015   -0.0000   -0.0000    0.0045
      157 NB     6h1-      -0.0034    0.0000   -0.0000    0.0056    0.0000    0.0000   -0.0060    0.0000    0.0000   -0.0055
      158 NB     7h1-      -0.0022    0.0000   -0.0000    0.0039    0.0000    0.0000   -0.0045    0.0000    0.0000   -0.0037
      159 NB     6h0        0.0000   -0.0014    0.0000    0.0000   -0.0084    0.0000   -0.0000    0.0012    0.0000   -0.0000
      160 NB     7h0       -0.0000   -0.0015    0.0000    0.0000   -0.0060    0.0000   -0.0000    0.0002    0.0000   -0.0000
      161 NB     6h1+      -0.0000    0.0000   -0.0056   -0.0000   -0.0000   -0.0060   -0.0000   -0.0000    0.0055    0.0000
      162 NB     7h1+      -0.0000    0.0000   -0.0039   -0.0000   -0.0000   -0.0045   -0.0000   -0.0000    0.0037    0.0000
      163 NB     6h2+       0.0000    0.0000   -0.0076   -0.0000   -0.0000    0.0018    0.0000   -0.0000    0.0066    0.0000
      164 NB     7h2+      -0.0000    0.0000   -0.0053   -0.0000   -0.0000    0.0015    0.0000   -0.0000    0.0045    0.0000
      165 NB     6h3+       0.0000    0.0015    0.0000    0.0000   -0.0018    0.0000    0.0000   -0.0013   -0.0000   -0.0000
      166 NB     7h3+       0.0000    0.0021    0.0000    0.0000   -0.0015    0.0000   -0.0000   -0.0015   -0.0000   -0.0000
      167 NB     6h4+      -0.0000    0.0000   -0.0029   -0.0000   -0.0000   -0.0046   -0.0000    0.0000    0.0029    0.0000
      168 NB     7h4+       0.0000    0.0000   -0.0021   -0.0000   -0.0000   -0.0035   -0.0000    0.0000    0.0019    0.0000
      169 NB     6h5+       0.0000    0.0000   -0.0095   -0.0000   -0.0000    0.0016    0.0000   -0.0000    0.0082    0.0000
      170 NB     7h5+       0.0000    0.0000   -0.0066   -0.0000   -0.0000    0.0013    0.0000   -0.0000    0.0055    0.0000

          Orbital           31        32        33        34        35        36        37        38        39        40    
[...]
         3   13       1.12198001E-02  1.61958499E-01  1.12499552E+06  4.21275208E-15  1.12499568E+06
         3   15       1.75181022E-01  4.01057973E+06  7.12376690E-01  1.48781966E+07  1.88887770E+07
         3   17       3.71955218E-02  7.12376987E-01  4.01057995E+06  1.69367214E+00  4.01058236E+06
         4    8       8.18568308E-04  1.73505666E-03  1.20520135E+04  1.91713031E-15  1.20520152E+04
         4   10       7.89634526E-02  1.87729799E+06  4.57749566E+00  3.09503939E+05  2.18680651E+06
         4   12       6.77876281E-02  4.57749564E+00  1.87729802E+06  1.66640966E+00  1.87730426E+06
         4   14       1.12198001E-02  1.61958499E-01  1.12499552E+06  4.21275208E-15  1.12499568E+06
         4   16       1.75181022E-01  4.01057973E+06  7.12376690E-01  1.48781966E+07  1.88887770E+07
         4   18       3.71955218E-02  7.12376987E-01  4.01057995E+06  1.69367214E+00  4.01058236E+06
         5    7       8.18568621E-04  1.20520181E+04  1.73504794E-03  1.94674948E-11  1.20520198E+04
         5    9       6.77876269E-02  4.57749539E+00  1.87729799E+06  1.66640965E+00  1.87730423E+06
         5   11       7.89634509E-02  1.87729794E+06  4.57749555E+00  3.09503940E+05  2.18680646E+06
         5   13       1.12198004E-02  1.12499554E+06  1.61958374E-01  6.00974933E-09  1.12499570E+06
         5   15       3.71955199E-02  7.12376843E-01  4.01057975E+06  1.69367205E+00  4.01058216E+06
         5   17       1.75181022E-01  4.01057979E+06  7.12376885E-01  1.48781965E+07  1.88887770E+07
         6    8       8.18568621E-04  1.20520181E+04  1.73504794E-03  1.94674948E-11  1.20520198E+04
         6   10       6.77876269E-02  4.57749539E+00  1.87729799E+06  1.66640965E+00  1.87730423E+06
         6   12       7.89634509E-02  1.87729794E+06  4.57749555E+00  3.09503940E+05  2.18680646E+06
         6   14       1.12198004E-02  1.12499554E+06  1.61958374E-01  6.00974933E-09  1.12499570E+06
         6   16       3.71955199E-02  7.12376843E-01  4.01057975E+06  1.69367205E+00  4.01058216E+06
         6   18       1.75181022E-01  4.01057979E+06  7.12376885E-01  1.48781965E+07  1.88887770E+07
         7    9       4.38791639E-03  3.35862210E-02  8.91526534E+03  6.27686238E-17  8.91529892E+03
         7   11       4.38791652E-03  8.91526558E+03  3.35862176E-02  2.28179665E-11  8.91529917E+03
         7   13       3.18178032E-01  2.23422469E-09  1.17797765E-16  1.21375800E+07  1.21375800E+07
         7   15       1.53004701E-01  1.15843093E-02  6.55778415E+06  1.32558035E-16  6.55778416E+06
         7   17       1.53004702E-01  6.55778417E+06  1.15842921E-02  3.89318212E-09  6.55778419E+06
         8   10       4.38791639E-03  3.35862210E-02  8.91526534E+03  6.27686238E-17  8.91529892E+03
         8   12       4.38791652E-03  8.91526558E+03  3.35862176E-02  2.28179665E-11  8.91529917E+03
         8   14       3.18178032E-01  2.23422469E-09  1.17797765E-16  1.21375800E+07  1.21375800E+07
         8   16       1.53004701E-01  1.15843093E-02  6.55778415E+06  1.32558035E-16  6.55778416E+06
         8   18       1.53004702E-01  6.55778417E+06  1.15842921E-02  3.89318212E-09  6.55778419E+06
         9   13       8.06944745E-05  6.86161038E-03  1.82137519E+03  2.82035091E-14  1.82138205E+03
         9   15       5.87496968E-03  9.50334615E+04  3.42679578E-01  5.90562033E+04  1.54090007E+05
         9   17       3.62335020E-03  3.42679246E-01  9.50334575E+04  2.32220409E-01  9.50340324E+04
        10   14       8.06944745E-05  6.86161038E-03  1.82137519E+03  2.82035091E-14  1.82138205E+03
        10   16       5.87496968E-03  9.50334615E+04  3.42679578E-01  5.90562033E+04  1.54090007E+05
        10   18       3.62335020E-03  3.42679246E-01  9.50334575E+04  2.32220409E-01  9.50340324E+04
        11   13       8.06944462E-05  1.82137455E+03  6.86161398E-03  5.64538162E-10  1.82138142E+03
        11   15       3.62335069E-03  3.42679451E-01  9.50334703E+04  2.32220359E-01  9.50340452E+04
        11   17       5.87496919E-03  9.50334415E+04  3.42679426E-01  5.90562103E+04  1.54089994E+05
        12   14       8.06944462E-05  1.82137455E+03  6.86161398E-03  5.64538162E-10  1.82138142E+03
        12   16       3.62335069E-03  3.42679451E-01  9.50334703E+04  2.32220359E-01  9.50340452E+04
        12   18       5.87496919E-03  9.50334415E+04  3.42679426E-01  5.90562103E+04  1.54089994E+05
     -----------------------------------------------------------------------------------------------
--

++ Velocity transition strengths (SO states):
   ------------------------------------------
    for osc. strength at least    1.0000000000000001E-005

      From   To        Osc. strength     Einstein coefficients Ax, Ay, Az (sec-1)    Total A (sec-1)
     -----------------------------------------------------------------------------------------------
         1    3       3.16414051E-01  5.86737458E+00  4.07559513E+07  1.06651063E-14  4.07559571E+07
         1    5       3.16414051E-01  4.07559512E+07  5.86737448E+00  8.26146909E-12  4.07559571E+07
         1    7       2.85815946E-01  3.73671772E-11  1.54835542E-14  6.59164824E+07  6.59164824E+07
         1    9       1.43086793E-04  1.48749764E-01  3.94847923E+04  4.25487048E-13  3.94849411E+04
         1   11       1.43086695E-04  3.94847654E+04  1.48749980E-01  6.70466532E-09  3.94849142E+04
         1   13       1.24485420E-02  3.06811209E-10  6.92710422E-16  5.68108393E+06  5.68108393E+06
         1   15       3.21387030E-03  2.68155037E-03  1.51800407E+06  1.12604912E-15  1.51800408E+06
         1   17       3.21387028E-03  1.51800406E+06  2.68155228E-03  2.83603455E-09  1.51800407E+06
         2    4       3.16414051E-01  5.86737458E+00  4.07559513E+07  1.06651063E-14  4.07559571E+07
         2    6       3.16414051E-01  4.07559512E+07  5.86737448E+00  8.26146909E-12  4.07559571E+07
         2    8       2.85815946E-01  3.73671772E-11  1.54835542E-14  6.59164824E+07  6.59164824E+07
         2   10       1.43086793E-04  1.48749764E-01  3.94847923E+04  4.25487048E-13  3.94849411E+04
         2   12       1.43086695E-04  3.94847654E+04  1.48749980E-01  6.70466532E-09  3.94849142E+04
         2   14       1.24485420E-02  3.06811209E-10  6.92710422E-16  5.68108393E+06  5.68108393E+06
         2   16       3.21387030E-03  2.68155037E-03  1.51800407E+06  1.12604912E-15  1.51800408E+06
         2   18       3.21387028E-03  1.51800406E+06  2.68155228E-03  2.83603455E-09  1.51800407E+06
         3    7       9.29256005E-03  1.96967611E-02  1.36817474E+05  7.66318897E-16  1.36817493E+05
         3    9       1.54108185E-01  3.63780805E+06  8.87022250E+00  6.30055666E+05  4.26787258E+06
         3   11       1.31357692E-01  8.87022226E+00  3.63780807E+06  3.39230200E+00  3.63782034E+06
         3   13       1.83075703E-02  2.64271772E-01  1.83568388E+06  1.95928855E-15  1.83568414E+06
         3   15       2.96048617E-01  6.67535097E+06  1.18570507E+00  2.52460037E+07  3.19213559E+07
         3   17       6.19093289E-02  1.18570543E+00  6.67535130E+06  2.87390012E+00  6.67535535E+06
         4    8       9.29256005E-03  1.96967611E-02  1.36817474E+05  7.66318897E-16  1.36817493E+05
         4   10       1.54108185E-01  3.63780805E+06  8.87022250E+00  6.30055666E+05  4.26787258E+06
         4   12       1.31357692E-01  8.87022226E+00  3.63780807E+06  3.39230200E+00  3.63782034E+06
         4   14       1.83075703E-02  2.64271772E-01  1.83568388E+06  1.95928855E-15  1.83568414E+06
         4   16       2.96048617E-01  6.67535097E+06  1.18570507E+00  2.52460037E+07  3.19213559E+07
         4   18       6.19093289E-02  1.18570543E+00  6.67535130E+06  2.87390012E+00  6.67535535E+06
         5    7       9.29256167E-03  1.36817498E+05  1.96967158E-02  2.59706072E-11  1.36817517E+05
         5    9       1.31357692E-01  8.87022154E+00  3.63780808E+06  3.39230209E+00  3.63782034E+06
         5   11       1.54108182E-01  3.63780796E+06  8.87022225E+00  6.30055676E+05  4.26787251E+06
         5   13       1.83075709E-02  1.83568393E+06  2.64271651E-01  9.95495836E-09  1.83568420E+06
         5   15       6.19093262E-02  1.18570525E+00  6.67535101E+06  2.87390012E+00  6.67535507E+06
         5   17       2.96048616E-01  6.67535105E+06  1.18570530E+00  2.52460036E+07  3.19213558E+07
         6    8       9.29256167E-03  1.36817498E+05  1.96967158E-02  2.59706072E-11  1.36817517E+05
         6   10       1.31357692E-01  8.87022154E+00  3.63780808E+06  3.39230209E+00  3.63782034E+06
         6   12       1.54108182E-01  3.63780796E+06  8.87022225E+00  6.30055676E+05  4.26787251E+06
         6   14       1.83075709E-02  1.83568393E+06  2.64271651E-01  9.95495836E-09  1.83568420E+06
         6   16       6.19093262E-02  1.18570525E+00  6.67535101E+06  2.87390012E+00  6.67535507E+06
         6   18       2.96048616E-01  6.67535105E+06  1.18570530E+00  2.52460036E+07  3.19213558E+07
         7    9       2.99355798E-02  2.29135292E-01  6.08226184E+04  2.24079865E-16  6.08228475E+04
         7   11       2.99355795E-02  6.08226179E+04  2.29135261E-01  1.04169075E-10  6.08228470E+04
         7   13       7.57190487E-01  4.93690803E-09  3.01868180E-17  2.88847474E+07  2.88847474E+07
         7   15       3.24873100E-01  2.45969051E-02  1.39241152E+07  2.69011015E-15  1.39241152E+07
         7   17       3.24873097E-01  1.39241150E+07  2.45968866E-02  9.81197806E-09  1.39241150E+07
         8   10       2.99355798E-02  2.29135292E-01  6.08226184E+04  2.24079865E-16  6.08228475E+04
         8   12       2.99355795E-02  6.08226179E+04  2.29135261E-01  1.04169075E-10  6.08228470E+04
         8   14       7.57190487E-01  4.93690803E-09  3.01868180E-17  2.88847474E+07  2.88847474E+07
         8   16       3.24873100E-01  2.45969051E-02  1.39241152E+07  2.69011015E-15  1.39241152E+07
         8   18       3.24873097E-01  1.39241150E+07  2.45968866E-02  9.81197806E-09  1.39241150E+07
         9   13       5.13811723E-04  4.36906086E-02  1.15974134E+04  1.11621427E-13  1.15974571E+04
         9   15       1.11818343E-03  5.04916260E+03  1.82066310E-02  2.42788841E+04  2.93280649E+04
         9   17       1.92512455E-04  1.82067504E-02  5.04916322E+03  9.54692893E-02  5.04927690E+03
        10   14       5.13811723E-04  4.36906086E-02  1.15974134E+04  1.11621427E-13  1.15974571E+04
        10   16       1.11818343E-03  5.04916260E+03  1.82066310E-02  2.42788841E+04  2.93280649E+04
        10   18       1.92512455E-04  1.82067504E-02  5.04916322E+03  9.54692893E-02  5.04927690E+03
        11   13       5.13811797E-04  1.15974151E+04  4.36905890E-02  1.95617605E-09  1.15974588E+04
        11   15       1.92512319E-04  1.82066787E-02  5.04915967E+03  9.54692287E-02  5.04927335E+03
        11   17       1.11818398E-03  5.04916866E+03  1.82066788E-02  2.42788926E+04  2.93280794E+04
        12   14       5.13811797E-04  1.15974151E+04  4.36905890E-02  1.95617605E-09  1.15974588E+04
        12   16       1.92512319E-04  1.82066787E-02  5.04915967E+03  9.54692287E-02  5.04927335E+03
        12   18       1.11818398E-03  5.04916866E+03  1.82066788E-02  2.42788926E+04  2.93280794E+04
        13   15       5.65862802E-02  1.37155741E-05  7.76427065E+03  2.90502161E-17  7.76427066E+03
        13   17       5.65862764E-02  7.76427012E+03  1.37155443E-05  4.00084109E-12  7.76427014E+03
        14   16       5.65862802E-02  1.37155741E-05  7.76427065E+03  2.90502161E-17  7.76427066E+03
        14   18       5.65862764E-02  7.76427012E+03  1.37155443E-05  4.00084109E-12  7.76427014E+03
     -----------------------------------------------------------------------------------------------
--

++ Length and velocity gauge comparison (SO states):

 --------------------------------------------------
 A comparison between the dipole oscillator strengths in 
 length and velocity gauge will be performed

 All dipole oscillator differences above the tolerance of   0.10000000000000001       will be printed 

 Due to basis set deficiency these oscillator may be problematic 

 The tolerance is defined as ABS(1-O_l/O_v) 
 O_l : dipole oscillator strength in length gauge
 O_p : dipole oscillator strength in velocity gauge
 --------------------------------------------------

  Problematic transitions have been found

      From   To       Difference (%) Osc. st. (len.) Osc. st. (vel.)
     ---------------------------------------------------------------
         1    9            68.699703  4.47865911E-05  1.43086793E-04
         1   11            68.699724  4.47865300E-05  1.43086695E-04
         1   13            11.319308  1.10394532E-02  1.24485420E-02
         1   15            74.891013  5.62077031E-03  3.21387030E-03
         1   17            74.891013  5.62077028E-03  3.21387028E-03
         2   10            68.699703  4.47865911E-05  1.43086793E-04
         2   12            68.699724  4.47865300E-05  1.43086695E-04
         2   14            11.319308  1.10394532E-02  1.24485420E-02
         2   16            74.891013  5.62077031E-03  3.21387030E-03
         2   18            74.891013  5.62077028E-03  3.21387028E-03
         3    7            91.191143  8.18568308E-04  9.29256005E-03
         3    9            48.761026  7.89634526E-02  1.54108185E-01
         3   11            48.394626  6.77876281E-02  1.31357692E-01
         3   13            38.714969  1.12198001E-02  1.83075703E-02
         3   15            40.826941  1.75181022E-01  2.96048617E-01
         3   17            39.919359  3.71955218E-02  6.19093289E-02
         4    8            91.191143  8.18568308E-04  9.29256005E-03
         4   10            48.761026  7.89634526E-02  1.54108185E-01
         4   12            48.394626  6.77876281E-02  1.31357692E-01
         4   14            38.714969  1.12198001E-02  1.83075703E-02
         4   16            40.826941  1.75181022E-01  2.96048617E-01
         4   18            39.919359  3.71955218E-02  6.19093289E-02
         5    7            91.191141  8.18568621E-04  9.29256167E-03
         5    9            48.394627  6.77876269E-02  1.31357692E-01
         5   11            48.761026  7.89634509E-02  1.54108182E-01
         5   13            38.714970  1.12198004E-02  1.83075709E-02
         5   15            39.919359  3.71955199E-02  6.19093262E-02
         5   17            40.826941  1.75181022E-01  2.96048616E-01
         6    8            91.191141  8.18568621E-04  9.29256167E-03
         6   10            48.394627  6.77876269E-02  1.31357692E-01
         6   12            48.761026  7.89634509E-02  1.54108182E-01
         6   14            38.714970  1.12198004E-02  1.83075709E-02
         6   16            39.919359  3.71955199E-02  6.19093262E-02
         6   18            40.826941  1.75181022E-01  2.96048616E-01
         7    9            85.342137  4.38791639E-03  2.99355798E-02
         7   11            85.342136  4.38791652E-03  2.99355795E-02
         7   13            57.979130  3.18178032E-01  7.57190487E-01
         7   15            52.903241  1.53004701E-01  3.24873100E-01
         7   17            52.903240  1.53004702E-01  3.24873097E-01
         8   10            85.342137  4.38791639E-03  2.99355798E-02
         8   12            85.342136  4.38791652E-03  2.99355795E-02
         8   14            57.979130  3.18178032E-01  7.57190487E-01
         8   16            52.903241  1.53004701E-01  3.24873100E-01
         8   18            52.903240  1.53004702E-01  3.24873097E-01
         9   13            84.294933  8.06944745E-05  5.13811723E-04
         9   15           425.403036  5.87496968E-03  1.11818343E-03
         9   17          1782.138071  3.62335020E-03  1.92512455E-04
        10   14            84.294933  8.06944745E-05  5.13811723E-04
        10   16           425.403036  5.87496968E-03  1.11818343E-03
        10   18          1782.138071  3.62335020E-03  1.92512455E-04
        11   13            84.294941  8.06944462E-05  5.13811797E-04
        11   15          1782.139647  3.62335069E-03  1.92512319E-04
        11   17           425.402731  5.87496919E-03  1.11818398E-03
        12   14            84.294941  8.06944462E-05  5.13811797E-04
        12   16          1782.139647  3.62335069E-03  1.92512319E-04
        12   18           425.402731  5.87496919E-03  1.11818398E-03
        13   15      --------------- below threshold  5.65862802E-02
        13   17      --------------- below threshold  5.65862764E-02
        14   16      --------------- below threshold  5.65862802E-02
        14   18      --------------- below threshold  5.65862764E-02
     ---------------------------------------------------------------

 Number of problematic transitions =                    60

--

 Electric-dipole - electric-octupole not included
++ I/O STATISTICS
 
  I. General I/O information
  - - - - - - - - - - - - - - - - - - - - - - - - - - - - - - - - - - - - - - - - - - -
  Unit  Name          Flsize      Write/Read            MBytes           Write/Read
                      (MBytes)       Calls              In/Out           Time, sec.
  - - - - - - - - - - - - - - - - - - - - - - - - - - - - - - - - - - - - - - - - - - -
   1  SCRATCH           0.00 .       9/      45 .      0.0/      0.0 .       0/       0
   2  ANNI              0.00 .       0/       0 .      0.0/      0.0 .       0/       0
   3  RUNFILE          14.67 .     322/    9923 .      2.3/     72.0 .       0/       0
   4  ONEINT            5.14 .       0/   22237 .      0.0/   3722.5 .       0/       0
   5  JOBIPH            5.92 .       0/      92 .      0.0/      0.7 .       0/       0
   6  ORDINT          403.03 .       1/    3225 .      0.0/    806.0 .       0/       0
  - - - - - - - - - - - - - - - - - - - - - - - - - - - - - - - - - - - - - - - - - - -
   *  TOTAL           428.76 .     332/   35522 .      2.3/   4601.2 .       0/       0
  - - - - - - - - - - - - - - - - - - - - - - - - - - - - - - - - - - - - - - - - - - -
 
  II. I/O Access Patterns
  - - - - - - - - - - - - - - - - - - - -
  Unit  Name               % of random
                         Write/Read calls
  - - - - - - - - - - - - - - - - - - - -
   1  SCRATCH             88.9/ 100.0
   2  ANNI                 0.0/   0.0
   3  RUNFILE             28.6/  10.8
   4  ONEINT               0.0/  17.4
   5  JOBIPH               0.0/  76.1
   6  ORDINT             100.0/   0.1
  - - - - - - - - - - - - - - - - - - - -
--
--- Stop Module: rassi at Thu Jan  9 00:57:12 2025 /rc=_RC_ALL_IS_WELL_ ---
*** files: xmldump
    saved to directory /home4/s4752295/Internship/Initial_simulations/Point_charge_model/1_electron/active_space_9_non_rel/Nb/varying_bond_length
--- Module rassi spent 2 seconds ---

.##################.
.# Happy landing! #.
.##################.

    Timing: Wall=48.98 User=39.04 System=8.60

###############################################################################
Hbrk Cluster
Job 14530301 for user s4752295
Finished at: Thu Jan  9 00:57:12 CET 2025

Job details:
============

Job ID                         : 14530301
Name                           : Nb_no_c_light
User                           : s4752295
Partition                      : regularmedium
Nodes                          : node91
Number of Nodes                : 1
Cores                          : 1
Number of Tasks                : 1
State                          : RUNNING  
Submit                         : 2025-01-09T00:56:19
Start                          : 2025-01-09T00:56:20
End                            : --
Reserved walltime              : 15:00:00
Used walltime                  : 00:00:52
Used CPU time                  : -- 
% User (Computation)           : --
% System (I/O)                 : --
Total memory reserved          : 25000M
Maximum memory used            : --

Acknowledgements:
=================

Please see this page for information about acknowledging Hbrk in your publications:

https://wiki.hpc.rug.nl/habrok/introduction/scientific_output

################################################################################
