   This run of MOLCAS is using the pymolcas driver

                             OPE
                             OPE          NMOL  CASOP  ENMOLC A   SO
                 OPE        NMOLC        AS  OP EN  MO LC     AS  OP
                OPENM       OL CA        SO  PE NM  OL CA     SOP EN
                OP EN      MO   LC       AS  OP ENMOL  CASO   PENMOL
                OP  EN     MO   LC       AS  OP EN     MO     LC ASO
               OP   E  NMOL  C  AS       OP  EN MO     LC     AS  OP
               OP  E   NMO   LC AS        OPEN  MO     LCASOP EN   M
               O  PEN   MO  LCA  SO
            OPE   NMO   L   CAS    OP
        OPENMOL  CASOP     ENMOL   CASOPE
     OPENMOLCA   SOPENMOLCASOPEN   MOLCASOPE
    OPENMOLCAS   OP           EN   MOL    CAS
    OPENMOLCAS       OP  ENM        O     LCA
    OPENMOLCAS    OPEN  MOLCASO     P  E  NMO
    OPENMOLCAS     OP               E  N  MOL
    OPENMOLCA   SO           PENM   O  L  CAS    OPEN    MO    LCAS
    OPENMOLCA   SOP           ENM   O  L  CAS   OP  EN  MOLC  AS   O
    OPENMOLCA   SOPE           NM      O  LCA   S      OP  EN MO
    OPENMOLC                AS         O  PEN   M      OL  CA  SOPE
    OPENMO        LCASOPE  NMOL        C  ASO   P      ENMOLC     AS
    OPE     NMO      LCA  SO     P     E   NM   OL  CA SO  PE N   MO
          OPENMOLCA            SOPE   NMO        LCAS  O    P  ENMO
     OPENMOLCASOPENMOLCASOPENMOLCASOPENMOLCA
        OPENMOLCASOPENMOLCASOPENMOLCASOPE
            OPENMOLCASOPENMOLCASOPENM
               OPENMOLCASOPENMOLCA        version: o91e1abe7de707b ?
                   OPENMOLCASO
                       OPE                tag:

 OpenMolcas is free software; you can redistribute it and/or modify it
 under the terms of the GNU Lesser General Public License version 2.1.
 OpenMolcas is distributed in the hope that it will be useful, but it
 is provided "as is" and without any express or implied warranties.
 For more details see the full text of the license in the file
 LICENSE or in <http://www.gnu.org/licenses/>.

                 Copyright (C) The OpenMolcas Authors
           For the author list and the recommended citation,
                   consult the file CONTRIBUTORS.md

           *************************************************
           * pymolcas version py2.10                       *
           *   build 3068ae8b88c9345ec6cfef6fef7f1169      *
           *   (after the EMIL interpreter by V. Veryazov) *
           *************************************************

configuration info
------------------
Host name: login1 (Linux)
C Compiler ID: GNU
C flags: -std=gnu99
Fortran Compiler ID: GNU
Fortran flags: -fno-aggressive-loop-optimizations -cpp -fdefault-integer-8 -fmax-stack-var-size=1048576
Definitions: _MOLCAS_;_I8_;_LINUX_;_MKL_
Parallel: OFF (GA=OFF)


   ----------------------------------------------------------------------------------------------------------------------------------------------
  |
  |           Project: niobium_so_cf
  |    Submitted from: /home4/s4752295/Internship/Initial_simulations/Point_charge_model/1_electron/active_space_9_non_rel/Nb/varying_bond_length
  |      Scratch area: /tmp/niobium_so_cf
  |   Save outputs to: /home4/s4752295/Internship/Initial_simulations/Point_charge_model/1_electron/active_space_9_non_rel/Nb/varying_bond_length
  |            Molcas: /home4/s4752295/Internship/Molcas/recomp_try/OpenMolcas-master/build
  |
  | Scratch area is empty
  |
  |    MOLCAS_DRIVER = /home4/s4752295/Internship/Molcas/bin/pymolcas
  |    MOLCAS_NPROCS = 1
  |    MOLCAS_SOURCE = /home4/s4752295/Internship/Molcas/recomp_try/OpenMolcas-master
  | MOLCAS_STRUCTURE = 0
  |
   ----------------------------------------------------------------------------------------------------------------------------------------------

++ ---------   Input file   ---------

&SEWARD
AMFi

CLIG
$R

Basis Set
Nb.ANO-rcc.Roos.21s18p13d6f4g2h.10s9p8d5f4g2h.
Spherical d
Nb            0.0       0.0     0.0
End of Basis

Xfield

4
0.000000,  0.00000,  1.3230     -1.0
1.145752,  0.00000, -0.6615     -1.0
-0.572876,  0.99225, -0.6615    -1.0
-0.572876, -0.99225, -0.6615    -1.0

End of input

&SCF
Occupied
18
Iterations
   50  100
End of Input

&RASSCF
LumOrb
Symmetry
1
Spin
2
Nactel
1 0 0
CIRoot
9 9 1
inactive
18
ras2
9
Alter
4
1 19 24
1 20 25
1 21 26
1 22 27
End of Input

>>> COPY niobium_so_cf.JobIph $SLURM_SUBMIT_DIR/niobium_so_cf.doublet.JobIph

>>> COPY $SLURM_SUBMIT_DIR/niobium_so_cf.doublet.JobIph ./JOB002

&RASSI
NROFJobIph
1 All
SpinOrbit
End of Input

EOF

-- ----------------------------------

--- Start Module: seward at Fri Jan 10 02:30:04 2025 ---

()()()()()()()()()()()()()()()()()()()()()()()()()()()()()()()()()()()()()()()()()()()()()()()()()()

                                              &SEWARD

                                   only a single process is used
                       available to each process: 4.1 GB of memory, 1 thread?
                                            pid: 1098374
()()()()()()()()()()()()()()()()()()()()()()()()()()()()()()()()()()()()()()()()()()()()()()()()()()

 The speed of LIGHT in this CALCULATION =   137.03599917700001     
               SEWARD will generate:
                  Multipole Moment integrals up to order  2
                  Kinetic Energy integrals
                  Nuclear Attraction integrals (point charge)
                  One-Electron Hamiltonian integrals
                  Velocity integrals
                  Relativistic Douglas-Kroll-Hess integrals:
                    - Parametrization         : EXP
                    - DKH order of Hamiltonian: 2
                    - DKH order of Properties : 0
                         - multipole moment operators
                         - electric potential operators
                         - contact operators
                  External field from     4 point(s) added to the one-electron Hamiltonian
                  Orbital angular momentum around ( 0.0000  0.0000  0.0000 )
                  Velocity quadrupole around ( 0.0000  0.0000  0.0000 )
                  Atomic mean-field integrals
                  Two-Electron Repulsion integrals

                   Integrals are discarded if absolute value <: 0.10E-13
                   Integral cutoff threshold is set to       <: 0.10E-15

++    Symmetry information:
      ---------------------

                    Character Table for C1 

                             E  
                    a        1  x, y, xy, Rz, z, xz, Ry, yz, Rx, I
--


++    Basis set information:
      ----------------------


      Basis set label: NB.ANO-RCC.ROOS.21S18P13D6F4G2H.10S9P8D5F4G2H......

      Electronic valence basis set:
      ------------------
      Associated Effective Charge  41.000000 au
      Associated Actual Charge     41.000000 au
      Nuclear Model: Point charge

      Shell  nPrim  nBasis  Cartesian Spherical Contaminant
         s      21      10        X                  
         p      18       9        X                  
         d      13       8                 X         
         f       6       5                 X         
         g       4       4                 X         
         h       2       2                 X         
--


++    Molecular structure info:
      -------------------------

                    ************************************************ 
                    **** Cartesian Coordinates / Bohr, Angstrom **** 
                    ************************************************ 

     Center  Label                x              y              z                     x              y              z
        1      NB               0.000000       0.000000       0.000000              0.000000       0.000000       0.000000
--


++    Operator info:
      --------------


  Net charge from external field:   -4.0000000000000000     
--


            Nuclear Potential Energy              0.00000000 au

                    Nuclear-External Field Potential Energy    -123.96068350 au
                    External Field Potential Energy               2.82089977 au 


            Total Nuclear Potential Energy           -123.96068350 au


      Basis set specifications :
      Symmetry species         a  
      Basis functions          170

 Sorry, Molden does not know how to handle
 functions with angular momentum larger than g
Note: The following floating-point exceptions are signalling: IEEE_UNDERFLOW_FLAG IEEE_DENORMAL
--- Stop Module: seward at Fri Jan 10 02:30:12 2025 /rc=_RC_ALL_IS_WELL_ ---
*** files: niobium_so_cf.GssOrb xmldump
    saved to directory /home4/s4752295/Internship/Initial_simulations/Point_charge_model/1_electron/active_space_9_non_rel/Nb/varying_bond_length
--- Module seward spent 8 seconds ---

*** symbolic link created: INPORB -> niobium_so_cf.GssOrb
--- Start Module: scf at Fri Jan 10 02:30:13 2025 ---

()()()()()()()()()()()()()()()()()()()()()()()()()()()()()()()()()()()()()()()()()()()()()()()()()()

                                                &SCF

                                   only a single process is used
                       available to each process: 4.1 GB of memory, 1 thread?
                                            pid: 1098465
()()()()()()()()()()()()()()()()()()()()()()()()()()()()()()()()()()()()()()()()()()()()()()()()()()

++    Input section:
      --------------

      Header of the integral files:
      
       Integrals generated by seward 4.2.0  , Fri Jan 10 02:30:04 2025


      Cartesian coordinates in Angstrom:
      -----------------------------------------------------
      No.  Label        X            Y            Z        
      -----------------------------------------------------
       1   NB         0.00000000   0.00000000   0.00000000
      -----------------------------------------------------
      Nuclear repulsion energy = -123.96068350
--

++    Orbital specifications:
      -----------------------

      Symmetry species               1
                                     a
      Frozen orbitals                0
      Occupied orbitals             18
      Secondary orbitals           152
      Deleted orbitals               0
      Total number of orbitals     170
      Number of basis functions    170
--

      Molecular charge                           5.000

++    Optimization specifications:
      ----------------------------

      SCF Algorithm: Conventional
      Minimized density differences are used
      Number of density matrices in core                5
      Maximum number of NDDO SCF iterations            50
      Maximum number of HF SCF iterations             100
      Threshold for SCF energy change            0.10E-08
      Threshold for density matrix               0.10E-03
      Threshold for Fock matrix                  0.15E-03
      Threshold for linear dependence            0.10E-08
      Threshold at which DIIS is turned on       0.15E+00
      Threshold at which QNR/C2DIIS is turned on 0.75E-01
      Threshold for Norm(delta) (QNR/C2DIIS)     0.20E-04
      DIIS extrapolation of the SCF procedure
      All orbitals punched on: SCFORB
--

      Detected guessorb starting orbitals                                             


++ Convergence information
                                   SCF        iterations: Energy and convergence statistics

Iter     Tot. SCF        One-elec.       Two-elec.     Energy      Max Dij or  Max Fij      DNorm      TNorm      AccCon     Time
         Energy          Energy          Energy        Change      Delta Norm                                                in Sec.

 The total and one-electron energies are shifted by a value of      3000. a.u.

   1  -829.016610986 -2060.460363541  1355.404436053   0.00E+00    0.19E+00*   0.25E+00*    0.85E+01   0.49E+03   None         1.
   2  -829.585428485 -2054.060364788  1348.435619800  -0.57E+00*   0.66E-01*   0.60E-01*    0.12E+01   0.48E+03   EDIIS        1.
   3  -829.607082186 -2054.911935198  1349.265536510  -0.22E-01*   0.15E-01*   0.15E-01*    0.23E+00   0.48E+03   EDIIS        1.
   4  -829.609039024 -2054.539351182  1348.890995656  -0.20E-02*   0.57E-02*   0.62E-02*    0.41E-01   0.48E+03   c2DIIS       1.
   5  -829.609262058 -2054.707970523  1349.059391962  -0.22E-03*   0.15E-02*   0.13E-02*    0.52E-02   0.48E+03   QNRc2DIIS    1.
   6  -829.609274131 -2054.598690073  1348.950099440  -0.12E-04*   0.60E-03*   0.61E-03*    0.14E-02   0.48E+03   QNRc2DIIS    1.
   7  -829.609275873 -2054.630661249  1348.982068874  -0.17E-05*   0.12E-03*   0.82E-04     0.25E-03   0.48E+03   QNRc2DIIS    1.
   8  -829.609275912 -2054.631098200  1348.982505786  -0.38E-07*   0.13E-04    0.13E-04     0.24E-04   0.48E+03   QNRc2DIIS    1.
   9  -829.609275913 -2054.631491140  1348.982898726  -0.11E-08*   0.63E-06    0.19E-06     0.29E-03   0.48E+03   QNRc2DIIS    1.
  10  -829.609275913 -2054.631489616  1348.982897201  -0.32E-11    0.53E-07    0.29E-07     0.11E-01   0.48E+03   QNRc2DIIS    1.

       Convergence after 10 Macro Iterations
--

 *****************************************************************************************************************************
 *                                                                                                                           *
 *                                             SCF/KS-DFT Program, Final results                                             *
 *                                                                                                                           *
 *                                                                                                                           *
 *                                                                                                                           *
 *                                                       Final Results                                                       *
 *                                                                                                                           *
 *****************************************************************************************************************************

::    Total SCF energy                              -3829.6092759127
      One-electron energy                           -5054.6314896158
      Two-electron energy                            1348.9828972009
      Nuclear repulsion energy                       -123.9606834979
      Kinetic energy (interpolated)                  4190.3271553298
      Virial theorem                                    0.9139165354
      Total spin, S(S+1)                                0.0000000000
      Total spin, S                                     0.0000000000
      Max non-diagonal density matrix element           0.0000000386
      Max non-diagonal Fock matrix element              0.0000000052


      All orbitals with orbital energies smaller than  E(LUMO)+0.5 are printed

++    Molecular orbitals:
      -------------------

      Title: SCF orbitals

      Molecular orbitals for symmetry species 1: a  

          Orbital            1         2         3         4         5         6         7         8         9        10    
          Energy         -701.2314 -100.7677  -89.7899  -89.7899  -89.7878  -17.8555  -14.1607  -14.1607  -14.1359   -8.1041
          Occ. No.          2.0000    2.0000    2.0000    2.0000    2.0000    2.0000    2.0000    2.0000    2.0000    2.0000

        1 NB     1s         1.0000    0.0000   -0.0000    0.0000   -0.0000   -0.0000   -0.0000    0.0000    0.0000    0.0000
        2 NB     2s        -0.0000    1.0000   -0.0000   -0.0000   -0.0006    0.0002   -0.0000    0.0000   -0.0000    0.0000
        3 NB     3s         0.0000   -0.0002    0.0000   -0.0000    0.0000    1.0000   -0.0000   -0.0000   -0.0074    0.0000
        4 NB     4s        -0.0000    0.0001   -0.0000   -0.0000   -0.0000   -0.0026    0.0000    0.0000    0.0013   -0.0000
        5 NB     5s         0.0000   -0.0000    0.0000    0.0000    0.0000    0.0005   -0.0000   -0.0000   -0.0002    0.0000
        6 NB     6s        -0.0000    0.0000   -0.0000   -0.0000   -0.0000   -0.0005    0.0000    0.0000    0.0002   -0.0000
        7 NB     7s         0.0000   -0.0001    0.0000    0.0000    0.0000    0.0011   -0.0000   -0.0000   -0.0005    0.0000
        8 NB     8s        -0.0000    0.0000   -0.0000    0.0000   -0.0000   -0.0006    0.0000   -0.0000    0.0002    0.0000
        9 NB     9s         0.0000   -0.0001    0.0000   -0.0000    0.0000    0.0004   -0.0000    0.0000   -0.0001   -0.0000
       10 NB    10s        -0.0000    0.0001   -0.0000   -0.0000   -0.0000   -0.0002   -0.0000    0.0000    0.0000   -0.0000
       11 NB     2px        0.0000    0.0000    1.0000    0.0007    0.0000   -0.0000    0.0002    0.0000    0.0000   -0.0000
       12 NB     3px       -0.0000    0.0000   -0.0002   -0.0000   -0.0000    0.0000    1.0000    0.0001    0.0000    0.0000
       13 NB     4px        0.0000   -0.0000    0.0001    0.0000    0.0000    0.0000   -0.0027   -0.0000   -0.0000   -0.0000
       14 NB     5px       -0.0000    0.0000   -0.0000   -0.0000   -0.0000   -0.0000    0.0007    0.0000    0.0000    0.0000
       15 NB     6px        0.0000   -0.0000    0.0001    0.0000    0.0000    0.0000   -0.0014   -0.0000   -0.0000   -0.0000
       16 NB     7px       -0.0000    0.0000   -0.0000   -0.0000   -0.0000   -0.0000    0.0009    0.0000    0.0000    0.0000
       17 NB     8px        0.0000   -0.0000    0.0001    0.0000    0.0000    0.0000   -0.0006   -0.0000   -0.0000    0.0000
       18 NB     9px       -0.0000    0.0000   -0.0001   -0.0000   -0.0000   -0.0000    0.0003    0.0000    0.0000   -0.0000
       19 NB    10px        0.0000   -0.0000    0.0001    0.0000    0.0000    0.0000   -0.0002   -0.0000   -0.0000   -0.0000
       20 NB     2py        0.0000    0.0000   -0.0007    1.0000    0.0000    0.0000   -0.0000    0.0002   -0.0000    0.0000
       21 NB     3py       -0.0000   -0.0000    0.0000   -0.0002   -0.0000    0.0000   -0.0001    1.0000    0.0000   -0.0004
       22 NB     4py        0.0000    0.0000   -0.0000    0.0001    0.0000   -0.0000    0.0000   -0.0027   -0.0000    0.0015
       23 NB     5py       -0.0000   -0.0000    0.0000   -0.0000   -0.0000    0.0000   -0.0000    0.0007    0.0000   -0.0003
       24 NB     6py        0.0000    0.0000   -0.0000    0.0001    0.0000   -0.0000    0.0000   -0.0014   -0.0000    0.0004
       25 NB     7py       -0.0000   -0.0000    0.0000   -0.0000   -0.0000    0.0000   -0.0000    0.0009    0.0000   -0.0001
       26 NB     8py        0.0000    0.0000   -0.0000    0.0001    0.0000   -0.0000    0.0000   -0.0006    0.0000   -0.0002
       27 NB     9py       -0.0000   -0.0000    0.0000   -0.0001   -0.0000    0.0000   -0.0000    0.0003    0.0000    0.0002
       28 NB    10py        0.0000    0.0000   -0.0000    0.0001    0.0000   -0.0000    0.0000   -0.0002    0.0000    0.0000
       29 NB     2pz        0.0000    0.0006   -0.0000   -0.0000    1.0000   -0.0000   -0.0000   -0.0000    0.0002    0.0000
       30 NB     3pz       -0.0000    0.0000    0.0000    0.0000   -0.0002    0.0074   -0.0000   -0.0000    1.0000   -0.0000
       31 NB     4pz        0.0000   -0.0000   -0.0000   -0.0000    0.0001    0.0006    0.0000    0.0000   -0.0041    0.0000
       32 NB     5pz       -0.0000    0.0000    0.0000    0.0000   -0.0000   -0.0002   -0.0000   -0.0000    0.0011   -0.0000
       33 NB     6pz        0.0000   -0.0000   -0.0000   -0.0000    0.0001    0.0003    0.0000    0.0000   -0.0021   -0.0000
       34 NB     7pz       -0.0000    0.0000    0.0000    0.0000   -0.0001   -0.0002   -0.0000   -0.0000    0.0013    0.0000
       35 NB     8pz        0.0000   -0.0000   -0.0000   -0.0000    0.0001    0.0002    0.0000    0.0000   -0.0007    0.0000
       36 NB     9pz       -0.0000    0.0000    0.0000    0.0000   -0.0001   -0.0001   -0.0000   -0.0000    0.0003    0.0000
       37 NB    10pz        0.0000   -0.0000   -0.0000   -0.0000    0.0001    0.0000    0.0000    0.0000   -0.0002    0.0000
       38 NB     3d2-      -0.0000   -0.0000   -0.0000    0.0000   -0.0000   -0.0000   -0.0000    0.0027    0.0000    0.9371
       39 NB     4d2-       0.0000    0.0000    0.0000   -0.0000   -0.0000    0.0000   -0.0000    0.0008    0.0000   -0.0022
       40 NB     5d2-      -0.0000   -0.0000   -0.0000    0.0000    0.0000   -0.0000    0.0000   -0.0007   -0.0000    0.0020
       41 NB     6d2-       0.0000    0.0000    0.0000   -0.0000   -0.0000    0.0000   -0.0000    0.0005    0.0000   -0.0016
       42 NB     7d2-      -0.0000   -0.0000   -0.0000    0.0000    0.0000   -0.0000    0.0000   -0.0004   -0.0000    0.0013
       43 NB     8d2-       0.0000    0.0000    0.0000   -0.0000    0.0000    0.0000   -0.0000    0.0002    0.0000   -0.0011
       44 NB     9d2-      -0.0000    0.0000    0.0000   -0.0000   -0.0000   -0.0000    0.0000   -0.0000    0.0000    0.0006
       45 NB    10d2-      -0.0000    0.0000    0.0000   -0.0000   -0.0000   -0.0000   -0.0000    0.0001   -0.0000    0.0005
       46 NB     3d1-       0.0000    0.0000   -0.0000    0.0000    0.0000    0.0000   -0.0000    0.0061    0.0000   -0.3489
       47 NB     4d1-       0.0000    0.0000    0.0000   -0.0000   -0.0000    0.0000   -0.0000    0.0011    0.0000   -0.0000
       48 NB     5d1-      -0.0000   -0.0000   -0.0000    0.0000    0.0000   -0.0000    0.0000   -0.0010   -0.0000   -0.0000
       49 NB     6d1-       0.0000    0.0000    0.0000   -0.0000   -0.0000    0.0000   -0.0000    0.0008    0.0000    0.0001
       50 NB     7d1-       0.0000    0.0000   -0.0000    0.0000    0.0000   -0.0000    0.0000   -0.0006   -0.0000   -0.0002
       51 NB     8d1-      -0.0000   -0.0000    0.0000   -0.0000   -0.0000    0.0000   -0.0000    0.0005    0.0000    0.0003
       52 NB     9d1-       0.0000    0.0000   -0.0000    0.0000    0.0000   -0.0000    0.0000   -0.0002   -0.0000   -0.0003
       53 NB    10d1-       0.0000    0.0000   -0.0000    0.0000    0.0000    0.0000    0.0000   -0.0001   -0.0000   -0.0002
       54 NB     3d0       -0.0000   -0.0000   -0.0000   -0.0000    0.0000   -0.0018   -0.0000   -0.0000   -0.0002    0.0000
       55 NB     4d0       -0.0000    0.0000    0.0000    0.0000    0.0000   -0.0003    0.0000    0.0000   -0.0009    0.0000
       56 NB     5d0        0.0000   -0.0000   -0.0000   -0.0000    0.0000    0.0003   -0.0000   -0.0000    0.0007    0.0000
       57 NB     6d0        0.0000    0.0000    0.0000    0.0000   -0.0000   -0.0003    0.0000    0.0000   -0.0005   -0.0000
       58 NB     7d0       -0.0000   -0.0000   -0.0000   -0.0000    0.0000    0.0003   -0.0000   -0.0000    0.0003    0.0000
       59 NB     8d0        0.0000    0.0000    0.0000    0.0000   -0.0000   -0.0003   -0.0000   -0.0000   -0.0001   -0.0000
       60 NB     9d0       -0.0000   -0.0000   -0.0000   -0.0000    0.0000    0.0002    0.0000    0.0000   -0.0002   -0.0000
       61 NB    10d0       -0.0000   -0.0000   -0.0000   -0.0000    0.0000    0.0001    0.0000    0.0000   -0.0003    0.0000
       62 NB     3d1+      -0.0000   -0.0000    0.0000    0.0000    0.0000   -0.0000    0.0061    0.0000    0.0000    0.0000
       63 NB     4d1+      -0.0000    0.0000   -0.0000   -0.0000   -0.0000   -0.0000    0.0011    0.0000    0.0000    0.0000
       64 NB     5d1+       0.0000   -0.0000    0.0000    0.0000    0.0000    0.0000   -0.0010   -0.0000   -0.0000    0.0000
       65 NB     6d1+      -0.0000    0.0000   -0.0000   -0.0000   -0.0000   -0.0000    0.0008    0.0000    0.0000   -0.0000
       66 NB     7d1+       0.0000   -0.0000    0.0000    0.0000    0.0000    0.0000   -0.0006   -0.0000   -0.0000    0.0000
       67 NB     8d1+      -0.0000    0.0000   -0.0000   -0.0000   -0.0000   -0.0000    0.0005    0.0000    0.0000   -0.0000
       68 NB     9d1+      -0.0000   -0.0000    0.0000    0.0000    0.0000    0.0000   -0.0002   -0.0000   -0.0000    0.0000
       69 NB    10d1+      -0.0000   -0.0000    0.0000    0.0000    0.0000    0.0000   -0.0001   -0.0000   -0.0000    0.0000
       70 NB     3d2+      -0.0000    0.0000   -0.0000   -0.0000   -0.0000    0.0000   -0.0027   -0.0000   -0.0000    0.0000
       71 NB     4d2+      -0.0000   -0.0000    0.0000    0.0000    0.0000   -0.0000   -0.0008   -0.0000   -0.0000   -0.0000
       72 NB     5d2+       0.0000    0.0000   -0.0000   -0.0000   -0.0000    0.0000    0.0007    0.0000    0.0000    0.0000
       73 NB     6d2+       0.0000   -0.0000    0.0000    0.0000    0.0000    0.0000   -0.0005   -0.0000   -0.0000   -0.0000
       74 NB     7d2+      -0.0000    0.0000   -0.0000   -0.0000   -0.0000   -0.0000    0.0004    0.0000    0.0000    0.0000
       75 NB     8d2+       0.0000   -0.0000    0.0000    0.0000    0.0000    0.0000   -0.0002   -0.0000   -0.0000   -0.0000
       76 NB     9d2+      -0.0000    0.0000    0.0000    0.0000    0.0000   -0.0000    0.0000    0.0000    0.0000    0.0000
       77 NB    10d2+      -0.0000    0.0000    0.0000    0.0000    0.0000   -0.0000   -0.0001   -0.0000   -0.0000    0.0000
       78 NB     4f3-      -0.0000    0.0000    0.0000   -0.0000    0.0000    0.0000    0.0000   -0.0000   -0.0000    0.0000
       79 NB     5f3-       0.0000    0.0000    0.0000   -0.0000    0.0000    0.0000    0.0000   -0.0000   -0.0000    0.0000
       80 NB     6f3-      -0.0000   -0.0000   -0.0000    0.0000   -0.0000   -0.0000   -0.0000    0.0000    0.0000   -0.0000
       81 NB     7f3-       0.0000    0.0000    0.0000   -0.0000   -0.0000    0.0000    0.0000   -0.0000    0.0000    0.0000
       82 NB     8f3-      -0.0000   -0.0000    0.0000    0.0000   -0.0000    0.0000    0.0000   -0.0000    0.0000    0.0000
       83 NB     4f2-      -0.0000   -0.0000    0.0000   -0.0000   -0.0000   -0.0000    0.0000   -0.0007   -0.0000    0.0023
       84 NB     5f2-      -0.0000   -0.0000    0.0000   -0.0000   -0.0000   -0.0000    0.0000   -0.0007   -0.0000    0.0020
       85 NB     6f2-       0.0000   -0.0000   -0.0000    0.0000    0.0000   -0.0000   -0.0000    0.0005    0.0000   -0.0013
       86 NB     7f2-      -0.0000    0.0000    0.0000   -0.0000   -0.0000    0.0000    0.0000   -0.0003   -0.0000    0.0008
       87 NB     8f2-      -0.0000    0.0000    0.0000   -0.0000   -0.0000   -0.0000    0.0000   -0.0001   -0.0000    0.0005
       88 NB     4f1-      -0.0000   -0.0000    0.0000   -0.0000   -0.0000   -0.0000    0.0000   -0.0004   -0.0000   -0.0006
       89 NB     5f1-      -0.0000   -0.0000    0.0000   -0.0000   -0.0000   -0.0000    0.0000   -0.0004   -0.0000   -0.0005
       90 NB     6f1-      -0.0000    0.0000   -0.0000    0.0000    0.0000    0.0000   -0.0000    0.0003    0.0000    0.0003
       91 NB     7f1-       0.0000   -0.0000    0.0000   -0.0000   -0.0000   -0.0000    0.0000   -0.0003   -0.0000   -0.0002
       92 NB     8f1-       0.0000   -0.0000    0.0000   -0.0000   -0.0000   -0.0000    0.0000   -0.0002   -0.0000   -0.0002
       93 NB     4f0       -0.0000    0.0000    0.0000    0.0000   -0.0000   -0.0011    0.0000    0.0000   -0.0006   -0.0000
       94 NB     5f0       -0.0000    0.0000    0.0000    0.0000   -0.0000   -0.0011    0.0000    0.0000   -0.0006   -0.0000
       95 NB     6f0        0.0000   -0.0000   -0.0000   -0.0000    0.0000    0.0008   -0.0000   -0.0000    0.0005    0.0000
       96 NB     7f0       -0.0000    0.0000    0.0000    0.0000   -0.0000   -0.0006    0.0000    0.0000   -0.0004    0.0000
       97 NB     8f0        0.0000   -0.0000    0.0000    0.0000   -0.0000   -0.0003    0.0000    0.0000   -0.0002    0.0000
       98 NB     4f1+       0.0000   -0.0000   -0.0000   -0.0000   -0.0000    0.0000   -0.0004   -0.0000   -0.0000    0.0000
       99 NB     5f1+       0.0000   -0.0000   -0.0000   -0.0000   -0.0000    0.0000   -0.0004   -0.0000   -0.0000    0.0000
      100 NB     6f1+      -0.0000    0.0000    0.0000    0.0000    0.0000   -0.0000    0.0003    0.0000    0.0000   -0.0000
      101 NB     7f1+       0.0000   -0.0000   -0.0000   -0.0000   -0.0000    0.0000   -0.0003   -0.0000   -0.0000    0.0000
      102 NB     8f1+      -0.0000    0.0000   -0.0000   -0.0000   -0.0000    0.0000   -0.0002   -0.0000   -0.0000    0.0000
      103 NB     4f2+       0.0000   -0.0000    0.0000    0.0000    0.0000   -0.0000    0.0007    0.0000    0.0000    0.0000
      104 NB     5f2+       0.0000   -0.0000    0.0000    0.0000    0.0000   -0.0000    0.0007    0.0000    0.0000    0.0000
      105 NB     6f2+      -0.0000    0.0000   -0.0000   -0.0000   -0.0000    0.0000   -0.0005   -0.0000   -0.0000   -0.0000
      106 NB     7f2+      -0.0000   -0.0000    0.0000    0.0000    0.0000   -0.0000    0.0003    0.0000    0.0000    0.0000
      107 NB     8f2+      -0.0000   -0.0000    0.0000    0.0000    0.0000   -0.0000    0.0001    0.0000    0.0000    0.0000
      108 NB     4f3+      -0.0000    0.0000   -0.0000   -0.0000    0.0000   -0.0007   -0.0000   -0.0000    0.0006    0.0000
      109 NB     5f3+      -0.0000    0.0000   -0.0000   -0.0000    0.0000   -0.0007   -0.0000   -0.0000    0.0006    0.0000
      110 NB     6f3+       0.0000   -0.0000    0.0000    0.0000   -0.0000    0.0005    0.0000    0.0000   -0.0004   -0.0000
      111 NB     7f3+      -0.0000    0.0000    0.0000   -0.0000    0.0000   -0.0004    0.0000    0.0000    0.0003    0.0000
      112 NB     8f3+       0.0000   -0.0000    0.0000    0.0000    0.0000   -0.0002    0.0000    0.0000    0.0001    0.0000
      113 NB     5g4-      -0.0000   -0.0000   -0.0000    0.0000    0.0000   -0.0000    0.0000   -0.0007   -0.0000   -0.0000
      114 NB     6g4-       0.0000    0.0000   -0.0000    0.0000    0.0000    0.0000   -0.0000    0.0006    0.0000    0.0000
      115 NB     7g4-      -0.0000    0.0000    0.0000   -0.0000   -0.0000   -0.0000    0.0000   -0.0005   -0.0000   -0.0000
      116 NB     8g4-       0.0000   -0.0000   -0.0000    0.0000    0.0000    0.0000   -0.0000    0.0003    0.0000    0.0001
      117 NB     5g3-      -0.0000   -0.0000   -0.0000    0.0000   -0.0000   -0.0000   -0.0000    0.0000    0.0000   -0.0000
      118 NB     6g3-      -0.0000    0.0000    0.0000   -0.0000   -0.0000   -0.0000    0.0000   -0.0000    0.0000    0.0000
      119 NB     7g3-       0.0000   -0.0000   -0.0000    0.0000    0.0000    0.0000   -0.0000    0.0000    0.0000   -0.0000
      120 NB     8g3-      -0.0000   -0.0000    0.0000   -0.0000   -0.0000   -0.0000   -0.0000    0.0000   -0.0000    0.0000
      121 NB     5g2-       0.0000    0.0000   -0.0000    0.0000    0.0000   -0.0000   -0.0000    0.0001    0.0000   -0.0004
      122 NB     6g2-      -0.0000   -0.0000    0.0000   -0.0000   -0.0000    0.0000    0.0000   -0.0001   -0.0000    0.0003
      123 NB     7g2-       0.0000    0.0000   -0.0000    0.0000    0.0000   -0.0000   -0.0000    0.0000    0.0000   -0.0002
      124 NB     8g2-       0.0000   -0.0000    0.0000   -0.0000   -0.0000    0.0000    0.0000   -0.0000   -0.0000    0.0002
      125 NB     5g1-      -0.0000   -0.0000   -0.0000    0.0000    0.0000   -0.0000    0.0000   -0.0008   -0.0000    0.0008
      126 NB     6g1-       0.0000    0.0000    0.0000   -0.0000   -0.0000    0.0000   -0.0000    0.0007    0.0000   -0.0006
      127 NB     7g1-      -0.0000   -0.0000    0.0000   -0.0000   -0.0000   -0.0000    0.0000   -0.0005   -0.0000    0.0004
      128 NB     8g1-      -0.0000    0.0000   -0.0000    0.0000    0.0000    0.0000   -0.0000    0.0004    0.0000   -0.0003
      129 NB     5g0       -0.0000    0.0000   -0.0000    0.0000   -0.0000   -0.0000    0.0000    0.0000   -0.0013   -0.0000
      130 NB     6g0        0.0000   -0.0000   -0.0000   -0.0000    0.0000    0.0000   -0.0000   -0.0000    0.0011   -0.0000
      131 NB     7g0       -0.0000   -0.0000    0.0000    0.0000   -0.0000   -0.0000    0.0000    0.0000   -0.0009    0.0000
      132 NB     8g0        0.0000    0.0000   -0.0000   -0.0000    0.0000    0.0000   -0.0000   -0.0000    0.0006    0.0000
      133 NB     5g1+      -0.0000    0.0000    0.0000    0.0000   -0.0000    0.0000   -0.0008   -0.0000   -0.0000   -0.0000
      134 NB     6g1+       0.0000   -0.0000   -0.0000   -0.0000    0.0000   -0.0000    0.0007    0.0000    0.0000    0.0000
      135 NB     7g1+      -0.0000    0.0000   -0.0000   -0.0000   -0.0000    0.0000   -0.0005   -0.0000   -0.0000   -0.0000
      136 NB     8g1+       0.0000   -0.0000    0.0000    0.0000    0.0000   -0.0000    0.0004    0.0000    0.0000    0.0000
      137 NB     5g2+       0.0000    0.0000   -0.0000   -0.0000   -0.0000    0.0000   -0.0001   -0.0000   -0.0000   -0.0000
      138 NB     6g2+      -0.0000   -0.0000    0.0000    0.0000    0.0000   -0.0000    0.0001    0.0000    0.0000    0.0000
      139 NB     7g2+       0.0000    0.0000   -0.0000   -0.0000   -0.0000    0.0000   -0.0000   -0.0000   -0.0000   -0.0000
      140 NB     8g2+      -0.0000   -0.0000    0.0000    0.0000    0.0000   -0.0000    0.0000    0.0000    0.0000    0.0000
      141 NB     5g3+       0.0000   -0.0000   -0.0000   -0.0000   -0.0000    0.0006    0.0000    0.0000   -0.0007   -0.0000
      142 NB     6g3+      -0.0000    0.0000    0.0000    0.0000    0.0000   -0.0005   -0.0000   -0.0000    0.0006    0.0000
      143 NB     7g3+       0.0000    0.0000   -0.0000    0.0000   -0.0000    0.0004    0.0000    0.0000   -0.0005   -0.0000
      144 NB     8g3+      -0.0000   -0.0000    0.0000   -0.0000    0.0000   -0.0003    0.0000    0.0000    0.0003    0.0000
      145 NB     5g4+       0.0000   -0.0000    0.0000    0.0000   -0.0000    0.0000   -0.0007   -0.0000   -0.0000    0.0000
      146 NB     6g4+      -0.0000   -0.0000    0.0000    0.0000    0.0000   -0.0000    0.0006    0.0000    0.0000   -0.0000
      147 NB     7g4+       0.0000    0.0000   -0.0000   -0.0000   -0.0000    0.0000   -0.0005   -0.0000   -0.0000    0.0000
      148 NB     8g4+      -0.0000   -0.0000    0.0000    0.0000    0.0000   -0.0000    0.0003    0.0000    0.0000   -0.0000
      149 NB     6h5-       0.0000    0.0000   -0.0000    0.0000   -0.0000    0.0000   -0.0000    0.0001    0.0000   -0.0009
      150 NB     7h5-      -0.0000   -0.0000    0.0000   -0.0000    0.0000   -0.0000    0.0000   -0.0001   -0.0000    0.0006
      151 NB     6h4-       0.0000    0.0000   -0.0000    0.0000    0.0000    0.0000   -0.0000    0.0005    0.0000    0.0001
      152 NB     7h4-      -0.0000   -0.0000    0.0000   -0.0000   -0.0000   -0.0000    0.0000   -0.0004   -0.0000   -0.0001
      153 NB     6h3-      -0.0000   -0.0000    0.0000   -0.0000   -0.0000   -0.0000    0.0000   -0.0000    0.0000    0.0000
      154 NB     7h3-       0.0000   -0.0000   -0.0000    0.0000    0.0000    0.0000   -0.0000    0.0000    0.0000   -0.0000
      155 NB     6h2-       0.0000    0.0000   -0.0000    0.0000    0.0000    0.0000   -0.0000    0.0002    0.0000   -0.0007
      156 NB     7h2-      -0.0000   -0.0000    0.0000   -0.0000   -0.0000   -0.0000    0.0000   -0.0001   -0.0000    0.0005
      157 NB     6h1-       0.0000   -0.0000   -0.0000    0.0000    0.0000    0.0000   -0.0000    0.0002    0.0000    0.0002
      158 NB     7h1-      -0.0000    0.0000    0.0000   -0.0000   -0.0000    0.0000    0.0000   -0.0001    0.0000   -0.0001
      159 NB     6h0       -0.0000    0.0000    0.0000    0.0000   -0.0000   -0.0001    0.0000    0.0000   -0.0003   -0.0000
      160 NB     7h0        0.0000    0.0000   -0.0000   -0.0000    0.0000    0.0001   -0.0000   -0.0000    0.0003   -0.0000
      161 NB     6h1+      -0.0000   -0.0000    0.0000    0.0000    0.0000   -0.0000    0.0002    0.0000    0.0000   -0.0000
      162 NB     7h1+       0.0000    0.0000   -0.0000   -0.0000   -0.0000    0.0000   -0.0001   -0.0000   -0.0000    0.0000
      163 NB     6h2+      -0.0000    0.0000   -0.0000   -0.0000   -0.0000   -0.0000   -0.0002   -0.0000   -0.0000   -0.0000
      164 NB     7h2+       0.0000   -0.0000    0.0000    0.0000    0.0000    0.0000    0.0001    0.0000    0.0000    0.0000
      165 NB     6h3+      -0.0000    0.0000    0.0000    0.0000   -0.0000   -0.0002   -0.0000   -0.0000    0.0004    0.0000
      166 NB     7h3+       0.0000    0.0000   -0.0000   -0.0000   -0.0000    0.0002    0.0000    0.0000   -0.0004   -0.0000
      167 NB     6h4+      -0.0000   -0.0000    0.0000    0.0000    0.0000   -0.0000    0.0005    0.0000    0.0000   -0.0000
      168 NB     7h4+       0.0000    0.0000   -0.0000   -0.0000   -0.0000    0.0000   -0.0004   -0.0000   -0.0000    0.0000
      169 NB     6h5+      -0.0000    0.0000   -0.0000   -0.0000   -0.0000   -0.0000   -0.0001   -0.0000   -0.0000   -0.0000
      170 NB     7h5+       0.0000   -0.0000    0.0000    0.0000    0.0000    0.0000    0.0001    0.0000    0.0000    0.0000

          Orbital           11        12        13        14        15        16        17        18        19        20    
          Energy           -8.1041   -8.0845   -8.0845   -8.0804   -2.3305   -1.3455   -1.3455   -1.1743   -0.1552   -0.0937
          Occ. No.          2.0000    2.0000    2.0000    2.0000    2.0000    2.0000    2.0000    2.0000    0.0000    0.0000

        1 NB     1s         0.0000   -0.0000    0.0000    0.0000   -0.0000   -0.0000   -0.0000   -0.0000   -0.0000   -0.0000
        2 NB     2s         0.0000   -0.0000   -0.0000    0.0000    0.0001   -0.0000    0.0000    0.0000    0.0000    0.0000
        3 NB     3s         0.0000    0.0000   -0.0000    0.0018   -0.0023    0.0000   -0.0000   -0.0009   -0.0003   -0.0000
        4 NB     4s        -0.0000    0.0000    0.0000   -0.0033   -0.9896    0.0000   -0.0000   -0.0974   -0.0187   -0.0000
        5 NB     5s         0.0000    0.0000   -0.0000    0.0004   -0.0282    0.0000   -0.0000   -0.0056    0.9448   -0.0000
        6 NB     6s        -0.0000   -0.0000    0.0000   -0.0004    0.0229   -0.0000    0.0000    0.0024    0.2961    0.0000
        7 NB     7s         0.0000    0.0000   -0.0000    0.0006   -0.0167    0.0000   -0.0000    0.0031   -0.0181    0.0000
        8 NB     8s         0.0000   -0.0000    0.0000   -0.0001   -0.0119    0.0000   -0.0000   -0.0058   -0.0264    0.0000
        9 NB     9s        -0.0000    0.0000    0.0000   -0.0001    0.0082    0.0000    0.0000    0.0015   -0.0046    0.0000
       10 NB    10s        -0.0000    0.0000   -0.0000    0.0000    0.0015   -0.0000    0.0000    0.0005   -0.0003    0.0000
       11 NB     2px       -0.0000   -0.0000    0.0000   -0.0000   -0.0000    0.0000   -0.0001   -0.0000   -0.0000   -0.0000
       12 NB     3px        0.0004   -0.0066    0.0000   -0.0000    0.0000   -0.0000    0.0022    0.0000    0.0000    0.0000
       13 NB     4px       -0.0015    0.0057   -0.0000    0.0000   -0.0000   -0.0000    0.9808    0.0000    0.0000    0.0000
       14 NB     5px        0.0003   -0.0011    0.0000   -0.0000    0.0000   -0.0000    0.0560    0.0000   -0.0000   -0.0000
       15 NB     6px       -0.0004    0.0018   -0.0000    0.0000   -0.0000    0.0000   -0.0452   -0.0000   -0.0000   -0.0000
       16 NB     7px        0.0001   -0.0006    0.0000   -0.0000    0.0000    0.0000   -0.0104   -0.0000   -0.0000   -0.0000
       17 NB     8px        0.0002   -0.0002    0.0000   -0.0000    0.0000   -0.0000    0.0145    0.0000   -0.0000   -0.0000
       18 NB     9px       -0.0002    0.0004   -0.0000    0.0000   -0.0000   -0.0000    0.0029   -0.0000   -0.0000   -0.0000
       19 NB    10px       -0.0000    0.0000   -0.0000    0.0000   -0.0000    0.0000   -0.0002   -0.0000   -0.0000   -0.0000
       20 NB     2py       -0.0000   -0.0000   -0.0000    0.0000   -0.0000   -0.0001   -0.0000    0.0000   -0.0000    0.0000
       21 NB     3py        0.0000   -0.0000   -0.0066   -0.0000    0.0000    0.0022    0.0000   -0.0000    0.0000   -0.0002
       22 NB     4py       -0.0000    0.0000    0.0057    0.0000    0.0000    0.9808    0.0000    0.0000   -0.0000   -0.0241
       23 NB     5py        0.0000   -0.0000   -0.0011   -0.0000    0.0000    0.0560    0.0000    0.0000   -0.0000    0.8292
       24 NB     6py       -0.0000    0.0000    0.0018    0.0000   -0.0000   -0.0452   -0.0000   -0.0000   -0.0000    0.4091
       25 NB     7py        0.0000   -0.0000   -0.0006   -0.0000    0.0000   -0.0104   -0.0000   -0.0000   -0.0000    0.3421
       26 NB     8py        0.0000   -0.0000   -0.0002   -0.0000   -0.0000    0.0145    0.0000   -0.0000   -0.0000    0.1288
       27 NB     9py       -0.0000    0.0000    0.0004    0.0000   -0.0000    0.0029    0.0000    0.0000   -0.0000    0.0458
       28 NB    10py       -0.0000    0.0000    0.0000   -0.0000    0.0000   -0.0002   -0.0000   -0.0000    0.0000    0.0062
       29 NB     2pz       -0.0000   -0.0000    0.0000   -0.0000   -0.0000    0.0000    0.0000   -0.0001    0.0000    0.0000
       30 NB     3pz       -0.0000   -0.0000   -0.0000    0.0002    0.0009   -0.0000   -0.0000    0.0037    0.0000   -0.0000
       31 NB     4pz        0.0000    0.0000    0.0000   -0.0038   -0.0945    0.0000   -0.0000    0.9796   -0.0058    0.0000
       32 NB     5pz       -0.0000   -0.0000   -0.0000    0.0006    0.0028   -0.0000   -0.0000    0.0850    0.1231    0.0000
       33 NB     6pz        0.0000    0.0000    0.0000   -0.0009   -0.0012   -0.0000    0.0000   -0.0576    0.0355    0.0000
       34 NB     7pz       -0.0000   -0.0000    0.0000    0.0001   -0.0015   -0.0000    0.0000   -0.0215    0.0244    0.0000
       35 NB     8pz       -0.0000   -0.0000    0.0000    0.0005    0.0015   -0.0000   -0.0000    0.0214    0.0071    0.0000
       36 NB     9pz        0.0000    0.0000    0.0000   -0.0005   -0.0001   -0.0000   -0.0000    0.0048    0.0019    0.0000
       37 NB    10pz        0.0000    0.0000    0.0000   -0.0000   -0.0001   -0.0000   -0.0000   -0.0005    0.0002    0.0000
       38 NB     3d2-      -0.0000    0.0000    0.3489    0.0000    0.0000   -0.0025   -0.0000   -0.0000   -0.0000    0.0002
       39 NB     4d2-       0.0000   -0.0000   -0.0025   -0.0000    0.0000    0.0904    0.0000   -0.0000   -0.0000   -0.0205
       40 NB     5d2-      -0.0000    0.0000    0.0022    0.0000   -0.0000   -0.0384   -0.0000   -0.0000   -0.0000    0.0070
       41 NB     6d2-       0.0000   -0.0000   -0.0016   -0.0000    0.0000    0.0097    0.0000   -0.0000    0.0000   -0.0004
       42 NB     7d2-      -0.0000    0.0000    0.0012    0.0000   -0.0000    0.0009    0.0000    0.0000    0.0000    0.0005
       43 NB     8d2-       0.0000   -0.0000   -0.0007   -0.0000    0.0000   -0.0051   -0.0000    0.0000    0.0000    0.0002
       44 NB     9d2-      -0.0000    0.0000    0.0002    0.0000    0.0000    0.0017    0.0000   -0.0000    0.0000   -0.0004
       45 NB    10d2-      -0.0000    0.0000    0.0002   -0.0000   -0.0000   -0.0007   -0.0000   -0.0000   -0.0000    0.0001
       46 NB     3d1-       0.0000    0.0000    0.9371    0.0000    0.0000   -0.0035   -0.0000   -0.0000   -0.0000    0.0003
       47 NB     4d1-       0.0000   -0.0000   -0.0045   -0.0000    0.0000    0.1304    0.0000   -0.0000   -0.0000    0.0210
       48 NB     5d1-       0.0000    0.0000    0.0040    0.0000   -0.0000   -0.0540   -0.0000   -0.0000   -0.0000    0.0723
       49 NB     6d1-      -0.0000   -0.0000   -0.0031   -0.0000    0.0000    0.0130    0.0000    0.0000   -0.0000    0.0480
       50 NB     7d1-       0.0000    0.0000    0.0023    0.0000   -0.0000    0.0015    0.0000   -0.0000    0.0000    0.0141
       51 NB     8d1-      -0.0000   -0.0000   -0.0017   -0.0000   -0.0000   -0.0066   -0.0000   -0.0000    0.0000   -0.0035
       52 NB     9d1-       0.0000    0.0000    0.0008    0.0000   -0.0000    0.0019    0.0000   -0.0000    0.0000   -0.0043
       53 NB    10d1-       0.0000    0.0000    0.0006    0.0000   -0.0000   -0.0007   -0.0000   -0.0000   -0.0000    0.0009
       54 NB     3d0       -0.0000   -0.0000   -0.0000    0.9999   -0.0033    0.0000   -0.0000    0.0023   -0.0004    0.0000
       55 NB     4d0        0.0000    0.0000    0.0000   -0.0049    0.0393   -0.0000    0.0000   -0.1078   -0.0131   -0.0000
       56 NB     5d0       -0.0000   -0.0000   -0.0000    0.0044   -0.0221    0.0000   -0.0000    0.0440   -0.0242   -0.0000
       57 NB     6d0        0.0000    0.0000    0.0000   -0.0034    0.0085   -0.0000    0.0000   -0.0105   -0.0028   -0.0000
       58 NB     7d0       -0.0000   -0.0000   -0.0000    0.0025   -0.0015   -0.0000    0.0000   -0.0014    0.0008   -0.0000
       59 NB     8d0        0.0000    0.0000    0.0000   -0.0019   -0.0031    0.0000   -0.0000    0.0064    0.0010   -0.0000
       60 NB     9d0        0.0000   -0.0000   -0.0000    0.0009    0.0016   -0.0000    0.0000   -0.0026    0.0010    0.0000
       61 NB    10d0       -0.0000   -0.0000   -0.0000    0.0007   -0.0005   -0.0000   -0.0000    0.0011   -0.0002   -0.0000
       62 NB     3d1+       0.3489    0.9371   -0.0000    0.0000   -0.0000    0.0000   -0.0035   -0.0000   -0.0000   -0.0000
       63 NB     4d1+       0.0000   -0.0045    0.0000   -0.0000    0.0000   -0.0000    0.1304    0.0000    0.0000   -0.0000
       64 NB     5d1+       0.0000    0.0040   -0.0000    0.0000   -0.0000    0.0000   -0.0540   -0.0000    0.0000   -0.0000
       65 NB     6d1+      -0.0001   -0.0031    0.0000   -0.0000    0.0000   -0.0000    0.0130    0.0000    0.0000   -0.0000
       66 NB     7d1+       0.0002    0.0023   -0.0000    0.0000   -0.0000   -0.0000    0.0015   -0.0000   -0.0000   -0.0000
       67 NB     8d1+      -0.0003   -0.0017    0.0000   -0.0000    0.0000    0.0000   -0.0066   -0.0000    0.0000    0.0000
       68 NB     9d1+       0.0003    0.0008   -0.0000    0.0000    0.0000   -0.0000    0.0019    0.0000    0.0000    0.0000
       69 NB    10d1+       0.0002    0.0006   -0.0000    0.0000    0.0000    0.0000   -0.0007   -0.0000    0.0000   -0.0000
       70 NB     3d2+       0.9371   -0.3488    0.0000   -0.0000   -0.0000   -0.0000    0.0025    0.0000   -0.0000    0.0000
       71 NB     4d2+      -0.0022    0.0025   -0.0000    0.0000    0.0000    0.0000   -0.0904   -0.0000   -0.0000   -0.0000
       72 NB     5d2+       0.0020   -0.0022    0.0000   -0.0000   -0.0000   -0.0000    0.0384    0.0000   -0.0000    0.0000
       73 NB     6d2+      -0.0016    0.0016   -0.0000    0.0000    0.0000    0.0000   -0.0097   -0.0000   -0.0000   -0.0000
       74 NB     7d2+       0.0013   -0.0012    0.0000   -0.0000    0.0000    0.0000   -0.0009    0.0000    0.0000    0.0000
       75 NB     8d2+      -0.0011    0.0007   -0.0000    0.0000   -0.0000   -0.0000    0.0051   -0.0000    0.0000    0.0000
       76 NB     9d2+       0.0006   -0.0002    0.0000   -0.0000    0.0000    0.0000   -0.0017   -0.0000    0.0000   -0.0000
       77 NB    10d2+       0.0005   -0.0002    0.0000   -0.0000   -0.0000   -0.0000    0.0007   -0.0000   -0.0000    0.0000
       78 NB     4f3-      -0.0000    0.0000    0.0000   -0.0000    0.0000   -0.0000   -0.0000   -0.0000    0.0000   -0.0000
       79 NB     5f3-      -0.0000    0.0000    0.0000    0.0000   -0.0000   -0.0000   -0.0000    0.0000   -0.0000    0.0000
       80 NB     6f3-       0.0000   -0.0000   -0.0000    0.0000    0.0000   -0.0000   -0.0000    0.0000   -0.0000    0.0000
       81 NB     7f3-      -0.0000   -0.0000    0.0000   -0.0000   -0.0000    0.0000    0.0000   -0.0000   -0.0000    0.0000
       82 NB     8f3-      -0.0000    0.0000    0.0000    0.0000   -0.0000    0.0000   -0.0000   -0.0000    0.0000   -0.0000
       83 NB     4f2-      -0.0000    0.0000    0.0028    0.0000   -0.0000   -0.0248   -0.0000   -0.0000    0.0000   -0.0003
       84 NB     5f2-      -0.0000    0.0000    0.0025    0.0000   -0.0000   -0.0115   -0.0000   -0.0000   -0.0000    0.0036
       85 NB     6f2-       0.0000   -0.0000   -0.0015   -0.0000   -0.0000    0.0008    0.0000   -0.0000    0.0000    0.0005
       86 NB     7f2-      -0.0000    0.0000    0.0007    0.0000    0.0000    0.0026    0.0000    0.0000   -0.0000    0.0001
       87 NB     8f2-      -0.0000    0.0000    0.0003    0.0000    0.0000    0.0010    0.0000    0.0000    0.0000   -0.0002
       88 NB     4f1-       0.0000    0.0000    0.0006    0.0000   -0.0000   -0.0188   -0.0000   -0.0000    0.0000   -0.0016
       89 NB     5f1-       0.0000    0.0000    0.0006    0.0000   -0.0000   -0.0068   -0.0000   -0.0000   -0.0000    0.0066
       90 NB     6f1-      -0.0000   -0.0000   -0.0004   -0.0000    0.0000   -0.0002   -0.0000    0.0000   -0.0000    0.0041
       91 NB     7f1-       0.0000    0.0000    0.0003    0.0000    0.0000    0.0010    0.0000    0.0000   -0.0000    0.0023
       92 NB     8f1-       0.0000    0.0000    0.0003    0.0000   -0.0000   -0.0001   -0.0000   -0.0000   -0.0000   -0.0012
       93 NB     4f0       -0.0000    0.0000    0.0000   -0.0012    0.0629   -0.0000    0.0000   -0.0203   -0.0078    0.0000
       94 NB     5f0       -0.0000    0.0000    0.0000   -0.0011    0.0318    0.0000    0.0000   -0.0057    0.0167   -0.0000
       95 NB     6f0        0.0000    0.0000   -0.0000    0.0006   -0.0042   -0.0000   -0.0000   -0.0008    0.0019   -0.0000
       96 NB     7f0        0.0000   -0.0000    0.0000   -0.0001   -0.0050   -0.0000    0.0000    0.0008    0.0011    0.0000
       97 NB     8f0       -0.0000   -0.0000   -0.0000    0.0002   -0.0021   -0.0000    0.0000   -0.0002   -0.0003    0.0000
       98 NB     4f1+       0.0006    0.0006   -0.0000    0.0000   -0.0000    0.0000   -0.0188   -0.0000    0.0000    0.0000
       99 NB     5f1+       0.0005    0.0006   -0.0000    0.0000   -0.0000    0.0000   -0.0068   -0.0000   -0.0000   -0.0000
      100 NB     6f1+      -0.0003   -0.0004    0.0000   -0.0000    0.0000    0.0000   -0.0002    0.0000   -0.0000   -0.0000
      101 NB     7f1+       0.0002    0.0003   -0.0000    0.0000    0.0000   -0.0000    0.0010    0.0000   -0.0000   -0.0000
      102 NB     8f1+       0.0002    0.0003   -0.0000    0.0000    0.0000    0.0000   -0.0001   -0.0000    0.0000    0.0000
      103 NB     4f2+       0.0023   -0.0028    0.0000   -0.0000   -0.0000   -0.0000    0.0248   -0.0000    0.0000   -0.0000
      104 NB     5f2+       0.0020   -0.0025    0.0000   -0.0000   -0.0000   -0.0000    0.0115    0.0000   -0.0000    0.0000
      105 NB     6f2+      -0.0013    0.0015   -0.0000    0.0000   -0.0000    0.0000   -0.0008   -0.0000   -0.0000    0.0000
      106 NB     7f2+       0.0008   -0.0007    0.0000   -0.0000    0.0000    0.0000   -0.0026    0.0000    0.0000    0.0000
      107 NB     8f2+       0.0005   -0.0003    0.0000   -0.0000    0.0000    0.0000   -0.0010   -0.0000    0.0000   -0.0000
      108 NB     4f3+       0.0000   -0.0000   -0.0000    0.0013    0.0400    0.0000   -0.0000    0.0358   -0.0055    0.0000
      109 NB     5f3+       0.0000   -0.0000   -0.0000    0.0011    0.0202    0.0000   -0.0000    0.0144    0.0098   -0.0000
      110 NB     6f3+      -0.0000    0.0000    0.0000   -0.0007   -0.0027   -0.0000   -0.0000   -0.0004    0.0008   -0.0000
      111 NB     7f3+       0.0000   -0.0000   -0.0000    0.0004   -0.0031   -0.0000    0.0000   -0.0030    0.0005   -0.0000
      112 NB     8f3+       0.0000   -0.0000   -0.0000    0.0002   -0.0013   -0.0000    0.0000   -0.0010   -0.0001    0.0000
      113 NB     5g4-       0.0000    0.0000    0.0009    0.0000   -0.0000   -0.0217   -0.0000   -0.0000    0.0000    0.0006
      114 NB     6g4-      -0.0000   -0.0000   -0.0007   -0.0000    0.0000    0.0050    0.0000    0.0000    0.0000   -0.0028
      115 NB     7g4-       0.0000    0.0000    0.0004    0.0000    0.0000    0.0007    0.0000    0.0000    0.0000   -0.0008
      116 NB     8g4-      -0.0000   -0.0000   -0.0002   -0.0000   -0.0000   -0.0015   -0.0000   -0.0000    0.0000   -0.0001
      117 NB     5g3-       0.0000   -0.0000   -0.0000   -0.0000    0.0000    0.0000    0.0000    0.0000    0.0000    0.0000
      118 NB     6g3-      -0.0000    0.0000    0.0000   -0.0000   -0.0000   -0.0000   -0.0000   -0.0000    0.0000    0.0000
      119 NB     7g3-       0.0000   -0.0000   -0.0000    0.0000   -0.0000   -0.0000   -0.0000   -0.0000   -0.0000    0.0000
      120 NB     8g3-      -0.0000   -0.0000    0.0000    0.0000    0.0000    0.0000    0.0000   -0.0000    0.0000   -0.0000
      121 NB     5g2-       0.0000   -0.0000   -0.0009   -0.0000    0.0000    0.0011    0.0000    0.0000    0.0000   -0.0000
      122 NB     6g2-      -0.0000    0.0000    0.0007    0.0000   -0.0000   -0.0012   -0.0000   -0.0000    0.0000   -0.0000
      123 NB     7g2-       0.0000   -0.0000   -0.0005   -0.0000    0.0000    0.0002    0.0000   -0.0000    0.0000   -0.0002
      124 NB     8g2-      -0.0000    0.0000    0.0002    0.0000   -0.0000    0.0007    0.0000    0.0000    0.0000   -0.0001
      125 NB     5g1-      -0.0000   -0.0000   -0.0000   -0.0000   -0.0000   -0.0276   -0.0000   -0.0000    0.0000    0.0006
      126 NB     6g1-       0.0000    0.0000    0.0000    0.0000    0.0000    0.0059    0.0000    0.0000    0.0000   -0.0037
      127 NB     7g1-      -0.0000   -0.0000   -0.0002   -0.0000    0.0000    0.0010    0.0000    0.0000    0.0000   -0.0012
      128 NB     8g1-       0.0000    0.0000    0.0003    0.0000   -0.0000   -0.0016   -0.0000   -0.0000    0.0000   -0.0001
      129 NB     5g0        0.0000    0.0000    0.0000   -0.0017    0.0043   -0.0000    0.0000   -0.0470    0.0004   -0.0000
      130 NB     6g0       -0.0000   -0.0000   -0.0000    0.0013   -0.0016    0.0000   -0.0000    0.0108   -0.0013    0.0000
      131 NB     7g0        0.0000    0.0000    0.0000   -0.0009    0.0001   -0.0000   -0.0000    0.0014   -0.0001   -0.0000
      132 NB     8g0       -0.0000   -0.0000   -0.0000    0.0004    0.0005   -0.0000    0.0000   -0.0039    0.0001   -0.0000
      133 NB     5g1+      -0.0008   -0.0000    0.0000   -0.0000    0.0000    0.0000   -0.0276   -0.0000   -0.0000   -0.0000
      134 NB     6g1+       0.0006    0.0000   -0.0000    0.0000    0.0000   -0.0000    0.0059    0.0000   -0.0000    0.0000
      135 NB     7g1+      -0.0004   -0.0002    0.0000   -0.0000   -0.0000   -0.0000    0.0010   -0.0000   -0.0000    0.0000
      136 NB     8g1+       0.0003    0.0003   -0.0000    0.0000    0.0000    0.0000   -0.0016   -0.0000    0.0000    0.0000
      137 NB     5g2+      -0.0004    0.0009   -0.0000    0.0000   -0.0000    0.0000   -0.0011    0.0000    0.0000   -0.0000
      138 NB     6g2+       0.0003   -0.0007    0.0000   -0.0000    0.0000   -0.0000    0.0012    0.0000    0.0000   -0.0000
      139 NB     7g2+      -0.0002    0.0005   -0.0000    0.0000   -0.0000    0.0000   -0.0002   -0.0000    0.0000   -0.0000
      140 NB     8g2+       0.0002   -0.0002    0.0000   -0.0000    0.0000    0.0000   -0.0007   -0.0000    0.0000   -0.0000
      141 NB     5g3+      -0.0000    0.0000    0.0000   -0.0004   -0.0225   -0.0000    0.0000   -0.0314    0.0014   -0.0000
      142 NB     6g3+       0.0000   -0.0000   -0.0000    0.0003    0.0092    0.0000    0.0000    0.0080    0.0038   -0.0000
      143 NB     7g3+      -0.0000    0.0000    0.0000   -0.0002   -0.0008   -0.0000   -0.0000    0.0007   -0.0003   -0.0000
      144 NB     8g3+       0.0000   -0.0000    0.0000    0.0001   -0.0031   -0.0000    0.0000   -0.0031   -0.0003   -0.0000
      145 NB     5g4+       0.0000    0.0009   -0.0000    0.0000   -0.0000    0.0000   -0.0217   -0.0000   -0.0000   -0.0000
      146 NB     6g4+      -0.0000   -0.0007    0.0000   -0.0000    0.0000   -0.0000    0.0050    0.0000    0.0000    0.0000
      147 NB     7g4+       0.0000    0.0004   -0.0000    0.0000   -0.0000   -0.0000    0.0007   -0.0000   -0.0000    0.0000
      148 NB     8g4+      -0.0001   -0.0002    0.0000   -0.0000   -0.0000    0.0000   -0.0015   -0.0000    0.0000    0.0000
      149 NB     6h5-       0.0000   -0.0000   -0.0005   -0.0000   -0.0000    0.0022    0.0000    0.0000   -0.0000    0.0001
      150 NB     7h5-      -0.0000    0.0000    0.0004    0.0000    0.0000   -0.0011   -0.0000   -0.0000    0.0000    0.0002
      151 NB     6h4-      -0.0000   -0.0000   -0.0011   -0.0000    0.0000    0.0133    0.0000    0.0000   -0.0000   -0.0008
      152 NB     7h4-       0.0000    0.0000    0.0008    0.0000   -0.0000   -0.0031   -0.0000   -0.0000   -0.0000    0.0010
      153 NB     6h3-      -0.0000   -0.0000    0.0000    0.0000   -0.0000   -0.0000   -0.0000    0.0000   -0.0000    0.0000
      154 NB     7h3-       0.0000   -0.0000   -0.0000    0.0000    0.0000    0.0000    0.0000    0.0000    0.0000   -0.0000
      155 NB     6h2-       0.0000   -0.0000   -0.0004   -0.0000    0.0000    0.0040    0.0000    0.0000   -0.0000   -0.0001
      156 NB     7h2-      -0.0000    0.0000    0.0003    0.0000   -0.0000   -0.0011   -0.0000   -0.0000   -0.0000    0.0004
      157 NB     6h1-      -0.0000   -0.0000   -0.0015   -0.0000    0.0000    0.0020    0.0000   -0.0000    0.0000   -0.0001
      158 NB     7h1-       0.0000    0.0000    0.0011    0.0000    0.0000   -0.0014   -0.0000   -0.0000    0.0000    0.0002
      159 NB     6h0        0.0000    0.0000    0.0000   -0.0020    0.0044   -0.0000    0.0000   -0.0072    0.0002    0.0000
      160 NB     7h0       -0.0000   -0.0000   -0.0000    0.0014   -0.0019   -0.0000   -0.0000    0.0028   -0.0006   -0.0000
      161 NB     6h1+      -0.0002   -0.0015    0.0000   -0.0000    0.0000   -0.0000    0.0020    0.0000   -0.0000    0.0000
      162 NB     7h1+       0.0001    0.0011   -0.0000    0.0000   -0.0000    0.0000   -0.0014   -0.0000   -0.0000   -0.0000
      163 NB     6h2+      -0.0007    0.0004   -0.0000    0.0000    0.0000    0.0000   -0.0040    0.0000    0.0000   -0.0000
      164 NB     7h2+       0.0005   -0.0003    0.0000   -0.0000   -0.0000   -0.0000    0.0011   -0.0000   -0.0000    0.0000
      165 NB     6h3+       0.0000    0.0000    0.0000   -0.0004    0.0068   -0.0000   -0.0000    0.0158   -0.0001    0.0000
      166 NB     7h3+      -0.0000    0.0000   -0.0000    0.0003   -0.0028    0.0000   -0.0000   -0.0031   -0.0007   -0.0000
      167 NB     6h4+      -0.0001   -0.0011    0.0000   -0.0000    0.0000   -0.0000    0.0133    0.0000    0.0000    0.0000
      168 NB     7h4+       0.0001    0.0008   -0.0000    0.0000   -0.0000    0.0000   -0.0031   -0.0000   -0.0000   -0.0000
      169 NB     6h5+      -0.0009    0.0005   -0.0000    0.0000    0.0000    0.0000   -0.0022    0.0000    0.0000    0.0000
      170 NB     7h5+       0.0006   -0.0004    0.0000   -0.0000   -0.0000   -0.0000    0.0011   -0.0000   -0.0000    0.0000

          Orbital           21        22        23        24        25        26        27        28        29        30    
          Energy           -0.0937   -0.0868   -0.0542   -0.0542   -0.0500   -0.0500   -0.0493   -0.0237    0.0288    0.0288
          Occ. No.          0.0000    0.0000    0.0000    0.0000    0.0000    0.0000    0.0000    0.0000    0.0000    0.0000

        1 NB     1s         0.0000    0.0000    0.0000    0.0000    0.0000    0.0000   -0.0000    0.0000   -0.0000   -0.0000
        2 NB     2s        -0.0000   -0.0000   -0.0000    0.0000    0.0000   -0.0000   -0.0000   -0.0000   -0.0000    0.0000
        3 NB     3s         0.0000    0.0001    0.0000    0.0000    0.0000    0.0000    0.0000    0.0003   -0.0000   -0.0000
        4 NB     4s         0.0000    0.0076    0.0000    0.0000    0.0000    0.0000    0.0024    0.0179    0.0000   -0.0000
        5 NB     5s         0.0000   -0.1038    0.0000    0.0000    0.0000   -0.0000    0.0195   -0.2540    0.0000   -0.0000
        6 NB     6s         0.0000   -0.0762    0.0000    0.0000    0.0000   -0.0000    0.0504    0.8477   -0.0000    0.0000
        7 NB     7s         0.0000   -0.0128    0.0000    0.0000   -0.0000   -0.0000    0.0150    0.3873   -0.0000    0.0000
        8 NB     8s         0.0000   -0.0035    0.0000    0.0000   -0.0000   -0.0000    0.0081    0.2287   -0.0000    0.0000
        9 NB     9s        -0.0000   -0.0009    0.0000    0.0000   -0.0000   -0.0000    0.0016    0.0472   -0.0000    0.0000
       10 NB    10s        -0.0000   -0.0001    0.0000    0.0000   -0.0000   -0.0000    0.0001    0.0037   -0.0000    0.0000
       11 NB     2px        0.0000    0.0000   -0.0000   -0.0000   -0.0000    0.0000    0.0000    0.0000    0.0000   -0.0000
       12 NB     3px       -0.0002   -0.0000    0.0000    0.0000    0.0000   -0.0001   -0.0000   -0.0000    0.0000   -0.0000
       13 NB     4px       -0.0241   -0.0000    0.0062    0.0000    0.0000   -0.0173   -0.0000   -0.0000    0.0000   -0.0058
       14 NB     5px        0.8292    0.0000   -0.0250   -0.0000    0.0000   -0.0645   -0.0000    0.0000    0.0000   -0.0085
       15 NB     6px        0.4091    0.0000   -0.0157   -0.0000    0.0000   -0.0336   -0.0000   -0.0000   -0.0000    0.0197
       16 NB     7px        0.3421    0.0000   -0.0147   -0.0000    0.0000   -0.0286   -0.0000   -0.0000   -0.0000    0.0305
       17 NB     8px        0.1288    0.0000   -0.0056   -0.0000    0.0000   -0.0125   -0.0000   -0.0000   -0.0000    0.0173
       18 NB     9px        0.0458    0.0000   -0.0021   -0.0000    0.0000   -0.0046   -0.0000   -0.0000   -0.0000    0.0077
       19 NB    10px        0.0062    0.0000   -0.0003   -0.0000    0.0000   -0.0006   -0.0000   -0.0000   -0.0000    0.0012
       20 NB     2py        0.0000    0.0000   -0.0000    0.0000    0.0000    0.0000   -0.0000   -0.0000    0.0000    0.0000
       21 NB     3py       -0.0000   -0.0000    0.0000   -0.0000   -0.0001   -0.0000    0.0000    0.0000    0.0000    0.0000
       22 NB     4py       -0.0000    0.0000    0.0000   -0.0062   -0.0173   -0.0000    0.0000    0.0000    0.0058    0.0000
       23 NB     5py        0.0000   -0.0000   -0.0000    0.0250   -0.0645   -0.0000    0.0000   -0.0000    0.0085    0.0000
       24 NB     6py        0.0000   -0.0000   -0.0000    0.0157   -0.0336   -0.0000    0.0000   -0.0000   -0.0197   -0.0000
       25 NB     7py        0.0000   -0.0000   -0.0000    0.0147   -0.0286   -0.0000    0.0000   -0.0000   -0.0305   -0.0000
       26 NB     8py        0.0000   -0.0000   -0.0000    0.0056   -0.0125   -0.0000    0.0000   -0.0000   -0.0173   -0.0000
       27 NB     9py        0.0000   -0.0000   -0.0000    0.0021   -0.0046   -0.0000    0.0000   -0.0000   -0.0077   -0.0000
       28 NB    10py        0.0000   -0.0000   -0.0000    0.0003   -0.0006   -0.0000    0.0000   -0.0000   -0.0012   -0.0000
       29 NB     2pz        0.0000    0.0000    0.0000   -0.0000   -0.0000    0.0000   -0.0000    0.0000    0.0000   -0.0000
       30 NB     3pz       -0.0000   -0.0004    0.0000    0.0000    0.0000   -0.0000    0.0001   -0.0001   -0.0000    0.0000
       31 NB     4pz       -0.0000   -0.0332    0.0000    0.0000    0.0000   -0.0000    0.0173    0.0031   -0.0000    0.0000
       32 NB     5pz       -0.0000    0.7958   -0.0000   -0.0000   -0.0000    0.0000   -0.0820   -0.0036   -0.0000   -0.0000
       33 NB     6pz        0.0000    0.4236   -0.0000   -0.0000   -0.0000    0.0000   -0.0510    0.0507    0.0000    0.0000
       34 NB     7pz        0.0000    0.3630   -0.0000   -0.0000   -0.0000    0.0000   -0.0473    0.0629    0.0000    0.0000
       35 NB     8pz       -0.0000    0.1392   -0.0000   -0.0000   -0.0000    0.0000   -0.0182    0.0332    0.0000    0.0000
       36 NB     9pz        0.0000    0.0506   -0.0000   -0.0000   -0.0000    0.0000   -0.0068    0.0143    0.0000    0.0000
       37 NB    10pz        0.0000    0.0069   -0.0000   -0.0000   -0.0000    0.0000   -0.0010    0.0021    0.0000    0.0000
       38 NB     3d2-       0.0000   -0.0000   -0.0000    0.0003    0.0002    0.0000   -0.0000   -0.0000   -0.0005   -0.0000
       39 NB     4d2-      -0.0000    0.0000   -0.0000    0.3563    0.0942    0.0000   -0.0000   -0.0000   -0.5360   -0.0000
       40 NB     5d2-       0.0000   -0.0000   -0.0000    0.5510    0.2026    0.0000   -0.0000    0.0000   -0.2507   -0.0000
       41 NB     6d2-      -0.0000    0.0000   -0.0000    0.5947    0.2366    0.0000   -0.0000    0.0000    0.2943    0.0000
       42 NB     7d2-       0.0000    0.0000   -0.0000    0.3009    0.1280    0.0000   -0.0000    0.0000    0.5186    0.0000
       43 NB     8d2-       0.0000    0.0000   -0.0000    0.0293    0.0164    0.0000   -0.0000    0.0000    0.2404    0.0000
       44 NB     9d2-      -0.0000    0.0000    0.0000   -0.0063   -0.0003   -0.0000   -0.0000    0.0000    0.1284    0.0000
       45 NB    10d2-       0.0000   -0.0000   -0.0000    0.0055    0.0020    0.0000   -0.0000   -0.0000   -0.0115   -0.0000
       46 NB     3d1-       0.0000   -0.0000    0.0000   -0.0000    0.0004    0.0000   -0.0000   -0.0000    0.0002    0.0000
       47 NB     4d1-       0.0000   -0.0000    0.0000   -0.1468    0.2846    0.0000   -0.0000    0.0000    0.2854    0.0000
       48 NB     5d1-       0.0000   -0.0000    0.0000   -0.2026    0.5377    0.0000   -0.0000    0.0000    0.1265    0.0000
       49 NB     6d1-       0.0000   -0.0000    0.0000   -0.2172    0.6214    0.0000   -0.0000    0.0000   -0.1521   -0.0000
       50 NB     7d1-       0.0000   -0.0000    0.0000   -0.1092    0.3343    0.0000   -0.0000    0.0000   -0.2657   -0.0000
       51 NB     8d1-      -0.0000    0.0000    0.0000   -0.0102    0.0417    0.0000   -0.0000    0.0000   -0.1232   -0.0000
       52 NB     9d1-      -0.0000    0.0000   -0.0000    0.0023   -0.0008   -0.0000    0.0000    0.0000   -0.0653   -0.0000
       53 NB    10d1-       0.0000   -0.0000    0.0000   -0.0020    0.0053    0.0000   -0.0000   -0.0000    0.0058    0.0000
       54 NB     3d0       -0.0000   -0.0001    0.0000    0.0000    0.0000   -0.0000    0.0004    0.0003    0.0000   -0.0000
       55 NB     4d0        0.0000    0.0734    0.0000    0.0000    0.0000   -0.0000    0.2951    0.0131    0.0000   -0.0000
       56 NB     5d0        0.0000    0.0720    0.0000    0.0000    0.0000   -0.0000    0.5708   -0.0012    0.0000   -0.0000
       57 NB     6d0        0.0000    0.0661    0.0000    0.0000    0.0000   -0.0000    0.6630   -0.0446   -0.0000    0.0000
       58 NB     7d0        0.0000    0.0204    0.0000    0.0000    0.0000   -0.0000    0.3597   -0.0364   -0.0000    0.0000
       59 NB     8d0       -0.0000   -0.0040    0.0000    0.0000    0.0000   -0.0000    0.0462   -0.0098   -0.0000    0.0000
       60 NB     9d0       -0.0000   -0.0041   -0.0000   -0.0000   -0.0000    0.0000   -0.0001   -0.0039   -0.0000    0.0000
       61 NB    10d0        0.0000    0.0008    0.0000    0.0000    0.0000   -0.0000    0.0056    0.0000    0.0000   -0.0000
       62 NB     3d1+       0.0003    0.0000    0.0000    0.0000   -0.0000    0.0004    0.0000    0.0000    0.0000   -0.0002
       63 NB     4d1+       0.0210   -0.0000    0.1468    0.0000   -0.0000    0.2846    0.0000   -0.0000    0.0000   -0.2854
       64 NB     5d1+       0.0723   -0.0000    0.2026    0.0000   -0.0000    0.5377    0.0000    0.0000    0.0000   -0.1265
       65 NB     6d1+       0.0480   -0.0000    0.2172    0.0000   -0.0000    0.6214    0.0000    0.0000   -0.0000    0.1521
       66 NB     7d1+       0.0141   -0.0000    0.1092    0.0000   -0.0000    0.3343    0.0000    0.0000   -0.0000    0.2657
       67 NB     8d1+      -0.0035    0.0000    0.0102    0.0000   -0.0000    0.0417    0.0000    0.0000   -0.0000    0.1232
       68 NB     9d1+      -0.0043    0.0000   -0.0023   -0.0000    0.0000   -0.0008    0.0000    0.0000   -0.0000    0.0653
       69 NB    10d1+       0.0009   -0.0000    0.0020    0.0000   -0.0000    0.0053    0.0000   -0.0000    0.0000   -0.0058
       70 NB     3d2+      -0.0002    0.0000    0.0003    0.0000    0.0000   -0.0002   -0.0000    0.0000    0.0000   -0.0005
       71 NB     4d2+       0.0205    0.0000    0.3563    0.0000    0.0000   -0.0942   -0.0000    0.0000    0.0000   -0.5360
       72 NB     5d2+      -0.0070    0.0000    0.5510    0.0000    0.0000   -0.2026   -0.0000   -0.0000    0.0000   -0.2507
       73 NB     6d2+       0.0004    0.0000    0.5947    0.0000    0.0000   -0.2366   -0.0000   -0.0000   -0.0000    0.2943
       74 NB     7d2+      -0.0005    0.0000    0.3009    0.0000    0.0000   -0.1280   -0.0000   -0.0000   -0.0000    0.5186
       75 NB     8d2+      -0.0002   -0.0000    0.0293    0.0000    0.0000   -0.0164   -0.0000   -0.0000   -0.0000    0.2404
       76 NB     9d2+       0.0004   -0.0000   -0.0063   -0.0000   -0.0000    0.0003   -0.0000   -0.0000   -0.0000    0.1284
       77 NB    10d2+      -0.0001    0.0000    0.0055    0.0000    0.0000   -0.0020   -0.0000    0.0000    0.0000   -0.0115
       78 NB     4f3-      -0.0000    0.0000    0.0000   -0.0000    0.0000    0.0000   -0.0000    0.0000    0.0000    0.0000
       79 NB     5f3-       0.0000   -0.0000   -0.0000    0.0000   -0.0000   -0.0000    0.0000    0.0000   -0.0000   -0.0000
       80 NB     6f3-       0.0000   -0.0000   -0.0000    0.0000    0.0000   -0.0000    0.0000   -0.0000   -0.0000   -0.0000
       81 NB     7f3-       0.0000   -0.0000   -0.0000    0.0000    0.0000   -0.0000    0.0000   -0.0000   -0.0000   -0.0000
       82 NB     8f3-      -0.0000    0.0000    0.0000   -0.0000   -0.0000    0.0000   -0.0000    0.0000    0.0000    0.0000
       83 NB     4f2-      -0.0000   -0.0000   -0.0000    0.0206    0.0136    0.0000   -0.0000   -0.0000   -0.0483   -0.0000
       84 NB     5f2-       0.0000   -0.0000    0.0000   -0.0160   -0.0085   -0.0000    0.0000    0.0000    0.0393    0.0000
       85 NB     6f2-       0.0000    0.0000    0.0000   -0.0147   -0.0075   -0.0000    0.0000    0.0000    0.0353    0.0000
       86 NB     7f2-       0.0000   -0.0000    0.0000   -0.0109   -0.0057   -0.0000    0.0000   -0.0000    0.0253    0.0000
       87 NB     8f2-      -0.0000    0.0000   -0.0000    0.0077    0.0038    0.0000   -0.0000   -0.0000   -0.0173   -0.0000
       88 NB     4f1-      -0.0000   -0.0000    0.0000   -0.0069    0.0094    0.0000   -0.0000    0.0000    0.0192    0.0000
       89 NB     5f1-       0.0000    0.0000   -0.0000    0.0071   -0.0133   -0.0000    0.0000   -0.0000   -0.0188   -0.0000
       90 NB     6f1-       0.0000    0.0000   -0.0000    0.0065   -0.0141   -0.0000    0.0000   -0.0000   -0.0171   -0.0000
       91 NB     7f1-       0.0000    0.0000   -0.0000    0.0047   -0.0107   -0.0000    0.0000   -0.0000   -0.0119   -0.0000
       92 NB     8f1-      -0.0000   -0.0000    0.0000   -0.0034    0.0081    0.0000   -0.0000    0.0000    0.0082    0.0000
       93 NB     4f0       -0.0000   -0.0031   -0.0000   -0.0000    0.0000    0.0000    0.0009    0.0096   -0.0000    0.0000
       94 NB     5f0        0.0000    0.0067   -0.0000   -0.0000   -0.0000    0.0000   -0.0127   -0.0173   -0.0000    0.0000
       95 NB     6f0        0.0000    0.0049   -0.0000   -0.0000   -0.0000    0.0000   -0.0139   -0.0017   -0.0000    0.0000
       96 NB     7f0        0.0000    0.0029   -0.0000   -0.0000   -0.0000    0.0000   -0.0104   -0.0007   -0.0000   -0.0000
       97 NB     8f0       -0.0000   -0.0015    0.0000    0.0000    0.0000   -0.0000    0.0083   -0.0004    0.0000    0.0000
       98 NB     4f1+      -0.0016    0.0000    0.0069    0.0000   -0.0000    0.0094   -0.0000   -0.0000    0.0000   -0.0192
       99 NB     5f1+       0.0066    0.0000   -0.0071   -0.0000    0.0000   -0.0133    0.0000    0.0000   -0.0000    0.0188
      100 NB     6f1+       0.0041    0.0000   -0.0065   -0.0000    0.0000   -0.0141    0.0000   -0.0000   -0.0000    0.0171
      101 NB     7f1+       0.0023    0.0000   -0.0047   -0.0000    0.0000   -0.0107    0.0000   -0.0000   -0.0000    0.0119
      102 NB     8f1+      -0.0012   -0.0000    0.0034    0.0000   -0.0000    0.0081   -0.0000    0.0000    0.0000   -0.0082
      103 NB     4f2+       0.0003   -0.0000    0.0206    0.0000    0.0000   -0.0136   -0.0000   -0.0000    0.0000   -0.0483
      104 NB     5f2+      -0.0036    0.0000   -0.0160   -0.0000   -0.0000    0.0085    0.0000    0.0000   -0.0000    0.0393
      105 NB     6f2+      -0.0005    0.0000   -0.0147   -0.0000   -0.0000    0.0075    0.0000    0.0000   -0.0000    0.0353
      106 NB     7f2+      -0.0001    0.0000   -0.0109   -0.0000   -0.0000    0.0057    0.0000    0.0000   -0.0000    0.0253
      107 NB     8f2+       0.0002   -0.0000    0.0077    0.0000    0.0000   -0.0038   -0.0000   -0.0000    0.0000   -0.0173
      108 NB     4f3+      -0.0000   -0.0007   -0.0000   -0.0000    0.0000    0.0000    0.0070    0.0072   -0.0000    0.0000
      109 NB     5f3+       0.0000   -0.0047    0.0000    0.0000   -0.0000   -0.0000   -0.0030   -0.0113    0.0000   -0.0000
      110 NB     6f3+       0.0000   -0.0010    0.0000    0.0000   -0.0000   -0.0000   -0.0023   -0.0016    0.0000   -0.0000
      111 NB     7f3+       0.0000   -0.0004    0.0000    0.0000   -0.0000   -0.0000   -0.0017   -0.0010    0.0000   -0.0000
      112 NB     8f3+      -0.0000    0.0004   -0.0000   -0.0000    0.0000    0.0000    0.0010    0.0002   -0.0000    0.0000
      113 NB     5g4-       0.0000   -0.0000    0.0000   -0.0002    0.0025    0.0000   -0.0000   -0.0000    0.0014    0.0000
      114 NB     6g4-      -0.0000    0.0000    0.0000   -0.0003    0.0007    0.0000   -0.0000   -0.0000    0.0006    0.0000
      115 NB     7g4-      -0.0000    0.0000    0.0000   -0.0001    0.0002    0.0000   -0.0000   -0.0000    0.0001    0.0000
      116 NB     8g4-      -0.0000   -0.0000   -0.0000    0.0000    0.0002    0.0000   -0.0000   -0.0000    0.0000    0.0000
      117 NB     5g3-       0.0000   -0.0000   -0.0000    0.0000   -0.0000   -0.0000   -0.0000   -0.0000   -0.0000   -0.0000
      118 NB     6g3-       0.0000    0.0000   -0.0000    0.0000   -0.0000   -0.0000   -0.0000    0.0000   -0.0000   -0.0000
      119 NB     7g3-       0.0000    0.0000   -0.0000    0.0000   -0.0000   -0.0000   -0.0000   -0.0000   -0.0000    0.0000
      120 NB     8g3-      -0.0000   -0.0000   -0.0000    0.0000   -0.0000   -0.0000    0.0000   -0.0000   -0.0000    0.0000
      121 NB     5g2-      -0.0000    0.0000    0.0000   -0.0014   -0.0018   -0.0000    0.0000   -0.0000    0.0024    0.0000
      122 NB     6g2-      -0.0000    0.0000    0.0000   -0.0012   -0.0007   -0.0000    0.0000   -0.0000    0.0019    0.0000
      123 NB     7g2-      -0.0000    0.0000    0.0000   -0.0007   -0.0003   -0.0000    0.0000   -0.0000    0.0009    0.0000
      124 NB     8g2-      -0.0000    0.0000    0.0000   -0.0003   -0.0002   -0.0000    0.0000    0.0000    0.0003    0.0000
      125 NB     5g1-       0.0000   -0.0000   -0.0000    0.0032   -0.0005   -0.0000    0.0000   -0.0000   -0.0075   -0.0000
      126 NB     6g1-      -0.0000    0.0000   -0.0000    0.0012   -0.0015   -0.0000    0.0000   -0.0000   -0.0033   -0.0000
      127 NB     7g1-      -0.0000    0.0000   -0.0000    0.0004   -0.0009   -0.0000    0.0000   -0.0000   -0.0010   -0.0000
      128 NB     8g1-      -0.0000    0.0000   -0.0000    0.0003   -0.0002   -0.0000    0.0000    0.0000   -0.0005   -0.0000
      129 NB     5g0        0.0000    0.0012   -0.0000   -0.0000   -0.0000    0.0000   -0.0052   -0.0003    0.0000    0.0000
      130 NB     6g0       -0.0000   -0.0053   -0.0000   -0.0000   -0.0000    0.0000   -0.0017    0.0008    0.0000    0.0000
      131 NB     7g0        0.0000   -0.0014   -0.0000   -0.0000   -0.0000    0.0000   -0.0010    0.0000   -0.0000    0.0000
      132 NB     8g0        0.0000   -0.0000   -0.0000   -0.0000   -0.0000    0.0000   -0.0007   -0.0001   -0.0000    0.0000
      133 NB     5g1+       0.0006    0.0000   -0.0032   -0.0000    0.0000   -0.0005    0.0000    0.0000   -0.0000    0.0075
      134 NB     6g1+      -0.0037    0.0000   -0.0012   -0.0000    0.0000   -0.0015   -0.0000    0.0000   -0.0000    0.0033
      135 NB     7g1+      -0.0012    0.0000   -0.0004   -0.0000    0.0000   -0.0009   -0.0000    0.0000   -0.0000    0.0010
      136 NB     8g1+      -0.0001   -0.0000   -0.0003   -0.0000    0.0000   -0.0002    0.0000   -0.0000   -0.0000    0.0005
      137 NB     5g2+       0.0000   -0.0000   -0.0014   -0.0000   -0.0000    0.0018   -0.0000   -0.0000   -0.0000    0.0024
      138 NB     6g2+       0.0000    0.0000   -0.0012   -0.0000   -0.0000    0.0007   -0.0000   -0.0000   -0.0000    0.0019
      139 NB     7g2+       0.0002    0.0000   -0.0007   -0.0000   -0.0000    0.0003   -0.0000   -0.0000   -0.0000    0.0009
      140 NB     8g2+       0.0001    0.0000   -0.0003   -0.0000   -0.0000    0.0002   -0.0000   -0.0000   -0.0000    0.0003
      141 NB     5g3+       0.0000    0.0017   -0.0000   -0.0000   -0.0000   -0.0000   -0.0013   -0.0016   -0.0000    0.0000
      142 NB     6g3+       0.0000   -0.0030   -0.0000   -0.0000    0.0000   -0.0000    0.0001   -0.0039   -0.0000    0.0000
      143 NB     7g3+       0.0000   -0.0006   -0.0000   -0.0000    0.0000   -0.0000    0.0001    0.0004   -0.0000    0.0000
      144 NB     8g3+       0.0000    0.0002   -0.0000    0.0000    0.0000   -0.0000   -0.0001    0.0003   -0.0000    0.0000
      145 NB     5g4+       0.0006   -0.0000    0.0002    0.0000   -0.0000    0.0025    0.0000    0.0000    0.0000   -0.0014
      146 NB     6g4+      -0.0028   -0.0000    0.0003    0.0000   -0.0000    0.0007    0.0000   -0.0000    0.0000   -0.0006
      147 NB     7g4+      -0.0008    0.0000    0.0001    0.0000   -0.0000    0.0002    0.0000    0.0000    0.0000   -0.0001
      148 NB     8g4+      -0.0001    0.0000   -0.0000   -0.0000   -0.0000    0.0002    0.0000   -0.0000    0.0000   -0.0000
      149 NB     6h5-       0.0000   -0.0000    0.0000   -0.0022   -0.0007   -0.0000    0.0000    0.0000    0.0051    0.0000
      150 NB     7h5-       0.0000    0.0000    0.0000   -0.0006   -0.0001   -0.0000    0.0000    0.0000    0.0013    0.0000
      151 NB     6h4-      -0.0000    0.0000   -0.0000    0.0005   -0.0020   -0.0000    0.0000   -0.0000   -0.0018   -0.0000
      152 NB     7h4-       0.0000   -0.0000   -0.0000    0.0003   -0.0004   -0.0000    0.0000    0.0000   -0.0006   -0.0000
      153 NB     6h3-       0.0000   -0.0000    0.0000   -0.0000    0.0000   -0.0000    0.0000    0.0000    0.0000    0.0000
      154 NB     7h3-      -0.0000    0.0000    0.0000   -0.0000    0.0000    0.0000    0.0000    0.0000    0.0000    0.0000
      155 NB     6h2-      -0.0000    0.0000    0.0000   -0.0018   -0.0007   -0.0000    0.0000    0.0000    0.0041    0.0000
      156 NB     7h2-       0.0000   -0.0000    0.0000   -0.0005   -0.0002   -0.0000    0.0000    0.0000    0.0011    0.0000
      157 NB     6h1-      -0.0000    0.0000   -0.0000    0.0011   -0.0025   -0.0000    0.0000   -0.0000   -0.0034   -0.0000
      158 NB     7h1-       0.0000    0.0000   -0.0000    0.0004   -0.0006   -0.0000    0.0000   -0.0000   -0.0011   -0.0000
      159 NB     6h0       -0.0000   -0.0004   -0.0000   -0.0000   -0.0000    0.0000   -0.0032   -0.0002   -0.0000    0.0000
      160 NB     7h0        0.0000   -0.0007   -0.0000   -0.0000   -0.0000    0.0000   -0.0006    0.0005   -0.0000    0.0000
      161 NB     6h1+      -0.0001    0.0000   -0.0011   -0.0000    0.0000   -0.0025   -0.0000    0.0000   -0.0000    0.0034
      162 NB     7h1+       0.0002    0.0000   -0.0004   -0.0000    0.0000   -0.0006   -0.0000    0.0000   -0.0000    0.0011
      163 NB     6h2+       0.0001   -0.0000   -0.0018   -0.0000   -0.0000    0.0007    0.0000   -0.0000   -0.0000    0.0041
      164 NB     7h2+      -0.0004    0.0000   -0.0005   -0.0000   -0.0000    0.0002    0.0000    0.0000   -0.0000    0.0011
      165 NB     6h3+      -0.0000   -0.0014   -0.0000   -0.0000   -0.0000    0.0000   -0.0004    0.0001    0.0000    0.0000
      166 NB     7h3+       0.0000    0.0009    0.0000    0.0000   -0.0000    0.0000   -0.0004    0.0008    0.0000   -0.0000
      167 NB     6h4+      -0.0008    0.0000   -0.0005   -0.0000    0.0000   -0.0020   -0.0000   -0.0000   -0.0000    0.0018
      168 NB     7h4+       0.0010    0.0000   -0.0003   -0.0000    0.0000   -0.0004   -0.0000    0.0000   -0.0000    0.0006
      169 NB     6h5+      -0.0001   -0.0000   -0.0022   -0.0000   -0.0000    0.0007    0.0000   -0.0000   -0.0000    0.0051
      170 NB     7h5+      -0.0002    0.0000   -0.0006   -0.0000   -0.0000    0.0001    0.0000    0.0000   -0.0000    0.0013

[...]
         3    7       7.12900943E-04  7.04286743E-07  1.10517240E+03  5.18591679E-19  1.10517240E+03
         3    9       1.84164279E-01  8.14649210E+06  1.19447645E+03  1.08936481E+06  9.23705139E+06
         3   11       1.62448274E-01  1.19447599E+03  8.14649520E+06  1.61062616E+02  8.14785074E+06
         3   13       1.97356938E-01  1.54049605E+06  4.49322372E-03  1.06013016E+07  1.21417977E+07
         3   15       2.50397525E-02  4.49338944E-03  1.54049637E+06  1.31304518E-04  1.54049638E+06
         3   17       5.57211342E-02  2.25194075E-03  3.53355444E+06  5.13465264E-12  3.53355444E+06
         4    8       7.12900943E-04  7.04286743E-07  1.10517240E+03  5.18591679E-19  1.10517240E+03
         4   10       1.84164279E-01  8.14649210E+06  1.19447645E+03  1.08936481E+06  9.23705139E+06
         4   12       1.62448274E-01  1.19447599E+03  8.14649520E+06  1.61062616E+02  8.14785074E+06
         4   14       1.97356938E-01  1.54049605E+06  4.49322372E-03  1.06013016E+07  1.21417977E+07
         4   16       2.50397525E-02  4.49338944E-03  1.54049637E+06  1.31304518E-04  1.54049638E+06
         4   18       5.57211342E-02  2.25194075E-03  3.53355444E+06  5.13465264E-12  3.53355444E+06
         5    7       7.12899756E-04  1.10516863E+03  7.04290175E-07  1.38316455E-11  1.10516863E+03
         5    9       1.62448202E-01  1.19447540E+03  8.14648905E+06  1.61062405E+02  8.14784459E+06
         5   11       1.84164228E-01  8.14648817E+06  1.19447554E+03  1.08936334E+06  9.23704599E+06
         5   13       2.50397472E-02  4.49357199E-03  1.54049542E+06  1.31306607E-04  1.54049543E+06
         5   15       1.97356901E-01  1.54049262E+06  4.49341626E-03  1.06013010E+07  1.21417936E+07
         5   17       5.57213235E-02  3.53356548E+06  2.25170869E-03  1.16431005E-06  3.53356548E+06
         6    8       7.12899756E-04  1.10516863E+03  7.04290175E-07  1.38316455E-11  1.10516863E+03
         6   10       1.62448202E-01  1.19447540E+03  8.14648905E+06  1.61062405E+02  8.14784459E+06
         6   12       1.84164228E-01  8.14648817E+06  1.19447554E+03  1.08936334E+06  9.23704599E+06
         6   14       2.50397472E-02  4.49357199E-03  1.54049542E+06  1.31306607E-04  1.54049543E+06
         6   16       1.97356901E-01  1.54049262E+06  4.49341626E-03  1.06013010E+07  1.21417936E+07
         6   18       5.57213235E-02  3.53356548E+06  2.25170869E-03  1.16431005E-06  3.53356548E+06
         7    9       1.99517249E-02  1.00073189E+02  6.79676409E+05  1.59571645E-10  6.79776482E+05
         7   11       1.99517048E-02  6.79675727E+05  1.00073292E+02  1.04850324E-06  6.79775800E+05
         7   13       1.60212821E-01  5.77128269E-03  6.97571633E+06  5.95940588E-12  6.97571634E+06
         7   15       1.60212850E-01  6.97571869E+06  5.77129069E-03  2.73038542E-06  6.97571870E+06
         7   17       2.61853905E-01  8.92105383E-07  3.98863141E-12  1.18187913E+07  1.18187913E+07
         8   10       1.99517249E-02  1.00073189E+02  6.79676409E+05  1.59571645E-10  6.79776482E+05
         8   12       1.99517048E-02  6.79675727E+05  1.00073292E+02  1.04850324E-06  6.79775800E+05
         8   14       1.60212821E-01  5.77128269E-03  6.97571633E+06  5.95940588E-12  6.97571634E+06
         8   16       1.60212850E-01  6.97571869E+06  5.77129069E-03  2.73038542E-06  6.97571870E+06
         8   18       2.61853905E-01  8.92105383E-07  3.98863141E-12  1.18187913E+07  1.18187913E+07
         9   13       1.32965343E-04  3.31134902E+01  4.85243568E-03  4.39790212E+01  7.70973638E+01
         9   15       5.71287447E-05  4.85245442E-03  3.31136762E+01  6.50605769E-03  3.31250347E+01
        10   14       1.32965343E-04  3.31134902E+01  4.85243568E-03  4.39790212E+01  7.70973638E+01
        10   16       5.71287447E-05  4.85245442E-03  3.31136762E+01  6.50605769E-03  3.31250347E+01
        11   13       5.71285704E-05  4.85242923E-03  3.31135301E+01  6.50606447E-03  3.31248886E+01
        11   15       1.32965378E-04  3.31136595E+01  4.85245672E-03  4.39789769E+01  7.70974888E+01
        12   14       5.71285704E-05  4.85242923E-03  3.31135301E+01  6.50606447E-03  3.31248886E+01
        12   16       1.32965378E-04  3.31136595E+01  4.85245672E-03  4.39789769E+01  7.70974888E+01
        13   17       1.18900316E-05  1.41070507E-10  1.70517095E-01  6.97959421E-19  1.70517095E-01
        14   18       1.18900316E-05  1.41070507E-10  1.70517095E-01  6.97959421E-19  1.70517095E-01
        15   17       1.18899351E-05  1.70514239E-01  1.41079894E-10  9.58161040E-13  1.70514239E-01
        16   18       1.18899351E-05  1.70514239E-01  1.41079894E-10  9.58161040E-13  1.70514239E-01
     -----------------------------------------------------------------------------------------------
--

++ Velocity transition strengths (SO states):
   ------------------------------------------
    for osc. strength at least    1.0000000000000001E-005

      From   To        Osc. strength     Einstein coefficients Ax, Ay, Az (sec-1)    Total A (sec-1)
     -----------------------------------------------------------------------------------------------
         1    3       3.24629609E-01  2.52313320E-02  3.95929501E+07  1.31365645E-13  3.95929501E+07
         1    5       3.24629608E-01  3.95929577E+07  2.52313114E-02  3.44796620E-10  3.95929578E+07
         1    7       3.19701514E-01  8.42795316E-09  1.28562639E-13  4.82795823E+07  4.82795823E+07
         1   13       4.60242577E-04  1.35837403E-04  1.64182691E+05  2.18388102E-15  1.64182691E+05
         1   15       4.60242092E-04  1.64182527E+05  1.35835821E-04  3.22581662E-08  1.64182528E+05
         1   17       1.63613482E-04  7.31056344E-09  7.98054628E-14  5.91084485E+04  5.91084485E+04
         2    4       3.24629609E-01  2.52313320E-02  3.95929501E+07  1.31365645E-13  3.95929501E+07
         2    6       3.24629608E-01  3.95929577E+07  2.52313114E-02  3.44796620E-10  3.95929578E+07
         2    8       3.19701514E-01  8.42795316E-09  1.28562639E-13  4.82795823E+07  4.82795823E+07
         2   14       4.60242577E-04  1.35837403E-04  1.64182691E+05  2.18388102E-15  1.64182691E+05
         2   16       4.60242092E-04  1.64182527E+05  1.35835821E-04  3.22581662E-08  1.64182528E+05
         2   18       1.63613482E-04  7.31056344E-09  7.98054628E-14  5.91084485E+04  5.91084485E+04
         3    7       1.22606272E-02  1.21125827E-05  1.90070640E+04  1.97985628E-15  1.90070640E+04
         3    9       3.93098279E-01  1.73749180E+07  2.54759109E+03  2.33907039E+06  1.97165360E+07
         3   11       3.46470114E-01  2.54759006E+03  1.73749248E+07  3.45831619E+02  1.73778183E+07
         3   13       4.10626965E-01  3.19068414E+06  9.30637029E-03  2.20720044E+07  2.52626886E+07
         3   15       5.18622970E-02  9.30672833E-03  3.19068483E+06  2.73377496E-04  3.19068484E+06
         3   17       1.15597685E-01  4.67182877E-03  7.33065002E+06  1.06560986E-11  7.33065003E+06
         4    8       1.22606272E-02  1.21125827E-05  1.90070640E+04  1.97985628E-15  1.90070640E+04
         4   10       3.93098279E-01  1.73749180E+07  2.54759109E+03  2.33907039E+06  1.97165360E+07
         4   12       3.46470114E-01  2.54759006E+03  1.73749248E+07  3.45831619E+02  1.73778183E+07
         4   14       4.10626965E-01  3.19068414E+06  9.30637029E-03  2.20720044E+07  2.52626886E+07
         4   16       5.18622970E-02  9.30672833E-03  3.19068483E+06  2.73377496E-04  3.19068484E+06
         4   18       1.15597685E-01  4.67182877E-03  7.33065002E+06  1.06560986E-11  7.33065003E+06
         5    7       1.22606296E-02  1.90070345E+04  1.21126845E-05  2.69519148E-09  1.90070345E+04
         5    9       3.46470003E-01  2.54758912E+03  1.73749140E+07  3.45831205E+02  1.73778074E+07
         5   11       3.93098218E-01  1.73749117E+07  2.54758947E+03  2.33906750E+06  1.97165268E+07
         5   13       5.18622956E-02  9.30712644E-03  3.19068343E+06  2.73381515E-04  3.19068344E+06
         5   15       4.10626941E-01  3.19067743E+06  9.30678572E-03  2.20720060E+07  2.52626834E+07
         5   17       1.15598091E-01  7.33067375E+06  4.67136254E-03  2.55473445E-06  7.33067375E+06
         6    8       1.22606296E-02  1.90070345E+04  1.21126845E-05  2.69519148E-09  1.90070345E+04
         6   10       3.46470003E-01  2.54758912E+03  1.73749140E+07  3.45831205E+02  1.73778074E+07
         6   12       3.93098218E-01  1.73749117E+07  2.54758947E+03  2.33906750E+06  1.97165268E+07
         6   14       5.18622956E-02  9.30712644E-03  3.19068343E+06  2.73381515E-04  3.19068344E+06
         6   16       4.10626941E-01  3.19067743E+06  9.30678572E-03  2.20720060E+07  2.52626834E+07
         6   18       1.15598091E-01  7.33067375E+06  4.67136254E-03  2.55473445E-06  7.33067375E+06
         7    9       5.02823606E-02  2.52205476E+02  1.71292724E+06  3.90099308E-10  1.71317945E+06
         7   11       5.02823156E-02  1.71292571E+06  2.52205707E+02  2.56597355E-06  1.71317792E+06
         7   13       3.85854346E-01  1.38995303E-02  1.68002773E+07  1.45810100E-11  1.68002774E+07
         7   15       3.85854397E-01  1.68002822E+07  1.38995492E-02  6.50489117E-06  1.68002822E+07
         7   17       6.29148456E-01  1.99871726E-06  9.11483052E-12  2.83967510E+07  2.83967510E+07
         8   10       5.02823606E-02  2.52205476E+02  1.71292724E+06  3.90099308E-10  1.71317945E+06
         8   12       5.02823156E-02  1.71292571E+06  2.52205707E+02  2.56597355E-06  1.71317792E+06
         8   14       3.85854346E-01  1.38995303E-02  1.68002773E+07  1.45810100E-11  1.68002774E+07
         8   16       3.85854397E-01  1.68002822E+07  1.38995492E-02  6.50489117E-06  1.68002822E+07
         8   18       6.29148456E-01  1.99871726E-06  9.11483052E-12  2.83967510E+07  2.83967510E+07
         9   13       1.41383849E-02  8.13279414E+03  1.19177441E+00  6.39096704E+01  8.19789558E+03
         9   15       1.40281976E-02  1.19177306E+00  8.13281522E+03  9.45424257E-03  8.13401644E+03
         9   17       4.78008357E-03  5.46460891E-01  3.71143999E+03  2.47349372E-14  3.71198645E+03
        10   14       1.41383849E-02  8.13279414E+03  1.19177441E+00  6.39096704E+01  8.19789558E+03
        10   16       1.40281976E-02  1.19177306E+00  8.13281522E+03  9.45424257E-03  8.13401644E+03
        10   18       4.78008357E-03  5.46460891E-01  3.71143999E+03  2.47349372E-14  3.71198645E+03
        11   13       1.40281794E-02  1.19177430E+00  8.13279362E+03  9.45451915E-03  8.13399485E+03
        11   15       1.41383478E-02  8.13278554E+03  1.19177748E+00  6.39078600E+01  8.19788517E+03
        11   17       4.78009212E-03  3.71144663E+03  5.46460184E-01  1.68905231E-10  3.71199309E+03
        12   14       1.40281794E-02  1.19177430E+00  8.13279362E+03  9.45451915E-03  8.13399485E+03
        12   16       1.41383478E-02  8.13278554E+03  1.19177748E+00  6.39078600E+01  8.19788517E+03
        12   18       4.78009212E-03  3.71144663E+03  5.46460184E-01  1.68905231E-10  3.71199309E+03
        13   17       2.94155730E-01  3.49017212E-06  4.21855522E+03  1.94543475E-16  4.21855522E+03
        14   18       2.94155730E-01  3.49017212E-06  4.21855522E+03  1.94543475E-16  4.21855522E+03
        15   17       2.94157331E-01  4.21854175E+03  3.49015186E-06  1.92542478E-09  4.21854176E+03
        16   18       2.94157331E-01  4.21854175E+03  3.49015186E-06  1.92542478E-09  4.21854176E+03
     -----------------------------------------------------------------------------------------------
--

++ Length and velocity gauge comparison (SO states):

 --------------------------------------------------
 A comparison between the dipole oscillator strengths in 
 length and velocity gauge will be performed

 All dipole oscillator differences above the tolerance of   0.10000000000000001       will be printed 

 Due to basis set deficiency these oscillator may be problematic 

 The tolerance is defined as ABS(1-O_l/O_v) 
 O_l : dipole oscillator strength in length gauge
 O_p : dipole oscillator strength in velocity gauge
 --------------------------------------------------

  Problematic transitions have been found

      From   To       Difference (%) Osc. st. (len.) Osc. st. (vel.)
     ---------------------------------------------------------------
         1    3            17.938134  3.82862104E-01  3.24629609E-01
         1    5            17.938133  3.82862098E-01  3.24629608E-01
         1    7            18.391400  3.78499099E-01  3.19701514E-01
         1   13            73.795909  1.20602384E-04  4.60242577E-04
         1   15            73.795958  1.20602030E-04  4.60242092E-04
         1   17      --------------- below threshold  1.63613482E-04
         2    4            17.938134  3.82862104E-01  3.24629609E-01
         2    6            17.938133  3.82862098E-01  3.24629608E-01
         2    8            18.391400  3.78499099E-01  3.19701514E-01
         2   14            73.795909  1.20602384E-04  4.60242577E-04
         2   16            73.795958  1.20602030E-04  4.60242092E-04
         2   18      --------------- below threshold  1.63613482E-04
         3    7            94.185445  7.12900943E-04  1.22606272E-02
         3    9            53.150576  1.84164279E-01  3.93098279E-01
         3   11            53.113337  1.62448274E-01  3.46470114E-01
         3   13            51.937658  1.97356938E-01  4.10626965E-01
         3   15            51.718775  2.50397525E-02  5.18622970E-02
         3   17            51.797362  5.57211342E-02  1.15597685E-01
         4    8            94.185445  7.12900943E-04  1.22606272E-02
         4   10            53.150576  1.84164279E-01  3.93098279E-01
         4   12            53.113337  1.62448274E-01  3.46470114E-01
         4   14            51.937658  1.97356938E-01  4.10626965E-01
         4   16            51.718775  2.50397525E-02  5.18622970E-02
         4   18            51.797362  5.57211342E-02  1.15597685E-01
         5    7            94.185456  7.12899756E-04  1.22606296E-02
         5    9            53.113343  1.62448202E-01  3.46470003E-01
         5   11            53.150582  1.84164228E-01  3.93098218E-01
         5   13            51.718783  2.50397472E-02  5.18622956E-02
         5   15            51.937664  1.97356901E-01  4.10626941E-01
         5   17            51.797367  5.57213235E-02  1.15598091E-01
         6    8            94.185456  7.12899756E-04  1.22606296E-02
         6   10            53.113343  1.62448202E-01  3.46470003E-01
         6   12            53.150582  1.84164228E-01  3.93098218E-01
         6   14            51.718783  2.50397472E-02  5.18622956E-02
         6   16            51.937664  1.97356901E-01  4.10626941E-01
         6   18            51.797367  5.57213235E-02  1.15598091E-01
         7    9            60.320628  1.99517249E-02  5.02823606E-02
         7   11            60.320632  1.99517048E-02  5.02823156E-02
         7   13            58.478420  1.60212821E-01  3.85854346E-01
         7   15            58.478418  1.60212850E-01  3.85854397E-01
         7   17            58.379632  2.61853905E-01  6.29148456E-01
         8   10            60.320628  1.99517249E-02  5.02823606E-02
         8   12            60.320632  1.99517048E-02  5.02823156E-02
         8   14            58.478420  1.60212821E-01  3.85854346E-01
         8   16            58.478418  1.60212850E-01  3.85854397E-01
         8   18            58.379632  2.61853905E-01  6.29148456E-01
         9   13            99.059544  1.32965343E-04  1.41383849E-02
         9   15            99.592758  5.71287447E-05  1.40281976E-02
         9   17      --------------- below threshold  4.78008357E-03
        10   14            99.059544  1.32965343E-04  1.41383849E-02
        10   16            99.592758  5.71287447E-05  1.40281976E-02
        10   18      --------------- below threshold  4.78008357E-03
        11   13            99.592758  5.71285704E-05  1.40281794E-02
        11   15            99.059541  1.32965378E-04  1.41383478E-02
        11   17      --------------- below threshold  4.78009212E-03
        12   14            99.592758  5.71285704E-05  1.40281794E-02
        12   16            99.059541  1.32965378E-04  1.41383478E-02
        12   18      --------------- below threshold  4.78009212E-03
        13   17            99.995958  1.18900316E-05  2.94155730E-01
        14   18            99.995958  1.18900316E-05  2.94155730E-01
        15   17            99.995958  1.18899351E-05  2.94157331E-01
        16   18            99.995958  1.18899351E-05  2.94157331E-01
     ---------------------------------------------------------------

 Number of problematic transitions =                    62

--

 Electric-dipole - electric-octupole not included
++ I/O STATISTICS
 
  I. General I/O information
  - - - - - - - - - - - - - - - - - - - - - - - - - - - - - - - - - - - - - - - - - - -
  Unit  Name          Flsize      Write/Read            MBytes           Write/Read
                      (MBytes)       Calls              In/Out           Time, sec.
  - - - - - - - - - - - - - - - - - - - - - - - - - - - - - - - - - - - - - - - - - - -
   1  SCRATCH           0.00 .       9/      45 .      0.0/      0.0 .       0/       0
   2  ANNI              0.00 .       0/       0 .      0.0/      0.0 .       0/       0
   3  RUNFILE          14.67 .     322/   10031 .      2.3/     72.7 .       0/       0
   4  ONEINT            5.14 .       0/   22237 .      0.0/   3722.5 .       0/       0
   5  JOBIPH            5.92 .       0/      92 .      0.0/      0.7 .       0/       0
   6  ORDINT          403.03 .       1/    3225 .      0.0/    806.0 .       0/       0
  - - - - - - - - - - - - - - - - - - - - - - - - - - - - - - - - - - - - - - - - - - -
   *  TOTAL           428.76 .     332/   35630 .      2.3/   4602.0 .       0/       0
  - - - - - - - - - - - - - - - - - - - - - - - - - - - - - - - - - - - - - - - - - - -
 
  II. I/O Access Patterns
  - - - - - - - - - - - - - - - - - - - -
  Unit  Name               % of random
                         Write/Read calls
  - - - - - - - - - - - - - - - - - - - -
   1  SCRATCH             88.9/ 100.0
   2  ANNI                 0.0/   0.0
   3  RUNFILE             28.6/  10.8
   4  ONEINT               0.0/  17.4
   5  JOBIPH               0.0/  76.1
   6  ORDINT             100.0/   0.1
  - - - - - - - - - - - - - - - - - - - -
--
--- Stop Module: rassi at Fri Jan 10 02:30:49 2025 /rc=_RC_ALL_IS_WELL_ ---
*** files: xmldump
    saved to directory /home4/s4752295/Internship/Initial_simulations/Point_charge_model/1_electron/active_space_9_non_rel/Nb/varying_bond_length
--- Module rassi spent 3 seconds ---

.##################.
.# Happy landing! #.
.##################.

    Timing: Wall=43.79 User=32.60 System=6.98

###############################################################################
Hbrk Cluster
Job 14556694 for user s4752295
Finished at: Fri Jan 10 02:30:49 CET 2025

Job details:
============

Job ID                         : 14556694
Name                           : Nb_no_c_light
User                           : s4752295
Partition                      : regularmedium
Nodes                          : node101
Number of Nodes                : 1
Cores                          : 1
Number of Tasks                : 1
State                          : RUNNING  
Submit                         : 2025-01-10T02:30:00
Start                          : 2025-01-10T02:30:01
End                            : --
Reserved walltime              : 15:00:00
Used walltime                  : 00:00:48
Used CPU time                  : -- 
% User (Computation)           : --
% System (I/O)                 : --
Total memory reserved          : 25000M
Maximum memory used            : --

Acknowledgements:
=================

Please see this page for information about acknowledging Hbrk in your publications:

https://wiki.hpc.rug.nl/habrok/introduction/scientific_output

################################################################################
