   This run of MOLCAS is using the pymolcas driver

                             OPE
                             OPE          NMOL  CASOP  ENMOLC A   SO
                 OPE        NMOLC        AS  OP EN  MO LC     AS  OP
                OPENM       OL CA        SO  PE NM  OL CA     SOP EN
                OP EN      MO   LC       AS  OP ENMOL  CASO   PENMOL
                OP  EN     MO   LC       AS  OP EN     MO     LC ASO
               OP   E  NMOL  C  AS       OP  EN MO     LC     AS  OP
               OP  E   NMO   LC AS        OPEN  MO     LCASOP EN   M
               O  PEN   MO  LCA  SO
            OPE   NMO   L   CAS    OP
        OPENMOL  CASOP     ENMOL   CASOPE
     OPENMOLCA   SOPENMOLCASOPEN   MOLCASOPE
    OPENMOLCAS   OP           EN   MOL    CAS
    OPENMOLCAS       OP  ENM        O     LCA
    OPENMOLCAS    OPEN  MOLCASO     P  E  NMO
    OPENMOLCAS     OP               E  N  MOL
    OPENMOLCA   SO           PENM   O  L  CAS    OPEN    MO    LCAS
    OPENMOLCA   SOP           ENM   O  L  CAS   OP  EN  MOLC  AS   O
    OPENMOLCA   SOPE           NM      O  LCA   S      OP  EN MO
    OPENMOLC                AS         O  PEN   M      OL  CA  SOPE
    OPENMO        LCASOPE  NMOL        C  ASO   P      ENMOLC     AS
    OPE     NMO      LCA  SO     P     E   NM   OL  CA SO  PE N   MO
          OPENMOLCA            SOPE   NMO        LCAS  O    P  ENMO
     OPENMOLCASOPENMOLCASOPENMOLCASOPENMOLCA
        OPENMOLCASOPENMOLCASOPENMOLCASOPE
            OPENMOLCASOPENMOLCASOPENM
               OPENMOLCASOPENMOLCA        version: o91e1abe7de707b ?
                   OPENMOLCASO
                       OPE                tag:

 OpenMolcas is free software; you can redistribute it and/or modify it
 under the terms of the GNU Lesser General Public License version 2.1.
 OpenMolcas is distributed in the hope that it will be useful, but it
 is provided "as is" and without any express or implied warranties.
 For more details see the full text of the license in the file
 LICENSE or in <http://www.gnu.org/licenses/>.

                 Copyright (C) The OpenMolcas Authors
           For the author list and the recommended citation,
                   consult the file CONTRIBUTORS.md

           *************************************************
           * pymolcas version py2.10                       *
           *   build 3068ae8b88c9345ec6cfef6fef7f1169      *
           *   (after the EMIL interpreter by V. Veryazov) *
           *************************************************

configuration info
------------------
Host name: login1 (Linux)
C Compiler ID: GNU
C flags: -std=gnu99
Fortran Compiler ID: GNU
Fortran flags: -fno-aggressive-loop-optimizations -cpp -fdefault-integer-8 -fmax-stack-var-size=1048576
Definitions: _MOLCAS_;_I8_;_LINUX_;_MKL_
Parallel: OFF (GA=OFF)


   ----------------------------------------------------------------------------------------------------------------------------------------------
  |
  |           Project: niobium_so_cf
  |    Submitted from: /home4/s4752295/Internship/Initial_simulations/Point_charge_model/1_electron/active_space_9_non_rel/Nb/varying_bond_length
  |      Scratch area: /tmp/niobium_so_cf
  |   Save outputs to: /home4/s4752295/Internship/Initial_simulations/Point_charge_model/1_electron/active_space_9_non_rel/Nb/varying_bond_length
  |            Molcas: /home4/s4752295/Internship/Molcas/recomp_try/OpenMolcas-master/build
  |
  | Scratch area is empty
  |
  |    MOLCAS_DRIVER = /home4/s4752295/Internship/Molcas/bin/pymolcas
  |    MOLCAS_NPROCS = 1
  |    MOLCAS_SOURCE = /home4/s4752295/Internship/Molcas/recomp_try/OpenMolcas-master
  | MOLCAS_STRUCTURE = 0
  |
   ----------------------------------------------------------------------------------------------------------------------------------------------

++ ---------   Input file   ---------

&SEWARD
AMFi

CLIG
$R

Basis Set
Nb.ANO-rcc.Roos.21s18p13d6f4g2h.10s9p8d5f4g2h.
Spherical d
Nb            0.0       0.0     0.0
End of Basis

Xfield

4
0.000000,  0.00000,  0.3150     -1.0
0.272798,  0.00000, -0.1575     -1.0
-0.136399,  0.23625, -0.1575    -1.0
-0.136399, -0.23625, -0.1575    -1.0

End of input

&SCF
Occupied
18
Iterations
   50  100
End of Input

&RASSCF
LumOrb
Symmetry
1
Spin
2
Nactel
1 0 0
CIRoot
9 9 1
inactive
18
ras2
9
Alter
4
1 19 24
1 20 25
1 21 26
1 22 27
End of Input

>>> COPY niobium_so_cf.JobIph $SLURM_SUBMIT_DIR/niobium_so_cf.doublet.JobIph

>>> COPY $SLURM_SUBMIT_DIR/niobium_so_cf.doublet.JobIph ./JOB002

&RASSI
NROFJobIph
1 All
SpinOrbit
End of Input

EOF

-- ----------------------------------

--- Start Module: seward at Thu Jan  9 20:42:08 2025 ---

()()()()()()()()()()()()()()()()()()()()()()()()()()()()()()()()()()()()()()()()()()()()()()()()()()

                                              &SEWARD

                                   only a single process is used
                       available to each process: 4.1 GB of memory, 1 thread?
                                            pid: 194755
()()()()()()()()()()()()()()()()()()()()()()()()()()()()()()()()()()()()()()()()()()()()()()()()()()

 The speed of LIGHT in this CALCULATION =   137.03599917700001     
               SEWARD will generate:
                  Multipole Moment integrals up to order  2
                  Kinetic Energy integrals
                  Nuclear Attraction integrals (point charge)
                  One-Electron Hamiltonian integrals
                  Velocity integrals
                  Relativistic Douglas-Kroll-Hess integrals:
                    - Parametrization         : EXP
                    - DKH order of Hamiltonian: 2
                    - DKH order of Properties : 0
                         - multipole moment operators
                         - electric potential operators
                         - contact operators
                  External field from     4 point(s) added to the one-electron Hamiltonian
                  Orbital angular momentum around ( 0.0000  0.0000  0.0000 )
                  Velocity quadrupole around ( 0.0000  0.0000  0.0000 )
                  Atomic mean-field integrals
                  Two-Electron Repulsion integrals

                   Integrals are discarded if absolute value <: 0.10E-13
                   Integral cutoff threshold is set to       <: 0.10E-15

++    Symmetry information:
      ---------------------

                    Character Table for C1 

                             E  
                    a        1  x, y, xy, Rz, z, xz, Ry, yz, Rx, I
--


++    Basis set information:
      ----------------------


      Basis set label: NB.ANO-RCC.ROOS.21S18P13D6F4G2H.10S9P8D5F4G2H......

      Electronic valence basis set:
      ------------------
      Associated Effective Charge  41.000000 au
      Associated Actual Charge     41.000000 au
      Nuclear Model: Point charge

      Shell  nPrim  nBasis  Cartesian Spherical Contaminant
         s      21      10        X                  
         p      18       9        X                  
         d      13       8                 X         
         f       6       5                 X         
         g       4       4                 X         
         h       2       2                 X         
--


++    Molecular structure info:
      -------------------------

                    ************************************************ 
                    **** Cartesian Coordinates / Bohr, Angstrom **** 
                    ************************************************ 

     Center  Label                x              y              z                     x              y              z
        1      NB               0.000000       0.000000       0.000000              0.000000       0.000000       0.000000
--


++    Operator info:
      --------------


  Net charge from external field:   -4.0000000000000000     
--


            Nuclear Potential Energy              0.00000000 au

                    Nuclear-External Field Potential Energy    -520.63492181 au
                    External Field Potential Energy              11.84778037 au 


            Total Nuclear Potential Energy           -520.63492181 au


      Basis set specifications :
      Symmetry species         a  
      Basis functions          170

 Sorry, Molden does not know how to handle
 functions with angular momentum larger than g
Note: The following floating-point exceptions are signalling: IEEE_UNDERFLOW_FLAG IEEE_DENORMAL
--- Stop Module: seward at Thu Jan  9 20:42:17 2025 /rc=_RC_ALL_IS_WELL_ ---
*** files: niobium_so_cf.GssOrb xmldump
    saved to directory /home4/s4752295/Internship/Initial_simulations/Point_charge_model/1_electron/active_space_9_non_rel/Nb/varying_bond_length
--- Module seward spent 9 seconds ---

*** symbolic link created: INPORB -> niobium_so_cf.GssOrb
--- Start Module: scf at Thu Jan  9 20:42:17 2025 ---

()()()()()()()()()()()()()()()()()()()()()()()()()()()()()()()()()()()()()()()()()()()()()()()()()()

                                                &SCF

                                   only a single process is used
                       available to each process: 4.1 GB of memory, 1 thread?
                                            pid: 194929
()()()()()()()()()()()()()()()()()()()()()()()()()()()()()()()()()()()()()()()()()()()()()()()()()()

++    Input section:
      --------------

      Header of the integral files:
      
       Integrals generated by seward 4.2.0  , Thu Jan  9 20:42:09 2025


      Cartesian coordinates in Angstrom:
      -----------------------------------------------------
      No.  Label        X            Y            Z        
      -----------------------------------------------------
       1   NB         0.00000000   0.00000000   0.00000000
      -----------------------------------------------------
      Nuclear repulsion energy = -520.63492181
--

++    Orbital specifications:
      -----------------------

      Symmetry species               1
                                     a
      Frozen orbitals                0
      Occupied orbitals             18
      Secondary orbitals           152
      Deleted orbitals               0
      Total number of orbitals     170
      Number of basis functions    170
--

      Molecular charge                           5.000

++    Optimization specifications:
      ----------------------------

      SCF Algorithm: Conventional
      Minimized density differences are used
      Number of density matrices in core                5
      Maximum number of NDDO SCF iterations            50
      Maximum number of HF SCF iterations             100
      Threshold for SCF energy change            0.10E-08
      Threshold for density matrix               0.10E-03
      Threshold for Fock matrix                  0.15E-03
      Threshold for linear dependence            0.10E-08
      Threshold at which DIIS is turned on       0.15E+00
      Threshold at which QNR/C2DIIS is turned on 0.75E-01
      Threshold for Norm(delta) (QNR/C2DIIS)     0.20E-04
      DIIS extrapolation of the SCF procedure
      All orbitals punched on: SCFORB
--

      Detected guessorb starting orbitals                                             


++ Convergence information
                                   SCF        iterations: Energy and convergence statistics

Iter     Tot. SCF        One-elec.       Two-elec.     Energy      Max Dij or  Max Fij      DNorm      TNorm      AccCon     Time
         Energy          Energy          Energy        Change      Delta Norm                                                in Sec.

 The total and one-electron energies are shifted by a value of      4000. a.u.

   1    -3.044674202  -837.814188443  1355.404436053   0.00E+00    0.48E+00*   0.18E+01*    0.85E+01   0.49E+03   None         1.
   2    -7.017108190  -639.983124669  1153.600938291  -0.40E+01*   0.12E+00*   0.85E+00*    0.44E+01   0.45E+03   EDIIS        1.
   3   -10.771050707  -748.843043254  1258.706914359  -0.38E+01*   0.99E-01*   0.32E+00*    0.67E+00   0.47E+03   EDIIS        1.
   4   -10.925762743  -714.775140987  1224.484300055  -0.15E+00*   0.23E-01*   0.16E+00*    0.13E+00   0.46E+03   EDIIS        1.
   5   -11.015255219  -731.993364726  1241.613031319  -0.89E-01*   0.17E-01*   0.64E-01*    0.36E-01   0.47E+03   EDIIS        1.
   6   -11.021279998  -725.364306994  1234.977948808  -0.60E-02*   0.10E-02*   0.24E-01*    0.87E-02   0.47E+03   c2DIIS       1.
   7   -11.025092967  -727.918945447  1237.528774291  -0.38E-02*   0.50E-03*   0.25E-03*    0.67E-03   0.47E+03   QNRc2DIIS    1.
   8   -11.025093990  -727.910944260  1237.520772081  -0.10E-05*   0.29E-03*   0.92E-04     0.87E-04   0.47E+03   QNRc2DIIS    1.
   9   -11.025094122  -727.917534745  1237.527362435  -0.13E-06*   0.26E-04*   0.53E-04     0.89E-04   0.47E+03   QNRc2DIIS    1.
  10   -11.025094131  -727.913721486  1237.523549167  -0.83E-08*   0.64E-05    0.89E-05     0.74E-03   0.47E+03   QNRc2DIIS    1.
  11   -11.025094131  -727.914081835  1237.523909516  -0.23E-09    0.38E-06    0.22E-06     0.61E-02   0.47E+03   QNRc2DIIS    1.

       Convergence after 11 Macro Iterations
--

 *****************************************************************************************************************************
 *                                                                                                                           *
 *                                             SCF/KS-DFT Program, Final results                                             *
 *                                                                                                                           *
 *                                                                                                                           *
 *                                                                                                                           *
 *                                                       Final Results                                                       *
 *                                                                                                                           *
 *****************************************************************************************************************************

::    Total SCF energy                              -4011.0250941308
      One-electron energy                           -4727.9140818348
      Two-electron energy                            1237.5239095155
      Nuclear repulsion energy                       -520.6349218116
      Kinetic energy (interpolated)                  4042.8272052043
      Virial theorem                                    0.9921336952
      Total spin, S(S+1)                                0.0000000000
      Total spin, S                                     0.0000000000
      Max non-diagonal density matrix element           0.0000003276
      Max non-diagonal Fock matrix element              0.0000000527


      All orbitals with orbital energies smaller than  E(LUMO)+0.5 are printed

++    Molecular orbitals:
      -------------------

      Title: SCF orbitals

      Molecular orbitals for symmetry species 1: a  

          Orbital            1         2         3         4         5         6         7         8         9        10    
          Energy         -697.8720  -96.5350  -85.7691  -85.7691  -85.5058  -14.5121  -11.0455  -11.0455  -10.4985   -5.0154
          Occ. No.          2.0000    2.0000    2.0000    2.0000    2.0000    2.0000    2.0000    2.0000    2.0000    2.0000

        1 NB     1s         1.0000    0.0001    0.0000    0.0000   -0.0001   -0.0000   -0.0000    0.0000    0.0000   -0.0000
        2 NB     2s        -0.0001    0.9995    0.0000    0.0000   -0.0311    0.0027    0.0000    0.0000   -0.0016   -0.0000
        3 NB     3s         0.0001   -0.0031    0.0000   -0.0000    0.0009    0.9918    0.0000   -0.0000   -0.0998   -0.0000
        4 NB     4s        -0.0000    0.0013   -0.0000   -0.0000   -0.0003    0.0546    0.0000    0.0000   -0.0177   -0.0000
        5 NB     5s         0.0000   -0.0003    0.0000    0.0000    0.0001   -0.0112   -0.0000   -0.0000    0.0034    0.0000
        6 NB     6s        -0.0000    0.0004   -0.0000   -0.0000   -0.0001    0.0135    0.0000    0.0000   -0.0041   -0.0000
        7 NB     7s         0.0000   -0.0011    0.0000    0.0000    0.0003   -0.0308   -0.0000   -0.0000    0.0090    0.0000
        8 NB     8s        -0.0000    0.0011   -0.0000    0.0000   -0.0003    0.0222    0.0000   -0.0000   -0.0061   -0.0000
        9 NB     9s         0.0000   -0.0016   -0.0000   -0.0000    0.0004   -0.0198   -0.0000    0.0000    0.0052    0.0000
       10 NB    10s        -0.0001    0.0024    0.0000   -0.0000   -0.0006    0.0058    0.0000    0.0000   -0.0015   -0.0000
       11 NB     2px       -0.0000   -0.0000    1.0000    0.0008   -0.0000   -0.0000    0.0020    0.0000   -0.0000   -0.0002
       12 NB     3px        0.0000   -0.0000   -0.0029   -0.0000    0.0000   -0.0000    0.9890    0.0000   -0.0000   -0.0021
       13 NB     4px       -0.0000    0.0000    0.0011    0.0000   -0.0000    0.0000    0.0604    0.0000   -0.0000    0.0017
       14 NB     5px        0.0000   -0.0000   -0.0004   -0.0000    0.0000   -0.0000   -0.0169   -0.0000    0.0000   -0.0004
       15 NB     6px       -0.0000    0.0000    0.0010    0.0000   -0.0000    0.0000    0.0371    0.0000   -0.0000    0.0009
       16 NB     7px        0.0000   -0.0000   -0.0010   -0.0000    0.0000   -0.0000   -0.0261   -0.0000    0.0000   -0.0006
       17 NB     8px       -0.0000    0.0000    0.0013    0.0000   -0.0000    0.0000    0.0218    0.0000   -0.0000    0.0005
       18 NB     9px        0.0000   -0.0000   -0.0015   -0.0000    0.0000   -0.0000   -0.0133   -0.0000    0.0000   -0.0004
       19 NB    10px       -0.0000    0.0000    0.0019    0.0000   -0.0000    0.0000    0.0021    0.0000   -0.0000    0.0001
       20 NB     2py        0.0000    0.0000   -0.0008    1.0000    0.0000    0.0000   -0.0000    0.0020   -0.0000    0.0000
       21 NB     3py       -0.0000   -0.0000    0.0000   -0.0029   -0.0000    0.0000   -0.0000    0.9890    0.0000    0.0000
       22 NB     4py        0.0000    0.0000   -0.0000    0.0011    0.0000   -0.0000   -0.0000    0.0604    0.0000   -0.0000
       23 NB     5py       -0.0000   -0.0000    0.0000   -0.0004   -0.0000    0.0000    0.0000   -0.0169    0.0000    0.0000
       24 NB     6py        0.0000    0.0000   -0.0000    0.0010    0.0000   -0.0000   -0.0000    0.0371    0.0000   -0.0000
       25 NB     7py       -0.0000   -0.0000    0.0000   -0.0010   -0.0000    0.0000    0.0000   -0.0261   -0.0000    0.0000
       26 NB     8py        0.0000    0.0000   -0.0000    0.0013    0.0000   -0.0000   -0.0000    0.0218    0.0000   -0.0000
       27 NB     9py       -0.0000   -0.0000    0.0000   -0.0015   -0.0000    0.0000    0.0000   -0.0133   -0.0000    0.0000
       28 NB    10py        0.0000    0.0000   -0.0000    0.0019    0.0000   -0.0000   -0.0000    0.0021    0.0000   -0.0000
       29 NB     2pz        0.0001    0.0311    0.0000    0.0000    0.9995   -0.0003    0.0000   -0.0000    0.0043    0.0000
       30 NB     3pz       -0.0000    0.0012   -0.0000   -0.0000   -0.0048    0.0999    0.0000   -0.0000    0.9875    0.0000
       31 NB     4pz        0.0000   -0.0004    0.0000    0.0000    0.0016   -0.0006    0.0000   -0.0000    0.0770    0.0000
       32 NB     5pz       -0.0000    0.0001   -0.0000   -0.0000   -0.0006    0.0002   -0.0000    0.0000   -0.0214   -0.0000
       33 NB     6pz        0.0000   -0.0004    0.0000    0.0000    0.0015   -0.0004    0.0000   -0.0000    0.0470    0.0000
       34 NB     7pz       -0.0000    0.0004   -0.0000   -0.0000   -0.0015    0.0003   -0.0000    0.0000   -0.0330   -0.0000
       35 NB     8pz        0.0000   -0.0005    0.0000    0.0000    0.0020   -0.0002    0.0000   -0.0000    0.0274    0.0000
       36 NB     9pz       -0.0000    0.0006   -0.0000   -0.0000   -0.0022    0.0001   -0.0000    0.0000   -0.0169   -0.0000
       37 NB    10pz        0.0000   -0.0008    0.0000    0.0000    0.0028    0.0005   -0.0000    0.0000    0.0025    0.0000
       38 NB     3d2-      -0.0000   -0.0000   -0.0000    0.0027    0.0000    0.0000   -0.0000    0.0650    0.0000    0.0000
       39 NB     4d2-      -0.0000   -0.0000    0.0000   -0.0005   -0.0000   -0.0000    0.0000   -0.0032   -0.0000    0.0000
       40 NB     5d2-       0.0000    0.0000   -0.0000    0.0006    0.0000    0.0000   -0.0000    0.0032    0.0000   -0.0000
       41 NB     6d2-      -0.0000   -0.0000    0.0000   -0.0005   -0.0000   -0.0000    0.0000   -0.0028   -0.0000    0.0000
       42 NB     7d2-       0.0000    0.0000   -0.0000    0.0005    0.0000    0.0000   -0.0000    0.0025    0.0000   -0.0000
       43 NB     8d2-      -0.0000   -0.0000    0.0000   -0.0008   -0.0000   -0.0000    0.0000   -0.0027   -0.0000    0.0000
       44 NB     9d2-       0.0000    0.0000   -0.0000    0.0009    0.0000    0.0000   -0.0000    0.0019    0.0000   -0.0000
       45 NB    10d2-       0.0000    0.0000   -0.0000    0.0012    0.0000   -0.0000    0.0000   -0.0002   -0.0000   -0.0000
       46 NB     3d1-       0.0000    0.0000   -0.0000    0.0046    0.0000    0.0000   -0.0000    0.1038    0.0000   -0.0000
       47 NB     4d1-       0.0000   -0.0000    0.0000   -0.0009   -0.0000   -0.0000    0.0000   -0.0042   -0.0000   -0.0000
       48 NB     5d1-      -0.0000    0.0000   -0.0000    0.0010    0.0000    0.0000   -0.0000    0.0041    0.0000    0.0000
       49 NB     6d1-       0.0000   -0.0000    0.0000   -0.0009   -0.0000   -0.0000    0.0000   -0.0035   -0.0000   -0.0000
       50 NB     7d1-      -0.0000    0.0000   -0.0000    0.0009    0.0000    0.0000   -0.0000    0.0030    0.0000    0.0000
       51 NB     8d1-      -0.0000   -0.0000    0.0000   -0.0014   -0.0000   -0.0000    0.0000   -0.0030    0.0000   -0.0000
       52 NB     9d1-       0.0000    0.0000   -0.0000    0.0016    0.0000    0.0000   -0.0000    0.0018   -0.0000    0.0000
       53 NB    10d1-       0.0000    0.0000   -0.0000    0.0023    0.0000    0.0000    0.0000   -0.0014   -0.0000    0.0000
       54 NB     3d0       -0.0000   -0.0022   -0.0000   -0.0000   -0.0020   -0.0346   -0.0000    0.0000   -0.0591   -0.0000
       55 NB     4d0        0.0000    0.0004    0.0000    0.0000    0.0004    0.0023    0.0000   -0.0000    0.0039   -0.0000
       56 NB     5d0       -0.0000   -0.0005   -0.0000   -0.0000   -0.0004   -0.0023   -0.0000   -0.0000   -0.0040    0.0000
       57 NB     6d0        0.0000    0.0004    0.0000    0.0000    0.0004    0.0020    0.0000   -0.0000    0.0036   -0.0000
       58 NB     7d0       -0.0000   -0.0004   -0.0000   -0.0000   -0.0004   -0.0018   -0.0000    0.0000   -0.0032    0.0000
       59 NB     8d0        0.0000    0.0007    0.0000    0.0000    0.0006    0.0019    0.0000   -0.0000    0.0039   -0.0000
       60 NB     9d0       -0.0000   -0.0008   -0.0000   -0.0000   -0.0005   -0.0012   -0.0000    0.0000   -0.0030    0.0000
       61 NB    10d0       -0.0000   -0.0011    0.0000    0.0000   -0.0006    0.0006    0.0000    0.0000   -0.0013    0.0000
       62 NB     3d1+       0.0000    0.0000    0.0046    0.0000   -0.0000    0.0000    0.1038    0.0000   -0.0000    0.5380
       63 NB     4d1+      -0.0000   -0.0000   -0.0009   -0.0000    0.0000   -0.0000   -0.0042   -0.0000    0.0000    0.0435
       64 NB     5d1+       0.0000    0.0000    0.0010    0.0000   -0.0000    0.0000    0.0041    0.0000   -0.0000   -0.0374
       65 NB     6d1+      -0.0000   -0.0000   -0.0009   -0.0000    0.0000   -0.0000   -0.0035   -0.0000    0.0000    0.0277
       66 NB     7d1+       0.0000    0.0000    0.0009    0.0000   -0.0000    0.0000    0.0030    0.0000   -0.0000   -0.0209
       67 NB     8d1+      -0.0000   -0.0000   -0.0014   -0.0000    0.0000   -0.0000   -0.0030   -0.0000    0.0000    0.0193
       68 NB     9d1+       0.0000    0.0000    0.0016    0.0000   -0.0000    0.0000    0.0018    0.0000   -0.0000   -0.0128
       69 NB    10d1+       0.0000    0.0000    0.0023    0.0000   -0.0000    0.0000   -0.0014   -0.0000   -0.0000   -0.0079
       70 NB     3d2+      -0.0000    0.0000   -0.0027   -0.0000    0.0000    0.0000   -0.0650   -0.0000   -0.0000    0.8322
       71 NB     4d2+       0.0000   -0.0000    0.0005    0.0000   -0.0000   -0.0000    0.0032    0.0000    0.0000    0.0687
       72 NB     5d2+      -0.0000    0.0000   -0.0006   -0.0000    0.0000    0.0000   -0.0032   -0.0000   -0.0000   -0.0591
       73 NB     6d2+       0.0000   -0.0000    0.0005    0.0000   -0.0000   -0.0000    0.0028    0.0000    0.0000    0.0438
       74 NB     7d2+      -0.0000    0.0000   -0.0005   -0.0000    0.0000    0.0000   -0.0025   -0.0000    0.0000   -0.0332
       75 NB     8d2+      -0.0000   -0.0000    0.0008    0.0000   -0.0000   -0.0000    0.0027    0.0000   -0.0000    0.0309
       76 NB     9d2+       0.0000    0.0000   -0.0009   -0.0000    0.0000    0.0000   -0.0019   -0.0000    0.0000   -0.0207
       77 NB    10d2+       0.0000    0.0000   -0.0012   -0.0000    0.0000   -0.0000    0.0002    0.0000    0.0000   -0.0129
       78 NB     4f3-      -0.0000    0.0000   -0.0000    0.0000    0.0000    0.0000   -0.0000    0.0000   -0.0000    0.0000
       79 NB     5f3-       0.0000    0.0000   -0.0000    0.0000    0.0000    0.0000   -0.0000    0.0000   -0.0000    0.0000
       80 NB     6f3-      -0.0000   -0.0000   -0.0000    0.0000   -0.0000   -0.0000    0.0000   -0.0000    0.0000   -0.0000
       81 NB     7f3-       0.0000   -0.0000   -0.0000    0.0000   -0.0000    0.0000   -0.0000    0.0000    0.0000    0.0000
       82 NB     8f3-      -0.0000   -0.0000   -0.0000    0.0000   -0.0000    0.0000   -0.0000    0.0000    0.0000    0.0000
       83 NB     4f2-      -0.0000   -0.0000    0.0000   -0.0000   -0.0000   -0.0000    0.0000   -0.0005   -0.0000    0.0000
       84 NB     5f2-      -0.0000    0.0000    0.0000   -0.0000   -0.0000    0.0000    0.0000   -0.0003   -0.0000    0.0000
       85 NB     6f2-       0.0000   -0.0000    0.0000   -0.0000   -0.0000   -0.0000    0.0000   -0.0000   -0.0000   -0.0000
       86 NB     7f2-      -0.0000    0.0000    0.0000   -0.0000   -0.0000    0.0000    0.0000   -0.0004   -0.0000    0.0000
       87 NB     8f2-      -0.0000   -0.0000    0.0000   -0.0001   -0.0000   -0.0000    0.0000   -0.0015   -0.0000    0.0000
       88 NB     4f1-       0.0000    0.0000    0.0000   -0.0000   -0.0000   -0.0000    0.0000   -0.0008   -0.0000   -0.0000
       89 NB     5f1-       0.0000    0.0000    0.0000   -0.0000   -0.0000   -0.0000    0.0000   -0.0007   -0.0000   -0.0000
       90 NB     6f1-      -0.0000    0.0000    0.0000   -0.0000    0.0000    0.0000   -0.0000    0.0004   -0.0000    0.0000
       91 NB     7f1-       0.0000   -0.0000    0.0000   -0.0000    0.0000   -0.0000    0.0000   -0.0006   -0.0000   -0.0000
       92 NB     8f1-       0.0000   -0.0000    0.0000   -0.0000   -0.0000   -0.0000    0.0000   -0.0013   -0.0000   -0.0000
       93 NB     4f0        0.0000   -0.0001   -0.0000   -0.0000   -0.0000   -0.0021   -0.0000    0.0000   -0.0010    0.0000
       94 NB     5f0        0.0000   -0.0000   -0.0000   -0.0000   -0.0000   -0.0015   -0.0000    0.0000   -0.0008    0.0000
       95 NB     6f0       -0.0000   -0.0000   -0.0000   -0.0000   -0.0000    0.0006   -0.0000   -0.0000    0.0005    0.0000
       96 NB     7f0        0.0000   -0.0000   -0.0000   -0.0000   -0.0000   -0.0016   -0.0000    0.0000   -0.0008    0.0000
       97 NB     8f0        0.0000   -0.0002   -0.0000   -0.0000   -0.0001   -0.0041   -0.0000    0.0000   -0.0016    0.0000
       98 NB     4f1+       0.0000   -0.0000   -0.0000   -0.0000    0.0000   -0.0000   -0.0008   -0.0000    0.0000    0.0018
       99 NB     5f1+       0.0000   -0.0000   -0.0000   -0.0000    0.0000   -0.0000   -0.0007   -0.0000    0.0000    0.0015
      100 NB     6f1+      -0.0000   -0.0000   -0.0000   -0.0000    0.0000    0.0000    0.0004    0.0000   -0.0000   -0.0007
      101 NB     7f1+       0.0000   -0.0000   -0.0000   -0.0000    0.0000   -0.0000   -0.0006   -0.0000    0.0000    0.0010
      102 NB     8f1+       0.0000   -0.0000   -0.0000   -0.0000    0.0000   -0.0000   -0.0013   -0.0000    0.0000    0.0024
      103 NB     4f2+      -0.0000   -0.0000    0.0000    0.0000   -0.0000   -0.0000    0.0005    0.0000    0.0000    0.0035
      104 NB     5f2+      -0.0000   -0.0000    0.0000    0.0000   -0.0000   -0.0000    0.0003    0.0000    0.0000    0.0026
      105 NB     6f2+       0.0000    0.0000    0.0000    0.0000   -0.0000    0.0000    0.0000    0.0000   -0.0000   -0.0010
      106 NB     7f2+       0.0000   -0.0000    0.0000    0.0000   -0.0000   -0.0000    0.0004    0.0000    0.0000    0.0016
      107 NB     8f2+       0.0000   -0.0000    0.0001    0.0000   -0.0000   -0.0000    0.0015    0.0000    0.0000    0.0052
      108 NB     4f3+       0.0000   -0.0000    0.0000    0.0000    0.0000   -0.0013    0.0000    0.0000    0.0008    0.0000
      109 NB     5f3+       0.0000   -0.0000    0.0000    0.0000    0.0000   -0.0009    0.0000    0.0000    0.0006    0.0000
      110 NB     6f3+      -0.0000   -0.0000   -0.0000   -0.0000    0.0000    0.0004   -0.0000   -0.0000   -0.0001   -0.0000
      111 NB     7f3+       0.0000   -0.0000    0.0000    0.0000    0.0000   -0.0010    0.0000    0.0000    0.0006    0.0000
      112 NB     8f3+       0.0000   -0.0001    0.0000    0.0000    0.0001   -0.0026    0.0000    0.0000    0.0020    0.0000
      113 NB     5g4-      -0.0000   -0.0000    0.0000   -0.0000   -0.0000   -0.0000    0.0000   -0.0006   -0.0000   -0.0000
      114 NB     6g4-       0.0000    0.0000   -0.0000    0.0000    0.0000    0.0000   -0.0000    0.0008    0.0000    0.0000
      115 NB     7g4-      -0.0000   -0.0000    0.0000   -0.0000   -0.0000   -0.0000    0.0000   -0.0013   -0.0000   -0.0000
      116 NB     8g4-       0.0000   -0.0000   -0.0000    0.0001    0.0000    0.0000   -0.0000    0.0020    0.0000    0.0000
      117 NB     5g3-      -0.0000   -0.0000    0.0000   -0.0000   -0.0000   -0.0000    0.0000   -0.0000    0.0000   -0.0000
      118 NB     6g3-      -0.0000    0.0000   -0.0000    0.0000   -0.0000   -0.0000   -0.0000    0.0000    0.0000   -0.0000
      119 NB     7g3-       0.0000   -0.0000    0.0000   -0.0000    0.0000    0.0000    0.0000   -0.0000    0.0000    0.0000
      120 NB     8g3-      -0.0000   -0.0000   -0.0000    0.0000   -0.0000   -0.0000   -0.0000    0.0000   -0.0000   -0.0000
      121 NB     5g2-       0.0000    0.0000   -0.0000    0.0000    0.0000   -0.0000    0.0000   -0.0000   -0.0000   -0.0000
      122 NB     6g2-      -0.0000   -0.0000    0.0000   -0.0000   -0.0000    0.0000   -0.0000    0.0000   -0.0000    0.0000
      123 NB     7g2-       0.0000    0.0000   -0.0000    0.0000    0.0000   -0.0000    0.0000   -0.0000    0.0000   -0.0000
      124 NB     8g2-      -0.0000   -0.0000    0.0000   -0.0000   -0.0000    0.0000    0.0000   -0.0000   -0.0000    0.0000
      125 NB     5g1-      -0.0000    0.0000    0.0000   -0.0000   -0.0000   -0.0000    0.0000   -0.0007   -0.0000    0.0000
      126 NB     6g1-       0.0000   -0.0000   -0.0000    0.0000    0.0000    0.0000   -0.0000    0.0010    0.0000   -0.0000
      127 NB     7g1-      -0.0000   -0.0000    0.0000   -0.0001   -0.0000   -0.0000    0.0000   -0.0017   -0.0000    0.0000
      128 NB     8g1-       0.0000    0.0000   -0.0000    0.0001    0.0000    0.0000   -0.0000    0.0026    0.0000   -0.0000
      129 NB     5g0       -0.0000   -0.0000   -0.0000    0.0000   -0.0000   -0.0001   -0.0000   -0.0000   -0.0011    0.0000
      130 NB     6g0        0.0000    0.0000    0.0000   -0.0000    0.0000    0.0001    0.0000   -0.0000    0.0015   -0.0000
      131 NB     7g0       -0.0000   -0.0000   -0.0000   -0.0000   -0.0001   -0.0003   -0.0000    0.0000   -0.0027    0.0000
      132 NB     8g0        0.0000    0.0000    0.0000    0.0000    0.0002    0.0004    0.0000   -0.0000    0.0041   -0.0000
      133 NB     5g1+      -0.0000    0.0000   -0.0000   -0.0000    0.0000    0.0000   -0.0007   -0.0000   -0.0000   -0.0006
      134 NB     6g1+       0.0000   -0.0000    0.0000    0.0000   -0.0000   -0.0000    0.0010    0.0000    0.0000    0.0007
      135 NB     7g1+      -0.0000    0.0000   -0.0001   -0.0000    0.0000    0.0000   -0.0017   -0.0000   -0.0000   -0.0011
      136 NB     8g1+       0.0000   -0.0000    0.0001    0.0000   -0.0000   -0.0000    0.0026    0.0000    0.0000    0.0017
      137 NB     5g2+      -0.0000   -0.0000   -0.0000   -0.0000    0.0000    0.0000    0.0000    0.0000   -0.0000   -0.0003
      138 NB     6g2+       0.0000    0.0000    0.0000    0.0000   -0.0000   -0.0000   -0.0000   -0.0000    0.0000    0.0003
      139 NB     7g2+      -0.0000   -0.0000   -0.0000   -0.0000    0.0000    0.0000    0.0000    0.0000   -0.0000   -0.0005
      140 NB     8g2+       0.0000    0.0000    0.0000    0.0000   -0.0000   -0.0000    0.0000    0.0000    0.0000    0.0006
      141 NB     5g3+      -0.0000    0.0000   -0.0000   -0.0000   -0.0000    0.0004   -0.0000   -0.0000   -0.0007    0.0000
      142 NB     6g3+      -0.0000   -0.0000    0.0000    0.0000    0.0000   -0.0006    0.0000    0.0000    0.0009   -0.0000
      143 NB     7g3+       0.0000    0.0001   -0.0000   -0.0000   -0.0001    0.0012   -0.0000   -0.0000   -0.0016    0.0000
      144 NB     8g3+      -0.0000   -0.0001    0.0000    0.0000    0.0001   -0.0019    0.0000    0.0000    0.0025   -0.0000
      145 NB     5g4+      -0.0000   -0.0000   -0.0000   -0.0000    0.0000    0.0000   -0.0006   -0.0000    0.0000    0.0001
      146 NB     6g4+       0.0000    0.0000    0.0000    0.0000   -0.0000   -0.0000    0.0008    0.0000   -0.0000   -0.0001
      147 NB     7g4+      -0.0000   -0.0000   -0.0000   -0.0000    0.0000   -0.0000   -0.0013   -0.0000    0.0000    0.0002
      148 NB     8g4+       0.0000    0.0000    0.0001    0.0000   -0.0000    0.0000    0.0020    0.0000   -0.0000   -0.0004
      149 NB     6h5-       0.0000   -0.0000   -0.0000    0.0000   -0.0000    0.0000   -0.0000    0.0000    0.0000   -0.0000
      150 NB     7h5-      -0.0000    0.0000    0.0000   -0.0000    0.0000    0.0000    0.0000   -0.0000    0.0000    0.0000
      151 NB     6h4-       0.0000    0.0000   -0.0000    0.0000    0.0000    0.0000   -0.0000    0.0001    0.0000    0.0000
      152 NB     7h4-       0.0000   -0.0000    0.0000   -0.0000   -0.0000   -0.0000    0.0000   -0.0001   -0.0000   -0.0000
      153 NB     6h3-      -0.0000   -0.0000    0.0000    0.0000   -0.0000   -0.0000   -0.0000    0.0000    0.0000    0.0000
      154 NB     7h3-       0.0000    0.0000   -0.0000   -0.0000    0.0000    0.0000    0.0000   -0.0000    0.0000    0.0000
      155 NB     6h2-       0.0000    0.0000   -0.0000    0.0000    0.0000    0.0000   -0.0000    0.0000    0.0000   -0.0000
      156 NB     7h2-      -0.0000   -0.0000    0.0000   -0.0000   -0.0000   -0.0000    0.0000   -0.0000   -0.0000    0.0000
      157 NB     6h1-       0.0000   -0.0000   -0.0000    0.0000   -0.0000   -0.0000    0.0000   -0.0000   -0.0000    0.0000
      158 NB     7h1-      -0.0000    0.0000    0.0000   -0.0000   -0.0000    0.0000   -0.0000    0.0000    0.0000   -0.0000
      159 NB     6h0        0.0000   -0.0000   -0.0000   -0.0000   -0.0000   -0.0000   -0.0000    0.0000   -0.0001    0.0000
      160 NB     7h0       -0.0000    0.0000    0.0000   -0.0000    0.0000    0.0000    0.0000   -0.0000    0.0001   -0.0000
      161 NB     6h1+       0.0000    0.0000    0.0000    0.0000   -0.0000   -0.0000   -0.0000   -0.0000    0.0000   -0.0003
      162 NB     7h1+      -0.0000   -0.0000   -0.0000   -0.0000    0.0000    0.0000    0.0000    0.0000   -0.0000    0.0003
      163 NB     6h2+      -0.0000    0.0000   -0.0000   -0.0000    0.0000    0.0000   -0.0000   -0.0000   -0.0000   -0.0002
      164 NB     7h2+       0.0000   -0.0000    0.0000    0.0000   -0.0000   -0.0000    0.0000    0.0000    0.0000    0.0003
      165 NB     6h3+       0.0000   -0.0000    0.0000    0.0000    0.0000   -0.0000    0.0000    0.0000    0.0001   -0.0000
      166 NB     7h3+      -0.0000    0.0000   -0.0000    0.0000   -0.0000    0.0001   -0.0000   -0.0000   -0.0002    0.0000
      167 NB     6h4+       0.0000    0.0000    0.0000    0.0000   -0.0000    0.0000    0.0001    0.0000   -0.0000   -0.0001
      168 NB     7h4+      -0.0000   -0.0000   -0.0000   -0.0000    0.0000   -0.0000   -0.0001   -0.0000    0.0000    0.0002
      169 NB     6h5+      -0.0000    0.0000   -0.0000   -0.0000   -0.0000    0.0000   -0.0000   -0.0000   -0.0000   -0.0003
      170 NB     7h5+       0.0000   -0.0000    0.0000    0.0000    0.0000   -0.0000    0.0000    0.0000    0.0000    0.0003

          Orbital           11        12        13        14        15        16        17        18        19        20    
          Energy           -5.0154   -4.3385   -4.2311   -4.2311   -1.9165   -1.0607   -1.0607   -1.0110   -0.1453   -0.0846
          Occ. No.          2.0000    2.0000    2.0000    2.0000    2.0000    2.0000    2.0000    2.0000    0.0000    0.0000

        1 NB     1s         0.0000    0.0000   -0.0000   -0.0000    0.0000    0.0000   -0.0000   -0.0000   -0.0000   -0.0000
        2 NB     2s         0.0000    0.0018   -0.0000   -0.0000   -0.0011   -0.0000   -0.0000    0.0003    0.0002    0.0000
        3 NB     3s         0.0000    0.0254   -0.0000   -0.0000   -0.0458   -0.0000    0.0000    0.0068    0.0084    0.0000
        4 NB     4s         0.0000    0.0340   -0.0000   -0.0000    0.9671   -0.0000   -0.0000   -0.0512   -0.0755   -0.0000
        5 NB     5s         0.0000   -0.0036    0.0000    0.0000    0.1374    0.0000    0.0000   -0.0330    0.9157   -0.0000
        6 NB     6s        -0.0000    0.0040   -0.0000   -0.0000   -0.1205   -0.0000   -0.0000    0.0230    0.3897    0.0000
        7 NB     7s        -0.0000   -0.0083    0.0000    0.0000    0.1517    0.0000    0.0000   -0.0213   -0.0386    0.0000
        8 NB     8s        -0.0000    0.0049   -0.0000    0.0000   -0.0237   -0.0000    0.0000   -0.0002   -0.0165    0.0000
        9 NB     9s        -0.0000   -0.0038    0.0000    0.0000    0.0072    0.0000    0.0000   -0.0012   -0.0084   -0.0000
       10 NB    10s         0.0000    0.0015   -0.0000   -0.0000   -0.0031   -0.0000   -0.0000    0.0004    0.0000    0.0000
       11 NB     2px        0.0000   -0.0000   -0.0047   -0.0000   -0.0000   -0.0010   -0.0000    0.0000    0.0000    0.0001
       12 NB     3px        0.0000   -0.0000   -0.1109   -0.0000   -0.0000   -0.0510   -0.0000    0.0000    0.0000    0.0078
       13 NB     4px       -0.0000   -0.0000   -0.0776   -0.0000   -0.0000    0.9503    0.0000   -0.0000   -0.0000   -0.0760
       14 NB     5px        0.0000    0.0000    0.0163    0.0000    0.0000    0.2100    0.0000   -0.0000   -0.0000    0.7731
       15 NB     6px       -0.0000   -0.0000   -0.0314   -0.0000   -0.0000   -0.2030   -0.0000    0.0000    0.0000    0.4716
       16 NB     7px        0.0000    0.0000    0.0188    0.0000    0.0000    0.0214    0.0000   -0.0000   -0.0000    0.3800
       17 NB     8px       -0.0000   -0.0000   -0.0136   -0.0000   -0.0000    0.0005    0.0000    0.0000    0.0000    0.1532
       18 NB     9px        0.0000    0.0000    0.0088    0.0000    0.0000    0.0163    0.0000   -0.0000   -0.0000    0.0525
       19 NB    10px       -0.0000   -0.0000   -0.0021   -0.0000   -0.0000    0.0009    0.0000    0.0000    0.0000    0.0073
       20 NB     2py        0.0002    0.0000    0.0000   -0.0047    0.0000    0.0000   -0.0010    0.0000   -0.0000   -0.0000
       21 NB     3py        0.0021   -0.0000    0.0000   -0.1109    0.0000    0.0000   -0.0510   -0.0000    0.0000   -0.0000
       22 NB     4py       -0.0017   -0.0000    0.0000   -0.0776    0.0000   -0.0000    0.9503    0.0000   -0.0000    0.0002
       23 NB     5py        0.0004   -0.0000   -0.0000    0.0163   -0.0000   -0.0000    0.2100    0.0000   -0.0000   -0.0018
       24 NB     6py       -0.0009   -0.0000    0.0000   -0.0314    0.0000    0.0000   -0.2030   -0.0000   -0.0000   -0.0011
       25 NB     7py        0.0006    0.0000   -0.0000    0.0188   -0.0000   -0.0000    0.0214   -0.0000   -0.0000   -0.0009
       26 NB     8py       -0.0005   -0.0000    0.0000   -0.0136    0.0000   -0.0000    0.0005   -0.0000   -0.0000   -0.0004
       27 NB     9py        0.0004    0.0000   -0.0000    0.0088   -0.0000   -0.0000    0.0163    0.0000   -0.0000   -0.0001
       28 NB    10py       -0.0001   -0.0000    0.0000   -0.0021    0.0000   -0.0000    0.0009   -0.0000    0.0000   -0.0000
       29 NB     2pz        0.0000    0.0019   -0.0000    0.0000    0.0001   -0.0000    0.0000   -0.0013   -0.0000    0.0000
       30 NB     3pz        0.0000    0.0546   -0.0000   -0.0000    0.0035   -0.0000    0.0000   -0.0580   -0.0016    0.0000
       31 NB     4pz        0.0000    0.0473   -0.0000   -0.0000    0.0634    0.0000   -0.0000    0.9408    0.0087   -0.0000
       32 NB     5pz       -0.0000   -0.0102    0.0000    0.0000   -0.0015    0.0000   -0.0000    0.2356    0.0419    0.0000
       33 NB     6pz       -0.0000    0.0198   -0.0000   -0.0000    0.0017   -0.0000    0.0000   -0.2206    0.0059    0.0000
       34 NB     7pz        0.0000   -0.0120    0.0000    0.0000   -0.0007    0.0000    0.0000    0.0208    0.0074    0.0000
       35 NB     8pz        0.0000    0.0089   -0.0000    0.0000    0.0005    0.0000   -0.0000    0.0001    0.0020    0.0000
       36 NB     9pz        0.0000   -0.0061    0.0000    0.0000   -0.0003    0.0000   -0.0000    0.0183    0.0010    0.0000
       37 NB    10pz        0.0000    0.0014    0.0000    0.0000   -0.0002    0.0000   -0.0000    0.0010    0.0001    0.0000
       38 NB     3d2-       0.8322   -0.0000   -0.0000    0.5260   -0.0000   -0.0000    0.0259   -0.0000   -0.0000    0.0000
       39 NB     4d2-       0.0687   -0.0000   -0.0000    0.0684   -0.0000   -0.0000    0.0365   -0.0000   -0.0000    0.0001
       40 NB     5d2-      -0.0591   -0.0000    0.0000   -0.0572    0.0000    0.0000   -0.0161   -0.0000   -0.0000    0.0000
       41 NB     6d2-       0.0438   -0.0000   -0.0000    0.0415   -0.0000   -0.0000    0.0065    0.0000   -0.0000    0.0000
       42 NB     7d2-      -0.0332    0.0000    0.0000   -0.0308    0.0000    0.0000   -0.0035    0.0000    0.0000    0.0000
       43 NB     8d2-       0.0309   -0.0000   -0.0000    0.0282   -0.0000   -0.0000    0.0031    0.0000    0.0000   -0.0000
       44 NB     9d2-      -0.0207    0.0000    0.0000   -0.0194    0.0000    0.0000   -0.0029   -0.0000    0.0000   -0.0000
       45 NB    10d2-      -0.0129   -0.0000    0.0000   -0.0112    0.0000    0.0000   -0.0010   -0.0000   -0.0000    0.0000
       46 NB     3d1-      -0.5380    0.0000   -0.0000    0.8148    0.0000   -0.0000    0.0372    0.0000   -0.0000    0.0000
       47 NB     4d1-      -0.0435    0.0000   -0.0000    0.1035   -0.0000   -0.0000    0.0601   -0.0000   -0.0000    0.0001
       48 NB     5d1-       0.0374   -0.0000    0.0000   -0.0865   -0.0000    0.0000   -0.0272   -0.0000   -0.0000    0.0000
       49 NB     6d1-      -0.0277    0.0000   -0.0000    0.0625    0.0000   -0.0000    0.0111    0.0000   -0.0000    0.0000
       50 NB     7d1-       0.0209   -0.0000    0.0000   -0.0464   -0.0000    0.0000   -0.0056   -0.0000   -0.0000    0.0000
       51 NB     8d1-      -0.0193    0.0000   -0.0000    0.0422    0.0000   -0.0000    0.0045   -0.0000    0.0000   -0.0000
       52 NB     9d1-       0.0128   -0.0000    0.0000   -0.0288   -0.0000    0.0000   -0.0042   -0.0000   -0.0000   -0.0000
       53 NB    10d1-       0.0079   -0.0000    0.0000   -0.0165    0.0000    0.0000   -0.0010   -0.0000   -0.0000    0.0000
       54 NB     3d0        0.0000    0.9781   -0.0000   -0.0000   -0.0285   -0.0000    0.0000   -0.0281    0.0022    0.0000
       55 NB     4d0        0.0000    0.1176   -0.0000   -0.0000   -0.0199   -0.0000    0.0000   -0.0304    0.0138    0.0000
       56 NB     5d0       -0.0000   -0.0987    0.0000    0.0000    0.0132    0.0000   -0.0000    0.0119   -0.0002    0.0000
       57 NB     6d0       -0.0000    0.0717   -0.0000   -0.0000   -0.0074   -0.0000   -0.0000   -0.0047    0.0006    0.0000
       58 NB     7d0       -0.0000   -0.0534    0.0000    0.0000    0.0044    0.0000   -0.0000    0.0030   -0.0005    0.0000
       59 NB     8d0        0.0000    0.0488   -0.0000   -0.0000   -0.0032   -0.0000    0.0000   -0.0032    0.0002   -0.0000
       60 NB     9d0       -0.0000   -0.0333    0.0000    0.0000    0.0026    0.0000   -0.0000    0.0030   -0.0004   -0.0000
       61 NB    10d0       -0.0000   -0.0194    0.0000    0.0000    0.0009    0.0000   -0.0000    0.0014    0.0000    0.0000
       62 NB     3d1+      -0.0000    0.0000    0.8148    0.0000    0.0000    0.0372    0.0000   -0.0000   -0.0000   -0.0030
       63 NB     4d1+      -0.0000    0.0000    0.1035    0.0000    0.0000    0.0601    0.0000   -0.0000   -0.0000   -0.0410
       64 NB     5d1+       0.0000   -0.0000   -0.0865   -0.0000   -0.0000   -0.0272   -0.0000    0.0000   -0.0000   -0.0175
       65 NB     6d1+      -0.0000    0.0000    0.0625    0.0000    0.0000    0.0111    0.0000   -0.0000   -0.0000   -0.0117
       66 NB     7d1+       0.0000   -0.0000   -0.0464   -0.0000   -0.0000   -0.0056   -0.0000    0.0000    0.0000   -0.0022
       67 NB     8d1+      -0.0000    0.0000    0.0422    0.0000    0.0000    0.0045    0.0000   -0.0000   -0.0000    0.0007
       68 NB     9d1+       0.0000   -0.0000   -0.0288   -0.0000   -0.0000   -0.0042   -0.0000    0.0000    0.0000    0.0012
       69 NB    10d1+       0.0000   -0.0000   -0.0165   -0.0000   -0.0000   -0.0010   -0.0000    0.0000    0.0000   -0.0002
       70 NB     3d2+      -0.0000   -0.0000   -0.5260   -0.0000    0.0000   -0.0259   -0.0000   -0.0000   -0.0000    0.0022
       71 NB     4d2+      -0.0000   -0.0000   -0.0684   -0.0000    0.0000   -0.0365   -0.0000   -0.0000   -0.0000    0.0275
       72 NB     5d2+       0.0000    0.0000    0.0572    0.0000   -0.0000    0.0161    0.0000    0.0000    0.0000    0.0155
       73 NB     6d2+      -0.0000   -0.0000   -0.0415   -0.0000    0.0000   -0.0065   -0.0000    0.0000   -0.0000    0.0112
       74 NB     7d2+       0.0000    0.0000    0.0308    0.0000   -0.0000    0.0035    0.0000   -0.0000    0.0000    0.0027
       75 NB     8d2+      -0.0000   -0.0000   -0.0282   -0.0000    0.0000   -0.0031   -0.0000    0.0000   -0.0000   -0.0006
       76 NB     9d2+       0.0000    0.0000    0.0194    0.0000   -0.0000    0.0029    0.0000   -0.0000    0.0000   -0.0011
       77 NB    10d2+       0.0000    0.0000    0.0112    0.0000    0.0000    0.0010    0.0000   -0.0000   -0.0000    0.0001
       78 NB     4f3-       0.0000   -0.0000    0.0000   -0.0000   -0.0000   -0.0000    0.0000    0.0000    0.0000   -0.0000
       79 NB     5f3-       0.0000    0.0000    0.0000   -0.0000    0.0000   -0.0000    0.0000    0.0000   -0.0000    0.0000
       80 NB     6f3-      -0.0000    0.0000   -0.0000    0.0000   -0.0000    0.0000   -0.0000   -0.0000   -0.0000    0.0000
       81 NB     7f3-       0.0000   -0.0000   -0.0000   -0.0000   -0.0000   -0.0000    0.0000   -0.0000   -0.0000    0.0000
       82 NB     8f3-      -0.0000    0.0000    0.0000   -0.0000    0.0000    0.0000   -0.0000   -0.0000    0.0000   -0.0000
       83 NB     4f2-       0.0035   -0.0000   -0.0000    0.0063   -0.0000   -0.0000    0.0022    0.0000   -0.0000    0.0000
       84 NB     5f2-       0.0026   -0.0000   -0.0000    0.0043   -0.0000   -0.0000    0.0010    0.0000   -0.0000   -0.0000
       85 NB     6f2-      -0.0010    0.0000    0.0000   -0.0008    0.0000   -0.0000    0.0001    0.0000    0.0000   -0.0000
       86 NB     7f2-       0.0016   -0.0000   -0.0000    0.0020   -0.0000    0.0000   -0.0007   -0.0000    0.0000   -0.0000
       87 NB     8f2-       0.0052    0.0000   -0.0000    0.0104   -0.0000   -0.0000    0.0037    0.0000   -0.0000    0.0000
       88 NB     4f1-      -0.0018    0.0000   -0.0000    0.0026   -0.0000    0.0000   -0.0015   -0.0000   -0.0000    0.0000
       89 NB     5f1-      -0.0015    0.0000   -0.0000    0.0021    0.0000    0.0000   -0.0006   -0.0000   -0.0000   -0.0000
       90 NB     6f1-       0.0007   -0.0000    0.0000   -0.0011    0.0000   -0.0000    0.0003    0.0000   -0.0000   -0.0000
       91 NB     7f1-      -0.0010    0.0000   -0.0000    0.0012   -0.0000    0.0000   -0.0005   -0.0000    0.0000   -0.0000
       92 NB     8f1-      -0.0024    0.0000   -0.0000    0.0028    0.0000   -0.0000    0.0015    0.0000   -0.0000    0.0000
       93 NB     4f0       -0.0000   -0.0005   -0.0000   -0.0000   -0.0029   -0.0000    0.0000   -0.0025    0.0006    0.0000
       94 NB     5f0        0.0000    0.0002   -0.0000   -0.0000   -0.0012   -0.0000   -0.0000   -0.0010   -0.0006    0.0000
       95 NB     6f0       -0.0000   -0.0011    0.0000    0.0000    0.0015    0.0000   -0.0000    0.0006   -0.0002    0.0000
       96 NB     7f0        0.0000    0.0005   -0.0000   -0.0000   -0.0013   -0.0000    0.0000   -0.0008    0.0014    0.0000
       97 NB     8f0        0.0000   -0.0027    0.0000    0.0000    0.0041    0.0000   -0.0000    0.0017   -0.0025   -0.0000
       98 NB     4f1+      -0.0000    0.0000    0.0026    0.0000   -0.0000   -0.0015   -0.0000    0.0000   -0.0000   -0.0003
       99 NB     5f1+      -0.0000    0.0000    0.0021    0.0000    0.0000   -0.0006   -0.0000    0.0000   -0.0000    0.0011
      100 NB     6f1+       0.0000   -0.0000   -0.0011   -0.0000    0.0000    0.0003    0.0000   -0.0000   -0.0000    0.0010
      101 NB     7f1+      -0.0000    0.0000    0.0012    0.0000   -0.0000   -0.0005   -0.0000    0.0000    0.0000    0.0010
      102 NB     8f1+      -0.0000    0.0000    0.0028    0.0000    0.0000    0.0015    0.0000   -0.0000   -0.0000   -0.0009
      103 NB     4f2+      -0.0000   -0.0000   -0.0063   -0.0000   -0.0000   -0.0022   -0.0000    0.0000    0.0000    0.0007
      104 NB     5f2+      -0.0000   -0.0000   -0.0043   -0.0000   -0.0000   -0.0010   -0.0000    0.0000   -0.0000   -0.0002
      105 NB     6f2+       0.0000    0.0000    0.0008    0.0000    0.0000   -0.0001   -0.0000   -0.0000   -0.0000   -0.0005
      106 NB     7f2+      -0.0000   -0.0000   -0.0020   -0.0000   -0.0000    0.0007    0.0000    0.0000    0.0000   -0.0007
      107 NB     8f2+      -0.0000   -0.0000   -0.0104   -0.0000    0.0000   -0.0037   -0.0000   -0.0000   -0.0000    0.0012
      108 NB     4f3+       0.0000    0.0022   -0.0000   -0.0000   -0.0019    0.0000    0.0000   -0.0011    0.0004   -0.0000
      109 NB     5f3+      -0.0000    0.0015   -0.0000   -0.0000   -0.0008    0.0000    0.0000   -0.0005   -0.0004   -0.0000
      110 NB     6f3+       0.0000   -0.0002    0.0000    0.0000    0.0009   -0.0000   -0.0000   -0.0002   -0.0001   -0.0000
      111 NB     7f3+      -0.0000    0.0007   -0.0000   -0.0000   -0.0008    0.0000    0.0000    0.0007    0.0009   -0.0000
      112 NB     8f3+      -0.0000    0.0038   -0.0000   -0.0000    0.0024   -0.0000   -0.0000   -0.0028   -0.0017    0.0000
      113 NB     5g4-      -0.0001   -0.0000   -0.0000    0.0006   -0.0000    0.0000   -0.0004    0.0000   -0.0000   -0.0000
      114 NB     6g4-       0.0001    0.0000    0.0000   -0.0007    0.0000   -0.0000    0.0002    0.0000   -0.0000   -0.0000
      115 NB     7g4-      -0.0002    0.0000   -0.0000    0.0012   -0.0000    0.0000   -0.0000    0.0000   -0.0000   -0.0000
      116 NB     8g4-       0.0004   -0.0000    0.0000   -0.0019    0.0000    0.0000   -0.0004   -0.0000    0.0000   -0.0000
      117 NB     5g3-      -0.0000   -0.0000   -0.0000    0.0000   -0.0000    0.0000   -0.0000    0.0000    0.0000   -0.0000
      118 NB     6g3-       0.0000   -0.0000    0.0000   -0.0000    0.0000   -0.0000    0.0000    0.0000    0.0000   -0.0000
      119 NB     7g3-      -0.0000    0.0000   -0.0000    0.0000   -0.0000   -0.0000    0.0000   -0.0000   -0.0000   -0.0000
      120 NB     8g3-       0.0000   -0.0000    0.0000   -0.0000   -0.0000    0.0000   -0.0000   -0.0000    0.0000   -0.0000
      121 NB     5g2-      -0.0003    0.0000    0.0000   -0.0007    0.0000    0.0000   -0.0002    0.0000   -0.0000   -0.0000
      122 NB     6g2-       0.0003   -0.0000   -0.0000    0.0008    0.0000   -0.0000    0.0001    0.0000   -0.0000   -0.0000
      123 NB     7g2-      -0.0005    0.0000    0.0000   -0.0012   -0.0000    0.0000   -0.0002   -0.0000   -0.0000   -0.0000
      124 NB     8g2-       0.0006   -0.0000   -0.0000    0.0020    0.0000   -0.0000    0.0002    0.0000    0.0000    0.0000
      125 NB     5g1-       0.0006   -0.0000    0.0000   -0.0002    0.0000    0.0000   -0.0007    0.0000   -0.0000   -0.0000
      126 NB     6g1-      -0.0007   -0.0000   -0.0000    0.0002   -0.0000   -0.0000    0.0004    0.0000   -0.0000   -0.0000
      127 NB     7g1-       0.0011    0.0000    0.0000   -0.0001    0.0000    0.0000   -0.0001   -0.0000   -0.0000   -0.0000
      128 NB     8g1-      -0.0017    0.0000    0.0000   -0.0000    0.0000    0.0000   -0.0004   -0.0000    0.0000   -0.0000
      129 NB     5g0       -0.0000   -0.0015    0.0000   -0.0000   -0.0000   -0.0000    0.0000   -0.0005    0.0000    0.0000
      130 NB     6g0       -0.0000    0.0017   -0.0000   -0.0000   -0.0000    0.0000    0.0000    0.0003    0.0000    0.0000
      131 NB     7g0        0.0000   -0.0025    0.0000    0.0000    0.0001    0.0000   -0.0000    0.0001    0.0000    0.0000
      132 NB     8g0        0.0000    0.0038   -0.0000   -0.0000   -0.0002   -0.0000    0.0000   -0.0010    0.0000    0.0000
      133 NB     5g1+       0.0000   -0.0000   -0.0002   -0.0000    0.0000   -0.0007   -0.0000    0.0000    0.0000    0.0003
      134 NB     6g1+      -0.0000    0.0000    0.0002    0.0000    0.0000    0.0004    0.0000   -0.0000    0.0000    0.0003
      135 NB     7g1+       0.0000   -0.0000   -0.0001   -0.0000   -0.0000   -0.0001   -0.0000    0.0000    0.0000    0.0003
      136 NB     8g1+      -0.0000    0.0000   -0.0000   -0.0000    0.0000   -0.0004   -0.0000   -0.0000   -0.0000    0.0001
      137 NB     5g2+       0.0000    0.0000    0.0007    0.0000   -0.0000    0.0002    0.0000   -0.0000    0.0000   -0.0001
      138 NB     6g2+      -0.0000   -0.0000   -0.0008   -0.0000    0.0000   -0.0001   -0.0000    0.0000    0.0000   -0.0000
      139 NB     7g2+       0.0000    0.0000    0.0012    0.0000   -0.0000    0.0002    0.0000   -0.0000    0.0000   -0.0001
      140 NB     8g2+      -0.0000   -0.0000   -0.0020   -0.0000    0.0000   -0.0002   -0.0000    0.0000   -0.0000    0.0000
      141 NB     5g3+       0.0000   -0.0002    0.0000    0.0000    0.0000   -0.0000   -0.0000   -0.0003    0.0000    0.0000
      142 NB     6g3+       0.0000    0.0003   -0.0000   -0.0000    0.0000    0.0000    0.0000    0.0001    0.0001    0.0000
      143 NB     7g3+      -0.0000   -0.0005    0.0000    0.0000   -0.0002    0.0000    0.0000    0.0001    0.0001    0.0000
      144 NB     8g3+       0.0000    0.0008   -0.0000   -0.0000    0.0006   -0.0000   -0.0000   -0.0006   -0.0001    0.0000
      145 NB     5g4+      -0.0000    0.0000    0.0006    0.0000    0.0000   -0.0004   -0.0000    0.0000   -0.0000    0.0002
      146 NB     6g4+       0.0000   -0.0000   -0.0007   -0.0000   -0.0000    0.0002    0.0000   -0.0000   -0.0000    0.0002
      147 NB     7g4+      -0.0000    0.0000    0.0012    0.0000    0.0000   -0.0000   -0.0000   -0.0000   -0.0000    0.0002
      148 NB     8g4+       0.0000   -0.0000   -0.0019   -0.0000   -0.0000   -0.0004   -0.0000    0.0000    0.0000    0.0001
      149 NB     6h5-      -0.0003   -0.0000    0.0000   -0.0002    0.0000    0.0000   -0.0000    0.0000   -0.0000    0.0000
      150 NB     7h5-       0.0003    0.0000   -0.0000    0.0003   -0.0000   -0.0000    0.0000   -0.0000    0.0000    0.0000
      151 NB     6h4-       0.0001   -0.0000    0.0000   -0.0003    0.0000   -0.0000    0.0002    0.0000   -0.0000    0.0000
      152 NB     7h4-      -0.0002    0.0000   -0.0000    0.0004   -0.0000    0.0000   -0.0000   -0.0000   -0.0000   -0.0000
      153 NB     6h3-       0.0000    0.0000   -0.0000   -0.0000    0.0000   -0.0000   -0.0000    0.0000   -0.0000    0.0000
      154 NB     7h3-      -0.0000    0.0000   -0.0000    0.0000   -0.0000    0.0000    0.0000    0.0000    0.0000   -0.0000
      155 NB     6h2-      -0.0002    0.0000    0.0000   -0.0003    0.0000   -0.0000    0.0000    0.0000    0.0000    0.0000
      156 NB     7h2-       0.0003   -0.0000   -0.0000    0.0003   -0.0000   -0.0000    0.0000   -0.0000   -0.0000    0.0000
      157 NB     6h1-       0.0003   -0.0000    0.0000   -0.0005   -0.0000    0.0000   -0.0001   -0.0000   -0.0000   -0.0000
      158 NB     7h1-      -0.0003    0.0000   -0.0000    0.0006   -0.0000   -0.0000    0.0001   -0.0000    0.0000    0.0000
      159 NB     6h0       -0.0000   -0.0007    0.0000   -0.0000    0.0000   -0.0000    0.0000    0.0000    0.0000    0.0000
      160 NB     7h0       -0.0000    0.0008   -0.0000   -0.0000   -0.0000   -0.0000   -0.0000   -0.0001    0.0000    0.0000
      161 NB     6h1+       0.0000   -0.0000   -0.0005   -0.0000   -0.0000   -0.0001   -0.0000    0.0000    0.0000    0.0000
      162 NB     7h1+      -0.0000    0.0000    0.0006    0.0000    0.0000    0.0001    0.0000   -0.0000   -0.0000   -0.0000
      163 NB     6h2+       0.0000    0.0000    0.0003    0.0000    0.0000   -0.0000   -0.0000    0.0000   -0.0000    0.0000
      164 NB     7h2+      -0.0000   -0.0000   -0.0003   -0.0000   -0.0000   -0.0000   -0.0000   -0.0000   -0.0000    0.0000
      165 NB     6h3+       0.0000   -0.0002    0.0000    0.0000    0.0000    0.0000   -0.0000    0.0002    0.0000   -0.0000
      166 NB     7h3+      -0.0000    0.0002   -0.0000   -0.0000   -0.0000   -0.0000    0.0000   -0.0001    0.0000    0.0000
      167 NB     6h4+       0.0000   -0.0000   -0.0003   -0.0000   -0.0000    0.0002    0.0000   -0.0000    0.0000   -0.0000
      168 NB     7h4+      -0.0000    0.0000    0.0004    0.0000    0.0000   -0.0000   -0.0000   -0.0000   -0.0000    0.0000
      169 NB     6h5+       0.0000    0.0000    0.0002    0.0000    0.0000    0.0000    0.0000    0.0000   -0.0000    0.0000
      170 NB     7h5+      -0.0000   -0.0000   -0.0003   -0.0000    0.0000   -0.0000   -0.0000   -0.0000   -0.0000    0.0000

          Orbital           21        22        23        24        25        26        27        28        29        30    
          Energy           -0.0846   -0.0824   -0.0540   -0.0540   -0.0533   -0.0533   -0.0533   -0.0128    0.0305    0.0305
          Occ. No.          0.0000    0.0000    0.0000    0.0000    0.0000    0.0000    0.0000    0.0000    0.0000    0.0000

        1 NB     1s        -0.0000    0.0000    0.0000    0.0000   -0.0000    0.0000   -0.0000    0.0000   -0.0000   -0.0000
        2 NB     2s         0.0000   -0.0001    0.0000    0.0000   -0.0000   -0.0000   -0.0000   -0.0002   -0.0000   -0.0000
        3 NB     3s        -0.0000   -0.0010    0.0000    0.0000   -0.0000   -0.0000   -0.0004   -0.0089   -0.0000   -0.0000
        4 NB     4s         0.0000    0.0051   -0.0000   -0.0000    0.0000    0.0000    0.0003    0.0762    0.0000    0.0000
        5 NB     5s         0.0000   -0.0230   -0.0000   -0.0000    0.0000    0.0000    0.0020   -0.3060   -0.0000   -0.0000
        6 NB     6s         0.0000   -0.0420    0.0000    0.0000   -0.0000   -0.0000   -0.0147    0.7908    0.0000    0.0000
        7 NB     7s         0.0000   -0.0047    0.0000    0.0000   -0.0000   -0.0000   -0.0042    0.4536    0.0000    0.0000
        8 NB     8s         0.0000   -0.0031    0.0000    0.0000   -0.0000   -0.0000   -0.0023    0.2499    0.0000    0.0000
        9 NB     9s         0.0000   -0.0003    0.0000    0.0000   -0.0000   -0.0000   -0.0004    0.0590    0.0000    0.0000
       10 NB    10s         0.0000   -0.0001    0.0000    0.0000   -0.0000   -0.0000   -0.0001    0.0039    0.0000    0.0000
       11 NB     2px        0.0000   -0.0000   -0.0000   -0.0000    0.0001    0.0000   -0.0000   -0.0000    0.0000    0.0000
       12 NB     3px        0.0000   -0.0000   -0.0003   -0.0000    0.0023    0.0000   -0.0000   -0.0000    0.0003    0.0000
       13 NB     4px       -0.0002    0.0000    0.0014    0.0000   -0.0107   -0.0000    0.0000    0.0000   -0.0002   -0.0000
       14 NB     5px        0.0018   -0.0000   -0.0063   -0.0000    0.0200    0.0000   -0.0000   -0.0000   -0.0003   -0.0000
       15 NB     6px        0.0011   -0.0000   -0.0054   -0.0000    0.0301    0.0000   -0.0000   -0.0000    0.0012    0.0000
       16 NB     7px        0.0009   -0.0000   -0.0044   -0.0000    0.0246    0.0000   -0.0000   -0.0000    0.0017    0.0000
       17 NB     8px        0.0004   -0.0000   -0.0020   -0.0000    0.0113    0.0000   -0.0000   -0.0000    0.0012    0.0000
       18 NB     9px        0.0001   -0.0000   -0.0007   -0.0000    0.0038    0.0000   -0.0000   -0.0000    0.0005    0.0000
       19 NB    10px        0.0000   -0.0000   -0.0001   -0.0000    0.0006    0.0000   -0.0000   -0.0000    0.0001    0.0000
       20 NB     2py        0.0001    0.0000   -0.0000    0.0000   -0.0000    0.0001   -0.0000   -0.0000    0.0000   -0.0000
       21 NB     3py        0.0078   -0.0000   -0.0000    0.0003   -0.0000    0.0023   -0.0000    0.0000    0.0000   -0.0003
       22 NB     4py       -0.0760    0.0000    0.0000   -0.0014    0.0000   -0.0107    0.0000   -0.0000   -0.0000    0.0002
       23 NB     5py        0.7731   -0.0000   -0.0000    0.0063   -0.0000    0.0200   -0.0000   -0.0000   -0.0000    0.0003
       24 NB     6py        0.4716   -0.0000   -0.0000    0.0054   -0.0000    0.0301   -0.0000   -0.0000    0.0000   -0.0012
       25 NB     7py        0.3800   -0.0000   -0.0000    0.0044   -0.0000    0.0246   -0.0000   -0.0000    0.0000   -0.0017
       26 NB     8py        0.1532   -0.0000   -0.0000    0.0020   -0.0000    0.0113   -0.0000   -0.0000    0.0000   -0.0012
       27 NB     9py        0.0525   -0.0000   -0.0000    0.0007   -0.0000    0.0038   -0.0000   -0.0000    0.0000   -0.0005
       28 NB    10py        0.0073   -0.0000   -0.0000    0.0001   -0.0000    0.0006   -0.0000   -0.0000    0.0000   -0.0001
       29 NB     2pz        0.0000    0.0002   -0.0000   -0.0000   -0.0000   -0.0000   -0.0001    0.0001    0.0000    0.0000
       30 NB     3pz        0.0000    0.0096   -0.0000   -0.0000   -0.0000   -0.0000   -0.0015    0.0019    0.0000   -0.0000
       31 NB     4pz       -0.0000   -0.0845    0.0000    0.0000    0.0000    0.0000    0.0070   -0.0099   -0.0000    0.0000
       32 NB     5pz        0.0000    0.7586    0.0000   -0.0000   -0.0000   -0.0000   -0.0240   -0.0000   -0.0000   -0.0000
       33 NB     6pz        0.0000    0.4832   -0.0000   -0.0000   -0.0000   -0.0000   -0.0240    0.0294    0.0000    0.0000
       34 NB     7pz        0.0000    0.3892   -0.0000   -0.0000   -0.0000   -0.0000   -0.0197    0.0282    0.0000    0.0000
       35 NB     8pz        0.0000    0.1584   -0.0000   -0.0000   -0.0000   -0.0000   -0.0090    0.0149    0.0000    0.0000
       36 NB     9pz        0.0000    0.0542   -0.0000   -0.0000   -0.0000   -0.0000   -0.0030    0.0056    0.0000    0.0000
       37 NB    10pz        0.0000    0.0076   -0.0000   -0.0000   -0.0000   -0.0000   -0.0005    0.0008    0.0000    0.0000
       38 NB     3d2-      -0.0022    0.0000    0.0000   -0.0088    0.0000   -0.0062    0.0000    0.0000   -0.0000    0.0190
       39 NB     4d2-      -0.0275    0.0000   -0.0007    0.3372   -0.0001    0.1572   -0.0000   -0.0000    0.0002   -0.4930
       40 NB     5d2-      -0.0155    0.0000   -0.0010    0.5395   -0.0002    0.2671   -0.0000    0.0000    0.0001   -0.2829
       41 NB     6d2-      -0.0112    0.0000   -0.0011    0.5593   -0.0002    0.2800   -0.0000    0.0000   -0.0001    0.3004
       42 NB     7d2-      -0.0027    0.0000   -0.0006    0.2902   -0.0001    0.1475   -0.0000    0.0000   -0.0002    0.5034
       43 NB     8d2-       0.0006    0.0000   -0.0000    0.0254   -0.0000    0.0135   -0.0000    0.0000   -0.0001    0.2457
       44 NB     9d2-       0.0011    0.0000    0.0000   -0.0042    0.0000   -0.0014    0.0000    0.0000   -0.0000    0.1247
       45 NB    10d2-      -0.0001   -0.0000   -0.0000    0.0061   -0.0000    0.0031   -0.0000   -0.0000    0.0000   -0.0137
       46 NB     3d1-      -0.0030    0.0000   -0.0000    0.0037    0.0000   -0.0113    0.0000   -0.0000    0.0000   -0.0103
       47 NB     4d1-      -0.0410    0.0000    0.0003   -0.1693   -0.0003    0.3212   -0.0000   -0.0000   -0.0001    0.2905
       48 NB     5d1-      -0.0175   -0.0000    0.0005   -0.2671   -0.0004    0.5390   -0.0000    0.0000   -0.0001    0.1658
       49 NB     6d1-      -0.0117   -0.0000    0.0005   -0.2766   -0.0005    0.5645   -0.0000    0.0000    0.0001   -0.1765
       50 NB     7d1-      -0.0022   -0.0000    0.0003   -0.1432   -0.0002    0.2968   -0.0000    0.0000    0.0001   -0.2957
       51 NB     8d1-       0.0007    0.0000    0.0000   -0.0125   -0.0000    0.0273   -0.0000    0.0000    0.0001   -0.1441
       52 NB     9d1-       0.0012    0.0000   -0.0000    0.0022    0.0000   -0.0030    0.0000    0.0000    0.0000   -0.0733
       53 NB    10d1-      -0.0002   -0.0000    0.0000   -0.0030   -0.0000    0.0062   -0.0000   -0.0000   -0.0000    0.0080
       54 NB     3d0        0.0000    0.0030    0.0000    0.0000   -0.0000   -0.0000   -0.0123   -0.0015   -0.0000   -0.0000
       55 NB     4d0        0.0000    0.0296   -0.0000   -0.0000    0.0000    0.0000    0.3599   -0.0215    0.0000    0.0000
       56 NB     5d0        0.0000    0.0243   -0.0000   -0.0000    0.0000    0.0000    0.6013    0.0062    0.0000    0.0000
       57 NB     6d0        0.0000    0.0191   -0.0000   -0.0000    0.0000    0.0000    0.6295    0.0215   -0.0000   -0.0000
       58 NB     7d0        0.0000    0.0055   -0.0000   -0.0000    0.0000    0.0000    0.3309    0.0197   -0.0000   -0.0000
       59 NB     8d0       -0.0000   -0.0009   -0.0000   -0.0000    0.0000    0.0000    0.0305    0.0059   -0.0000   -0.0000
       60 NB     9d0       -0.0000   -0.0016    0.0000    0.0000   -0.0000   -0.0000   -0.0033    0.0028   -0.0000   -0.0000
       61 NB    10d0        0.0000    0.0001   -0.0000   -0.0000    0.0000    0.0000    0.0069   -0.0002    0.0000    0.0000
       62 NB     3d1+      -0.0000    0.0000   -0.0037   -0.0000   -0.0113   -0.0000    0.0000    0.0000    0.0103    0.0000
       63 NB     4d1+      -0.0001    0.0000    0.1693    0.0003    0.3212    0.0003   -0.0000    0.0000   -0.2905   -0.0001
       64 NB     5d1+      -0.0000    0.0000    0.2671    0.0005    0.5390    0.0004   -0.0000   -0.0000   -0.1658   -0.0001
       65 NB     6d1+      -0.0000    0.0000    0.2766    0.0005    0.5645    0.0005   -0.0000   -0.0000    0.1765    0.0001
       66 NB     7d1+      -0.0000    0.0000    0.1432    0.0003    0.2968    0.0002   -0.0000   -0.0000    0.2957    0.0001
       67 NB     8d1+       0.0000   -0.0000    0.0125    0.0000    0.0273    0.0000   -0.0000   -0.0000    0.1441    0.0001
       68 NB     9d1+       0.0000   -0.0000   -0.0022   -0.0000   -0.0030   -0.0000    0.0000   -0.0000    0.0733    0.0000
       69 NB    10d1+      -0.0000   -0.0000    0.0030    0.0000    0.0062    0.0000   -0.0000   -0.0000   -0.0080   -0.0000
       70 NB     3d2+       0.0000    0.0000   -0.0088   -0.0000    0.0062    0.0000   -0.0000    0.0000    0.0190    0.0000
       71 NB     4d2+       0.0001    0.0000    0.3372    0.0007   -0.1572   -0.0001    0.0000    0.0000   -0.4930   -0.0002
       72 NB     5d2+       0.0000    0.0000    0.5395    0.0010   -0.2671   -0.0002    0.0000   -0.0000   -0.2829   -0.0001
       73 NB     6d2+       0.0000    0.0000    0.5593    0.0011   -0.2800   -0.0002    0.0000   -0.0000    0.3004    0.0001
       74 NB     7d2+       0.0000    0.0000    0.2902    0.0006   -0.1475   -0.0001    0.0000   -0.0000    0.5034    0.0002
       75 NB     8d2+      -0.0000   -0.0000    0.0254    0.0000   -0.0135   -0.0000    0.0000   -0.0000    0.2457    0.0001
       76 NB     9d2+      -0.0000   -0.0000   -0.0042   -0.0000    0.0014    0.0000   -0.0000   -0.0000    0.1247    0.0000
       77 NB    10d2+       0.0000    0.0000    0.0061    0.0000   -0.0031   -0.0000    0.0000    0.0000   -0.0137   -0.0000
       78 NB     4f3-      -0.0000    0.0000   -0.0000    0.0000    0.0000    0.0000   -0.0000   -0.0000    0.0000   -0.0000
       79 NB     5f3-      -0.0000   -0.0000    0.0000   -0.0000   -0.0000   -0.0000    0.0000    0.0000   -0.0000    0.0000
       80 NB     6f3-      -0.0000   -0.0000    0.0000   -0.0000   -0.0000   -0.0000    0.0000   -0.0000   -0.0000    0.0000
       81 NB     7f3-      -0.0000   -0.0000    0.0000   -0.0000   -0.0000   -0.0000    0.0000   -0.0000   -0.0000    0.0000
       82 NB     8f3-       0.0000    0.0000   -0.0000    0.0000    0.0000    0.0000   -0.0000    0.0000    0.0000   -0.0000
       83 NB     4f2-      -0.0007    0.0000   -0.0000    0.0007    0.0000   -0.0001    0.0000   -0.0000    0.0000   -0.0010
       84 NB     5f2-       0.0002   -0.0000    0.0000   -0.0002   -0.0000    0.0005   -0.0000    0.0000    0.0000   -0.0010
       85 NB     6f2-       0.0005   -0.0000    0.0000   -0.0002   -0.0000    0.0008   -0.0000    0.0000    0.0000   -0.0017
       86 NB     7f2-       0.0007   -0.0000   -0.0000    0.0002   -0.0000    0.0011   -0.0000    0.0000    0.0000   -0.0024
       87 NB     8f2-      -0.0012    0.0000    0.0000   -0.0006    0.0000   -0.0017    0.0000   -0.0000   -0.0000    0.0031
       88 NB     4f1-      -0.0003   -0.0000    0.0000   -0.0006   -0.0000    0.0010   -0.0000    0.0000   -0.0000    0.0012
       89 NB     5f1-       0.0011    0.0000   -0.0000    0.0004    0.0000   -0.0013    0.0000    0.0000    0.0000   -0.0005
       90 NB     6f1-       0.0010    0.0000   -0.0000    0.0005    0.0000   -0.0013    0.0000    0.0000    0.0000   -0.0003
       91 NB     7f1-       0.0010    0.0000   -0.0000    0.0002    0.0000   -0.0008    0.0000    0.0000   -0.0000    0.0002
       92 NB     8f1-      -0.0009    0.0000    0.0000   -0.0000   -0.0000    0.0003   -0.0000   -0.0000    0.0000   -0.0007
       93 NB     4f0        0.0000    0.0000   -0.0000   -0.0000    0.0000    0.0000    0.0015   -0.0002    0.0000    0.0000
       94 NB     5f0        0.0000    0.0012    0.0000    0.0000   -0.0000   -0.0000   -0.0021   -0.0005   -0.0000   -0.0000
       95 NB     6f0        0.0000    0.0012    0.0000    0.0000   -0.0000   -0.0000   -0.0024   -0.0017   -0.0000   -0.0000
       96 NB     7f0        0.0000    0.0012    0.0000    0.0000   -0.0000   -0.0000   -0.0019   -0.0034   -0.0000   -0.0000
       97 NB     8f0       -0.0000   -0.0012   -0.0000   -0.0000    0.0000    0.0000    0.0017    0.0044    0.0000    0.0000
       98 NB     4f1+      -0.0000    0.0000    0.0006    0.0000    0.0010    0.0000   -0.0000    0.0000   -0.0012   -0.0000
       99 NB     5f1+       0.0000   -0.0000   -0.0004   -0.0000   -0.0013   -0.0000    0.0000   -0.0000    0.0005    0.0000
      100 NB     6f1+       0.0000   -0.0000   -0.0005   -0.0000   -0.0013   -0.0000    0.0000   -0.0000    0.0003    0.0000
      101 NB     7f1+       0.0000   -0.0000   -0.0002   -0.0000   -0.0008   -0.0000    0.0000   -0.0000   -0.0002   -0.0000
      102 NB     8f1+      -0.0000    0.0000    0.0000    0.0000    0.0003    0.0000   -0.0000    0.0000    0.0007    0.0000
      103 NB     4f2+       0.0000   -0.0000    0.0007    0.0000    0.0001    0.0000   -0.0000    0.0000   -0.0010   -0.0000
      104 NB     5f2+      -0.0000   -0.0000   -0.0002   -0.0000   -0.0005   -0.0000    0.0000   -0.0000   -0.0010   -0.0000
      105 NB     6f2+      -0.0000   -0.0000   -0.0002   -0.0000   -0.0008   -0.0000    0.0000   -0.0000   -0.0017   -0.0000
      106 NB     7f2+      -0.0000   -0.0000    0.0002    0.0000   -0.0011   -0.0000    0.0000   -0.0000   -0.0024   -0.0000
      107 NB     8f2+       0.0000    0.0000   -0.0006   -0.0000    0.0017    0.0000   -0.0000    0.0000    0.0031    0.0000
      108 NB     4f3+      -0.0000    0.0004    0.0000    0.0000   -0.0000   -0.0000   -0.0002   -0.0001   -0.0000   -0.0000
      109 NB     5f3+      -0.0000   -0.0002   -0.0000   -0.0000    0.0000    0.0000    0.0006   -0.0004    0.0000    0.0000
      110 NB     6f3+      -0.0000   -0.0004   -0.0000   -0.0000    0.0000    0.0000    0.0007   -0.0013    0.0000    0.0000
      111 NB     7f3+      -0.0000   -0.0007   -0.0000   -0.0000    0.0000    0.0000    0.0007   -0.0024    0.0000    0.0000
      112 NB     8f3+       0.0000    0.0011    0.0000    0.0000   -0.0000   -0.0000   -0.0009    0.0031   -0.0000   -0.0000
      113 NB     5g4-       0.0002   -0.0000    0.0000   -0.0000   -0.0000    0.0000   -0.0000    0.0000   -0.0000    0.0000
      114 NB     6g4-       0.0002   -0.0000    0.0000   -0.0000   -0.0000    0.0000   -0.0000    0.0000   -0.0000    0.0000
      115 NB     7g4-       0.0002   -0.0000    0.0000   -0.0000    0.0000   -0.0000    0.0000    0.0000   -0.0000    0.0000
      116 NB     8g4-       0.0001   -0.0000    0.0000   -0.0000   -0.0000    0.0001   -0.0000    0.0000   -0.0000    0.0000
      117 NB     5g3-       0.0000   -0.0000    0.0000   -0.0000   -0.0000    0.0000   -0.0000   -0.0000   -0.0000    0.0000
      118 NB     6g3-       0.0000    0.0000    0.0000   -0.0000   -0.0000    0.0000   -0.0000    0.0000    0.0000    0.0000
      119 NB     7g3-       0.0000    0.0000    0.0000   -0.0000   -0.0000    0.0000   -0.0000   -0.0000    0.0000    0.0000
      120 NB     8g3-       0.0000    0.0000    0.0000   -0.0000   -0.0000    0.0000    0.0000   -0.0000    0.0000    0.0000
      121 NB     5g2-       0.0001    0.0000    0.0000   -0.0002    0.0000   -0.0001    0.0000    0.0000   -0.0000    0.0003
      122 NB     6g2-       0.0000   -0.0000    0.0000   -0.0002    0.0000   -0.0001    0.0000    0.0000   -0.0000    0.0003
      123 NB     7g2-       0.0001   -0.0000    0.0000   -0.0001    0.0000   -0.0000    0.0000   -0.0000   -0.0000    0.0002
      124 NB     8g2-      -0.0000    0.0000    0.0000   -0.0001    0.0000   -0.0001    0.0000    0.0000   -0.0000    0.0001
      125 NB     5g1-       0.0003   -0.0000   -0.0000    0.0001    0.0000   -0.0002    0.0000    0.0000    0.0000   -0.0003
      126 NB     6g1-       0.0003   -0.0000   -0.0000    0.0001    0.0000   -0.0002    0.0000    0.0000    0.0000   -0.0003
      127 NB     7g1-       0.0003   -0.0000   -0.0000    0.0001    0.0000   -0.0002    0.0000   -0.0000    0.0000   -0.0002
      128 NB     8g1-       0.0001   -0.0000   -0.0000    0.0001    0.0000   -0.0000    0.0000    0.0000    0.0000   -0.0002
      129 NB     5g0       -0.0000    0.0003    0.0000    0.0000   -0.0000   -0.0000   -0.0003    0.0000   -0.0000    0.0000
      130 NB     6g0        0.0000    0.0003    0.0000    0.0000   -0.0000   -0.0000   -0.0003   -0.0000   -0.0000    0.0000
      131 NB     7g0       -0.0000    0.0003    0.0000   -0.0000   -0.0000   -0.0000   -0.0002   -0.0000   -0.0000    0.0000
      132 NB     8g0        0.0000    0.0003    0.0000   -0.0000   -0.0000   -0.0000   -0.0002    0.0000   -0.0000   -0.0000
      133 NB     5g1+       0.0000   -0.0000   -0.0001   -0.0000   -0.0002   -0.0000    0.0000   -0.0000    0.0003    0.0000
      134 NB     6g1+       0.0000    0.0000   -0.0001   -0.0000   -0.0002   -0.0000    0.0000   -0.0000    0.0003    0.0000
      135 NB     7g1+       0.0000   -0.0000   -0.0001   -0.0000   -0.0002   -0.0000    0.0000   -0.0000    0.0002    0.0000
      136 NB     8g1+       0.0000    0.0000   -0.0001   -0.0000   -0.0000   -0.0000    0.0000    0.0000    0.0002    0.0000
      137 NB     5g2+      -0.0000    0.0000   -0.0002   -0.0000    0.0001    0.0000   -0.0000   -0.0000    0.0003    0.0000
      138 NB     6g2+      -0.0000    0.0000   -0.0002   -0.0000    0.0001    0.0000   -0.0000   -0.0000    0.0003    0.0000
      139 NB     7g2+      -0.0000    0.0000   -0.0001   -0.0000    0.0000    0.0000   -0.0000   -0.0000    0.0002    0.0000
      140 NB     8g2+       0.0000    0.0000   -0.0001   -0.0000    0.0001    0.0000   -0.0000    0.0000    0.0001    0.0000
      141 NB     5g3+       0.0000    0.0001    0.0000    0.0000    0.0000    0.0000   -0.0000   -0.0000   -0.0000   -0.0000
      142 NB     6g3+       0.0000    0.0002    0.0000    0.0000    0.0000    0.0000   -0.0000   -0.0001   -0.0000   -0.0000
      143 NB     7g3+       0.0000    0.0001    0.0000    0.0000    0.0000    0.0000    0.0000   -0.0001   -0.0000   -0.0000
      144 NB     8g3+       0.0000    0.0001    0.0000    0.0000   -0.0000   -0.0000   -0.0000    0.0001   -0.0000   -0.0000
      145 NB     5g4+       0.0000   -0.0000    0.0000    0.0000    0.0000    0.0000   -0.0000    0.0000   -0.0000   -0.0000
      146 NB     6g4+       0.0000   -0.0000    0.0000    0.0000    0.0000    0.0000   -0.0000    0.0000   -0.0000   -0.0000
      147 NB     7g4+       0.0000   -0.0000    0.0000    0.0000   -0.0000   -0.0000    0.0000    0.0000   -0.0000   -0.0000
      148 NB     8g4+       0.0000   -0.0000    0.0000    0.0000    0.0001    0.0000   -0.0000   -0.0000   -0.0000   -0.0000
      149 NB     6h5-      -0.0000   -0.0000   -0.0000    0.0000   -0.0000    0.0000   -0.0000   -0.0000    0.0000   -0.0001
      150 NB     7h5-      -0.0000    0.0000   -0.0000    0.0001   -0.0000    0.0000   -0.0000    0.0000    0.0000   -0.0002
      151 NB     6h4-      -0.0000    0.0000    0.0000   -0.0000   -0.0000    0.0000   -0.0000    0.0000   -0.0000    0.0000
      152 NB     7h4-       0.0000   -0.0000    0.0000   -0.0000   -0.0000    0.0000   -0.0000    0.0000   -0.0000    0.0001
      153 NB     6h3-       0.0000   -0.0000    0.0000    0.0000   -0.0000    0.0000    0.0000   -0.0000    0.0000   -0.0000
      154 NB     7h3-      -0.0000    0.0000   -0.0000    0.0000   -0.0000    0.0000    0.0000    0.0000   -0.0000    0.0000
      155 NB     6h2-      -0.0000    0.0000   -0.0000    0.0000   -0.0000    0.0000   -0.0000   -0.0000    0.0000   -0.0001
      156 NB     7h2-      -0.0000   -0.0000   -0.0000    0.0001   -0.0000    0.0000   -0.0000    0.0000    0.0000   -0.0001
      157 NB     6h1-       0.0000    0.0000    0.0000   -0.0000   -0.0000    0.0001   -0.0000   -0.0000   -0.0000    0.0001
      158 NB     7h1-      -0.0000    0.0000    0.0000   -0.0001   -0.0000    0.0001   -0.0000    0.0000   -0.0000    0.0001
      159 NB     6h0        0.0000    0.0000   -0.0000   -0.0000    0.0000    0.0000    0.0001   -0.0000    0.0000   -0.0000
      160 NB     7h0       -0.0000    0.0000   -0.0000   -0.0000    0.0000    0.0000    0.0001   -0.0000    0.0000   -0.0000
      161 NB     6h1+       0.0000   -0.0000    0.0000    0.0000    0.0001    0.0000   -0.0000   -0.0000   -0.0001   -0.0000
      162 NB     7h1+      -0.0000    0.0000    0.0001    0.0000    0.0001    0.0000   -0.0000    0.0000   -0.0001   -0.0000
      163 NB     6h2+       0.0000   -0.0000    0.0000    0.0000   -0.0000   -0.0000    0.0000    0.0000   -0.0001   -0.0000
      164 NB     7h2+       0.0000    0.0000    0.0001    0.0000   -0.0000   -0.0000    0.0000    0.0000   -0.0001   -0.0000
      165 NB     6h3+      -0.0000   -0.0000   -0.0000    0.0000    0.0000    0.0000    0.0000   -0.0000   -0.0000    0.0000
      166 NB     7h3+      -0.0000    0.0000    0.0000    0.0000    0.0000    0.0000    0.0000   -0.0000   -0.0000    0.0000
      167 NB     6h4+      -0.0000    0.0000    0.0000    0.0000    0.0000    0.0000   -0.0000   -0.0000   -0.0000   -0.0000
      168 NB     7h4+       0.0000    0.0000    0.0000    0.0000    0.0000    0.0000   -0.0000    0.0000   -0.0001   -0.0000
      169 NB     6h5+       0.0000   -0.0000    0.0000    0.0000   -0.0000   -0.0000    0.0000    0.0000   -0.0001   -0.0000
[...]
         1   17       4.85527484E-05  9.89352268E-09  1.64522969E-15  1.32778252E+04  1.32778252E+04
         2    4       4.06926746E-01  5.76070166E+02  4.85160556E+07  1.49430561E-11  4.85166316E+07
         2    6       4.06926746E-01  4.85160556E+07  5.76070167E+02  4.83248172E-10  4.85166316E+07
         2    8       4.25445376E-01  5.45436639E-10  1.60723220E-11  5.44726189E+07  5.44726189E+07
         2   14       2.98880370E-03  4.80526155E+05  3.36311492E+05  1.57196403E-10  8.16837647E+05
         2   16       2.98880370E-03  3.36311490E+05  4.80526157E+05  1.14293980E-10  8.16837647E+05
         2   18       4.85527484E-05  9.89352268E-09  1.64522969E-15  1.32778252E+04  1.32778252E+04
         3    7       1.47630802E-04  2.75192484E-04  2.31764380E+01  1.53641075E-19  2.31767132E+01
         3    9       1.47868593E-01  3.15800014E+06  5.01596885E+05  7.77114254E+05  4.43671128E+06
         3   11       1.26249379E-01  5.01596895E+05  3.15800008E+06  1.28442356E+05  3.78803933E+06
         3   13       8.22278678E-02  3.94958138E+05  5.72284045E+05  1.62309084E+06  2.59033302E+06
         3   15       1.03298767E-01  5.72284190E+05  3.94958040E+05  2.28686388E+06  3.25410611E+06
         3   17       5.48873946E-02  2.05685110E+01  1.73226016E+06  5.02403441E-13  1.73228073E+06
         4    8       1.47630802E-04  2.75192484E-04  2.31764380E+01  1.53641075E-19  2.31767132E+01
         4   10       1.47868593E-01  3.15800014E+06  5.01596885E+05  7.77114254E+05  4.43671128E+06
         4   12       1.26249379E-01  5.01596895E+05  3.15800008E+06  1.28442356E+05  3.78803933E+06
         4   14       8.22278678E-02  3.94958138E+05  5.72284045E+05  1.62309084E+06  2.59033302E+06
         4   16       1.03298767E-01  5.72284190E+05  3.94958040E+05  2.28686388E+06  3.25410611E+06
         4   18       5.48873946E-02  2.05685110E+01  1.73226016E+06  5.02403441E-13  1.73228073E+06
         5    7       1.47630802E-04  2.31764379E+01  2.75192514E-04  4.92017960E-16  2.31767131E+01
         5    9       1.26249381E-01  5.01596894E+05  3.15800013E+06  1.28442363E+05  3.78803939E+06
         5   11       1.47868594E-01  3.15800015E+06  5.01596894E+05  7.77114287E+05  4.43671133E+06
         5   13       1.03298775E-01  5.72284375E+05  3.94958142E+05  2.28686386E+06  3.25410637E+06
         5   15       8.22278761E-02  3.94958271E+05  5.72284197E+05  1.62309082E+06  2.59033328E+06
         5   17       5.48873744E-02  1.73225952E+06  2.05685190E+01  4.25650075E-08  1.73228009E+06
         6    8       1.47630802E-04  2.31764379E+01  2.75192514E-04  4.92017960E-16  2.31767131E+01
         6   10       1.26249381E-01  5.01596894E+05  3.15800013E+06  1.28442363E+05  3.78803939E+06
         6   12       1.47868594E-01  3.15800015E+06  5.01596894E+05  7.77114287E+05  4.43671133E+06
         6   14       1.03298775E-01  5.72284375E+05  3.94958142E+05  2.28686386E+06  3.25410637E+06
         6   16       8.22278761E-02  3.94958271E+05  5.72284197E+05  1.62309082E+06  2.59033328E+06
         6   18       5.48873744E-02  1.73225952E+06  2.05685190E+01  4.25650075E-08  1.73228009E+06
         7    9       2.85917383E-02  1.02944420E+05  6.35314502E+05  2.42867458E-11  7.38258921E+05
         7   11       2.85917387E-02  6.35314514E+05  1.02944417E+05  1.81240607E-10  7.38258931E+05
         7   13       1.16677135E-01  1.86773112E+06  1.30719094E+06  3.56579654E-08  3.17492206E+06
         7   15       1.16677135E-01  1.30719094E+06  1.86773113E+06  2.53734349E-08  3.17492206E+06
         7   17       1.90131158E-01  3.58543420E-08  4.59218980E-13  5.18407306E+06  5.18407306E+06
         8   10       2.85917383E-02  1.02944420E+05  6.35314502E+05  2.42867458E-11  7.38258921E+05
         8   12       2.85917387E-02  6.35314514E+05  1.02944417E+05  1.81240607E-10  7.38258931E+05
         8   14       1.16677135E-01  1.86773112E+06  1.30719094E+06  3.56579654E-08  3.17492206E+06
         8   16       1.16677135E-01  1.30719094E+06  1.86773113E+06  2.53734349E-08  3.17492206E+06
         8   18       1.90131158E-01  3.58543420E-08  4.59218980E-13  5.18407306E+06  5.18407306E+06
     -----------------------------------------------------------------------------------------------
--

++ Velocity transition strengths (SO states):
   ------------------------------------------
    for osc. strength at least    1.0000000000000001E-005

      From   To        Osc. strength     Einstein coefficients Ax, Ay, Az (sec-1)    Total A (sec-1)
     -----------------------------------------------------------------------------------------------
         1    3       3.19022918E-01  4.51629749E+02  3.80358076E+07  1.25867234E-11  3.80362592E+07
         1    5       3.19022918E-01  3.80358076E+07  4.51629750E+02  3.83062467E-10  3.80362592E+07
         1    7       3.30222324E-01  4.19199332E-10  1.16055840E-11  4.22807212E+07  4.22807212E+07
         1    9       2.37930672E-05  8.91992055E+02  5.50486811E+03  9.43089380E-13  6.39686016E+03
         1   11       2.37930679E-05  5.50486847E+03  8.91991889E+02  7.75835596E-12  6.39686036E+03
         1   13       2.33772973E-03  3.75850775E+05  2.63051102E+05  1.13059278E-12  6.38901877E+05
         1   15       2.33772973E-03  2.63051101E+05  3.75850777E+05  5.97506533E-13  6.38901877E+05
         2    4       3.19022918E-01  4.51629749E+02  3.80358076E+07  1.25867234E-11  3.80362592E+07
         2    6       3.19022918E-01  3.80358076E+07  4.51629750E+02  3.83062467E-10  3.80362592E+07
         2    8       3.30222324E-01  4.19199332E-10  1.16055840E-11  4.22807212E+07  4.22807212E+07
         2   10       2.37930672E-05  8.91992055E+02  5.50486811E+03  9.43089380E-13  6.39686016E+03
         2   12       2.37930679E-05  5.50486847E+03  8.91991889E+02  7.75835596E-12  6.39686036E+03
         2   14       2.33772973E-03  3.75850775E+05  2.63051102E+05  1.13059278E-12  6.38901877E+05
         2   16       2.33772973E-03  2.63051101E+05  3.75850777E+05  5.97506533E-13  6.38901877E+05
         3    7       1.09093542E-03  2.03357691E-03  1.71265647E+02  5.57757249E-18  1.71267681E+02
         3    9       4.18717217E-01  8.95203408E+06  1.42188480E+06  2.18949183E+06  1.25634107E+07
         3   11       3.57806063E-01  1.42188483E+06  8.95203391E+06  3.61881778E+05  1.07358005E+07
         3   13       2.33433656E-01  1.12572188E+06  1.63114167E+06  4.59676274E+06  7.35362629E+06
         3   15       2.93108435E-01  1.63114208E+06  1.12572161E+06  6.47663731E+06  9.23350099E+06
         3   17       1.52811698E-01  5.72648790E+01  4.82279290E+06  1.25832171E-12  4.82285016E+06
         4    8       1.09093542E-03  2.03357691E-03  1.71265647E+02  5.57757249E-18  1.71267681E+02
         4   10       4.18717217E-01  8.95203408E+06  1.42188480E+06  2.18949183E+06  1.25634107E+07
         4   12       3.57806063E-01  1.42188483E+06  8.95203391E+06  3.61881778E+05  1.07358005E+07
         4   14       2.33433656E-01  1.12572188E+06  1.63114167E+06  4.59676274E+06  7.35362629E+06
         4   16       2.93108435E-01  1.63114208E+06  1.12572161E+06  6.47663731E+06  9.23350099E+06
         4   18       1.52811698E-01  5.72648790E+01  4.82279290E+06  1.25832171E-12  4.82285016E+06
         5    7       1.09093544E-03  1.71265651E+02  2.03357250E-03  1.47449856E-16  1.71267685E+02
         5    9       3.57806068E-01  1.42188483E+06  8.95203406E+06  3.61881801E+05  1.07358007E+07
         5   11       4.18717222E-01  8.95203409E+06  1.42188483E+06  2.18949192E+06  1.25634108E+07
         5   13       2.93108459E-01  1.63114260E+06  1.12572190E+06  6.47663725E+06  9.23350175E+06
         5   15       2.33433680E-01  1.12572226E+06  1.63114210E+06  4.59676268E+06  7.35362704E+06
         5   17       1.52811641E-01  4.82279111E+06  5.72649014E+01  1.20537240E-07  4.82284838E+06
         6    8       1.09093544E-03  1.71265651E+02  2.03357250E-03  1.47449856E-16  1.71267685E+02
         6   10       3.57806068E-01  1.42188483E+06  8.95203406E+06  3.61881801E+05  1.07358007E+07
         6   12       4.18717222E-01  8.95203409E+06  1.42188483E+06  2.18949192E+06  1.25634108E+07
         6   14       2.93108459E-01  1.63114260E+06  1.12572190E+06  6.47663725E+06  9.23350175E+06
         6   16       2.33433680E-01  1.12572226E+06  1.63114210E+06  4.59676268E+06  7.35362704E+06
         6   18       1.52811641E-01  4.82279111E+06  5.72649014E+01  1.20537240E-07  4.82284838E+06
         7    9       8.71453543E-02  3.13767529E+05  1.93639502E+06  7.72235686E-11  2.25016255E+06
         7   11       8.71453554E-02  1.93639506E+06  3.13767521E+05  5.78689320E-10  2.25016258E+06
         7   13       3.60349722E-01  5.76838579E+06  4.03718800E+06  1.09801156E-07  9.80557378E+06
         7   15       3.60349722E-01  4.03718797E+06  5.76838581E+06  7.81812792E-08  9.80557379E+06
         7   17       5.85733688E-01  1.10823450E-07  1.47114878E-12  1.59705375E+07  1.59705375E+07
         8   10       8.71453543E-02  3.13767529E+05  1.93639502E+06  7.72235686E-11  2.25016255E+06
         8   12       8.71453554E-02  1.93639506E+06  3.13767521E+05  5.78689320E-10  2.25016258E+06
         8   14       3.60349722E-01  5.76838579E+06  4.03718800E+06  1.09801156E-07  9.80557378E+06
         8   16       3.60349722E-01  4.03718797E+06  5.76838581E+06  7.81812792E-08  9.80557379E+06
         8   18       5.85733688E-01  1.10823450E-07  1.47114878E-12  1.59705375E+07  1.59705375E+07
         9   13       6.74308769E-03  8.92081335E+01  2.55573135E+01  8.17365218E+00  1.22939099E+02
         9   15       1.05469282E-02  2.55573093E+01  8.92081487E+01  7.75247675E+01  1.92290225E+02
         9   17       3.56305282E-03  9.77371599E+00  6.03177894E+01  1.37955729E-13  7.00915054E+01
        10   14       6.74308769E-03  8.92081335E+01  2.55573135E+01  8.17365218E+00  1.22939099E+02
        10   16       1.05469282E-02  2.55573093E+01  8.92081487E+01  7.75247675E+01  1.92290225E+02
        10   18       3.56305282E-03  9.77371599E+00  6.03177894E+01  1.37955729E-13  7.00915054E+01
        11   13       1.05469274E-02  2.55572996E+01  8.92081425E+01  7.75247688E+01  1.92290211E+02
        11   15       6.74308684E-03  8.92081272E+01  2.55573039E+01  8.17365262E+00  1.22939084E+02
        11   17       3.56305439E-03  6.03178260E+01  9.77371012E+00  7.97309614E-13  7.00915361E+01
        12   14       1.05469274E-02  2.55572996E+01  8.92081425E+01  7.75247688E+01  1.92290211E+02
        12   16       6.74308684E-03  8.92081272E+01  2.55573039E+01  8.17365262E+00  1.22939084E+02
        12   18       3.56305439E-03  6.03178260E+01  9.77371012E+00  7.97309614E-13  7.00915361E+01
        13   17       2.96005089E-02  4.76411846E-01  3.33431946E-01  5.95358885E-17  8.09843792E-01
        14   18       2.96005089E-02  4.76411846E-01  3.33431946E-01  5.95358885E-17  8.09843792E-01
        15   17       2.96005086E-02  3.33431956E-01  4.76411829E-01  7.62631780E-17  8.09843784E-01
        16   18       2.96005086E-02  3.33431956E-01  4.76411829E-01  7.62631780E-17  8.09843784E-01
     -----------------------------------------------------------------------------------------------
--

++ Length and velocity gauge comparison (SO states):

 --------------------------------------------------
 A comparison between the dipole oscillator strengths in 
 length and velocity gauge will be performed

 All dipole oscillator differences above the tolerance of   0.10000000000000001       will be printed 

 Due to basis set deficiency these oscillator may be problematic 

 The tolerance is defined as ABS(1-O_l/O_v) 
 O_l : dipole oscillator strength in length gauge
 O_p : dipole oscillator strength in velocity gauge
 --------------------------------------------------

  Problematic transitions have been found

      From   To       Difference (%) Osc. st. (len.) Osc. st. (vel.)
     ---------------------------------------------------------------
         1    3            27.554079  4.06926746E-01  3.19022918E-01
         1    5            27.554080  4.06926746E-01  3.19022918E-01
         1    7            28.836043  4.25445376E-01  3.30222324E-01
         1    9      --------------- below threshold  2.37930672E-05
         1   11      --------------- below threshold  2.37930679E-05
         1   13            27.850694  2.98880370E-03  2.33772973E-03
         1   15            27.850694  2.98880370E-03  2.33772973E-03
         1   17      ---------------  4.85527484E-05 below threshold
         2    4            27.554079  4.06926746E-01  3.19022918E-01
         2    6            27.554080  4.06926746E-01  3.19022918E-01
         2    8            28.836043  4.25445376E-01  3.30222324E-01
         2   10      --------------- below threshold  2.37930672E-05
         2   12      --------------- below threshold  2.37930679E-05
         2   14            27.850694  2.98880370E-03  2.33772973E-03
         2   16            27.850694  2.98880370E-03  2.33772973E-03
         2   18      ---------------  4.85527484E-05 below threshold
         3    7            86.467503  1.47630802E-04  1.09093542E-03
         3    9            64.685333  1.47868593E-01  4.18717217E-01
         3   11            64.715696  1.26249379E-01  3.57806063E-01
         3   13            64.774631  8.22278678E-02  2.33433656E-01
         3   15            64.757491  1.03298767E-01  2.93108435E-01
         3   17            64.081680  5.48873946E-02  1.52811698E-01
         4    8            86.467503  1.47630802E-04  1.09093542E-03
         4   10            64.685333  1.47868593E-01  4.18717217E-01
         4   12            64.715696  1.26249379E-01  3.57806063E-01
         4   14            64.774631  8.22278678E-02  2.33433656E-01
         4   16            64.757491  1.03298767E-01  2.93108435E-01
         4   18            64.081680  5.48873946E-02  1.52811698E-01
         5    7            86.467503  1.47630802E-04  1.09093544E-03
         5    9            64.715696  1.26249381E-01  3.57806068E-01
         5   11            64.685333  1.47868594E-01  4.18717222E-01
         5   13            64.757491  1.03298775E-01  2.93108459E-01
         5   15            64.774631  8.22278761E-02  2.33433680E-01
         5   17            64.081680  5.48873744E-02  1.52811641E-01
         6    8            86.467503  1.47630802E-04  1.09093544E-03
         6   10            64.715696  1.26249381E-01  3.57806068E-01
         6   12            64.685333  1.47868594E-01  4.18717222E-01
         6   14            64.757491  1.03298775E-01  2.93108459E-01
         6   16            64.774631  8.22278761E-02  2.33433680E-01
         6   18            64.081680  5.48873744E-02  1.52811641E-01
         7    9            67.190749  2.85917383E-02  8.71453543E-02
         7   11            67.190749  2.85917387E-02  8.71453554E-02
         7   13            67.621139  1.16677135E-01  3.60349722E-01
         7   15            67.621139  1.16677135E-01  3.60349722E-01
         7   17            67.539658  1.90131158E-01  5.85733688E-01
         8   10            67.190749  2.85917383E-02  8.71453543E-02
         8   12            67.190749  2.85917387E-02  8.71453554E-02
         8   14            67.621139  1.16677135E-01  3.60349722E-01
         8   16            67.621139  1.16677135E-01  3.60349722E-01
         8   18            67.539658  1.90131158E-01  5.85733688E-01
         9   13      --------------- below threshold  6.74308769E-03
         9   15      --------------- below threshold  1.05469282E-02
         9   17      --------------- below threshold  3.56305282E-03
        10   14      --------------- below threshold  6.74308769E-03
        10   16      --------------- below threshold  1.05469282E-02
        10   18      --------------- below threshold  3.56305282E-03
        11   13      --------------- below threshold  1.05469274E-02
        11   15      --------------- below threshold  6.74308684E-03
        11   17      --------------- below threshold  3.56305439E-03
        12   14      --------------- below threshold  1.05469274E-02
        12   16      --------------- below threshold  6.74308684E-03
        12   18      --------------- below threshold  3.56305439E-03
        13   17      --------------- below threshold  2.96005089E-02
        14   18      --------------- below threshold  2.96005089E-02
        15   17      --------------- below threshold  2.96005086E-02
        16   18      --------------- below threshold  2.96005086E-02
     ---------------------------------------------------------------

 Number of problematic transitions =                    66

--

 Electric-dipole - electric-octupole not included
++ I/O STATISTICS
 
  I. General I/O information
  - - - - - - - - - - - - - - - - - - - - - - - - - - - - - - - - - - - - - - - - - - -
  Unit  Name          Flsize      Write/Read            MBytes           Write/Read
                      (MBytes)       Calls              In/Out           Time, sec.
  - - - - - - - - - - - - - - - - - - - - - - - - - - - - - - - - - - - - - - - - - - -
   1  SCRATCH           0.00 .       9/      45 .      0.0/      0.0 .       0/       0
   2  ANNI              0.00 .       0/       0 .      0.0/      0.0 .       0/       0
   3  RUNFILE          14.67 .     322/    9923 .      2.3/     72.0 .       0/       0
   4  ONEINT            5.14 .       0/   22237 .      0.0/   3722.5 .       0/       0
   5  JOBIPH            5.92 .       0/      92 .      0.0/      0.7 .       0/       0
   6  ORDINT          403.03 .       1/    3225 .      0.0/    806.0 .       0/       0
  - - - - - - - - - - - - - - - - - - - - - - - - - - - - - - - - - - - - - - - - - - -
   *  TOTAL           428.76 .     332/   35522 .      2.3/   4601.2 .       0/       0
  - - - - - - - - - - - - - - - - - - - - - - - - - - - - - - - - - - - - - - - - - - -
 
  II. I/O Access Patterns
  - - - - - - - - - - - - - - - - - - - -
  Unit  Name               % of random
                         Write/Read calls
  - - - - - - - - - - - - - - - - - - - -
   1  SCRATCH             88.9/ 100.0
   2  ANNI                 0.0/   0.0
   3  RUNFILE             28.6/  10.8
   4  ONEINT               0.0/  17.4
   5  JOBIPH               0.0/  76.1
   6  ORDINT             100.0/   0.1
  - - - - - - - - - - - - - - - - - - - -
--
--- Stop Module: rassi at Thu Jan  9 20:43:00 2025 /rc=_RC_ALL_IS_WELL_ ---
*** files: xmldump
    saved to directory /home4/s4752295/Internship/Initial_simulations/Point_charge_model/1_electron/active_space_9_non_rel/Nb/varying_bond_length
--- Module rassi spent 3 seconds ---

.##################.
.# Happy landing! #.
.##################.

    Timing: Wall=49.84 User=36.80 System=8.01

###############################################################################
Hbrk Cluster
Job 14549865 for user s4752295
Finished at: Thu Jan  9 20:43:00 CET 2025

Job details:
============

Job ID                         : 14549865
Name                           : Nb_no_c_light
User                           : s4752295
Partition                      : regularmedium
Nodes                          : node80
Number of Nodes                : 1
Cores                          : 1
Number of Tasks                : 1
State                          : RUNNING  
Submit                         : 2025-01-09T20:42:03
Start                          : 2025-01-09T20:42:04
End                            : --
Reserved walltime              : 15:00:00
Used walltime                  : 00:00:56
Used CPU time                  : -- 
% User (Computation)           : --
% System (I/O)                 : --
Total memory reserved          : 25000M
Maximum memory used            : --

Acknowledgements:
=================

Please see this page for information about acknowledging Hbrk in your publications:

https://wiki.hpc.rug.nl/habrok/introduction/scientific_output

################################################################################
