   This run of MOLCAS is using the pymolcas driver

                             OPE
                             OPE          NMOL  CASOP  ENMOLC A   SO
                 OPE        NMOLC        AS  OP EN  MO LC     AS  OP
                OPENM       OL CA        SO  PE NM  OL CA     SOP EN
                OP EN      MO   LC       AS  OP ENMOL  CASO   PENMOL
                OP  EN     MO   LC       AS  OP EN     MO     LC ASO
               OP   E  NMOL  C  AS       OP  EN MO     LC     AS  OP
               OP  E   NMO   LC AS        OPEN  MO     LCASOP EN   M
               O  PEN   MO  LCA  SO
            OPE   NMO   L   CAS    OP
        OPENMOL  CASOP     ENMOL   CASOPE
     OPENMOLCA   SOPENMOLCASOPEN   MOLCASOPE
    OPENMOLCAS   OP           EN   MOL    CAS
    OPENMOLCAS       OP  ENM        O     LCA
    OPENMOLCAS    OPEN  MOLCASO     P  E  NMO
    OPENMOLCAS     OP               E  N  MOL
    OPENMOLCA   SO           PENM   O  L  CAS    OPEN    MO    LCAS
    OPENMOLCA   SOP           ENM   O  L  CAS   OP  EN  MOLC  AS   O
    OPENMOLCA   SOPE           NM      O  LCA   S      OP  EN MO
    OPENMOLC                AS         O  PEN   M      OL  CA  SOPE
    OPENMO        LCASOPE  NMOL        C  ASO   P      ENMOLC     AS
    OPE     NMO      LCA  SO     P     E   NM   OL  CA SO  PE N   MO
          OPENMOLCA            SOPE   NMO        LCAS  O    P  ENMO
     OPENMOLCASOPENMOLCASOPENMOLCASOPENMOLCA
        OPENMOLCASOPENMOLCASOPENMOLCASOPE
            OPENMOLCASOPENMOLCASOPENM
               OPENMOLCASOPENMOLCA        version: o91e1abe7de707b ?
                   OPENMOLCASO
                       OPE                tag:

 OpenMolcas is free software; you can redistribute it and/or modify it
 under the terms of the GNU Lesser General Public License version 2.1.
 OpenMolcas is distributed in the hope that it will be useful, but it
 is provided "as is" and without any express or implied warranties.
 For more details see the full text of the license in the file
 LICENSE or in <http://www.gnu.org/licenses/>.

                 Copyright (C) The OpenMolcas Authors
           For the author list and the recommended citation,
                   consult the file CONTRIBUTORS.md

           *************************************************
           * pymolcas version py2.10                       *
           *   build 3068ae8b88c9345ec6cfef6fef7f1169      *
           *   (after the EMIL interpreter by V. Veryazov) *
           *************************************************

configuration info
------------------
Host name: login1 (Linux)
C Compiler ID: GNU
C flags: -std=gnu99
Fortran Compiler ID: GNU
Fortran flags: -fno-aggressive-loop-optimizations -cpp -fdefault-integer-8 -fmax-stack-var-size=1048576
Definitions: _MOLCAS_;_I8_;_LINUX_;_MKL_
Parallel: OFF (GA=OFF)


   ----------------------------------------------------------------------------------------------------------------------------------------------
  |
  |           Project: niobium_so_cf
  |    Submitted from: /home4/s4752295/Internship/Initial_simulations/Point_charge_model/1_electron/active_space_9_non_rel/Nb/varying_bond_length
  |      Scratch area: /tmp/niobium_so_cf
  |   Save outputs to: /home4/s4752295/Internship/Initial_simulations/Point_charge_model/1_electron/active_space_9_non_rel/Nb/varying_bond_length
  |            Molcas: /home4/s4752295/Internship/Molcas/recomp_try/OpenMolcas-master/build
  |
  | Scratch area is empty
  |
  |    MOLCAS_DRIVER = /home4/s4752295/Internship/Molcas/bin/pymolcas
  |    MOLCAS_NPROCS = 1
  |    MOLCAS_SOURCE = /home4/s4752295/Internship/Molcas/recomp_try/OpenMolcas-master
  | MOLCAS_STRUCTURE = 0
  |
   ----------------------------------------------------------------------------------------------------------------------------------------------

++ ---------   Input file   ---------

&SEWARD
AMFi

CLIG
$R

Basis Set
Nb.ANO-rcc.Roos.21s18p13d6f4g2h.10s9p8d5f4g2h.
Spherical d
Nb            0.0       0.0     0.0
End of Basis

Xfield

4
0.000000,  0.0000,  1.134       -1.0
0.982073,  0.0000, -0.567       -1.0
-0.491036,  0.8505, -0.567      -1.0
-0.491036, -0.8505, -0.567      -1.0

End of input

&SCF
Occupied
18
Iterations
   50  100
End of Input

&RASSCF
LumOrb
Symmetry
1
Spin
2
Nactel
1 0 0
CIRoot
9 9 1
inactive
18
ras2
9
Alter
4
1 19 24
1 20 25
1 21 26
1 22 27
End of Input

>>> COPY niobium_so_cf.JobIph $SLURM_SUBMIT_DIR/niobium_so_cf.doublet.JobIph

>>> COPY $SLURM_SUBMIT_DIR/niobium_so_cf.doublet.JobIph ./JOB002

&RASSI
NROFJobIph
1 All
SpinOrbit
End of Input

EOF

-- ----------------------------------

--- Start Module: seward at Fri Jan 10 02:36:23 2025 ---

()()()()()()()()()()()()()()()()()()()()()()()()()()()()()()()()()()()()()()()()()()()()()()()()()()

                                              &SEWARD

                                   only a single process is used
                       available to each process: 4.1 GB of memory, 1 thread?
                                            pid: 1101449
()()()()()()()()()()()()()()()()()()()()()()()()()()()()()()()()()()()()()()()()()()()()()()()()()()

 The speed of LIGHT in this CALCULATION =   137.03599917700001     
               SEWARD will generate:
                  Multipole Moment integrals up to order  2
                  Kinetic Energy integrals
                  Nuclear Attraction integrals (point charge)
                  One-Electron Hamiltonian integrals
                  Velocity integrals
                  Relativistic Douglas-Kroll-Hess integrals:
                    - Parametrization         : EXP
                    - DKH order of Hamiltonian: 2
                    - DKH order of Properties : 0
                         - multipole moment operators
                         - electric potential operators
                         - contact operators
                  External field from     4 point(s) added to the one-electron Hamiltonian
                  Orbital angular momentum around ( 0.0000  0.0000  0.0000 )
                  Velocity quadrupole around ( 0.0000  0.0000  0.0000 )
                  Atomic mean-field integrals
                  Two-Electron Repulsion integrals

                   Integrals are discarded if absolute value <: 0.10E-13
                   Integral cutoff threshold is set to       <: 0.10E-15

++    Symmetry information:
      ---------------------

                    Character Table for C1 

                             E  
                    a        1  x, y, xy, Rz, z, xz, Ry, yz, Rx, I
--


++    Basis set information:
      ----------------------


      Basis set label: NB.ANO-RCC.ROOS.21S18P13D6F4G2H.10S9P8D5F4G2H......

      Electronic valence basis set:
      ------------------
      Associated Effective Charge  41.000000 au
      Associated Actual Charge     41.000000 au
      Nuclear Model: Point charge

      Shell  nPrim  nBasis  Cartesian Spherical Contaminant
         s      21      10        X                  
         p      18       9        X                  
         d      13       8                 X         
         f       6       5                 X         
         g       4       4                 X         
         h       2       2                 X         
--


++    Molecular structure info:
      -------------------------

                    ************************************************ 
                    **** Cartesian Coordinates / Bohr, Angstrom **** 
                    ************************************************ 

     Center  Label                x              y              z                     x              y              z
        1      NB               0.000000       0.000000       0.000000              0.000000       0.000000       0.000000
--


++    Operator info:
      --------------


  Net charge from external field:   -4.0000000000000000     
--


            Nuclear Potential Energy              0.00000000 au

                    Nuclear-External Field Potential Energy    -144.62081714 au
                    External Field Potential Energy               3.29105025 au 


            Total Nuclear Potential Energy           -144.62081714 au


      Basis set specifications :
      Symmetry species         a  
      Basis functions          170

 Sorry, Molden does not know how to handle
 functions with angular momentum larger than g
Note: The following floating-point exceptions are signalling: IEEE_UNDERFLOW_FLAG IEEE_DENORMAL
--- Stop Module: seward at Fri Jan 10 02:36:31 2025 /rc=_RC_ALL_IS_WELL_ ---
*** files: niobium_so_cf.GssOrb xmldump
    saved to directory /home4/s4752295/Internship/Initial_simulations/Point_charge_model/1_electron/active_space_9_non_rel/Nb/varying_bond_length
--- Module seward spent 8 seconds ---

*** symbolic link created: INPORB -> niobium_so_cf.GssOrb
--- Start Module: scf at Fri Jan 10 02:36:31 2025 ---

()()()()()()()()()()()()()()()()()()()()()()()()()()()()()()()()()()()()()()()()()()()()()()()()()()

                                                &SCF

                                   only a single process is used
                       available to each process: 4.1 GB of memory, 1 thread?
                                            pid: 1101454
()()()()()()()()()()()()()()()()()()()()()()()()()()()()()()()()()()()()()()()()()()()()()()()()()()

++    Input section:
      --------------

      Header of the integral files:
      
       Integrals generated by seward 4.2.0  , Fri Jan 10 02:36:23 2025


      Cartesian coordinates in Angstrom:
      -----------------------------------------------------
      No.  Label        X            Y            Z        
      -----------------------------------------------------
       1   NB         0.00000000   0.00000000   0.00000000
      -----------------------------------------------------
      Nuclear repulsion energy = -144.62081714
--

++    Orbital specifications:
      -----------------------

      Symmetry species               1
                                     a
      Frozen orbitals                0
      Occupied orbitals             18
      Secondary orbitals           152
      Deleted orbitals               0
      Total number of orbitals     170
      Number of basis functions    170
--

      Molecular charge                           5.000

++    Optimization specifications:
      ----------------------------

      SCF Algorithm: Conventional
      Minimized density differences are used
      Number of density matrices in core                5
      Maximum number of NDDO SCF iterations            50
      Maximum number of HF SCF iterations             100
      Threshold for SCF energy change            0.10E-08
      Threshold for density matrix               0.10E-03
      Threshold for Fock matrix                  0.15E-03
      Threshold for linear dependence            0.10E-08
      Threshold at which DIIS is turned on       0.15E+00
      Threshold at which QNR/C2DIIS is turned on 0.75E-01
      Threshold for Norm(delta) (QNR/C2DIIS)     0.20E-04
      DIIS extrapolation of the SCF procedure
      All orbitals punched on: SCFORB
--

      Detected guessorb starting orbitals                                             


++ Convergence information
                                   SCF        iterations: Energy and convergence statistics

Iter     Tot. SCF        One-elec.       Two-elec.     Energy      Max Dij or  Max Fij      DNorm      TNorm      AccCon     Time
         Energy          Energy          Energy        Change      Delta Norm                                                in Sec.

 The total and one-electron energies are shifted by a value of      3000. a.u.

   1  -833.562113376 -2044.345732292  1355.404436053   0.00E+00    0.23E+00*   0.27E+00*    0.85E+01   0.49E+03   None         1.
   2  -834.426086552 -2026.814068993  1337.008799578  -0.86E+00*   0.71E-01*   0.54E-01*    0.15E+01   0.48E+03   EDIIS        1.
   3  -834.454714543 -2031.404717311  1341.570819905  -0.29E-01*   0.17E-01*   0.19E-01*    0.31E+00   0.48E+03   EDIIS        1.
   4  -834.457513642 -2029.622757408  1339.786060902  -0.28E-02*   0.77E-02*   0.92E-02*    0.56E-01   0.48E+03   c2DIIS       1.
   5  -834.457877937 -2030.387938755  1340.550877955  -0.36E-03*   0.30E-02*   0.43E-02*    0.10E-01   0.48E+03   QNRc2DIIS    1.
   6  -834.457931623 -2030.047017201  1340.209902714  -0.54E-04*   0.10E-02*   0.19E-02*    0.28E-02   0.48E+03   QNRc2DIIS    0.
   7  -834.457941500 -2030.142127794  1340.305003431  -0.99E-05*   0.41E-03*   0.19E-03*    0.28E-03   0.48E+03   QNRc2DIIS    1.
   8  -834.457941897 -2030.151685219  1340.314560459  -0.40E-06*   0.11E-04    0.95E-05     0.34E-04   0.48E+03   QNRc2DIIS    1.
   9  -834.457941898 -2030.151661066  1340.314536305  -0.59E-09    0.24E-05    0.93E-06     0.66E-04   0.48E+03   QNRc2DIIS    1.

       Convergence after  9 Macro Iterations
--

 *****************************************************************************************************************************
 *                                                                                                                           *
 *                                             SCF/KS-DFT Program, Final results                                             *
 *                                                                                                                           *
 *                                                                                                                           *
 *                                                                                                                           *
 *                                                       Final Results                                                       *
 *                                                                                                                           *
 *****************************************************************************************************************************

::    Total SCF energy                              -3834.4579418977
      One-electron energy                           -5030.1516610658
      Two-electron energy                            1340.3145363047
      Nuclear repulsion energy                       -144.6208171366
      Kinetic energy (interpolated)                  4185.0467674812
      Virial theorem                                    0.9162282180
      Total spin, S(S+1)                                0.0000000000
      Total spin, S                                     0.0000000000
      Max non-diagonal density matrix element           0.0000020473
      Max non-diagonal Fock matrix element              0.0000002861


      All orbitals with orbital energies smaller than  E(LUMO)+0.5 are printed

++    Molecular orbitals:
      -------------------

      Title: SCF orbitals

      Molecular orbitals for symmetry species 1: a  

          Orbital            1         2         3         4         5         6         7         8         9        10    
          Energy         -701.0651 -100.5677  -89.5950  -89.5950  -89.5911  -17.6130  -13.9250  -13.9250  -13.8815   -7.8804
          Occ. No.          2.0000    2.0000    2.0000    2.0000    2.0000    2.0000    2.0000    2.0000    2.0000    2.0000

        1 NB     1s         1.0000    0.0000   -0.0000    0.0000   -0.0000   -0.0000    0.0000    0.0000    0.0000    0.0000
        2 NB     2s        -0.0000    1.0000   -0.0000    0.0000   -0.0009    0.0003   -0.0000    0.0000   -0.0001   -0.0000
        3 NB     3s         0.0000   -0.0003   -0.0000   -0.0000    0.0001    0.9999   -0.0000   -0.0000   -0.0119   -0.0000
        4 NB     4s        -0.0000    0.0001    0.0000   -0.0000   -0.0000   -0.0032   -0.0000    0.0000    0.0017    0.0000
        5 NB     5s         0.0000   -0.0000   -0.0000    0.0000    0.0000    0.0006    0.0000   -0.0000   -0.0003   -0.0000
        6 NB     6s        -0.0000    0.0000    0.0000   -0.0000   -0.0000   -0.0007   -0.0000    0.0000    0.0003    0.0000
        7 NB     7s         0.0000   -0.0001   -0.0000    0.0000    0.0000    0.0015    0.0000   -0.0000   -0.0007   -0.0000
        8 NB     8s        -0.0000    0.0001    0.0000    0.0000   -0.0000   -0.0009    0.0000   -0.0000    0.0004    0.0000
        9 NB     9s         0.0000   -0.0001   -0.0000   -0.0000    0.0000    0.0006   -0.0000    0.0000   -0.0002   -0.0000
       10 NB    10s        -0.0000    0.0001   -0.0000   -0.0000   -0.0000   -0.0002   -0.0000    0.0000    0.0000   -0.0000
       11 NB     2px        0.0000    0.0000    1.0000    0.0000    0.0000   -0.0000    0.0003    0.0000    0.0000   -0.0000
       12 NB     3px       -0.0000    0.0000   -0.0003   -0.0000   -0.0000    0.0000    0.9999    0.0000    0.0000    0.0000
       13 NB     4px        0.0000   -0.0000    0.0001    0.0000    0.0000   -0.0000   -0.0030   -0.0000   -0.0000   -0.0000
       14 NB     5px       -0.0000    0.0000   -0.0000   -0.0000   -0.0000    0.0000    0.0009    0.0000    0.0000    0.0000
       15 NB     6px        0.0000   -0.0000    0.0001    0.0000    0.0000    0.0000   -0.0019   -0.0000   -0.0000   -0.0000
       16 NB     7px       -0.0000    0.0000   -0.0001   -0.0000   -0.0000   -0.0000    0.0012    0.0000    0.0000    0.0000
       17 NB     8px        0.0000   -0.0000    0.0001    0.0000    0.0000    0.0000   -0.0009   -0.0000   -0.0000   -0.0000
       18 NB     9px       -0.0000    0.0000   -0.0001   -0.0000   -0.0000   -0.0000    0.0003    0.0000    0.0000   -0.0000
       19 NB    10px        0.0000   -0.0000    0.0001    0.0000    0.0000   -0.0000   -0.0002   -0.0000   -0.0000    0.0000
       20 NB     2py        0.0000    0.0000   -0.0000    1.0000    0.0000    0.0000   -0.0000    0.0003   -0.0000    0.0000
       21 NB     3py       -0.0000   -0.0000    0.0000   -0.0003   -0.0000    0.0000   -0.0000    0.9999    0.0000   -0.0003
       22 NB     4py        0.0000    0.0000   -0.0000    0.0001    0.0000   -0.0000    0.0000   -0.0030   -0.0000    0.0019
       23 NB     5py        0.0000   -0.0000    0.0000   -0.0000   -0.0000    0.0000   -0.0000    0.0009    0.0000   -0.0004
       24 NB     6py        0.0000    0.0000   -0.0000    0.0001    0.0000   -0.0000    0.0000   -0.0019   -0.0000    0.0007
       25 NB     7py       -0.0000   -0.0000    0.0000   -0.0001   -0.0000    0.0000   -0.0000    0.0012    0.0000   -0.0003
       26 NB     8py        0.0000    0.0000   -0.0000    0.0001    0.0000   -0.0000    0.0000   -0.0009    0.0000    0.0000
       27 NB     9py       -0.0000   -0.0000    0.0000   -0.0001   -0.0000    0.0000   -0.0000    0.0003    0.0000    0.0002
       28 NB    10py        0.0000    0.0000   -0.0000    0.0001    0.0000   -0.0000    0.0000   -0.0002    0.0000   -0.0000
       29 NB     2pz        0.0000    0.0009   -0.0000   -0.0000    1.0000   -0.0000   -0.0000   -0.0000    0.0003    0.0000
       30 NB     3pz       -0.0000    0.0001    0.0000    0.0000   -0.0003    0.0119   -0.0000   -0.0000    0.9999    0.0000
       31 NB     4pz        0.0000   -0.0000   -0.0000   -0.0000    0.0001    0.0008    0.0000    0.0000   -0.0050    0.0000
       32 NB     5pz       -0.0000    0.0000    0.0000    0.0000   -0.0000   -0.0002   -0.0000   -0.0000    0.0014   -0.0000
       33 NB     6pz        0.0000   -0.0000   -0.0000   -0.0000    0.0001    0.0005    0.0000    0.0000   -0.0030   -0.0000
       34 NB     7pz       -0.0000    0.0000    0.0000    0.0000   -0.0001   -0.0003   -0.0000   -0.0000    0.0020    0.0000
       35 NB     8pz        0.0000   -0.0000   -0.0000   -0.0000    0.0001    0.0003    0.0000   -0.0000   -0.0013    0.0000
       36 NB     9pz       -0.0000    0.0000    0.0000    0.0000   -0.0001   -0.0002    0.0000    0.0000    0.0004    0.0000
       37 NB    10pz        0.0000   -0.0000   -0.0000   -0.0000    0.0001    0.0001    0.0000    0.0000   -0.0002    0.0000
       38 NB     3d2-      -0.0000   -0.0000   -0.0000    0.0000    0.0000   -0.0000   -0.0000    0.0051    0.0000    0.9103
       39 NB     4d2-       0.0000    0.0000    0.0000   -0.0000   -0.0000    0.0000   -0.0000    0.0012    0.0000   -0.0016
       40 NB     5d2-      -0.0000   -0.0000   -0.0000    0.0000    0.0000   -0.0000    0.0000   -0.0012   -0.0000    0.0018
       41 NB     6d2-       0.0000    0.0000    0.0000   -0.0000   -0.0000    0.0000   -0.0000    0.0010    0.0000   -0.0017
       42 NB     7d2-      -0.0000   -0.0000   -0.0000    0.0000    0.0000   -0.0000    0.0000   -0.0008   -0.0000    0.0015
       43 NB     8d2-       0.0000    0.0000    0.0000   -0.0000    0.0000    0.0000   -0.0000    0.0008    0.0000   -0.0017
       44 NB     9d2-      -0.0000    0.0000    0.0000   -0.0000   -0.0000   -0.0000    0.0000   -0.0004   -0.0000    0.0010
       45 NB    10d2-      -0.0000    0.0000    0.0000   -0.0000   -0.0000   -0.0000   -0.0000    0.0000   -0.0000    0.0007
       46 NB     3d1-       0.0000   -0.0000   -0.0000    0.0001    0.0000    0.0000   -0.0000    0.0104    0.0000   -0.4139
       47 NB     4d1-       0.0000    0.0000    0.0000   -0.0000   -0.0000    0.0000   -0.0000    0.0016    0.0000   -0.0002
       48 NB     5d1-      -0.0000   -0.0000   -0.0000    0.0000    0.0000   -0.0000    0.0000   -0.0016   -0.0000    0.0000
       49 NB     6d1-       0.0000    0.0000    0.0000   -0.0000   -0.0000    0.0000   -0.0000    0.0014    0.0000    0.0001
       50 NB     7d1-      -0.0000    0.0000   -0.0000    0.0000    0.0000   -0.0000    0.0000   -0.0012   -0.0000   -0.0002
       51 NB     8d1-      -0.0000   -0.0000    0.0000   -0.0000   -0.0000    0.0000   -0.0000    0.0012    0.0000    0.0004
       52 NB     9d1-       0.0000    0.0000   -0.0000    0.0000    0.0000   -0.0000    0.0000   -0.0007   -0.0000   -0.0004
       53 NB    10d1-       0.0000    0.0000   -0.0000    0.0000    0.0000    0.0000    0.0000   -0.0002   -0.0000   -0.0004
       54 NB     3d0       -0.0000   -0.0000   -0.0000   -0.0000    0.0001   -0.0031    0.0000    0.0000   -0.0020   -0.0000
       55 NB     4d0       -0.0000    0.0000    0.0000    0.0000   -0.0000   -0.0005    0.0000    0.0000   -0.0015    0.0000
       56 NB     5d0        0.0000   -0.0000   -0.0000   -0.0000    0.0000    0.0005   -0.0000   -0.0000    0.0014   -0.0000
       57 NB     6d0       -0.0000    0.0000    0.0000    0.0000   -0.0000   -0.0005    0.0000    0.0000   -0.0011    0.0000
       58 NB     7d0        0.0000   -0.0000   -0.0000   -0.0000    0.0000    0.0004   -0.0000   -0.0000    0.0009   -0.0000
       59 NB     8d0        0.0000    0.0000    0.0000    0.0000   -0.0000   -0.0005    0.0000   -0.0000   -0.0007    0.0000
       60 NB     9d0       -0.0000   -0.0000   -0.0000   -0.0000    0.0000    0.0003   -0.0000    0.0000    0.0002   -0.0000
       61 NB    10d0       -0.0000   -0.0000   -0.0000   -0.0000    0.0000    0.0001    0.0000    0.0000   -0.0003   -0.0000
       62 NB     3d1+      -0.0000   -0.0000    0.0001    0.0000    0.0000   -0.0000    0.0104    0.0000    0.0000    0.0000
       63 NB     4d1+       0.0000    0.0000   -0.0000   -0.0000   -0.0000   -0.0000    0.0016    0.0000    0.0000    0.0000
       64 NB     5d1+      -0.0000   -0.0000    0.0000    0.0000    0.0000    0.0000   -0.0016   -0.0000   -0.0000   -0.0000
       65 NB     6d1+       0.0000    0.0000   -0.0000   -0.0000   -0.0000   -0.0000    0.0014    0.0000    0.0000   -0.0000
       66 NB     7d1+      -0.0000   -0.0000    0.0000    0.0000    0.0000    0.0000   -0.0012   -0.0000   -0.0000    0.0000
       67 NB     8d1+       0.0000    0.0000   -0.0000   -0.0000   -0.0000   -0.0000    0.0012    0.0000    0.0000   -0.0000
       68 NB     9d1+      -0.0000   -0.0000    0.0000    0.0000    0.0000    0.0000   -0.0007   -0.0000   -0.0000    0.0000
       69 NB    10d1+      -0.0000   -0.0000    0.0000    0.0000    0.0000    0.0000   -0.0002   -0.0000   -0.0000    0.0000
       70 NB     3d2+       0.0000    0.0000   -0.0000   -0.0000   -0.0000    0.0000   -0.0051   -0.0000   -0.0000    0.0000
       71 NB     4d2+       0.0000   -0.0000    0.0000    0.0000    0.0000    0.0000   -0.0012   -0.0000   -0.0000   -0.0000
       72 NB     5d2+      -0.0000    0.0000   -0.0000   -0.0000   -0.0000   -0.0000    0.0012    0.0000    0.0000    0.0000
       73 NB     6d2+       0.0000   -0.0000    0.0000    0.0000    0.0000    0.0000   -0.0010   -0.0000   -0.0000   -0.0000
       74 NB     7d2+       0.0000    0.0000   -0.0000   -0.0000   -0.0000   -0.0000    0.0008    0.0000    0.0000    0.0000
       75 NB     8d2+      -0.0000   -0.0000    0.0000    0.0000    0.0000    0.0000   -0.0008   -0.0000   -0.0000   -0.0000
       76 NB     9d2+       0.0000    0.0000    0.0000    0.0000   -0.0000   -0.0000    0.0004    0.0000    0.0000    0.0000
       77 NB    10d2+       0.0000    0.0000    0.0000    0.0000    0.0000   -0.0000   -0.0000   -0.0000    0.0000    0.0000
       78 NB     4f3-      -0.0000    0.0000   -0.0000    0.0000    0.0000    0.0000   -0.0000    0.0000   -0.0000   -0.0000
       79 NB     5f3-       0.0000    0.0000   -0.0000    0.0000    0.0000    0.0000   -0.0000    0.0000   -0.0000   -0.0000
       80 NB     6f3-      -0.0000   -0.0000    0.0000   -0.0000   -0.0000   -0.0000    0.0000   -0.0000    0.0000    0.0000
       81 NB     7f3-       0.0000    0.0000   -0.0000    0.0000   -0.0000    0.0000   -0.0000    0.0000    0.0000    0.0000
       82 NB     8f3-      -0.0000   -0.0000   -0.0000    0.0000   -0.0000    0.0000   -0.0000    0.0000    0.0000    0.0000
       83 NB     4f2-      -0.0000   -0.0000    0.0000   -0.0000   -0.0000   -0.0000    0.0000   -0.0011   -0.0000    0.0030
       84 NB     5f2-      -0.0000   -0.0000    0.0000   -0.0000   -0.0000   -0.0000    0.0000   -0.0012   -0.0000    0.0028
       85 NB     6f2-       0.0000   -0.0000   -0.0000    0.0000    0.0000    0.0000   -0.0000    0.0010    0.0000   -0.0020
       86 NB     7f2-      -0.0000    0.0000    0.0000   -0.0000   -0.0000   -0.0000    0.0000   -0.0008   -0.0000    0.0015
       87 NB     8f2-      -0.0000    0.0000    0.0000   -0.0000   -0.0000   -0.0000    0.0000   -0.0003   -0.0000    0.0010
       88 NB     4f1-      -0.0000   -0.0000    0.0000   -0.0000   -0.0000   -0.0000    0.0000   -0.0006   -0.0000   -0.0008
       89 NB     5f1-      -0.0000   -0.0000    0.0000   -0.0000   -0.0000   -0.0000    0.0000   -0.0007   -0.0000   -0.0007
       90 NB     6f1-       0.0000    0.0000   -0.0000    0.0000    0.0000    0.0000   -0.0000    0.0006    0.0000    0.0005
       91 NB     7f1-       0.0000   -0.0000    0.0000   -0.0000   -0.0000   -0.0000    0.0000   -0.0005   -0.0000   -0.0004
       92 NB     8f1-       0.0000   -0.0000    0.0000   -0.0000   -0.0000   -0.0000    0.0000   -0.0003   -0.0000   -0.0003
       93 NB     4f0       -0.0000    0.0000    0.0000    0.0000   -0.0000   -0.0018    0.0000    0.0000   -0.0009    0.0000
       94 NB     5f0       -0.0000    0.0000    0.0000    0.0000   -0.0000   -0.0019    0.0000    0.0000   -0.0010    0.0000
       95 NB     6f0        0.0000   -0.0000   -0.0000   -0.0000    0.0000    0.0016   -0.0000   -0.0000    0.0008   -0.0000
       96 NB     7f0       -0.0000   -0.0000    0.0000    0.0000   -0.0000   -0.0013    0.0000    0.0000   -0.0007    0.0000
       97 NB     8f0        0.0000   -0.0000    0.0000    0.0000   -0.0000   -0.0007    0.0000    0.0000   -0.0004    0.0000
       98 NB     4f1+       0.0000    0.0000   -0.0000   -0.0000   -0.0000    0.0000   -0.0006   -0.0000   -0.0000    0.0000
       99 NB     5f1+       0.0000    0.0000   -0.0000   -0.0000   -0.0000    0.0000   -0.0007   -0.0000   -0.0000    0.0000
      100 NB     6f1+      -0.0000   -0.0000    0.0000    0.0000    0.0000   -0.0000    0.0006    0.0000    0.0000   -0.0000
      101 NB     7f1+       0.0000    0.0000   -0.0000   -0.0000   -0.0000    0.0000   -0.0005   -0.0000   -0.0000    0.0000
      102 NB     8f1+       0.0000    0.0000   -0.0000   -0.0000   -0.0000    0.0000   -0.0003   -0.0000   -0.0000    0.0000
      103 NB     4f2+      -0.0000    0.0000    0.0000    0.0000    0.0000   -0.0000    0.0011    0.0000    0.0000    0.0000
      104 NB     5f2+      -0.0000    0.0000    0.0000    0.0000    0.0000   -0.0000    0.0012    0.0000    0.0000    0.0000
      105 NB     6f2+       0.0000    0.0000   -0.0000   -0.0000   -0.0000    0.0000   -0.0010   -0.0000   -0.0000   -0.0000
      106 NB     7f2+      -0.0000   -0.0000    0.0000    0.0000    0.0000   -0.0000    0.0008    0.0000    0.0000    0.0000
      107 NB     8f2+      -0.0000   -0.0000    0.0000    0.0000    0.0000   -0.0000    0.0003    0.0000    0.0000    0.0000
      108 NB     4f3+      -0.0000    0.0000   -0.0000   -0.0000    0.0000   -0.0012    0.0000   -0.0000    0.0009   -0.0000
      109 NB     5f3+      -0.0000    0.0000   -0.0000   -0.0000    0.0000   -0.0012    0.0000   -0.0000    0.0010   -0.0000
      110 NB     6f3+       0.0000   -0.0000    0.0000    0.0000   -0.0000    0.0011   -0.0000    0.0000   -0.0009    0.0000
      111 NB     7f3+      -0.0000   -0.0000    0.0000   -0.0000    0.0000   -0.0009    0.0000   -0.0000    0.0006   -0.0000
      112 NB     8f3+       0.0000   -0.0000    0.0000    0.0000    0.0000   -0.0005    0.0000    0.0000    0.0003   -0.0000
      113 NB     5g4-      -0.0000   -0.0000    0.0000   -0.0000   -0.0000   -0.0000    0.0000   -0.0010   -0.0000   -0.0001
      114 NB     6g4-       0.0000    0.0000   -0.0000    0.0000    0.0000    0.0000   -0.0000    0.0009    0.0000    0.0001
      115 NB     7g4-      -0.0000    0.0000    0.0000   -0.0000   -0.0000   -0.0000    0.0000   -0.0009   -0.0000   -0.0001
      116 NB     8g4-       0.0000   -0.0000   -0.0000    0.0000    0.0000    0.0000   -0.0000    0.0009    0.0000    0.0001
      117 NB     5g3-      -0.0000   -0.0000    0.0000   -0.0000   -0.0000   -0.0000    0.0000   -0.0000    0.0000   -0.0000
      118 NB     6g3-      -0.0000    0.0000   -0.0000    0.0000   -0.0000   -0.0000   -0.0000    0.0000    0.0000    0.0000
      119 NB     7g3-       0.0000   -0.0000    0.0000   -0.0000    0.0000    0.0000    0.0000   -0.0000    0.0000   -0.0000
      120 NB     8g3-      -0.0000   -0.0000   -0.0000    0.0000   -0.0000   -0.0000   -0.0000    0.0000   -0.0000    0.0000
      121 NB     5g2-       0.0000    0.0000   -0.0000    0.0000    0.0000   -0.0000   -0.0000    0.0002    0.0000   -0.0004
      122 NB     6g2-      -0.0000   -0.0000    0.0000   -0.0000   -0.0000    0.0000    0.0000   -0.0002   -0.0000    0.0004
      123 NB     7g2-       0.0000    0.0000   -0.0000    0.0000    0.0000   -0.0000   -0.0000    0.0001    0.0000   -0.0003
      124 NB     8g2-      -0.0000   -0.0000    0.0000   -0.0000   -0.0000    0.0000    0.0000   -0.0001   -0.0000    0.0003
      125 NB     5g1-      -0.0000   -0.0000    0.0000   -0.0000   -0.0000   -0.0000    0.0000   -0.0012   -0.0000    0.0010
      126 NB     6g1-       0.0000    0.0000   -0.0000    0.0000    0.0000    0.0000   -0.0000    0.0011    0.0000   -0.0009
      127 NB     7g1-      -0.0000   -0.0000    0.0000   -0.0000   -0.0000   -0.0000    0.0000   -0.0011   -0.0000    0.0008
      128 NB     8g1-       0.0000    0.0000   -0.0000    0.0000    0.0000    0.0000   -0.0000    0.0010    0.0000   -0.0007
      129 NB     5g0       -0.0000    0.0000    0.0000    0.0000   -0.0000   -0.0001    0.0000    0.0000   -0.0020   -0.0000
      130 NB     6g0        0.0000    0.0000   -0.0000   -0.0000    0.0000    0.0001   -0.0000   -0.0000    0.0019   -0.0000
      131 NB     7g0       -0.0000   -0.0000    0.0000    0.0000   -0.0000   -0.0001    0.0000    0.0000   -0.0018    0.0000
      132 NB     8g0        0.0000    0.0000   -0.0000   -0.0000    0.0000    0.0001   -0.0000   -0.0000    0.0017   -0.0000
      133 NB     5g1+      -0.0000    0.0000   -0.0000   -0.0000    0.0000   -0.0000   -0.0012   -0.0000   -0.0000   -0.0000
      134 NB     6g1+       0.0000   -0.0000    0.0000    0.0000    0.0000    0.0000    0.0011    0.0000    0.0000    0.0000
      135 NB     7g1+      -0.0000    0.0000   -0.0000   -0.0000   -0.0000    0.0000   -0.0011   -0.0000   -0.0000   -0.0000
      136 NB     8g1+       0.0000   -0.0000    0.0000    0.0000    0.0000   -0.0000    0.0010    0.0000    0.0000    0.0000
      137 NB     5g2+       0.0000    0.0000   -0.0000   -0.0000   -0.0000    0.0000   -0.0002   -0.0000   -0.0000   -0.0000
      138 NB     6g2+      -0.0000   -0.0000    0.0000    0.0000    0.0000   -0.0000    0.0002    0.0000    0.0000    0.0000
      139 NB     7g2+       0.0000    0.0000   -0.0000   -0.0000   -0.0000    0.0000   -0.0001   -0.0000   -0.0000   -0.0000
      140 NB     8g2+      -0.0000   -0.0000    0.0000    0.0000    0.0000   -0.0000    0.0001    0.0000    0.0000    0.0000
      141 NB     5g3+       0.0000   -0.0000    0.0000    0.0000   -0.0000    0.0009    0.0000    0.0000   -0.0012    0.0000
      142 NB     6g3+      -0.0000   -0.0000   -0.0000   -0.0000    0.0000   -0.0009    0.0000   -0.0000    0.0011    0.0000
      143 NB     7g3+       0.0000    0.0000   -0.0000    0.0000   -0.0000    0.0009   -0.0000    0.0000   -0.0011   -0.0000
      144 NB     8g3+      -0.0000   -0.0000    0.0000   -0.0000    0.0000   -0.0008    0.0000   -0.0000    0.0009    0.0000
      145 NB     5g4+      -0.0000    0.0000   -0.0000   -0.0000    0.0000   -0.0000   -0.0010   -0.0000   -0.0000    0.0000
      146 NB     6g4+       0.0000   -0.0000    0.0000    0.0000    0.0000    0.0000    0.0009    0.0000    0.0000   -0.0000
      147 NB     7g4+      -0.0000   -0.0000   -0.0000   -0.0000   -0.0000   -0.0000   -0.0009   -0.0000   -0.0000    0.0000
      148 NB     8g4+       0.0000    0.0000    0.0000    0.0000    0.0000    0.0000    0.0009    0.0000    0.0000   -0.0000
      149 NB     6h5-       0.0000    0.0000   -0.0000    0.0000   -0.0000    0.0000   -0.0000    0.0002    0.0000   -0.0011
      150 NB     7h5-      -0.0000   -0.0000    0.0000   -0.0000    0.0000   -0.0000    0.0000   -0.0002   -0.0000    0.0009
      151 NB     6h4-       0.0000    0.0000   -0.0000    0.0000    0.0000    0.0000   -0.0000    0.0007    0.0000    0.0002
      152 NB     7h4-      -0.0000   -0.0000    0.0000   -0.0000   -0.0000   -0.0000    0.0000   -0.0007   -0.0000   -0.0001
      153 NB     6h3-      -0.0000   -0.0000    0.0000    0.0000   -0.0000   -0.0000   -0.0000    0.0000    0.0000    0.0000
      154 NB     7h3-       0.0000    0.0000   -0.0000   -0.0000    0.0000    0.0000    0.0000   -0.0000    0.0000   -0.0000
      155 NB     6h2-       0.0000    0.0000   -0.0000    0.0000    0.0000    0.0000   -0.0000    0.0002    0.0000   -0.0008
      156 NB     7h2-      -0.0000   -0.0000    0.0000   -0.0000   -0.0000   -0.0000    0.0000   -0.0002   -0.0000    0.0007
      157 NB     6h1-       0.0000   -0.0000   -0.0000    0.0000   -0.0000    0.0000   -0.0000    0.0002    0.0000    0.0004
      158 NB     7h1-      -0.0000    0.0000    0.0000   -0.0000   -0.0000   -0.0000    0.0000   -0.0002    0.0000   -0.0003
      159 NB     6h0       -0.0000   -0.0000    0.0000    0.0000   -0.0000   -0.0002    0.0000    0.0000   -0.0005    0.0000
      160 NB     7h0        0.0000    0.0000   -0.0000   -0.0000    0.0000    0.0002   -0.0000   -0.0000    0.0005   -0.0000
      161 NB     6h1+       0.0000   -0.0000    0.0000    0.0000    0.0000   -0.0000    0.0002    0.0000    0.0000   -0.0000
      162 NB     7h1+      -0.0000    0.0000   -0.0000   -0.0000   -0.0000    0.0000   -0.0002   -0.0000   -0.0000    0.0000
      163 NB     6h2+      -0.0000    0.0000   -0.0000   -0.0000   -0.0000    0.0000   -0.0002   -0.0000    0.0000   -0.0000
      164 NB     7h2+       0.0000   -0.0000    0.0000    0.0000    0.0000   -0.0000    0.0002    0.0000   -0.0000    0.0000
      165 NB     6h3+      -0.0000   -0.0000    0.0000    0.0000    0.0000   -0.0003   -0.0000   -0.0000    0.0006    0.0000
      166 NB     7h3+       0.0000    0.0000   -0.0000    0.0000   -0.0000    0.0003   -0.0000    0.0000   -0.0006   -0.0000
      167 NB     6h4+       0.0000   -0.0000    0.0000    0.0000    0.0000    0.0000    0.0007    0.0000    0.0000   -0.0000
      168 NB     7h4+      -0.0000   -0.0000   -0.0000   -0.0000   -0.0000   -0.0000   -0.0007   -0.0000   -0.0000    0.0000
      169 NB     6h5+       0.0000    0.0000   -0.0000   -0.0000   -0.0000    0.0000   -0.0002   -0.0000   -0.0000   -0.0000
      170 NB     7h5+      -0.0000   -0.0000    0.0000    0.0000    0.0000   -0.0000    0.0002    0.0000    0.0000    0.0000

          Orbital           11        12        13        14        15        16        17        18        19        20    
          Energy           -7.8804   -7.8419   -7.8419   -7.8375   -2.1717   -1.2438   -1.2438   -1.0614   -0.1530   -0.0914
          Occ. No.          2.0000    2.0000    2.0000    2.0000    2.0000    2.0000    2.0000    2.0000    0.0000    0.0000

        1 NB     1s        -0.0000    0.0000    0.0000    0.0000   -0.0000    0.0000   -0.0000   -0.0000   -0.0000    0.0000
        2 NB     2s        -0.0000    0.0000   -0.0000    0.0000    0.0001   -0.0000   -0.0000    0.0000    0.0000   -0.0000
        3 NB     3s        -0.0000    0.0000   -0.0000    0.0030   -0.0026    0.0000    0.0000   -0.0010   -0.0004   -0.0000
        4 NB     4s         0.0000   -0.0000    0.0000   -0.0049   -0.9842    0.0000    0.0000   -0.1083   -0.0358   -0.0000
        5 NB     5s        -0.0000    0.0000    0.0000    0.0007   -0.0565   -0.0000    0.0000   -0.0243    0.9399    0.0000
        6 NB     6s         0.0000   -0.0000    0.0000   -0.0007    0.0479    0.0000   -0.0000    0.0157    0.3157    0.0000
        7 NB     7s        -0.0000    0.0000   -0.0000    0.0012   -0.0484   -0.0000    0.0000   -0.0095   -0.0220    0.0000
        8 NB     8s         0.0000   -0.0000    0.0000   -0.0004   -0.0083    0.0000    0.0000   -0.0063   -0.0251    0.0000
        9 NB     9s        -0.0000    0.0000    0.0000   -0.0001    0.0130   -0.0000    0.0000    0.0033   -0.0039    0.0000
       10 NB    10s        -0.0000    0.0000   -0.0000    0.0001    0.0011   -0.0000   -0.0000    0.0004   -0.0005    0.0000
       11 NB     2px       -0.0000   -0.0001    0.0000    0.0000   -0.0000   -0.0001   -0.0000    0.0000   -0.0000    0.0000
       12 NB     3px        0.0003   -0.0115    0.0000    0.0000   -0.0000    0.0021    0.0000   -0.0000   -0.0000   -0.0003
       13 NB     4px       -0.0019    0.0089   -0.0000   -0.0000    0.0000    0.9747    0.0000   -0.0000    0.0000   -0.0366
       14 NB     5px        0.0004   -0.0020    0.0000    0.0000    0.0000    0.0949    0.0000   -0.0000   -0.0000    0.8185
       15 NB     6px       -0.0007    0.0037   -0.0000   -0.0000   -0.0000   -0.0845   -0.0000    0.0000   -0.0000    0.4237
       16 NB     7px        0.0003   -0.0018    0.0000    0.0000    0.0000   -0.0054   -0.0000    0.0000   -0.0000    0.3523
       17 NB     8px       -0.0000    0.0004   -0.0000   -0.0000   -0.0000    0.0163    0.0000   -0.0000   -0.0000    0.1342
       18 NB     9px       -0.0002    0.0005   -0.0000   -0.0000   -0.0000    0.0015    0.0000   -0.0000   -0.0000    0.0483
       19 NB    10px        0.0000   -0.0001    0.0000    0.0000    0.0000   -0.0000   -0.0000    0.0000   -0.0000    0.0064
       20 NB     2py       -0.0000   -0.0000   -0.0001    0.0000   -0.0000    0.0000   -0.0001    0.0000   -0.0000   -0.0000
       21 NB     3py        0.0000   -0.0000   -0.0115   -0.0000   -0.0000   -0.0000    0.0021   -0.0000    0.0000    0.0000
       22 NB     4py       -0.0000    0.0000    0.0089    0.0000    0.0000   -0.0000    0.9747    0.0000   -0.0000    0.0000
       23 NB     5py        0.0000   -0.0000   -0.0020   -0.0000    0.0000   -0.0000    0.0949    0.0000   -0.0000   -0.0000
       24 NB     6py       -0.0000    0.0000    0.0037    0.0000   -0.0000    0.0000   -0.0845   -0.0000   -0.0000   -0.0000
       25 NB     7py        0.0000   -0.0000   -0.0018   -0.0000    0.0000    0.0000   -0.0054   -0.0000   -0.0000   -0.0000
       26 NB     8py       -0.0000    0.0000    0.0004   -0.0000   -0.0000   -0.0000    0.0163   -0.0000   -0.0000   -0.0000
       27 NB     9py       -0.0000    0.0000    0.0005    0.0000   -0.0000   -0.0000    0.0015    0.0000   -0.0000   -0.0000
       28 NB    10py        0.0000   -0.0000   -0.0001   -0.0000    0.0000    0.0000   -0.0000   -0.0000    0.0000   -0.0000
       29 NB     2pz        0.0000   -0.0000    0.0000   -0.0001   -0.0000   -0.0000    0.0000   -0.0001   -0.0000    0.0000
       30 NB     3pz        0.0000   -0.0000   -0.0000    0.0019    0.0011    0.0000   -0.0000    0.0041    0.0002   -0.0000
       31 NB     4pz        0.0000   -0.0000    0.0000   -0.0063   -0.1088    0.0000   -0.0000    0.9664    0.0020   -0.0000
       32 NB     5pz       -0.0000    0.0000   -0.0000    0.0013    0.0030    0.0000   -0.0000    0.1457    0.1120    0.0000
       33 NB     6pz        0.0000   -0.0000    0.0000   -0.0024   -0.0020   -0.0000   -0.0000   -0.1131    0.0313    0.0000
       34 NB     7pz        0.0000    0.0000    0.0000    0.0011   -0.0008    0.0000   -0.0000   -0.0160    0.0218    0.0000
       35 NB     8pz       -0.0000    0.0000    0.0000   -0.0000    0.0012    0.0000   -0.0000    0.0235    0.0067    0.0000
       36 NB     9pz        0.0000   -0.0000    0.0000   -0.0006   -0.0005   -0.0000   -0.0000    0.0021    0.0017    0.0000
       37 NB    10pz        0.0000   -0.0000   -0.0000    0.0001   -0.0001    0.0000   -0.0000   -0.0003    0.0002    0.0000
       38 NB     3d2-      -0.0000    0.0000    0.4137    0.0000    0.0000    0.0000   -0.0039   -0.0000   -0.0000   -0.0000
       39 NB     4d2-       0.0000   -0.0000   -0.0033   -0.0000    0.0000   -0.0000    0.0916   -0.0000   -0.0000    0.0000
       40 NB     5d2-      -0.0000    0.0000    0.0031    0.0000   -0.0000    0.0000   -0.0397   -0.0000   -0.0000    0.0000
       41 NB     6d2-       0.0000   -0.0000   -0.0026   -0.0000    0.0000   -0.0000    0.0120   -0.0000    0.0000    0.0000
       42 NB     7d2-      -0.0000    0.0000    0.0021    0.0000   -0.0000    0.0000   -0.0019    0.0000    0.0000    0.0000
       43 NB     8d2-       0.0000   -0.0000   -0.0018   -0.0000    0.0000    0.0000   -0.0025    0.0000    0.0000   -0.0000
       44 NB     9d2-      -0.0000    0.0000    0.0008    0.0000    0.0000   -0.0000    0.0015   -0.0000    0.0000   -0.0000
       45 NB    10d2-      -0.0000    0.0000    0.0002   -0.0000   -0.0000   -0.0000    0.0001   -0.0000   -0.0000    0.0000
       46 NB     3d1-       0.0000    0.0000    0.9102    0.0000    0.0000    0.0000   -0.0053   -0.0000   -0.0000   -0.0000
       47 NB     4d1-       0.0000   -0.0000   -0.0051   -0.0000    0.0000   -0.0000    0.1326   -0.0000   -0.0000    0.0000
       48 NB     5d1-      -0.0000    0.0000    0.0050    0.0000   -0.0000    0.0000   -0.0558   -0.0000   -0.0000   -0.0000
       49 NB     6d1-      -0.0000   -0.0000   -0.0042   -0.0000    0.0000   -0.0000    0.0160    0.0000   -0.0000   -0.0000
       50 NB     7d1-       0.0000    0.0000    0.0035    0.0000    0.0000    0.0000   -0.0021   -0.0000    0.0000   -0.0000
       51 NB     8d1-      -0.0000   -0.0000   -0.0032   -0.0000   -0.0000    0.0000   -0.0033   -0.0000    0.0000    0.0000
       52 NB     9d1-       0.0000    0.0000    0.0017    0.0000   -0.0000   -0.0000    0.0016   -0.0000    0.0000    0.0000
       53 NB    10d1-       0.0000    0.0000    0.0007    0.0000   -0.0000   -0.0000    0.0002   -0.0000   -0.0000   -0.0000
       54 NB     3d0       -0.0000    0.0000   -0.0000    0.9999   -0.0048    0.0000    0.0000    0.0040   -0.0005   -0.0000
       55 NB     4d0        0.0000   -0.0000    0.0000   -0.0055    0.0430    0.0000    0.0000   -0.1071    0.0027    0.0000
       56 NB     5d0       -0.0000    0.0000   -0.0000    0.0054   -0.0257   -0.0000   -0.0000    0.0435   -0.0162    0.0000
       57 NB     6d0        0.0000   -0.0000    0.0000   -0.0046    0.0114   -0.0000   -0.0000   -0.0125   -0.0013    0.0000
       58 NB     7d0       -0.0000    0.0000   -0.0000    0.0038   -0.0039    0.0000   -0.0000    0.0020   -0.0001    0.0000
       59 NB     8d0        0.0000   -0.0000    0.0000   -0.0035   -0.0013   -0.0000    0.0000    0.0028    0.0010   -0.0000
       60 NB     9d0       -0.0000    0.0000   -0.0000    0.0019    0.0013    0.0000   -0.0000   -0.0024    0.0006   -0.0000
       61 NB    10d0       -0.0000    0.0000   -0.0000    0.0008    0.0001   -0.0000   -0.0000    0.0000   -0.0001    0.0000
       62 NB     3d1+       0.4139    0.9102   -0.0000   -0.0000   -0.0000   -0.0053   -0.0000    0.0000   -0.0000    0.0005
       63 NB     4d1+       0.0002   -0.0051    0.0000    0.0000   -0.0000    0.1326    0.0000   -0.0000    0.0000   -0.0085
       64 NB     5d1+      -0.0000    0.0050   -0.0000   -0.0000    0.0000   -0.0558   -0.0000    0.0000    0.0000    0.0454
       65 NB     6d1+      -0.0001   -0.0042    0.0000    0.0000    0.0000    0.0160    0.0000    0.0000    0.0000    0.0309
       66 NB     7d1+       0.0002    0.0035   -0.0000   -0.0000   -0.0000   -0.0021   -0.0000   -0.0000   -0.0000    0.0110
       67 NB     8d1+      -0.0004   -0.0032    0.0000    0.0000    0.0000   -0.0033   -0.0000    0.0000    0.0000   -0.0022
       68 NB     9d1+       0.0004    0.0017   -0.0000   -0.0000   -0.0000    0.0016    0.0000   -0.0000   -0.0000   -0.0028
       69 NB    10d1+       0.0004    0.0007   -0.0000   -0.0000    0.0000    0.0002    0.0000    0.0000    0.0000    0.0005
       70 NB     3d2+       0.9103   -0.4137    0.0000    0.0000    0.0000    0.0039    0.0000    0.0000    0.0000   -0.0004
       71 NB     4d2+      -0.0016    0.0033   -0.0000   -0.0000   -0.0000   -0.0916   -0.0000   -0.0000   -0.0000    0.0364
       72 NB     5d2+       0.0018   -0.0031    0.0000    0.0000    0.0000    0.0397    0.0000    0.0000    0.0000    0.0072
       73 NB     6d2+      -0.0017    0.0026   -0.0000   -0.0000   -0.0000   -0.0120   -0.0000   -0.0000   -0.0000    0.0088
       74 NB     7d2+       0.0015   -0.0021    0.0000    0.0000    0.0000    0.0019    0.0000    0.0000    0.0000    0.0011
       75 NB     8d2+      -0.0017    0.0018   -0.0000   -0.0000   -0.0000    0.0025    0.0000   -0.0000   -0.0000   -0.0006
       76 NB     9d2+       0.0010   -0.0008    0.0000    0.0000    0.0000   -0.0015   -0.0000    0.0000    0.0000   -0.0003
       77 NB    10d2+       0.0007   -0.0002    0.0000    0.0000   -0.0000   -0.0001   -0.0000   -0.0000   -0.0000    0.0001
       78 NB     4f3-       0.0000   -0.0000   -0.0000   -0.0000    0.0000   -0.0000    0.0000   -0.0000    0.0000    0.0000
       79 NB     5f3-       0.0000    0.0000   -0.0000    0.0000   -0.0000   -0.0000    0.0000    0.0000   -0.0000    0.0000
       80 NB     6f3-      -0.0000   -0.0000    0.0000    0.0000    0.0000    0.0000   -0.0000    0.0000   -0.0000    0.0000
       81 NB     7f3-      -0.0000   -0.0000   -0.0000   -0.0000   -0.0000    0.0000    0.0000   -0.0000   -0.0000    0.0000
       82 NB     8f3-      -0.0000   -0.0000   -0.0000    0.0000   -0.0000   -0.0000    0.0000   -0.0000    0.0000   -0.0000
       83 NB     4f2-      -0.0000    0.0000    0.0043    0.0000   -0.0000    0.0000   -0.0233   -0.0000    0.0000   -0.0000
       84 NB     5f2-      -0.0000    0.0000    0.0041    0.0000   -0.0000    0.0000   -0.0128   -0.0000   -0.0000   -0.0000
       85 NB     6f2-       0.0000   -0.0000   -0.0031   -0.0000   -0.0000   -0.0000    0.0037    0.0000    0.0000   -0.0000
       86 NB     7f2-      -0.0000    0.0000    0.0021    0.0000    0.0000   -0.0000    0.0000    0.0000   -0.0000   -0.0000
       87 NB     8f2-      -0.0000    0.0000    0.0011    0.0000    0.0000   -0.0000    0.0001    0.0000   -0.0000    0.0000
       88 NB     4f1-       0.0000    0.0000    0.0007    0.0000    0.0000    0.0000   -0.0183   -0.0000    0.0000    0.0000
       89 NB     5f1-       0.0000    0.0000    0.0007    0.0000   -0.0000    0.0000   -0.0076   -0.0000   -0.0000   -0.0000
       90 NB     6f1-      -0.0000   -0.0000   -0.0006   -0.0000   -0.0000   -0.0000    0.0011    0.0000   -0.0000   -0.0000
       91 NB     7f1-       0.0000    0.0000    0.0005    0.0000    0.0000   -0.0000    0.0001    0.0000   -0.0000   -0.0000
       92 NB     8f1-       0.0000    0.0000    0.0004    0.0000   -0.0000    0.0000   -0.0004   -0.0000   -0.0000    0.0000
       93 NB     4f0        0.0000   -0.0000    0.0000   -0.0020    0.0650   -0.0000   -0.0000   -0.0180    0.0030    0.0000
       94 NB     5f0        0.0000   -0.0000    0.0000   -0.0020    0.0373   -0.0000    0.0000   -0.0058    0.0112    0.0000
       95 NB     6f0       -0.0000    0.0000   -0.0000    0.0015   -0.0115   -0.0000   -0.0000    0.0003   -0.0017    0.0000
       96 NB     7f0        0.0000   -0.0000    0.0000   -0.0008    0.0010    0.0000    0.0000    0.0001    0.0009    0.0000
       97 NB     8f0        0.0000   -0.0000    0.0000   -0.0002    0.0001    0.0000    0.0000   -0.0004    0.0008   -0.0000
       98 NB     4f1+       0.0008    0.0007   -0.0000   -0.0000   -0.0000   -0.0183   -0.0000    0.0000   -0.0000   -0.0004
       99 NB     5f1+       0.0007    0.0007   -0.0000   -0.0000   -0.0000   -0.0076   -0.0000   -0.0000   -0.0000    0.0057
      100 NB     6f1+      -0.0005   -0.0006    0.0000    0.0000    0.0000    0.0011    0.0000    0.0000   -0.0000    0.0034
      101 NB     7f1+       0.0004    0.0005   -0.0000   -0.0000   -0.0000    0.0001    0.0000   -0.0000   -0.0000    0.0022
      102 NB     8f1+       0.0003    0.0004   -0.0000    0.0000   -0.0000   -0.0004   -0.0000   -0.0000    0.0000   -0.0011
      103 NB     4f2+       0.0030   -0.0043    0.0000    0.0000    0.0000    0.0233    0.0000    0.0000    0.0000   -0.0001
      104 NB     5f2+       0.0028   -0.0041    0.0000    0.0000    0.0000    0.0128    0.0000    0.0000    0.0000   -0.0030
      105 NB     6f2+      -0.0020    0.0031   -0.0000   -0.0000   -0.0000   -0.0037   -0.0000   -0.0000   -0.0000   -0.0001
      106 NB     7f2+       0.0015   -0.0021    0.0000    0.0000    0.0000   -0.0000   -0.0000    0.0000    0.0000   -0.0004
      107 NB     8f2+       0.0010   -0.0011    0.0000    0.0000    0.0000   -0.0001   -0.0000    0.0000    0.0000    0.0001
      108 NB     4f3+      -0.0000    0.0000   -0.0000    0.0019    0.0411   -0.0000   -0.0000    0.0348    0.0027   -0.0000
      109 NB     5f3+      -0.0000    0.0000   -0.0000    0.0018    0.0236    0.0000    0.0000    0.0163    0.0066   -0.0000
      110 NB     6f3+       0.0000   -0.0000    0.0000   -0.0013   -0.0073   -0.0000   -0.0000   -0.0040   -0.0014   -0.0000
      111 NB     7f3+      -0.0000   -0.0000   -0.0000    0.0009    0.0006    0.0000    0.0000   -0.0001    0.0004   -0.0000
      112 NB     8f3+       0.0000   -0.0000   -0.0000    0.0005    0.0001    0.0000   -0.0000    0.0001    0.0006   -0.0000
      113 NB     5g4-       0.0000    0.0000    0.0013    0.0000   -0.0000    0.0000   -0.0199   -0.0000    0.0000   -0.0000
      114 NB     6g4-      -0.0000   -0.0000   -0.0012   -0.0000   -0.0000   -0.0000    0.0067    0.0000    0.0000    0.0000
      115 NB     7g4-       0.0000    0.0000    0.0009    0.0000    0.0000    0.0000   -0.0018    0.0000   -0.0000   -0.0000
      116 NB     8g4-      -0.0000   -0.0000   -0.0006   -0.0000   -0.0000    0.0000   -0.0003   -0.0000    0.0000    0.0000
      117 NB     5g3-       0.0000    0.0000    0.0000   -0.0000    0.0000    0.0000   -0.0000    0.0000    0.0000   -0.0000
      118 NB     6g3-      -0.0000   -0.0000   -0.0000   -0.0000   -0.0000   -0.0000    0.0000   -0.0000    0.0000    0.0000
      119 NB     7g3-       0.0000    0.0000    0.0000    0.0000   -0.0000    0.0000   -0.0000   -0.0000   -0.0000   -0.0000
      120 NB     8g3-      -0.0000   -0.0000   -0.0000    0.0000    0.0000    0.0000   -0.0000   -0.0000    0.0000   -0.0000
      121 NB     5g2-       0.0000   -0.0000   -0.0013   -0.0000   -0.0000   -0.0000    0.0007    0.0000    0.0000   -0.0000
      122 NB     6g2-      -0.0000    0.0000    0.0012    0.0000   -0.0000    0.0000   -0.0012   -0.0000    0.0000   -0.0000
      123 NB     7g2-       0.0000   -0.0000   -0.0010   -0.0000    0.0000   -0.0000    0.0006    0.0000    0.0000    0.0000
      124 NB     8g2-      -0.0000    0.0000    0.0007    0.0000   -0.0000   -0.0000    0.0003    0.0000    0.0000    0.0000
      125 NB     5g1-      -0.0000    0.0000    0.0001    0.0000   -0.0000    0.0000   -0.0254   -0.0000    0.0000   -0.0000
      126 NB     6g1-       0.0000   -0.0000   -0.0001   -0.0000    0.0000   -0.0000    0.0081    0.0000    0.0000    0.0000
      127 NB     7g1-      -0.0000    0.0000    0.0000    0.0000    0.0000    0.0000   -0.0020   -0.0000   -0.0000   -0.0000
      128 NB     8g1-       0.0000    0.0000    0.0002    0.0000   -0.0000    0.0000   -0.0003   -0.0000    0.0000    0.0000
      129 NB     5g0        0.0000   -0.0000    0.0000   -0.0023    0.0046   -0.0000    0.0000   -0.0420    0.0000    0.0000
      130 NB     6g0       -0.0000    0.0000   -0.0000    0.0020   -0.0021    0.0000    0.0000    0.0141   -0.0007   -0.0000
      131 NB     7g0        0.0000   -0.0000    0.0000   -0.0017    0.0007   -0.0000   -0.0000   -0.0041    0.0001    0.0000
      132 NB     8g0       -0.0000    0.0000   -0.0000    0.0012    0.0001    0.0000    0.0000   -0.0012   -0.0000   -0.0000
      133 NB     5g1+      -0.0010    0.0001   -0.0000   -0.0000    0.0000   -0.0254   -0.0000    0.0000   -0.0000    0.0022
      134 NB     6g1+       0.0009   -0.0001    0.0000    0.0000   -0.0000    0.0081    0.0000   -0.0000   -0.0000   -0.0021
      135 NB     7g1+      -0.0008    0.0000   -0.0000   -0.0000   -0.0000   -0.0020   -0.0000    0.0000   -0.0000    0.0001
      136 NB     8g1+       0.0007    0.0002   -0.0000    0.0000    0.0000   -0.0003   -0.0000    0.0000    0.0000   -0.0001
      137 NB     5g2+      -0.0004    0.0013   -0.0000   -0.0000   -0.0000   -0.0007   -0.0000   -0.0000   -0.0000   -0.0002
      138 NB     6g2+       0.0004   -0.0012    0.0000    0.0000    0.0000    0.0012    0.0000    0.0000    0.0000   -0.0001
      139 NB     7g2+      -0.0003    0.0010   -0.0000   -0.0000   -0.0000   -0.0006   -0.0000   -0.0000   -0.0000    0.0001
      140 NB     8g2+       0.0003   -0.0007    0.0000    0.0000    0.0000   -0.0003   -0.0000    0.0000    0.0000    0.0000
      141 NB     5g3+       0.0000    0.0000    0.0000   -0.0006   -0.0213   -0.0000    0.0000   -0.0284   -0.0012    0.0000
      142 NB     6g3+       0.0000   -0.0000   -0.0000    0.0005    0.0111    0.0000    0.0000    0.0103    0.0031   -0.0000
      143 NB     7g3+      -0.0000    0.0000    0.0000   -0.0004   -0.0041   -0.0000   -0.0000   -0.0032   -0.0008    0.0000
      144 NB     8g3+       0.0000   -0.0000   -0.0000    0.0003   -0.0007    0.0000    0.0000   -0.0010    0.0000   -0.0000
      145 NB     5g4+       0.0001    0.0013   -0.0000   -0.0000    0.0000   -0.0199   -0.0000    0.0000    0.0000    0.0016
      146 NB     6g4+      -0.0001   -0.0012    0.0000    0.0000   -0.0000    0.0067    0.0000   -0.0000   -0.0000   -0.0017
      147 NB     7g4+       0.0001    0.0009   -0.0000   -0.0000    0.0000   -0.0018   -0.0000    0.0000    0.0000    0.0001
      148 NB     8g4+      -0.0001   -0.0006    0.0000    0.0000    0.0000   -0.0003   -0.0000    0.0000    0.0000   -0.0000
      149 NB     6h5-       0.0000   -0.0000   -0.0008   -0.0000   -0.0000   -0.0000    0.0017    0.0000   -0.0000   -0.0000
      150 NB     7h5-      -0.0000    0.0000    0.0007    0.0000    0.0000    0.0000   -0.0013   -0.0000    0.0000   -0.0000
      151 NB     6h4-      -0.0000   -0.0000   -0.0015   -0.0000    0.0000   -0.0000    0.0114    0.0000   -0.0000    0.0000
      152 NB     7h4-       0.0000    0.0000    0.0013    0.0000   -0.0000    0.0000   -0.0048   -0.0000   -0.0000   -0.0000
      153 NB     6h3-      -0.0000   -0.0000   -0.0000    0.0000   -0.0000   -0.0000    0.0000    0.0000   -0.0000    0.0000
      154 NB     7h3-       0.0000    0.0000    0.0000    0.0000    0.0000    0.0000   -0.0000    0.0000    0.0000   -0.0000
      155 NB     6h2-       0.0000   -0.0000   -0.0007   -0.0000    0.0000   -0.0000    0.0034    0.0000   -0.0000    0.0000
      156 NB     7h2-      -0.0000    0.0000    0.0006    0.0000   -0.0000    0.0000   -0.0016   -0.0000   -0.0000   -0.0000
      157 NB     6h1-      -0.0000   -0.0000   -0.0020   -0.0000    0.0000   -0.0000    0.0015   -0.0000    0.0000   -0.0000
      158 NB     7h1-       0.0000    0.0000    0.0017    0.0000    0.0000    0.0000   -0.0016   -0.0000    0.0000   -0.0000
      159 NB     6h0        0.0000   -0.0000    0.0000   -0.0026    0.0040    0.0000    0.0000   -0.0056    0.0001   -0.0000
      160 NB     7h0       -0.0000    0.0000   -0.0000    0.0022   -0.0026    0.0000   -0.0000    0.0037   -0.0005   -0.0000
      161 NB     6h1+      -0.0004   -0.0020    0.0000    0.0000   -0.0000    0.0015    0.0000   -0.0000   -0.0000    0.0001
      162 NB     7h1+       0.0003    0.0017   -0.0000   -0.0000   -0.0000   -0.0016   -0.0000    0.0000    0.0000    0.0002
      163 NB     6h2+      -0.0008    0.0007   -0.0000   -0.0000    0.0000   -0.0034   -0.0000    0.0000    0.0000    0.0001
      164 NB     7h2+       0.0007   -0.0006    0.0000    0.0000    0.0000    0.0016    0.0000   -0.0000   -0.0000   -0.0003
      165 NB     6h3+       0.0000   -0.0000    0.0000   -0.0005    0.0059    0.0000   -0.0000    0.0136    0.0004   -0.0000
      166 NB     7h3+      -0.0000    0.0000   -0.0000    0.0004   -0.0037   -0.0000    0.0000   -0.0052   -0.0008    0.0000
      167 NB     6h4+      -0.0002   -0.0015    0.0000    0.0000   -0.0000    0.0114    0.0000   -0.0000   -0.0000   -0.0009
      168 NB     7h4+       0.0001    0.0013   -0.0000   -0.0000    0.0000   -0.0048   -0.0000    0.0000    0.0000    0.0010
      169 NB     6h5+      -0.0011    0.0008   -0.0000   -0.0000   -0.0000   -0.0017   -0.0000   -0.0000   -0.0000   -0.0001
      170 NB     7h5+       0.0009   -0.0007    0.0000    0.0000    0.0000    0.0013    0.0000    0.0000    0.0000   -0.0002

          Orbital           21        22        23        24        25        26        27        28        29        30    
          Energy           -0.0914   -0.0851   -0.0538   -0.0538   -0.0508   -0.0508   -0.0500   -0.0213    0.0307    0.0307
          Occ. No.          0.0000    0.0000    0.0000    0.0000    0.0000    0.0000    0.0000    0.0000    0.0000    0.0000

        1 NB     1s        -0.0000    0.0000   -0.0000    0.0000    0.0000   -0.0000   -0.0000    0.0000   -0.0000   -0.0000
        2 NB     2s        -0.0000   -0.0000    0.0000    0.0000    0.0000    0.0000   -0.0000   -0.0000    0.0000    0.0000
        3 NB     3s        -0.0000    0.0002   -0.0000    0.0000    0.0000   -0.0000    0.0000    0.0004   -0.0000   -0.0000
        4 NB     4s        -0.0000    0.0115   -0.0000   -0.0000    0.0000   -0.0000    0.0019    0.0341   -0.0000   -0.0000
        5 NB     5s         0.0000   -0.0889   -0.0000   -0.0000    0.0000   -0.0000    0.0167   -0.2669    0.0000    0.0000
        6 NB     6s         0.0000   -0.0804    0.0000    0.0000    0.0000   -0.0000    0.0226    0.8373   -0.0000   -0.0000
        7 NB     7s         0.0000   -0.0123    0.0000    0.0000    0.0000   -0.0000    0.0062    0.4010   -0.0000   -0.0000
        8 NB     8s         0.0000   -0.0041    0.0000    0.0000    0.0000   -0.0000    0.0034    0.2343   -0.0000   -0.0000
        9 NB     9s         0.0000   -0.0014    0.0000    0.0000    0.0000   -0.0000    0.0006    0.0482   -0.0000   -0.0000
       10 NB    10s         0.0000   -0.0001    0.0000    0.0000    0.0000   -0.0000    0.0000    0.0039   -0.0000   -0.0000
       11 NB     2px        0.0000   -0.0000   -0.0000   -0.0000   -0.0000    0.0000   -0.0000    0.0000    0.0000    0.0000
       12 NB     3px       -0.0000    0.0000    0.0001    0.0000    0.0000   -0.0001    0.0000    0.0000    0.0000    0.0001
       13 NB     4px       -0.0000    0.0000    0.0065    0.0000    0.0000   -0.0186    0.0000   -0.0000    0.0000    0.0051
       14 NB     5px        0.0000   -0.0000   -0.0271   -0.0000    0.0000   -0.0376   -0.0000    0.0000    0.0000    0.0097
       15 NB     6px        0.0000   -0.0000   -0.0200   -0.0000    0.0000   -0.0094   -0.0000   -0.0000   -0.0000   -0.0209
       16 NB     7px        0.0000   -0.0000   -0.0183   -0.0000    0.0000   -0.0073   -0.0000   -0.0000   -0.0000   -0.0311
       17 NB     8px        0.0000   -0.0000   -0.0073   -0.0000    0.0000   -0.0034   -0.0000   -0.0000   -0.0000   -0.0177
       18 NB     9px        0.0000   -0.0000   -0.0029   -0.0000    0.0000   -0.0009   -0.0000   -0.0000   -0.0000   -0.0080
       19 NB    10px        0.0000   -0.0000   -0.0004   -0.0000    0.0000   -0.0001   -0.0000   -0.0000   -0.0000   -0.0012
       20 NB     2py        0.0000    0.0000   -0.0000    0.0000    0.0000    0.0000   -0.0000   -0.0000    0.0000   -0.0000
       21 NB     3py       -0.0003   -0.0000    0.0000   -0.0001   -0.0001   -0.0000    0.0000    0.0000    0.0001   -0.0000
       22 NB     4py       -0.0366    0.0000    0.0000   -0.0065   -0.0186   -0.0000    0.0000    0.0000    0.0051   -0.0000
       23 NB     5py        0.8185   -0.0000   -0.0000    0.0271   -0.0376   -0.0000    0.0000   -0.0000    0.0097   -0.0000
       24 NB     6py        0.4237   -0.0000   -0.0000    0.0200   -0.0094   -0.0000    0.0000   -0.0000   -0.0209    0.0000
       25 NB     7py        0.3523   -0.0000   -0.0000    0.0183   -0.0073   -0.0000    0.0000   -0.0000   -0.0311    0.0000
       26 NB     8py        0.1342   -0.0000   -0.0000    0.0073   -0.0034   -0.0000    0.0000   -0.0000   -0.0177    0.0000
       27 NB     9py        0.0483   -0.0000   -0.0000    0.0029   -0.0009   -0.0000    0.0000   -0.0000   -0.0080    0.0000
       28 NB    10py        0.0064   -0.0000   -0.0000    0.0004   -0.0001   -0.0000    0.0000   -0.0000   -0.0012    0.0000
       29 NB     2pz        0.0000    0.0000   -0.0000   -0.0000   -0.0000   -0.0000   -0.0000    0.0000   -0.0000   -0.0000
       30 NB     3pz       -0.0000   -0.0005    0.0000    0.0000   -0.0000    0.0000    0.0002   -0.0002    0.0000    0.0000
       31 NB     4pz       -0.0000   -0.0557    0.0000    0.0000   -0.0000    0.0000    0.0204   -0.0052    0.0000    0.0000
       32 NB     5pz        0.0000    0.7791    0.0000    0.0000   -0.0000    0.0000   -0.0860   -0.0021    0.0000    0.0000
       33 NB     6pz        0.0000    0.4399    0.0000   -0.0000   -0.0000    0.0000   -0.0648    0.0516   -0.0000   -0.0000
       34 NB     7pz        0.0000    0.3724    0.0000   -0.0000   -0.0000    0.0000   -0.0592    0.0623   -0.0000   -0.0000
       35 NB     8pz        0.0000    0.1439    0.0000   -0.0000   -0.0000    0.0000   -0.0239    0.0322   -0.0000   -0.0000
       36 NB     9pz        0.0000    0.0529    0.0000   -0.0000   -0.0000    0.0000   -0.0094    0.0140   -0.0000   -0.0000
       37 NB    10pz        0.0000    0.0072    0.0000   -0.0000   -0.0000    0.0000   -0.0014    0.0020   -0.0000   -0.0000
       38 NB     3d2-       0.0004   -0.0000   -0.0000    0.0002    0.0002    0.0000   -0.0000    0.0000   -0.0003    0.0000
       39 NB     4d2-      -0.0364    0.0000   -0.0000    0.3478    0.1024    0.0000   -0.0000   -0.0000   -0.5261    0.0008
       40 NB     5d2-      -0.0072   -0.0000   -0.0000    0.5521    0.2086    0.0000   -0.0000    0.0000   -0.2704    0.0004
       41 NB     6d2-      -0.0088    0.0000   -0.0000    0.5939    0.2372    0.0000   -0.0000    0.0000    0.2919   -0.0005
       42 NB     7d2-      -0.0011    0.0000   -0.0000    0.3036    0.1273    0.0000   -0.0000    0.0000    0.5221   -0.0008
       43 NB     8d2-       0.0006    0.0000   -0.0000    0.0298    0.0153    0.0000   -0.0000    0.0000    0.2469   -0.0004
       44 NB     9d2-       0.0003    0.0000    0.0000   -0.0058   -0.0008   -0.0000   -0.0000    0.0000    0.1321   -0.0002
       45 NB    10d2-      -0.0001   -0.0000   -0.0000    0.0055    0.0021    0.0000   -0.0000   -0.0000   -0.0122    0.0000
       46 NB     3d1-       0.0005   -0.0000   -0.0000    0.0000    0.0004    0.0000   -0.0000   -0.0000    0.0001   -0.0000
       47 NB     4d1-      -0.0085   -0.0000    0.0000   -0.1439    0.2942    0.0000   -0.0000    0.0000    0.2753   -0.0004
       48 NB     5d1-       0.0454   -0.0000    0.0000   -0.2078    0.5444    0.0000   -0.0000    0.0000    0.1361   -0.0002
       49 NB     6d1-       0.0309   -0.0000    0.0000   -0.2222    0.6150    0.0000   -0.0000    0.0000   -0.1495    0.0002
       50 NB     7d1-       0.0110   -0.0000    0.0000   -0.1128    0.3286    0.0000   -0.0000    0.0000   -0.2657    0.0004
       51 NB     8d1-      -0.0022    0.0000    0.0000   -0.0108    0.0389    0.0000   -0.0000    0.0000   -0.1254    0.0002
       52 NB     9d1-      -0.0028    0.0000   -0.0000    0.0021   -0.0020   -0.0000    0.0000    0.0000   -0.0667    0.0001
       53 NB    10d1-       0.0005   -0.0000    0.0000   -0.0021    0.0053    0.0000   -0.0000   -0.0000    0.0061   -0.0000
       54 NB     3d0        0.0000   -0.0003    0.0000    0.0000   -0.0000    0.0000    0.0005    0.0005    0.0000    0.0000
       55 NB     4d0        0.0000    0.0872   -0.0000   -0.0000   -0.0000    0.0000    0.3048   -0.0016   -0.0000   -0.0000
       56 NB     5d0        0.0000    0.0802   -0.0000   -0.0000   -0.0000    0.0000    0.5764    0.0082   -0.0000   -0.0000
       57 NB     6d0        0.0000    0.0701   -0.0000   -0.0000   -0.0000    0.0000    0.6559   -0.0149    0.0000    0.0000
       58 NB     7d0        0.0000    0.0213   -0.0000   -0.0000   -0.0000    0.0000    0.3539   -0.0124    0.0000    0.0000
       59 NB     8d0       -0.0000   -0.0038   -0.0000   -0.0000   -0.0000    0.0000    0.0435   -0.0042    0.0000    0.0000
       60 NB     9d0       -0.0000   -0.0042    0.0000    0.0000    0.0000   -0.0000   -0.0011   -0.0016    0.0000    0.0000
       61 NB    10d0        0.0000    0.0009   -0.0000   -0.0000   -0.0000    0.0000    0.0056   -0.0000   -0.0000   -0.0000
       62 NB     3d1+       0.0000   -0.0000   -0.0000   -0.0000   -0.0000    0.0004   -0.0000    0.0000    0.0000    0.0001
       63 NB     4d1+      -0.0000   -0.0000    0.1439    0.0000   -0.0000    0.2942   -0.0000   -0.0000    0.0004    0.2753
       64 NB     5d1+       0.0000   -0.0000    0.2078    0.0000   -0.0000    0.5444   -0.0000    0.0000    0.0002    0.1361
       65 NB     6d1+       0.0000   -0.0000    0.2222    0.0000   -0.0000    0.6150   -0.0000    0.0000   -0.0002   -0.1495
       66 NB     7d1+       0.0000   -0.0000    0.1128    0.0000   -0.0000    0.3286   -0.0000    0.0000   -0.0004   -0.2657
       67 NB     8d1+      -0.0000    0.0000    0.0108    0.0000   -0.0000    0.0389   -0.0000    0.0000   -0.0002   -0.1254
       68 NB     9d1+      -0.0000    0.0000   -0.0021   -0.0000    0.0000   -0.0020    0.0000    0.0000   -0.0001   -0.0667
       69 NB    10d1+       0.0000   -0.0000    0.0021    0.0000   -0.0000    0.0053   -0.0000   -0.0000    0.0000    0.0061
       70 NB     3d2+      -0.0000   -0.0000    0.0002    0.0000    0.0000   -0.0002    0.0000   -0.0000    0.0000    0.0003
       71 NB     4d2+       0.0000    0.0000    0.3478    0.0000    0.0000   -0.1024    0.0000    0.0000    0.0008    0.5261
       72 NB     5d2+       0.0000    0.0000    0.5521    0.0000    0.0000   -0.2086    0.0000   -0.0000    0.0004    0.2704
       73 NB     6d2+       0.0000    0.0000    0.5939    0.0000    0.0000   -0.2372    0.0000   -0.0000   -0.0005   -0.2919
       74 NB     7d2+       0.0000    0.0000    0.3036    0.0000    0.0000   -0.1273    0.0000   -0.0000   -0.0008   -0.5221
       75 NB     8d2+      -0.0000    0.0000    0.0298    0.0000    0.0000   -0.0153    0.0000   -0.0000   -0.0004   -0.2469
       76 NB     9d2+      -0.0000   -0.0000   -0.0058   -0.0000   -0.0000    0.0008   -0.0000   -0.0000   -0.0002   -0.1321
       77 NB    10d2+       0.0000    0.0000    0.0055    0.0000    0.0000   -0.0021    0.0000    0.0000    0.0000    0.0122
       78 NB     4f3-      -0.0000    0.0000    0.0000   -0.0000   -0.0000   -0.0000   -0.0000   -0.0000    0.0000   -0.0000
       79 NB     5f3-      -0.0000   -0.0000   -0.0000    0.0000    0.0000    0.0000    0.0000    0.0000   -0.0000    0.0000
       80 NB     6f3-      -0.0000   -0.0000   -0.0000    0.0000    0.0000    0.0000    0.0000   -0.0000   -0.0000    0.0000
       81 NB     7f3-      -0.0000   -0.0000   -0.0000    0.0000    0.0000    0.0000    0.0000   -0.0000   -0.0000    0.0000
       82 NB     8f3-       0.0000    0.0000    0.0000   -0.0000   -0.0000   -0.0000   -0.0000    0.0000    0.0000   -0.0000
       83 NB     4f2-       0.0001   -0.0000   -0.0000    0.0154    0.0106    0.0000   -0.0000   -0.0000   -0.0370    0.0001
       84 NB     5f2-       0.0030   -0.0000    0.0000   -0.0108   -0.0049   -0.0000    0.0000    0.0000    0.0283   -0.0000
       85 NB     6f2-       0.0001    0.0000    0.0000   -0.0110   -0.0053   -0.0000    0.0000    0.0000    0.0274   -0.0000
       86 NB     7f2-       0.0004   -0.0000    0.0000   -0.0079   -0.0038   -0.0000    0.0000    0.0000    0.0193   -0.0000
       87 NB     8f2-      -0.0001    0.0000   -0.0000    0.0058    0.0026    0.0000   -0.0000   -0.0000   -0.0134    0.0000
       88 NB     4f1-      -0.0004   -0.0000    0.0000   -0.0053    0.0081    0.0000   -0.0000    0.0000    0.0153   -0.0000
       89 NB     5f1-       0.0057    0.0000   -0.0000    0.0053   -0.0111   -0.0000    0.0000   -0.0000   -0.0147    0.0000
       90 NB     6f1-       0.0034    0.0000   -0.0000    0.0051   -0.0117   -0.0000    0.0000   -0.0000   -0.0140    0.0000
       91 NB     7f1-       0.0022    0.0000   -0.0000    0.0037   -0.0087   -0.0000    0.0000   -0.0000   -0.0098    0.0000
       92 NB     8f1-      -0.0011   -0.0000    0.0000   -0.0027    0.0065    0.0000   -0.0000    0.0000    0.0068   -0.0000
       93 NB     4f0       -0.0000   -0.0013    0.0000    0.0000   -0.0000    0.0000    0.0014   -0.0022    0.0000    0.0000
       94 NB     5f0        0.0000    0.0049   -0.0000   -0.0000    0.0000   -0.0000   -0.0121   -0.0112   -0.0000   -0.0000
       95 NB     6f0        0.0000    0.0036   -0.0000   -0.0000    0.0000   -0.0000   -0.0123    0.0022   -0.0000   -0.0000
       96 NB     7f0        0.0000    0.0023   -0.0000   -0.0000    0.0000   -0.0000   -0.0094   -0.0004   -0.0000   -0.0000
       97 NB     8f0       -0.0000   -0.0012    0.0000    0.0000   -0.0000    0.0000    0.0072   -0.0014    0.0000    0.0000
       98 NB     4f1+      -0.0000   -0.0000    0.0053    0.0000   -0.0000    0.0081   -0.0000    0.0000    0.0000    0.0153
       99 NB     5f1+       0.0000   -0.0000   -0.0053   -0.0000    0.0000   -0.0111    0.0000    0.0000   -0.0000   -0.0147
      100 NB     6f1+       0.0000   -0.0000   -0.0051   -0.0000    0.0000   -0.0117    0.0000   -0.0000   -0.0000   -0.0140
      101 NB     7f1+       0.0000   -0.0000   -0.0037   -0.0000    0.0000   -0.0087    0.0000   -0.0000   -0.0000   -0.0098
      102 NB     8f1+      -0.0000    0.0000    0.0027    0.0000   -0.0000    0.0065   -0.0000    0.0000    0.0000    0.0068
      103 NB     4f2+      -0.0000   -0.0000    0.0154    0.0000    0.0000   -0.0106    0.0000   -0.0000    0.0001    0.0370
      104 NB     5f2+      -0.0000   -0.0000   -0.0108   -0.0000   -0.0000    0.0049   -0.0000   -0.0000   -0.0000   -0.0283
      105 NB     6f2+      -0.0000    0.0000   -0.0110   -0.0000   -0.0000    0.0053   -0.0000    0.0000   -0.0000   -0.0274
      106 NB     7f2+      -0.0000   -0.0000   -0.0079   -0.0000   -0.0000    0.0038   -0.0000   -0.0000   -0.0000   -0.0193
      107 NB     8f2+       0.0000   -0.0000    0.0058    0.0000    0.0000   -0.0026    0.0000   -0.0000    0.0000    0.0134
      108 NB     4f3+      -0.0000   -0.0038   -0.0000   -0.0000   -0.0000    0.0000    0.0053   -0.0025   -0.0000   -0.0000
      109 NB     5f3+      -0.0000   -0.0032    0.0000    0.0000    0.0000   -0.0000   -0.0010   -0.0071    0.0000    0.0000
      110 NB     6f3+       0.0000    0.0004    0.0000    0.0000    0.0000   -0.0000   -0.0012    0.0014    0.0000    0.0000
      111 NB     7f3+      -0.0000   -0.0002    0.0000    0.0000    0.0000   -0.0000   -0.0007   -0.0003    0.0000    0.0000
      112 NB     8f3+      -0.0000   -0.0001   -0.0000   -0.0000   -0.0000    0.0000    0.0005   -0.0008   -0.0000   -0.0000
      113 NB     5g4-       0.0016   -0.0000    0.0000   -0.0001    0.0019    0.0000   -0.0000    0.0000    0.0010   -0.0000
      114 NB     6g4-      -0.0017    0.0000    0.0000   -0.0002    0.0001    0.0000   -0.0000   -0.0000    0.0003   -0.0000
      115 NB     7g4-       0.0001   -0.0000    0.0000   -0.0000    0.0002    0.0000   -0.0000   -0.0000    0.0001   -0.0000
      116 NB     8g4-      -0.0000    0.0000   -0.0000    0.0000    0.0001    0.0000   -0.0000    0.0000    0.0000   -0.0000
      117 NB     5g3-       0.0000   -0.0000   -0.0000    0.0000    0.0000    0.0000   -0.0000   -0.0000   -0.0000    0.0000
      118 NB     6g3-      -0.0000    0.0000   -0.0000    0.0000    0.0000    0.0000   -0.0000    0.0000   -0.0000    0.0000
      119 NB     7g3-       0.0000    0.0000   -0.0000    0.0000    0.0000    0.0000   -0.0000   -0.0000   -0.0000    0.0000
      120 NB     8g3-       0.0000    0.0000   -0.0000    0.0000    0.0000    0.0000    0.0000   -0.0000   -0.0000    0.0000
      121 NB     5g2-       0.0002    0.0000    0.0000   -0.0011   -0.0014   -0.0000    0.0000    0.0000    0.0021   -0.0000
      122 NB     6g2-       0.0001   -0.0000    0.0000   -0.0009   -0.0004   -0.0000    0.0000    0.0000    0.0016   -0.0000
      123 NB     7g2-      -0.0001    0.0000    0.0000   -0.0006   -0.0003   -0.0000    0.0000   -0.0000    0.0009   -0.0000
      124 NB     8g2-      -0.0000   -0.0000    0.0000   -0.0002   -0.0002   -0.0000   -0.0000    0.0000    0.0003   -0.0000
      125 NB     5g1-       0.0022   -0.0000   -0.0000    0.0024   -0.0005   -0.0000    0.0000   -0.0000   -0.0055    0.0000
      126 NB     6g1-      -0.0021    0.0000   -0.0000    0.0007   -0.0014   -0.0000    0.0000   -0.0000   -0.0019    0.0000
      127 NB     7g1-       0.0001    0.0000   -0.0000    0.0005   -0.0007   -0.0000    0.0000   -0.0000   -0.0010    0.0000
      128 NB     8g1-      -0.0001    0.0000   -0.0000    0.0002   -0.0002   -0.0000    0.0000    0.0000   -0.0004    0.0000
      129 NB     5g0        0.0000    0.0037   -0.0000   -0.0000    0.0000   -0.0000   -0.0044    0.0003   -0.0000   -0.0000
      130 NB     6g0       -0.0000   -0.0036   -0.0000   -0.0000    0.0000   -0.0000   -0.0010    0.0005   -0.0000   -0.0000
      131 NB     7g0       -0.0000    0.0002   -0.0000   -0.0000    0.0000   -0.0000   -0.0012   -0.0001   -0.0000   -0.0000
      132 NB     8g0       -0.0000   -0.0000   -0.0000   -0.0000    0.0000   -0.0000   -0.0005    0.0000   -0.0000   -0.0000
      133 NB     5g1+       0.0000   -0.0000   -0.0024   -0.0000    0.0000   -0.0005    0.0000    0.0000   -0.0000   -0.0055
      134 NB     6g1+      -0.0000    0.0000   -0.0007   -0.0000    0.0000   -0.0014    0.0000    0.0000   -0.0000   -0.0019
      135 NB     7g1+       0.0000    0.0000   -0.0005   -0.0000    0.0000   -0.0007    0.0000    0.0000   -0.0000   -0.0010
      136 NB     8g1+      -0.0000    0.0000   -0.0002   -0.0000    0.0000   -0.0002    0.0000   -0.0000   -0.0000   -0.0004
      137 NB     5g2+      -0.0000    0.0000   -0.0011   -0.0000   -0.0000    0.0014   -0.0000    0.0000   -0.0000   -0.0021
      138 NB     6g2+      -0.0000   -0.0000   -0.0009   -0.0000   -0.0000    0.0004    0.0000   -0.0000   -0.0000   -0.0016
      139 NB     7g2+       0.0000    0.0000   -0.0006   -0.0000   -0.0000    0.0003   -0.0000    0.0000   -0.0000   -0.0009
      140 NB     8g2+       0.0000   -0.0000   -0.0002   -0.0000   -0.0000    0.0002   -0.0000   -0.0000   -0.0000   -0.0003
      141 NB     5g3+       0.0000    0.0032    0.0000    0.0000    0.0000   -0.0000   -0.0012    0.0013    0.0000    0.0000
      142 NB     6g3+      -0.0000   -0.0022    0.0000    0.0000    0.0000   -0.0000    0.0003   -0.0032    0.0000    0.0000
      143 NB     7g3+       0.0000    0.0004    0.0000    0.0000   -0.0000    0.0000   -0.0001    0.0010    0.0000    0.0000
      144 NB     8g3+      -0.0000    0.0001    0.0000    0.0000    0.0000   -0.0000   -0.0001   -0.0000    0.0000    0.0000
      145 NB     5g4+       0.0000   -0.0000    0.0001    0.0000   -0.0000    0.0019    0.0000   -0.0000    0.0000    0.0010
      146 NB     6g4+      -0.0000    0.0000    0.0002    0.0000   -0.0000    0.0001    0.0000    0.0000    0.0000    0.0003
      147 NB     7g4+       0.0000   -0.0000    0.0000    0.0000   -0.0000    0.0002    0.0000   -0.0000    0.0000    0.0001
      148 NB     8g4+      -0.0000   -0.0000   -0.0000   -0.0000   -0.0000    0.0001    0.0000   -0.0000    0.0000    0.0000
      149 NB     6h5-       0.0001   -0.0000    0.0000   -0.0016   -0.0005   -0.0000   -0.0000    0.0000    0.0036   -0.0000
      150 NB     7h5-       0.0002    0.0000    0.0000   -0.0001    0.0000    0.0000    0.0000    0.0000    0.0002   -0.0000
      151 NB     6h4-      -0.0009    0.0000   -0.0000    0.0003   -0.0015   -0.0000    0.0000   -0.0000   -0.0013    0.0000
      152 NB     7h4-       0.0010   -0.0000   -0.0000    0.0001    0.0001    0.0000   -0.0000    0.0000   -0.0001    0.0000
      153 NB     6h3-      -0.0000   -0.0000   -0.0000    0.0000   -0.0000   -0.0000    0.0000   -0.0000   -0.0000    0.0000
      154 NB     7h3-       0.0000    0.0000   -0.0000   -0.0000    0.0000    0.0000    0.0000    0.0000    0.0000   -0.0000
      155 NB     6h2-      -0.0001    0.0000    0.0000   -0.0013   -0.0006   -0.0000    0.0000    0.0000    0.0029   -0.0000
      156 NB     7h2-       0.0003   -0.0000    0.0000   -0.0001   -0.0000   -0.0000    0.0000    0.0000    0.0002   -0.0000
      157 NB     6h1-       0.0001    0.0000   -0.0000    0.0008   -0.0018   -0.0000    0.0000   -0.0000   -0.0024    0.0000
      158 NB     7h1-       0.0002    0.0000   -0.0000    0.0001   -0.0000   -0.0000    0.0000    0.0000   -0.0003    0.0000
      159 NB     6h0       -0.0000   -0.0002    0.0000    0.0000    0.0000   -0.0000   -0.0024   -0.0001    0.0000    0.0000
      160 NB     7h0       -0.0000   -0.0006    0.0000   -0.0000   -0.0000   -0.0000    0.0001    0.0005    0.0000    0.0000
      161 NB     6h1+       0.0000    0.0000   -0.0008   -0.0000    0.0000   -0.0018    0.0000    0.0000   -0.0000   -0.0024
      162 NB     7h1+       0.0000   -0.0000   -0.0001   -0.0000    0.0000   -0.0000    0.0000   -0.0000   -0.0000   -0.0003
      163 NB     6h2+       0.0000   -0.0000   -0.0013   -0.0000   -0.0000    0.0006   -0.0000   -0.0000   -0.0000   -0.0029
      164 NB     7h2+      -0.0000    0.0000   -0.0001   -0.0000   -0.0000    0.0000    0.0000    0.0000   -0.0000   -0.0002
      165 NB     6h3+      -0.0000   -0.0018    0.0000    0.0000    0.0000   -0.0000   -0.0002   -0.0005    0.0000    0.0000
      166 NB     7h3+       0.0000    0.0010   -0.0000    0.0000   -0.0000    0.0000   -0.0003    0.0009   -0.0000   -0.0000
      167 NB     6h4+      -0.0000    0.0000   -0.0003   -0.0000    0.0000   -0.0015    0.0000    0.0000   -0.0000   -0.0013
      168 NB     7h4+       0.0000   -0.0000   -0.0001   -0.0000   -0.0000    0.0001    0.0000   -0.0000   -0.0000   -0.0001
      169 NB     6h5+      -0.0000    0.0000   -0.0016   -0.0000   -0.0000    0.0005   -0.0000    0.0000   -0.0000   -0.0036
      170 NB     7h5+      -0.0000   -0.0000   -0.0001   -0.0000    0.0000   -0.0000    0.0000   -0.0000   -0.0000   -0.0002

          Orbital           31        32        33        34        35        36        37        38        39        40    
[...]
         2   18       3.53032759E-04  8.55185148E-09  1.88135810E-14  1.20811903E+05  1.20811903E+05
         3    7       1.03146515E-03  1.35006560E+03  1.06678709E-05  3.86725271E-10  1.35006561E+03
         3    9       1.78489524E-01  7.10740824E+06  8.29687179E+00  1.00286603E+06  8.11028257E+06
         3   11       1.56418655E-01  8.29687278E+00  7.10740822E+06  8.17127461E-01  7.10741733E+06
         3   13       1.91337355E-01  1.32276084E+06  4.07107882E+00  8.85998341E+06  1.01827483E+07
         3   15       2.48555563E-02  4.07108684E+00  1.32275729E+06  2.20218300E+01  1.32278338E+06
         3   17       5.89805120E-02  3.26181059E+06  2.57742879E-02  5.27151150E-08  3.26181061E+06
         4    8       1.03146515E-03  1.35006560E+03  1.06678709E-05  3.86725271E-10  1.35006561E+03
         4   10       1.78489524E-01  7.10740824E+06  8.29687179E+00  1.00286603E+06  8.11028257E+06
         4   12       1.56418655E-01  8.29687278E+00  7.10740822E+06  8.17127461E-01  7.10741733E+06
         4   14       1.91337355E-01  1.32276084E+06  4.07107882E+00  8.85998341E+06  1.01827483E+07
         4   16       2.48555563E-02  4.07108684E+00  1.32275729E+06  2.20218300E+01  1.32278338E+06
         4   18       5.89805120E-02  3.26181059E+06  2.57742879E-02  5.27151150E-08  3.26181061E+06
         5    7       1.03146510E-03  1.06679066E-05  1.35006413E+03  7.55779825E-18  1.35006414E+03
         5    9       1.56418546E-01  8.29687252E+00  7.10740177E+06  8.17121187E-01  7.10741088E+06
         5   11       1.78489428E-01  7.10740909E+06  8.29686717E+00  1.00285968E+06  8.11027707E+06
         5   13       2.48555809E-02  4.07106895E+00  1.32275839E+06  2.20218469E+01  1.32278448E+06
         5   15       1.91337359E-01  1.32275346E+06  4.07108231E+00  8.85998932E+06  1.01827469E+07
         5   17       5.89806336E-02  2.57739237E-02  3.26181679E+06  7.64513690E-14  3.26181681E+06
         6    8       1.03146510E-03  1.06679066E-05  1.35006413E+03  7.55779825E-18  1.35006414E+03
         6   10       1.56418546E-01  8.29687252E+00  7.10740177E+06  8.17121187E-01  7.10741088E+06
         6   12       1.78489428E-01  7.10740909E+06  8.29686717E+00  1.00285968E+06  8.11027707E+06
         6   14       2.48555809E-02  4.07106895E+00  1.32275839E+06  2.20218469E+01  1.32278448E+06
         6   16       1.91337359E-01  1.32275346E+06  4.07108231E+00  8.85998932E+06  1.01827469E+07
         6   18       5.89806336E-02  2.57739237E-02  3.26181679E+06  7.64513690E-14  3.26181681E+06
         7    9       2.00003927E-02  6.26481502E+05  6.15938889E-01  3.58076370E-07  6.26482118E+05
         7   11       2.00003865E-02  6.15938584E-01  6.26481335E+05  1.26022924E-13  6.26481951E+05
         7   13       1.48095895E-01  5.60327154E+06  1.55419506E+01  1.40465283E-07  5.60328708E+06
         7   15       1.48095902E-01  1.55419510E+01  5.60327179E+06  3.53613167E-14  5.60328733E+06
         7   17       2.35891475E-01  2.80379349E-07  1.28973491E-13  9.34039685E+06  9.34039685E+06
         8   10       2.00003927E-02  6.26481502E+05  6.15938889E-01  3.58076370E-07  6.26482118E+05
         8   12       2.00003865E-02  6.15938584E-01  6.26481335E+05  1.26022924E-13  6.26481951E+05
         8   14       1.48095895E-01  5.60327154E+06  1.55419506E+01  1.40465283E-07  5.60328708E+06
         8   16       1.48095902E-01  1.55419510E+01  5.60327179E+06  3.53613167E-14  5.60328733E+06
         8   18       2.35891475E-01  2.80379349E-07  1.28973491E-13  9.34039685E+06  9.34039685E+06
         9   13       3.78589323E-05  4.02396106E-01  2.84081046E-06  1.12305472E+01  1.16329461E+01
        10   14       3.78589323E-05  4.02396106E-01  2.84081046E-06  1.12305472E+01  1.16329461E+01
        11   15       3.78590913E-05  4.02392517E-01  2.84080781E-06  1.12305944E+01  1.16329897E+01
        12   16       3.78590913E-05  4.02392517E-01  2.84080781E-06  1.12305944E+01  1.16329897E+01
        13   17       4.17797840E-05  8.36387994E-01  2.31991731E-06  2.05489344E-13  8.36390314E-01
        14   18       4.17797840E-05  8.36387994E-01  2.31991731E-06  2.05489344E-13  8.36390314E-01
        15   17       4.17798693E-05  2.31991298E-06  8.36389700E-01  8.63176555E-21  8.36392020E-01
        16   18       4.17798693E-05  2.31991298E-06  8.36389700E-01  8.63176555E-21  8.36392020E-01
     -----------------------------------------------------------------------------------------------
--

++ Velocity transition strengths (SO states):
   ------------------------------------------
    for osc. strength at least    1.0000000000000001E-005

      From   To        Osc. strength     Einstein coefficients Ax, Ay, Az (sec-1)    Total A (sec-1)
     -----------------------------------------------------------------------------------------------
         1    3       3.21479196E-01  3.93413440E+07  3.10866311E-01  1.14788339E-05  3.93413444E+07
         1    5       3.21479209E-01  3.10866322E-01  3.93413499E+07  5.02297847E-14  3.93413502E+07
         1    7       3.24773249E-01  1.22068501E-05  3.31265408E-13  4.83902585E+07  4.83902585E+07
         1   13       1.78788499E-03  6.02511995E+05  1.67120496E+00  1.84039461E-07  6.02513666E+05
         1   15       1.78788563E-03  1.67120453E+00  6.02512209E+05  3.40607686E-13  6.02513880E+05
         1   17       3.02122875E-05  6.10022389E-10  2.50263361E-14  1.03390310E+04  1.03390310E+04
         2    4       3.21479196E-01  3.93413440E+07  3.10866311E-01  1.14788339E-05  3.93413444E+07
         2    6       3.21479209E-01  3.10866322E-01  3.93413499E+07  5.02297847E-14  3.93413502E+07
         2    8       3.24773249E-01  1.22068501E-05  3.31265408E-13  4.83902585E+07  4.83902585E+07
         2   14       1.78788499E-03  6.02511995E+05  1.67120496E+00  1.84039461E-07  6.02513666E+05
         2   16       1.78788563E-03  1.67120453E+00  6.02512209E+05  3.40607686E-13  6.02513880E+05
         2   18       3.02122875E-05  6.10022389E-10  2.50263361E-14  1.03390310E+04  1.03390310E+04
         3    7       1.27351355E-02  1.66688406E+04  1.31713946E-04  1.39927979E-08  1.66688407E+04
         3    9       4.04674364E-01  1.61048824E+07  1.88001226E+01  2.28292784E+06  1.83878290E+07
         3   11       3.54432325E-01  1.88001238E+01  1.61048820E+07  1.86011173E+00  1.61049027E+07
         3   13       4.20545634E-01  2.89848406E+06  8.92070329E+00  1.94825274E+07  2.23810203E+07
         3   15       5.44642587E-02  8.92072096E+00  2.89847633E+06  4.84245724E+01  2.89853367E+06
         3   17       1.29512546E-01  7.16248213E+06  5.65967195E-02  2.01032759E-07  7.16248219E+06
         4    8       1.27351355E-02  1.66688406E+04  1.31713946E-04  1.39927979E-08  1.66688407E+04
         4   10       4.04674364E-01  1.61048824E+07  1.88001226E+01  2.28292784E+06  1.83878290E+07
         4   12       3.54432325E-01  1.88001238E+01  1.61048820E+07  1.86011173E+00  1.61049027E+07
         4   14       4.20545634E-01  2.89848406E+06  8.92070329E+00  1.94825274E+07  2.23810203E+07
         4   16       5.44642587E-02  8.92072096E+00  2.89847633E+06  4.84245724E+01  2.89853367E+06
         4   18       1.29512546E-01  7.16248213E+06  5.65967195E-02  2.01032759E-07  7.16248219E+06
         5    7       1.27351424E-02  1.31713552E-04  1.66688322E+04  1.17314619E-15  1.66688323E+04
         5    9       3.54432120E-01  1.88001268E+01  1.61048693E+07  1.86009790E+00  1.61048899E+07
         5   11       4.04674186E-01  1.61048859E+07  1.88001131E+01  2.28291372E+06  1.83878184E+07
         5   13       5.44643160E-02  8.92068192E+00  2.89847890E+06  4.84246121E+01  2.89853625E+06
         5   15       4.20545668E-01  2.89846803E+06  8.92071159E+00  1.94825415E+07  2.23810185E+07
         5   17       1.29512826E-01  5.65959749E-02  7.16249643E+06  2.09305963E-13  7.16249648E+06
         6    8       1.27351424E-02  1.31713552E-04  1.66688322E+04  1.17314619E-15  1.66688323E+04
         6   10       3.54432120E-01  1.88001268E+01  1.61048693E+07  1.86009790E+00  1.61048899E+07
         6   12       4.04674186E-01  1.61048859E+07  1.88001131E+01  2.28291372E+06  1.83878184E+07
         6   14       5.44643160E-02  8.92068192E+00  2.89847890E+06  4.84246121E+01  2.89853625E+06
         6   16       4.20545668E-01  2.89846803E+06  8.92071159E+00  1.94825415E+07  2.23810185E+07
         6   18       1.29512826E-01  5.65959749E-02  7.16249643E+06  2.09305963E-13  7.16249648E+06
         7    9       5.34584168E-02  1.67450841E+06  1.64632902E+00  1.00932493E-06  1.67451005E+06
         7   11       5.34583879E-02  1.64632837E+00  1.67450758E+06  3.21773290E-13  1.67450922E+06
         7   13       3.86482424E-01  1.46227786E+07  4.05596092E+01  3.72883724E-07  1.46228192E+07
         7   15       3.86482444E-01  4.05596105E+01  1.46227794E+07  7.24259218E-14  1.46228200E+07
         7   17       6.08026104E-01  8.60538278E-07  2.89152727E-13  2.40755832E+07  2.40755832E+07
         8   10       5.34584168E-02  1.67450841E+06  1.64632902E+00  1.00932493E-06  1.67451005E+06
         8   12       5.34583879E-02  1.64632837E+00  1.67450758E+06  3.21773290E-13  1.67450922E+06
         8   14       3.86482424E-01  1.46227786E+07  4.05596092E+01  3.72883724E-07  1.46228192E+07
         8   16       3.86482444E-01  4.05596105E+01  1.46227794E+07  7.24259218E-14  1.46228200E+07
         8   18       6.08026104E-01  8.60538278E-07  2.89152727E-13  2.40755832E+07  2.40755832E+07
         9   13       8.66571960E-03  2.22897242E+03  1.57357760E-02  4.33744091E+02  2.66273225E+03
         9   15       7.25407246E-03  1.57358121E-02  2.22895680E+03  1.96974611E-04  2.22897273E+03
         9   17       8.03790122E-03  3.89155810E+03  3.82606655E-03  4.24227241E-09  3.89156193E+03
        10   14       8.66571960E-03  2.22897242E+03  1.57357760E-02  4.33744091E+02  2.66273225E+03
        10   16       7.25407246E-03  1.57358121E-02  2.22895680E+03  1.96974611E-04  2.22897273E+03
        10   18       8.03790122E-03  3.89155810E+03  3.82606655E-03  4.24227241E-09  3.89156193E+03
        11   13       7.25413931E-03  1.57358000E-02  2.22897633E+03  1.96993389E-04  2.22899226E+03
        11   15       8.66573671E-03  2.22896671E+03  1.57358080E-02  4.33753854E+02  2.66273630E+03
        11   17       8.03789265E-03  3.82606285E-03  3.89155255E+03  3.54649383E-15  3.89155638E+03
        12   14       7.25413931E-03  1.57358000E-02  2.22897633E+03  1.96993389E-04  2.22899226E+03
        12   16       8.66573671E-03  2.22896671E+03  1.57358080E-02  4.33753854E+02  2.66273630E+03
        12   18       8.03789265E-03  3.82606285E-03  3.89155255E+03  3.54649383E-15  3.89155638E+03
        13   17       2.07859900E-01  4.16115433E+03  1.15419184E-02  7.85302795E-09  4.16116587E+03
        14   18       2.07859900E-01  4.16115433E+03  1.15419184E-02  7.85302795E-09  4.16116587E+03
        15   17       2.07860050E-01  1.15419088E-02  4.16115734E+03  2.58500045E-14  4.16116888E+03
        16   18       2.07860050E-01  1.15419088E-02  4.16115734E+03  2.58500045E-14  4.16116888E+03
     -----------------------------------------------------------------------------------------------
--

++ Length and velocity gauge comparison (SO states):

 --------------------------------------------------
 A comparison between the dipole oscillator strengths in 
 length and velocity gauge will be performed

 All dipole oscillator differences above the tolerance of   0.10000000000000001       will be printed 

 Due to basis set deficiency these oscillator may be problematic 

 The tolerance is defined as ABS(1-O_l/O_v) 
 O_l : dipole oscillator strength in length gauge
 O_p : dipole oscillator strength in velocity gauge
 --------------------------------------------------

  Problematic transitions have been found

      From   To       Difference (%) Osc. st. (len.) Osc. st. (vel.)
     ---------------------------------------------------------------
         1    3            20.342378  3.86875709E-01  3.21479196E-01
         1    5            20.342380  3.86875733E-01  3.21479209E-01
         1    7            21.659020  3.95115953E-01  3.24773249E-01
         1    9      ---------------  4.32945270E-05 below threshold
         1   11      ---------------  4.32948464E-05 below threshold
         1   13            32.780350  1.20181004E-03  1.78788499E-03
         1   15            32.780313  1.20181113E-03  1.78788563E-03
         1   17          1068.507217  3.53032759E-04  3.02122875E-05
         2    4            20.342378  3.86875709E-01  3.21479196E-01
         2    6            20.342380  3.86875733E-01  3.21479209E-01
         2    8            21.659020  3.95115953E-01  3.24773249E-01
         2   10      ---------------  4.32945270E-05 below threshold
         2   12      ---------------  4.32948464E-05 below threshold
         2   14            32.780350  1.20181004E-03  1.78788499E-03
         2   16            32.780313  1.20181113E-03  1.78788563E-03
         2   18          1068.507217  3.53032759E-04  3.02122875E-05
         3    7            91.900635  1.03146515E-03  1.27351355E-02
         3    9            55.893049  1.78489524E-01  4.04674364E-01
         3   11            55.867836  1.56418655E-01  3.54432325E-01
         3   13            54.502594  1.91337355E-01  4.20545634E-01
         3   15            54.363546  2.48555563E-02  5.44642587E-02
         3   17            54.459615  5.89805120E-02  1.29512546E-01
         4    8            91.900635  1.03146515E-03  1.27351355E-02
         4   10            55.893049  1.78489524E-01  4.04674364E-01
         4   12            55.867836  1.56418655E-01  3.54432325E-01
         4   14            54.502594  1.91337355E-01  4.20545634E-01
         4   16            54.363546  2.48555563E-02  5.44642587E-02
         4   18            54.459615  5.89805120E-02  1.29512546E-01
         5    7            91.900639  1.03146510E-03  1.27351424E-02
         5    9            55.867841  1.56418546E-01  3.54432120E-01
         5   11            55.893053  1.78489428E-01  4.04674186E-01
         5   13            54.363549  2.48555809E-02  5.44643160E-02
         5   15            54.502597  1.91337359E-01  4.20545668E-01
         5   17            54.459619  5.89806336E-02  1.29512826E-01
         6    8            91.900639  1.03146510E-03  1.27351424E-02
         6   10            55.867841  1.56418546E-01  3.54432120E-01
         6   12            55.893053  1.78489428E-01  4.04674186E-01
         6   14            54.363549  2.48555809E-02  5.44643160E-02
         6   16            54.502597  1.91337359E-01  4.20545668E-01
         6   18            54.459619  5.89806336E-02  1.29512826E-01
         7    9            62.587009  2.00003927E-02  5.34584168E-02
         7   11            62.587000  2.00003865E-02  5.34583879E-02
         7   13            61.681079  1.48095895E-01  3.86482424E-01
         7   15            61.681079  1.48095902E-01  3.86482444E-01
         7   17            61.203726  2.35891475E-01  6.08026104E-01
         8   10            62.587009  2.00003927E-02  5.34584168E-02
         8   12            62.587000  2.00003865E-02  5.34583879E-02
         8   14            61.681079  1.48095895E-01  3.86482424E-01
         8   16            61.681079  1.48095902E-01  3.86482444E-01
         8   18            61.203726  2.35891475E-01  6.08026104E-01
         9   13            99.563118  3.78589323E-05  8.66571960E-03
         9   15      --------------- below threshold  7.25407246E-03
         9   17      --------------- below threshold  8.03790122E-03
        10   14            99.563118  3.78589323E-05  8.66571960E-03
        10   16      --------------- below threshold  7.25407246E-03
        10   18      --------------- below threshold  8.03790122E-03
        11   13      --------------- below threshold  7.25413931E-03
        11   15            99.563117  3.78590913E-05  8.66573671E-03
        11   17      --------------- below threshold  8.03789265E-03
        12   14      --------------- below threshold  7.25413931E-03
        12   16            99.563117  3.78590913E-05  8.66573671E-03
        12   18      --------------- below threshold  8.03789265E-03
        13   17            99.979900  4.17797840E-05  2.07859900E-01
        14   18            99.979900  4.17797840E-05  2.07859900E-01
        15   17            99.979900  4.17798693E-05  2.07860050E-01
        16   18            99.979900  4.17798693E-05  2.07860050E-01
     ---------------------------------------------------------------

 Number of problematic transitions =                    66

--

 Electric-dipole - electric-octupole not included
++ I/O STATISTICS
 
  I. General I/O information
  - - - - - - - - - - - - - - - - - - - - - - - - - - - - - - - - - - - - - - - - - - -
  Unit  Name          Flsize      Write/Read            MBytes           Write/Read
                      (MBytes)       Calls              In/Out           Time, sec.
  - - - - - - - - - - - - - - - - - - - - - - - - - - - - - - - - - - - - - - - - - - -
   1  SCRATCH           0.00 .       9/      45 .      0.0/      0.0 .       0/       0
   2  ANNI              0.00 .       0/       0 .      0.0/      0.0 .       0/       0
   3  RUNFILE          14.67 .     322/   10031 .      2.3/     72.7 .       0/       0
   4  ONEINT            5.14 .       0/   22237 .      0.0/   3722.5 .       0/       0
   5  JOBIPH            5.92 .       0/      92 .      0.0/      0.7 .       0/       0
   6  ORDINT          403.03 .       1/    3225 .      0.0/    806.0 .       0/       0
  - - - - - - - - - - - - - - - - - - - - - - - - - - - - - - - - - - - - - - - - - - -
   *  TOTAL           428.76 .     332/   35630 .      2.3/   4602.0 .       0/       0
  - - - - - - - - - - - - - - - - - - - - - - - - - - - - - - - - - - - - - - - - - - -
 
  II. I/O Access Patterns
  - - - - - - - - - - - - - - - - - - - -
  Unit  Name               % of random
                         Write/Read calls
  - - - - - - - - - - - - - - - - - - - -
   1  SCRATCH             88.9/ 100.0
   2  ANNI                 0.0/   0.0
   3  RUNFILE             28.6/  10.8
   4  ONEINT               0.0/  17.4
   5  JOBIPH               0.0/  76.1
   6  ORDINT             100.0/   0.1
  - - - - - - - - - - - - - - - - - - - -
--
--- Stop Module: rassi at Fri Jan 10 02:37:05 2025 /rc=_RC_ALL_IS_WELL_ ---
*** files: xmldump
    saved to directory /home4/s4752295/Internship/Initial_simulations/Point_charge_model/1_electron/active_space_9_non_rel/Nb/varying_bond_length
--- Module rassi spent 3 seconds ---

.##################.
.# Happy landing! #.
.##################.

    Timing: Wall=41.81 User=32.79 System=6.71

###############################################################################
Hbrk Cluster
Job 14556703 for user s4752295
Finished at: Fri Jan 10 02:37:05 CET 2025

Job details:
============

Job ID                         : 14556703
Name                           : Nb_no_c_light
User                           : s4752295
Partition                      : regularmedium
Nodes                          : node101
Number of Nodes                : 1
Cores                          : 1
Number of Tasks                : 1
State                          : RUNNING  
Submit                         : 2025-01-10T02:36:19
Start                          : 2025-01-10T02:36:20
End                            : --
Reserved walltime              : 15:00:00
Used walltime                  : 00:00:46
Used CPU time                  : -- 
% User (Computation)           : --
% System (I/O)                 : --
Total memory reserved          : 25000M
Maximum memory used            : --

Acknowledgements:
=================

Please see this page for information about acknowledging Hbrk in your publications:

https://wiki.hpc.rug.nl/habrok/introduction/scientific_output

################################################################################
