   This run of MOLCAS is using the pymolcas driver

                             OPE
                             OPE          NMOL  CASOP  ENMOLC A   SO
                 OPE        NMOLC        AS  OP EN  MO LC     AS  OP
                OPENM       OL CA        SO  PE NM  OL CA     SOP EN
                OP EN      MO   LC       AS  OP ENMOL  CASO   PENMOL
                OP  EN     MO   LC       AS  OP EN     MO     LC ASO
               OP   E  NMOL  C  AS       OP  EN MO     LC     AS  OP
               OP  E   NMO   LC AS        OPEN  MO     LCASOP EN   M
               O  PEN   MO  LCA  SO
            OPE   NMO   L   CAS    OP
        OPENMOL  CASOP     ENMOL   CASOPE
     OPENMOLCA   SOPENMOLCASOPEN   MOLCASOPE
    OPENMOLCAS   OP           EN   MOL    CAS
    OPENMOLCAS       OP  ENM        O     LCA
    OPENMOLCAS    OPEN  MOLCASO     P  E  NMO
    OPENMOLCAS     OP               E  N  MOL
    OPENMOLCA   SO           PENM   O  L  CAS    OPEN    MO    LCAS
    OPENMOLCA   SOP           ENM   O  L  CAS   OP  EN  MOLC  AS   O
    OPENMOLCA   SOPE           NM      O  LCA   S      OP  EN MO
    OPENMOLC                AS         O  PEN   M      OL  CA  SOPE
    OPENMO        LCASOPE  NMOL        C  ASO   P      ENMOLC     AS
    OPE     NMO      LCA  SO     P     E   NM   OL  CA SO  PE N   MO
          OPENMOLCA            SOPE   NMO        LCAS  O    P  ENMO
     OPENMOLCASOPENMOLCASOPENMOLCASOPENMOLCA
        OPENMOLCASOPENMOLCASOPENMOLCASOPE
            OPENMOLCASOPENMOLCASOPENM
               OPENMOLCASOPENMOLCA        version: o91e1abe7de707b ?
                   OPENMOLCASO
                       OPE                tag:

 OpenMolcas is free software; you can redistribute it and/or modify it
 under the terms of the GNU Lesser General Public License version 2.1.
 OpenMolcas is distributed in the hope that it will be useful, but it
 is provided "as is" and without any express or implied warranties.
 For more details see the full text of the license in the file
 LICENSE or in <http://www.gnu.org/licenses/>.

                 Copyright (C) The OpenMolcas Authors
           For the author list and the recommended citation,
                   consult the file CONTRIBUTORS.md

           *************************************************
           * pymolcas version py2.10                       *
           *   build 3068ae8b88c9345ec6cfef6fef7f1169      *
           *   (after the EMIL interpreter by V. Veryazov) *
           *************************************************

configuration info
------------------
Host name: login1 (Linux)
C Compiler ID: GNU
C flags: -std=gnu99
Fortran Compiler ID: GNU
Fortran flags: -fno-aggressive-loop-optimizations -cpp -fdefault-integer-8 -fmax-stack-var-size=1048576
Definitions: _MOLCAS_;_I8_;_LINUX_;_MKL_
Parallel: OFF (GA=OFF)


   ----------------------------------------------------------------------------------------------------------------------------------------------
  |
  |           Project: niobium_so_cf
  |    Submitted from: /home4/s4752295/Internship/Initial_simulations/Point_charge_model/1_electron/active_space_9_non_rel/Nb/varying_bond_length
  |      Scratch area: /tmp/niobium_so_cf
  |   Save outputs to: /home4/s4752295/Internship/Initial_simulations/Point_charge_model/1_electron/active_space_9_non_rel/Nb/varying_bond_length
  |            Molcas: /home4/s4752295/Internship/Molcas/recomp_try/OpenMolcas-master/build
  |
  | Scratch area is empty
  |
  |    MOLCAS_DRIVER = /home4/s4752295/Internship/Molcas/bin/pymolcas
  |    MOLCAS_NPROCS = 1
  |    MOLCAS_SOURCE = /home4/s4752295/Internship/Molcas/recomp_try/OpenMolcas-master
  | MOLCAS_STRUCTURE = 0
  |
   ----------------------------------------------------------------------------------------------------------------------------------------------

++ ---------   Input file   ---------

&SEWARD
AMFi

CLIG
$R

Basis Set
Nb.ANO-rcc.Roos.21s18p13d6f4g2h.10s9p8d5f4g2h.
Spherical d
Nb            0.0       0.0     0.0
End of Basis

Xfield

4
0.000000,  0.0000,  0.210       -1.0
0.181865,  0.0000, -0.105       -1.0
-0.090933,  0.1575, -0.105      -1.0
-0.090933, -0.1575, -0.105      -1.0

End of input

&SCF
Occupied
18
Iterations
   50  100
End of Input

&RASSCF
LumOrb
Symmetry
1
Spin
2
Nactel
1 0 0
CIRoot
9 9 1
inactive
18
ras2
9
Alter
4
1 19 24
1 20 25
1 21 26
1 22 27
End of Input

>>> COPY niobium_so_cf.JobIph $SLURM_SUBMIT_DIR/niobium_so_cf.doublet.JobIph

>>> COPY $SLURM_SUBMIT_DIR/niobium_so_cf.doublet.JobIph ./JOB002

&RASSI
NROFJobIph
1 All
SpinOrbit
End of Input

EOF

-- ----------------------------------

--- Start Module: seward at Thu Jan  9 21:03:17 2025 ---

()()()()()()()()()()()()()()()()()()()()()()()()()()()()()()()()()()()()()()()()()()()()()()()()()()

                                              &SEWARD

                                   only a single process is used
                       available to each process: 4.1 GB of memory, 1 thread?
                                            pid: 1583431
()()()()()()()()()()()()()()()()()()()()()()()()()()()()()()()()()()()()()()()()()()()()()()()()()()

 The speed of LIGHT in this CALCULATION =   137.03599917700001     
               SEWARD will generate:
                  Multipole Moment integrals up to order  2
                  Kinetic Energy integrals
                  Nuclear Attraction integrals (point charge)
                  One-Electron Hamiltonian integrals
                  Velocity integrals
                  Relativistic Douglas-Kroll-Hess integrals:
                    - Parametrization         : EXP
                    - DKH order of Hamiltonian: 2
                    - DKH order of Properties : 0
                         - multipole moment operators
                         - electric potential operators
                         - contact operators
                  External field from     4 point(s) added to the one-electron Hamiltonian
                  Orbital angular momentum around ( 0.0000  0.0000  0.0000 )
                  Velocity quadrupole around ( 0.0000  0.0000  0.0000 )
                  Atomic mean-field integrals
                  Two-Electron Repulsion integrals

                   Integrals are discarded if absolute value <: 0.10E-13
                   Integral cutoff threshold is set to       <: 0.10E-15

++    Symmetry information:
      ---------------------

                    Character Table for C1 

                             E  
                    a        1  x, y, xy, Rz, z, xz, Ry, yz, Rx, I
--


++    Basis set information:
      ----------------------


      Basis set label: NB.ANO-RCC.ROOS.21S18P13D6F4G2H.10S9P8D5F4G2H......

      Electronic valence basis set:
      ------------------
      Associated Effective Charge  41.000000 au
      Associated Actual Charge     41.000000 au
      Nuclear Model: Point charge

      Shell  nPrim  nBasis  Cartesian Spherical Contaminant
         s      21      10        X                  
         p      18       9        X                  
         d      13       8                 X         
         f       6       5                 X         
         g       4       4                 X         
         h       2       2                 X         
--


++    Molecular structure info:
      -------------------------

                    ************************************************ 
                    **** Cartesian Coordinates / Bohr, Angstrom **** 
                    ************************************************ 

     Center  Label                x              y              z                     x              y              z
        1      NB               0.000000       0.000000       0.000000              0.000000       0.000000       0.000000
--


++    Operator info:
      --------------


  Net charge from external field:   -4.0000000000000000     
--


            Nuclear Potential Energy              0.00000000 au

                    Nuclear-External Field Potential Energy    -780.95238272 au
                    External Field Potential Energy              17.77167056 au 


            Total Nuclear Potential Energy           -780.95238272 au


      Basis set specifications :
      Symmetry species         a  
      Basis functions          170

 Sorry, Molden does not know how to handle
 functions with angular momentum larger than g
Note: The following floating-point exceptions are signalling: IEEE_UNDERFLOW_FLAG IEEE_DENORMAL
--- Stop Module: seward at Thu Jan  9 21:03:25 2025 /rc=_RC_ALL_IS_WELL_ ---
*** files: niobium_so_cf.GssOrb xmldump
    saved to directory /home4/s4752295/Internship/Initial_simulations/Point_charge_model/1_electron/active_space_9_non_rel/Nb/varying_bond_length
--- Module seward spent 8 seconds ---

*** symbolic link created: INPORB -> niobium_so_cf.GssOrb
--- Start Module: scf at Thu Jan  9 21:03:25 2025 ---

()()()()()()()()()()()()()()()()()()()()()()()()()()()()()()()()()()()()()()()()()()()()()()()()()()

                                                &SCF

                                   only a single process is used
                       available to each process: 4.1 GB of memory, 1 thread?
                                            pid: 1583537
()()()()()()()()()()()()()()()()()()()()()()()()()()()()()()()()()()()()()()()()()()()()()()()()()()

++    Input section:
      --------------

      Header of the integral files:
      
       Integrals generated by seward 4.2.0  , Thu Jan  9 21:03:17 2025


      Cartesian coordinates in Angstrom:
      -----------------------------------------------------
      No.  Label        X            Y            Z        
      -----------------------------------------------------
       1   NB         0.00000000   0.00000000   0.00000000
      -----------------------------------------------------
      Nuclear repulsion energy = -780.95238272
--

++    Orbital specifications:
      -----------------------

      Symmetry species               1
                                     a
      Frozen orbitals                0
      Occupied orbitals             18
      Secondary orbitals           152
      Deleted orbitals               0
      Total number of orbitals     170
      Number of basis functions    170
--

      Molecular charge                           5.000

++    Optimization specifications:
      ----------------------------

      SCF Algorithm: Conventional
      Minimized density differences are used
      Number of density matrices in core                5
      Maximum number of NDDO SCF iterations            50
      Maximum number of HF SCF iterations             100
      Threshold for SCF energy change            0.10E-08
      Threshold for density matrix               0.10E-03
      Threshold for Fock matrix                  0.15E-03
      Threshold for linear dependence            0.10E-08
      Threshold at which DIIS is turned on       0.15E+00
      Threshold at which QNR/C2DIIS is turned on 0.75E-01
      Threshold for Norm(delta) (QNR/C2DIIS)     0.20E-04
      DIIS extrapolation of the SCF procedure
      All orbitals punched on: SCFORB
--

      Detected guessorb starting orbitals                                             


++ Convergence information
                                   SCF        iterations: Energy and convergence statistics

Iter     Tot. SCF        One-elec.       Two-elec.     Energy      Max Dij or  Max Fij      DNorm      TNorm      AccCon     Time
         Energy          Energy          Energy        Change      Delta Norm                                                in Sec.

 The total and one-electron energies are shifted by a value of      4000. a.u.

   1  -185.923572561  -760.375625897  1355.404436053   0.00E+00    0.55E+00*   0.31E+01*    0.85E+01   0.49E+03   None         1.
   2  -191.745379008  -512.469821403  1101.676825112  -0.58E+01*   0.14E+00*   0.10E+01*    0.51E+01   0.44E+03   EDIIS        1.
   3  -198.474302168  -651.705135860  1234.183216409  -0.67E+01*   0.13E+00*   0.34E+00*    0.81E+00   0.47E+03   EDIIS        1.
   4  -198.678814673  -613.592484181  1195.866052226  -0.20E+00*   0.29E-01*   0.18E+00*    0.18E+00   0.46E+03   EDIIS        1.
   5  -198.787346368  -632.887588997  1215.052625346  -0.11E+00*   0.21E-01*   0.75E-01*    0.41E-01   0.46E+03   EDIIS        1.
   6  -198.796186711  -625.070861114  1207.227057121  -0.88E-02*   0.58E-02*   0.37E-01*    0.13E-01   0.46E+03   EDIIS        1.
   7  -198.801006028  -628.993348378  1211.144725068  -0.48E-02*   0.21E-03*   0.90E-02*    0.12E-02   0.46E+03   c2DIIS       1.
   8  -198.801542844  -628.052307332  1210.203147206  -0.54E-03*   0.11E-03*   0.71E-04     0.12E-03   0.46E+03   QNRc2DIIS    1.
   9  -198.801542891  -628.050755479  1210.201595305  -0.47E-07*   0.55E-04*   0.18E-04     0.26E-04   0.46E+03   QNRc2DIIS    1.
  10  -198.801542896  -628.051955978  1210.202795799  -0.53E-08*   0.58E-05    0.91E-05     0.78E-03   0.46E+03   QNRc2DIIS    1.
  11  -198.801542897  -628.051187049  1210.202026870  -0.27E-09    0.17E-05    0.30E-05     0.12E-02   0.46E+03   QNRc2DIIS    1.

       Convergence after 11 Macro Iterations
--

 *****************************************************************************************************************************
 *                                                                                                                           *
 *                                             SCF/KS-DFT Program, Final results                                             *
 *                                                                                                                           *
 *                                                                                                                           *
 *                                                                                                                           *
 *                                                       Final Results                                                       *
 *                                                                                                                           *
 *****************************************************************************************************************************

::    Total SCF energy                              -4198.8015428966
      One-electron energy                           -4628.0511870490
      Two-electron energy                            1210.2020268698
      Nuclear repulsion energy                       -780.9523827174
      Kinetic energy (interpolated)                  3984.2595802316
      Virial theorem                                    1.0538473858
      Total spin, S(S+1)                                0.0000000000
      Total spin, S                                     0.0000000000
      Max non-diagonal density matrix element           0.0000012600
      Max non-diagonal Fock matrix element              0.0000007942


      All orbitals with orbital energies smaller than  E(LUMO)+0.5 are printed

++    Molecular orbitals:
      -------------------

      Title: SCF orbitals

      Molecular orbitals for symmetry species 1: a  

          Orbital            1         2         3         4         5         6         7         8         9        10    
          Energy         -693.5898  -92.3837  -81.6243  -81.6243  -80.8619  -14.5178  -10.9086  -10.9086  -10.6136   -4.6317
          Occ. No.          2.0000    2.0000    2.0000    2.0000    2.0000    2.0000    2.0000    2.0000    2.0000    2.0000

        1 NB     1s         1.0000    0.0002   -0.0000   -0.0000   -0.0003   -0.0001    0.0000   -0.0000    0.0001    0.0000
        2 NB     2s        -0.0002    0.9978    0.0000   -0.0000   -0.0657   -0.0073    0.0000   -0.0000   -0.0003   -0.0000
        3 NB     3s         0.0001    0.0074   -0.0000    0.0000   -0.0010    0.9933    0.0000   -0.0000   -0.0733   -0.0000
        4 NB     4s        -0.0000   -0.0015   -0.0000   -0.0000    0.0001    0.0622    0.0000   -0.0000   -0.0145   -0.0000
        5 NB     5s         0.0000    0.0004    0.0000    0.0000   -0.0000   -0.0131   -0.0000    0.0000    0.0029    0.0000
        6 NB     6s        -0.0000   -0.0005   -0.0000   -0.0000    0.0000    0.0158    0.0000   -0.0000   -0.0034   -0.0000
        7 NB     7s         0.0000    0.0013    0.0000    0.0000   -0.0001   -0.0370   -0.0000    0.0000    0.0078   -0.0000
        8 NB     8s        -0.0000   -0.0012    0.0000   -0.0000    0.0001    0.0280   -0.0000   -0.0000   -0.0056   -0.0000
        9 NB     9s         0.0000    0.0014   -0.0000    0.0000   -0.0000   -0.0272   -0.0000    0.0000    0.0052   -0.0000
       10 NB    10s        -0.0001   -0.0006   -0.0000   -0.0000   -0.0003    0.0158    0.0000   -0.0000   -0.0030   -0.0000
       11 NB     2px       -0.0000    0.0000   -0.0000    0.9999   -0.0000   -0.0000    0.0000   -0.0070   -0.0000   -0.0000
       12 NB     3px        0.0000    0.0000   -0.0000    0.0066   -0.0000    0.0000   -0.0000    0.9923    0.0000    0.0000
       13 NB     4px       -0.0000   -0.0000    0.0000   -0.0012    0.0000   -0.0000   -0.0000    0.0736    0.0000    0.0000
       14 NB     5px        0.0000    0.0000   -0.0000    0.0004   -0.0000    0.0000    0.0000   -0.0209   -0.0000    0.0000
       15 NB     6px       -0.0000   -0.0000    0.0000   -0.0011    0.0000   -0.0000   -0.0000    0.0470    0.0000   -0.0000
       16 NB     7px        0.0000    0.0000   -0.0000    0.0010   -0.0000   -0.0000    0.0000   -0.0345   -0.0000    0.0000
       17 NB     8px       -0.0000   -0.0000    0.0000   -0.0011    0.0000    0.0000   -0.0000    0.0318    0.0000   -0.0000
       18 NB     9px        0.0000    0.0000   -0.0000    0.0008   -0.0000   -0.0000    0.0000   -0.0223   -0.0000    0.0000
       19 NB    10px       -0.0000   -0.0000   -0.0000    0.0003    0.0000    0.0000   -0.0000    0.0125    0.0000   -0.0000
       20 NB     2py        0.0000    0.0000    0.9999    0.0000    0.0000    0.0000   -0.0070   -0.0000   -0.0000   -0.0001
       21 NB     3py       -0.0000   -0.0000    0.0066    0.0000    0.0000    0.0000    0.9923    0.0000    0.0000    0.0044
       22 NB     4py        0.0000    0.0000   -0.0012   -0.0000   -0.0000   -0.0000    0.0736    0.0000    0.0000    0.0002
       23 NB     5py       -0.0000   -0.0000    0.0004    0.0000   -0.0000    0.0000   -0.0209   -0.0000   -0.0000    0.0000
       24 NB     6py        0.0000    0.0000   -0.0011   -0.0000   -0.0000   -0.0000    0.0470    0.0000    0.0000   -0.0001
       25 NB     7py       -0.0000   -0.0000    0.0010    0.0000    0.0000    0.0000   -0.0345   -0.0000   -0.0000    0.0001
       26 NB     8py        0.0000    0.0000   -0.0011   -0.0000   -0.0000   -0.0000    0.0318    0.0000    0.0000   -0.0003
       27 NB     9py       -0.0000   -0.0000    0.0008    0.0000    0.0000    0.0000   -0.0223   -0.0000   -0.0000    0.0003
       28 NB    10py        0.0000    0.0000    0.0003    0.0000   -0.0000   -0.0000    0.0125    0.0000    0.0000   -0.0005
       29 NB     2pz        0.0003    0.0657   -0.0000    0.0000    0.9978    0.0000   -0.0000    0.0000   -0.0053    0.0000
       30 NB     3pz       -0.0001    0.0013   -0.0000    0.0000    0.0053    0.0750    0.0000   -0.0000    0.9899    0.0000
       31 NB     4pz        0.0000   -0.0004   -0.0000    0.0000   -0.0007   -0.0004    0.0000   -0.0000    0.0839    0.0000
       32 NB     5pz       -0.0000    0.0002    0.0000   -0.0000    0.0002    0.0001   -0.0000    0.0000   -0.0238   -0.0000
       33 NB     6pz        0.0000   -0.0004   -0.0000    0.0000   -0.0006   -0.0003    0.0000   -0.0000    0.0534   -0.0000
       34 NB     7pz       -0.0000    0.0004    0.0000   -0.0000    0.0004    0.0002   -0.0000    0.0000   -0.0392    0.0000
       35 NB     8pz        0.0000   -0.0007   -0.0000    0.0000   -0.0002   -0.0001    0.0000   -0.0000    0.0362    0.0000
       36 NB     9pz       -0.0001    0.0008    0.0000   -0.0000   -0.0002   -0.0000   -0.0000    0.0000   -0.0255    0.0000
       37 NB    10pz        0.0001   -0.0013   -0.0000    0.0000    0.0021    0.0006    0.0000   -0.0000    0.0142    0.0000
       38 NB     3d2-      -0.0000   -0.0000    0.0052    0.0000    0.0000   -0.0000    0.0304    0.0000    0.0000    0.8428
       39 NB     4d2-      -0.0000   -0.0000   -0.0011   -0.0000   -0.0000   -0.0000   -0.0017   -0.0000   -0.0000    0.0965
       40 NB     5d2-       0.0000    0.0000    0.0012    0.0000    0.0000    0.0000    0.0017    0.0000    0.0000   -0.0834
       41 NB     6d2-      -0.0000   -0.0000   -0.0011   -0.0000   -0.0000   -0.0000   -0.0015   -0.0000   -0.0000    0.0623
       42 NB     7d2-       0.0000    0.0000    0.0010    0.0000    0.0000    0.0000    0.0014    0.0000    0.0000   -0.0479
       43 NB     8d2-      -0.0000   -0.0000   -0.0018   -0.0000   -0.0000   -0.0000   -0.0017   -0.0000   -0.0000    0.0481
       44 NB     9d2-       0.0000    0.0000    0.0022    0.0000    0.0000    0.0000    0.0013    0.0000    0.0000   -0.0346
       45 NB    10d2-       0.0000    0.0000    0.0037    0.0000    0.0000    0.0000    0.0006    0.0000   -0.0000   -0.0327
       46 NB     3d1-       0.0000    0.0000    0.0085    0.0000    0.0000    0.0000    0.0592    0.0000    0.0000   -0.5033
       47 NB     4d1-       0.0000   -0.0000   -0.0017   -0.0000   -0.0000   -0.0000   -0.0023   -0.0000   -0.0000   -0.0568
       48 NB     5d1-      -0.0000    0.0000    0.0019    0.0000    0.0000    0.0000    0.0023    0.0000    0.0000    0.0490
       49 NB     6d1-       0.0000   -0.0000   -0.0018   -0.0000   -0.0000   -0.0000   -0.0020   -0.0000   -0.0000   -0.0366
       50 NB     7d1-      -0.0000    0.0000    0.0017    0.0000    0.0000    0.0000    0.0018    0.0000    0.0000    0.0280
       51 NB     8d1-       0.0000   -0.0000   -0.0030   -0.0000   -0.0000   -0.0000   -0.0019   -0.0000    0.0000   -0.0279
       52 NB     9d1-      -0.0000    0.0000    0.0035    0.0000    0.0000    0.0000    0.0012    0.0000   -0.0000    0.0200
       53 NB    10d1-       0.0000    0.0000    0.0061    0.0000    0.0000    0.0000   -0.0007   -0.0000   -0.0000    0.0185
       54 NB     3d0       -0.0000   -0.0041    0.0000   -0.0000   -0.0041   -0.0157    0.0000   -0.0000   -0.0149    0.0000
       55 NB     4d0        0.0000    0.0008   -0.0000    0.0000    0.0009    0.0011   -0.0000   -0.0000    0.0020    0.0000
       56 NB     5d0       -0.0000   -0.0009    0.0000   -0.0000   -0.0009   -0.0011   -0.0000    0.0000   -0.0021    0.0000
       57 NB     6d0        0.0000    0.0009   -0.0000    0.0000    0.0009    0.0009   -0.0000   -0.0000    0.0020   -0.0000
       58 NB     7d0       -0.0000   -0.0008    0.0000   -0.0000   -0.0008   -0.0009    0.0000    0.0000   -0.0018   -0.0000
       59 NB     8d0        0.0000    0.0015   -0.0000    0.0000    0.0015    0.0009   -0.0000   -0.0000    0.0026    0.0000
       60 NB     9d0       -0.0000   -0.0017    0.0000   -0.0000   -0.0017   -0.0006    0.0000    0.0000   -0.0023   -0.0000
       61 NB    10d0       -0.0000   -0.0030    0.0000   -0.0000   -0.0029    0.0004   -0.0000    0.0000   -0.0027   -0.0000
       62 NB     3d1+       0.0000    0.0000   -0.0000    0.0085   -0.0000   -0.0000   -0.0000    0.0592    0.0000   -0.0000
       63 NB     4d1+      -0.0000   -0.0000    0.0000   -0.0017    0.0000    0.0000    0.0000   -0.0023   -0.0000   -0.0000
       64 NB     5d1+       0.0000    0.0000   -0.0000    0.0019   -0.0000   -0.0000   -0.0000    0.0023    0.0000    0.0000
       65 NB     6d1+      -0.0000   -0.0000    0.0000   -0.0018    0.0000    0.0000    0.0000   -0.0020   -0.0000   -0.0000
       66 NB     7d1+       0.0000    0.0000   -0.0000    0.0017   -0.0000   -0.0000   -0.0000    0.0018    0.0000    0.0000
       67 NB     8d1+      -0.0000   -0.0000    0.0000   -0.0030    0.0000    0.0000    0.0000   -0.0019   -0.0000   -0.0000
       68 NB     9d1+       0.0000    0.0000   -0.0000    0.0035   -0.0000   -0.0000   -0.0000    0.0012    0.0000    0.0000
       69 NB    10d1+       0.0000    0.0000   -0.0000    0.0061   -0.0000   -0.0000    0.0000   -0.0007   -0.0000    0.0000
       70 NB     3d2+      -0.0000   -0.0000    0.0000   -0.0052    0.0000    0.0000    0.0000   -0.0304   -0.0000   -0.0000
       71 NB     4d2+       0.0000    0.0000   -0.0000    0.0011   -0.0000   -0.0000   -0.0000    0.0017    0.0000   -0.0000
       72 NB     5d2+      -0.0000   -0.0000    0.0000   -0.0012    0.0000    0.0000    0.0000   -0.0017   -0.0000    0.0000
       73 NB     6d2+       0.0000    0.0000   -0.0000    0.0011   -0.0000   -0.0000   -0.0000    0.0015    0.0000   -0.0000
       74 NB     7d2+      -0.0000   -0.0000    0.0000   -0.0010    0.0000    0.0000    0.0000   -0.0014   -0.0000    0.0000
       75 NB     8d2+       0.0000    0.0000   -0.0000    0.0018   -0.0000   -0.0000   -0.0000    0.0017    0.0000   -0.0000
       76 NB     9d2+      -0.0000   -0.0000    0.0000   -0.0022    0.0000    0.0000    0.0000   -0.0013   -0.0000    0.0000
       77 NB    10d2+      -0.0000   -0.0000    0.0000   -0.0037    0.0000    0.0000    0.0000   -0.0006   -0.0000    0.0000
       78 NB     4f3-      -0.0000    0.0000   -0.0000   -0.0000    0.0000    0.0000   -0.0000   -0.0000   -0.0000    0.0000
       79 NB     5f3-       0.0000    0.0000   -0.0000   -0.0000    0.0000    0.0000   -0.0000    0.0000   -0.0000    0.0000
       80 NB     6f3-      -0.0000   -0.0000   -0.0000   -0.0000   -0.0000   -0.0000   -0.0000   -0.0000    0.0000   -0.0000
       81 NB     7f3-       0.0000   -0.0000   -0.0000    0.0000   -0.0000    0.0000   -0.0000   -0.0000    0.0000    0.0000
       82 NB     8f3-      -0.0000   -0.0000   -0.0000   -0.0000   -0.0000    0.0000   -0.0000   -0.0000    0.0000    0.0000
       83 NB     4f2-      -0.0000    0.0000   -0.0000   -0.0000   -0.0000    0.0000   -0.0000   -0.0000    0.0000    0.0023
       84 NB     5f2-      -0.0000    0.0000   -0.0000   -0.0000   -0.0000    0.0000    0.0000    0.0000    0.0000    0.0016
       85 NB     6f2-       0.0000   -0.0000   -0.0000   -0.0000   -0.0000   -0.0000   -0.0001   -0.0000   -0.0000   -0.0005
       86 NB     7f2-      -0.0000    0.0000   -0.0000   -0.0000   -0.0000    0.0000   -0.0000   -0.0000    0.0000    0.0009
       87 NB     8f2-      -0.0000   -0.0000   -0.0001   -0.0000   -0.0000   -0.0000   -0.0004   -0.0000   -0.0000    0.0034
       88 NB     4f1-       0.0000    0.0000   -0.0000   -0.0000   -0.0000   -0.0000   -0.0004   -0.0000   -0.0000   -0.0013
       89 NB     5f1-       0.0000   -0.0000   -0.0000   -0.0000   -0.0000    0.0000   -0.0003   -0.0000   -0.0000   -0.0010
       90 NB     6f1-       0.0000    0.0000   -0.0000   -0.0000    0.0000   -0.0000    0.0002    0.0000   -0.0000    0.0004
       91 NB     7f1-       0.0000   -0.0000   -0.0000   -0.0000    0.0000   -0.0000   -0.0003   -0.0000   -0.0000   -0.0006
       92 NB     8f1-       0.0000   -0.0000   -0.0000   -0.0000    0.0000   -0.0000   -0.0007   -0.0000   -0.0000   -0.0018
       93 NB     4f0        0.0000   -0.0001    0.0000    0.0000   -0.0000   -0.0006   -0.0000    0.0000   -0.0005   -0.0000
       94 NB     5f0        0.0000   -0.0000    0.0000    0.0000   -0.0000   -0.0004   -0.0000    0.0000   -0.0004    0.0000
       95 NB     6f0       -0.0000   -0.0000    0.0000    0.0000   -0.0000    0.0001    0.0000   -0.0000    0.0002   -0.0000
       96 NB     7f0        0.0000   -0.0000   -0.0000    0.0000   -0.0000   -0.0004   -0.0000    0.0000   -0.0004    0.0000
       97 NB     8f0       -0.0000   -0.0002    0.0000    0.0000   -0.0000   -0.0014   -0.0000    0.0000   -0.0009    0.0000
       98 NB     4f1+      -0.0000   -0.0000    0.0000   -0.0000    0.0000   -0.0000    0.0000   -0.0004   -0.0000   -0.0000
       99 NB     5f1+       0.0000   -0.0000    0.0000   -0.0000   -0.0000   -0.0000    0.0000   -0.0003   -0.0000   -0.0000
      100 NB     6f1+      -0.0000   -0.0000    0.0000   -0.0000    0.0000    0.0000   -0.0000    0.0002    0.0000    0.0000
      101 NB     7f1+       0.0000   -0.0000    0.0000   -0.0000   -0.0000   -0.0000    0.0000   -0.0003   -0.0000   -0.0000
      102 NB     8f1+      -0.0000   -0.0000    0.0000   -0.0000    0.0000   -0.0000    0.0000   -0.0007   -0.0000   -0.0000
      103 NB     4f2+       0.0000    0.0000   -0.0000    0.0000   -0.0000    0.0000   -0.0000    0.0000    0.0000   -0.0000
      104 NB     5f2+      -0.0000   -0.0000   -0.0000    0.0000   -0.0000    0.0000    0.0000   -0.0000   -0.0000   -0.0000
      105 NB     6f2+       0.0000    0.0000   -0.0000    0.0000   -0.0000    0.0000   -0.0000    0.0001    0.0000    0.0000
      106 NB     7f2+      -0.0000   -0.0000   -0.0000    0.0000    0.0000    0.0000   -0.0000    0.0000    0.0000   -0.0000
      107 NB     8f2+       0.0000    0.0000   -0.0000    0.0001   -0.0000    0.0000   -0.0000    0.0004    0.0000   -0.0000
      108 NB     4f3+       0.0000   -0.0000   -0.0000    0.0000    0.0000   -0.0004   -0.0000    0.0000    0.0001   -0.0000
      109 NB     5f3+       0.0000   -0.0000    0.0000    0.0000    0.0000   -0.0003   -0.0000    0.0000    0.0000   -0.0000
      110 NB     6f3+      -0.0000   -0.0000   -0.0000    0.0000    0.0000    0.0000    0.0000    0.0000    0.0001    0.0000
      111 NB     7f3+       0.0000   -0.0000   -0.0000    0.0000    0.0000   -0.0003   -0.0000    0.0000    0.0001   -0.0000
      112 NB     8f3+      -0.0000   -0.0001   -0.0000    0.0000    0.0001   -0.0009   -0.0000    0.0000    0.0005   -0.0000
      113 NB     5g4-      -0.0000   -0.0000   -0.0000   -0.0000   -0.0000   -0.0000   -0.0002   -0.0000   -0.0000   -0.0000
      114 NB     6g4-       0.0000    0.0000    0.0000    0.0000    0.0000    0.0000    0.0002    0.0000    0.0000    0.0000
      115 NB     7g4-      -0.0000    0.0000   -0.0000   -0.0000   -0.0000   -0.0000   -0.0005   -0.0000   -0.0000   -0.0001
      116 NB     8g4-       0.0000   -0.0000    0.0001    0.0000    0.0000    0.0000    0.0007    0.0000    0.0000    0.0001
      117 NB     5g3-      -0.0000   -0.0000    0.0000   -0.0000   -0.0000   -0.0000    0.0000    0.0000    0.0000   -0.0000
      118 NB     6g3-      -0.0000    0.0000   -0.0000   -0.0000   -0.0000   -0.0000   -0.0000   -0.0000    0.0000    0.0000
      119 NB     7g3-       0.0000    0.0000    0.0000    0.0000    0.0000    0.0000    0.0000    0.0000    0.0000   -0.0000
      120 NB     8g3-      -0.0000   -0.0000   -0.0000   -0.0000   -0.0000   -0.0000   -0.0000   -0.0000   -0.0000    0.0000
      121 NB     5g2-       0.0000    0.0000    0.0000    0.0000    0.0000   -0.0000   -0.0000   -0.0000   -0.0000   -0.0002
      122 NB     6g2-      -0.0000   -0.0000   -0.0000   -0.0000    0.0000    0.0000    0.0000    0.0000   -0.0000    0.0002
      123 NB     7g2-       0.0000    0.0000    0.0000    0.0000   -0.0000   -0.0000   -0.0000   -0.0000    0.0000   -0.0003
      124 NB     8g2-      -0.0000   -0.0000   -0.0000   -0.0000    0.0000    0.0000    0.0001    0.0000   -0.0000    0.0004
      125 NB     5g1-      -0.0000    0.0000   -0.0000   -0.0000   -0.0000    0.0000   -0.0002   -0.0000   -0.0000    0.0002
      126 NB     6g1-       0.0000   -0.0000    0.0000    0.0000    0.0000   -0.0000    0.0003    0.0000    0.0000   -0.0003
      127 NB     7g1-      -0.0000   -0.0000   -0.0000   -0.0000   -0.0000   -0.0000   -0.0006   -0.0000   -0.0000    0.0005
      128 NB     8g1-       0.0000    0.0000    0.0001    0.0000    0.0000    0.0000    0.0009    0.0000    0.0000   -0.0007
      129 NB     5g0       -0.0000   -0.0000    0.0000   -0.0000   -0.0000   -0.0000   -0.0000    0.0000   -0.0003   -0.0000
      130 NB     6g0        0.0000    0.0000   -0.0000    0.0000    0.0000    0.0000    0.0000   -0.0000    0.0004   -0.0000
      131 NB     7g0       -0.0000   -0.0000    0.0000   -0.0000   -0.0001   -0.0001    0.0000    0.0000   -0.0008    0.0000
      132 NB     8g0        0.0000    0.0000   -0.0000    0.0000    0.0001    0.0001    0.0000   -0.0000    0.0013    0.0000
      133 NB     5g1+       0.0000    0.0000    0.0000   -0.0000   -0.0000    0.0000    0.0000   -0.0002   -0.0000    0.0000
      134 NB     6g1+      -0.0000   -0.0000   -0.0000    0.0000    0.0000   -0.0000   -0.0000    0.0003    0.0000   -0.0000
      135 NB     7g1+       0.0000    0.0000    0.0000   -0.0000   -0.0000    0.0000    0.0000   -0.0006   -0.0000    0.0000
      136 NB     8g1+      -0.0000   -0.0000   -0.0000    0.0001    0.0000   -0.0000   -0.0000    0.0009    0.0000   -0.0000
      137 NB     5g2+      -0.0000   -0.0000    0.0000   -0.0000    0.0000    0.0000   -0.0000    0.0000    0.0000    0.0000
      138 NB     6g2+       0.0000    0.0000   -0.0000    0.0000   -0.0000    0.0000    0.0000   -0.0000   -0.0000   -0.0000
      139 NB     7g2+      -0.0000   -0.0000    0.0000   -0.0000    0.0000   -0.0000   -0.0000    0.0000    0.0000    0.0000
      140 NB     8g2+       0.0000    0.0000   -0.0000    0.0000   -0.0000    0.0000    0.0000   -0.0001   -0.0000   -0.0000
      141 NB     5g3+       0.0000    0.0000    0.0000   -0.0000   -0.0000    0.0000    0.0000    0.0000   -0.0002    0.0000
      142 NB     6g3+      -0.0000   -0.0000   -0.0000    0.0000    0.0000   -0.0001   -0.0000   -0.0000    0.0002   -0.0000
      143 NB     7g3+       0.0000    0.0000    0.0000   -0.0000   -0.0000    0.0002    0.0000    0.0000   -0.0004    0.0000
      144 NB     8g3+      -0.0000   -0.0001   -0.0000    0.0000    0.0001   -0.0004   -0.0000   -0.0000    0.0007   -0.0000
      145 NB     5g4+       0.0000    0.0000    0.0000   -0.0000   -0.0000    0.0000    0.0000   -0.0002   -0.0000   -0.0000
      146 NB     6g4+      -0.0000   -0.0000   -0.0000    0.0000    0.0000   -0.0000   -0.0000    0.0002    0.0000    0.0000
      147 NB     7g4+       0.0000    0.0000    0.0000   -0.0000   -0.0000    0.0000    0.0000   -0.0005   -0.0000   -0.0000
      148 NB     8g4+      -0.0000   -0.0000   -0.0000    0.0001    0.0000   -0.0000   -0.0000    0.0007    0.0000    0.0000
      149 NB     6h5-       0.0000   -0.0000    0.0000    0.0000   -0.0000    0.0000    0.0000    0.0000    0.0000   -0.0001
      150 NB     7h5-      -0.0000    0.0000   -0.0000   -0.0000    0.0000    0.0000   -0.0000   -0.0000    0.0000    0.0001
      151 NB     6h4-       0.0000    0.0000    0.0000    0.0000    0.0000    0.0000    0.0000    0.0000    0.0000    0.0000
      152 NB     7h4-       0.0000   -0.0000   -0.0000   -0.0000   -0.0000   -0.0000   -0.0000   -0.0000   -0.0000   -0.0000
      153 NB     6h3-      -0.0000   -0.0000   -0.0000    0.0000   -0.0000   -0.0000   -0.0000   -0.0000    0.0000   -0.0000
      154 NB     7h3-       0.0000    0.0000    0.0000   -0.0000    0.0000    0.0000    0.0000    0.0000    0.0000    0.0000
      155 NB     6h2-       0.0000    0.0000    0.0000    0.0000    0.0000    0.0000    0.0000    0.0000    0.0000   -0.0001
      156 NB     7h2-      -0.0000   -0.0000   -0.0000   -0.0000    0.0000   -0.0000   -0.0000   -0.0000   -0.0000    0.0001
      157 NB     6h1-       0.0000   -0.0000    0.0000    0.0000   -0.0000   -0.0000   -0.0000   -0.0000   -0.0000    0.0001
      158 NB     7h1-      -0.0000   -0.0000   -0.0000   -0.0000   -0.0000    0.0000    0.0000    0.0000    0.0000   -0.0001
      159 NB     6h0       -0.0000   -0.0000   -0.0000   -0.0000   -0.0000   -0.0000    0.0000   -0.0000   -0.0000   -0.0000
      160 NB     7h0        0.0000    0.0000   -0.0000    0.0000    0.0000    0.0000   -0.0000    0.0000    0.0000   -0.0000
      161 NB     6h1+       0.0000   -0.0000   -0.0000    0.0000    0.0000   -0.0000    0.0000   -0.0000    0.0000    0.0000
      162 NB     7h1+      -0.0000    0.0000    0.0000   -0.0000   -0.0000    0.0000   -0.0000    0.0000   -0.0000   -0.0000
      163 NB     6h2+       0.0000    0.0000    0.0000   -0.0000   -0.0000    0.0000    0.0000   -0.0000   -0.0000    0.0000
      164 NB     7h2+      -0.0000   -0.0000   -0.0000    0.0000    0.0000   -0.0000   -0.0000    0.0000    0.0000   -0.0000
      165 NB     6h3+      -0.0000   -0.0000    0.0000    0.0000    0.0000   -0.0000    0.0000   -0.0000    0.0000    0.0000
      166 NB     7h3+       0.0000    0.0000    0.0000   -0.0000   -0.0000    0.0000   -0.0000    0.0000   -0.0000   -0.0000
      167 NB     6h4+      -0.0000   -0.0000   -0.0000    0.0000    0.0000   -0.0000   -0.0000    0.0000    0.0000    0.0000
      168 NB     7h4+       0.0000    0.0000    0.0000   -0.0000   -0.0000    0.0000    0.0000   -0.0000   -0.0000   -0.0000
      169 NB     6h5+      -0.0000   -0.0000    0.0000   -0.0000    0.0000   -0.0000    0.0000   -0.0000   -0.0000    0.0000
      170 NB     7h5+       0.0000    0.0000   -0.0000    0.0000   -0.0000    0.0000   -0.0000    0.0000    0.0000   -0.0000

          Orbital           11        12        13        14        15        16        17        18        19        20    
          Energy           -4.6317   -4.1796   -4.1508   -4.1508   -1.9172   -1.0531   -1.0531   -1.0230   -0.1451   -0.0841
          Occ. No.          2.0000    2.0000    2.0000    2.0000    2.0000    2.0000    2.0000    2.0000    0.0000    0.0000

        1 NB     1s         0.0000    0.0000   -0.0000    0.0000    0.0000   -0.0000    0.0000   -0.0000   -0.0000    0.0000
        2 NB     2s         0.0000    0.0030   -0.0000   -0.0000    0.0015   -0.0000    0.0000    0.0002   -0.0003    0.0000
        3 NB     3s         0.0000    0.0122    0.0000    0.0000   -0.0503   -0.0000    0.0000    0.0058    0.0094    0.0000
        4 NB     4s         0.0000    0.0209   -0.0000    0.0000    0.9670    0.0000   -0.0000   -0.0387   -0.0759   -0.0000
        5 NB     5s        -0.0000   -0.0022    0.0000   -0.0000    0.1391    0.0000   -0.0000   -0.0255    0.9154    0.0000
        6 NB     6s         0.0000    0.0025   -0.0000    0.0000   -0.1223   -0.0000    0.0000    0.0179    0.3915    0.0000
        7 NB     7s        -0.0000   -0.0052    0.0000    0.0000    0.1554    0.0000   -0.0000   -0.0170   -0.0393    0.0000
        8 NB     8s         0.0000    0.0033   -0.0000    0.0000   -0.0266    0.0000    0.0000    0.0004   -0.0157    0.0000
        9 NB     9s        -0.0000   -0.0028    0.0000    0.0000    0.0099    0.0000   -0.0000   -0.0013   -0.0089    0.0000
       10 NB    10s         0.0000    0.0022   -0.0000    0.0000   -0.0072   -0.0000    0.0000    0.0009    0.0009    0.0000
       11 NB     2px        0.0001   -0.0000   -0.0076   -0.0000    0.0000   -0.0000    0.0011    0.0000   -0.0000    0.0000
       12 NB     3px       -0.0044   -0.0000   -0.0574   -0.0000    0.0000    0.0000   -0.0561   -0.0000   -0.0000   -0.0000
       13 NB     4px       -0.0002   -0.0000   -0.0487   -0.0000    0.0000   -0.0000    0.9498    0.0000    0.0000    0.0000
       14 NB     5px       -0.0000    0.0000    0.0104    0.0000   -0.0000   -0.0000    0.2163    0.0000    0.0000   -0.0000
       15 NB     6px        0.0001   -0.0000   -0.0204   -0.0000    0.0000    0.0000   -0.2097   -0.0000    0.0000   -0.0000
       16 NB     7px       -0.0001    0.0000    0.0130    0.0000   -0.0000   -0.0000    0.0238    0.0000    0.0000   -0.0000
       17 NB     8px        0.0003   -0.0000   -0.0111   -0.0000    0.0000    0.0000   -0.0033   -0.0000    0.0000   -0.0000
       18 NB     9px       -0.0003    0.0000    0.0078    0.0000   -0.0000   -0.0000    0.0187    0.0000    0.0000   -0.0000
       19 NB    10px        0.0005   -0.0000   -0.0063   -0.0000   -0.0000    0.0000   -0.0028   -0.0000    0.0000   -0.0000
       20 NB     2py       -0.0000    0.0000    0.0000   -0.0076    0.0000    0.0011    0.0000    0.0000   -0.0000   -0.0002
       21 NB     3py        0.0000   -0.0000    0.0000   -0.0574    0.0000   -0.0561   -0.0000   -0.0000    0.0000    0.0090
       22 NB     4py        0.0000   -0.0000    0.0000   -0.0487    0.0000    0.9498    0.0000    0.0000   -0.0000   -0.0785
       23 NB     5py        0.0000   -0.0000   -0.0000    0.0104   -0.0000    0.2163    0.0000    0.0000   -0.0000    0.7695
       24 NB     6py       -0.0000   -0.0000    0.0000   -0.0204    0.0000   -0.2097   -0.0000   -0.0000   -0.0000    0.4761
       25 NB     7py        0.0000    0.0000   -0.0000    0.0130   -0.0000    0.0238    0.0000   -0.0000   -0.0000    0.3829
       26 NB     8py       -0.0000   -0.0000    0.0000   -0.0111    0.0000   -0.0033   -0.0000   -0.0000   -0.0000    0.1558
       27 NB     9py        0.0000    0.0000   -0.0000    0.0078   -0.0000    0.0187    0.0000    0.0000   -0.0000    0.0528
       28 NB    10py       -0.0000   -0.0000    0.0000   -0.0063    0.0000   -0.0028   -0.0000   -0.0000    0.0000    0.0080
       29 NB     2pz       -0.0000    0.0035   -0.0000    0.0000   -0.0001    0.0000   -0.0000    0.0008    0.0000   -0.0000
       30 NB     3pz       -0.0000    0.0117   -0.0000   -0.0000    0.0036   -0.0000    0.0000   -0.0608   -0.0013    0.0000
       31 NB     4pz       -0.0000    0.0201   -0.0000    0.0000    0.0495    0.0000   -0.0000    0.9433    0.0067   -0.0000
       32 NB     5pz        0.0000   -0.0044    0.0000    0.0000   -0.0014    0.0000   -0.0000    0.2318    0.0306    0.0000
       33 NB     6pz       -0.0000    0.0089   -0.0000   -0.0000    0.0018   -0.0000    0.0000   -0.2207    0.0039    0.0000
       34 NB     7pz        0.0000   -0.0059    0.0000    0.0000   -0.0008    0.0000   -0.0000    0.0237    0.0053    0.0000
       35 NB     8pz       -0.0000    0.0056   -0.0000    0.0000    0.0006   -0.0000    0.0000   -0.0040    0.0013    0.0000
       36 NB     9pz        0.0000   -0.0042    0.0000    0.0000   -0.0004    0.0000   -0.0000    0.0202    0.0008    0.0000
       37 NB    10pz       -0.0000    0.0040   -0.0000    0.0000   -0.0001   -0.0000    0.0000   -0.0032    0.0000    0.0000
       38 NB     3d2-       0.0000   -0.0000   -0.0000    0.4950   -0.0000    0.0139    0.0000   -0.0000    0.0000   -0.0011
       39 NB     4d2-       0.0000   -0.0000   -0.0000    0.0755   -0.0000    0.0205    0.0000   -0.0000    0.0000   -0.0148
       40 NB     5d2-      -0.0000    0.0000    0.0000   -0.0641    0.0000   -0.0091   -0.0000   -0.0000   -0.0000   -0.0085
       41 NB     6d2-       0.0000   -0.0000   -0.0000    0.0472   -0.0000    0.0038    0.0000    0.0000   -0.0000   -0.0062
       42 NB     7d2-      -0.0000    0.0000    0.0000   -0.0359    0.0000   -0.0022   -0.0000    0.0000    0.0000   -0.0015
       43 NB     8d2-       0.0000   -0.0000   -0.0000    0.0361   -0.0000    0.0023    0.0000    0.0000    0.0000    0.0003
       44 NB     9d2-      -0.0000    0.0000    0.0000   -0.0262    0.0000   -0.0018   -0.0000   -0.0000    0.0000    0.0006
       45 NB    10d2-      -0.0000    0.0000    0.0000   -0.0260    0.0000   -0.0014   -0.0000   -0.0000   -0.0000   -0.0000
       46 NB     3d1-      -0.0000   -0.0000   -0.0000    0.8301    0.0000    0.0226    0.0000    0.0000    0.0000   -0.0016
       47 NB     4d1-      -0.0000   -0.0000   -0.0000    0.1246   -0.0000    0.0381    0.0000   -0.0000    0.0000   -0.0255
       48 NB     5d1-       0.0000    0.0000    0.0000   -0.1057   -0.0000   -0.0176   -0.0000   -0.0000   -0.0000   -0.0111
       49 NB     6d1-      -0.0000   -0.0000   -0.0000    0.0778    0.0000    0.0074    0.0000    0.0000   -0.0000   -0.0074
       50 NB     7d1-       0.0000    0.0000    0.0000   -0.0590   -0.0000   -0.0039   -0.0000   -0.0000   -0.0000   -0.0014
       51 NB     8d1-      -0.0000   -0.0000   -0.0000    0.0590    0.0000    0.0035    0.0000   -0.0000    0.0000    0.0004
       52 NB     9d1-       0.0000    0.0000    0.0000   -0.0427   -0.0000   -0.0030   -0.0000   -0.0000   -0.0000    0.0007
       53 NB    10d1-       0.0000    0.0000    0.0000   -0.0416    0.0000   -0.0017   -0.0000   -0.0000   -0.0000   -0.0001
       54 NB     3d0        0.0000    0.9702   -0.0000   -0.0000   -0.0161    0.0000   -0.0000   -0.0120    0.0012   -0.0000
       55 NB     4d0        0.0000    0.1432   -0.0000   -0.0000   -0.0116    0.0000   -0.0000   -0.0119    0.0077   -0.0000
       56 NB     5d0       -0.0000   -0.1216    0.0000    0.0000    0.0077   -0.0000    0.0000    0.0045   -0.0002   -0.0000
       57 NB     6d0        0.0000    0.0896   -0.0000   -0.0000   -0.0044    0.0000   -0.0000   -0.0018    0.0003   -0.0000
       58 NB     7d0       -0.0000   -0.0680    0.0000    0.0000    0.0026   -0.0000    0.0000    0.0014   -0.0003   -0.0000
       59 NB     8d0        0.0000    0.0679   -0.0000   -0.0000   -0.0021    0.0000   -0.0000   -0.0021    0.0001    0.0000
       60 NB     9d0       -0.0000   -0.0491    0.0000    0.0000    0.0017   -0.0000    0.0000    0.0016   -0.0002    0.0000
       61 NB    10d0       -0.0000   -0.0477    0.0000    0.0000    0.0010    0.0000   -0.0000    0.0019    0.0000   -0.0000
       62 NB     3d1+       0.5033    0.0000    0.8301    0.0000   -0.0000   -0.0000    0.0226    0.0000    0.0000    0.0000
       63 NB     4d1+       0.0568    0.0000    0.1246    0.0000   -0.0000   -0.0000    0.0381    0.0000    0.0000    0.0000
       64 NB     5d1+      -0.0490   -0.0000   -0.1057   -0.0000    0.0000    0.0000   -0.0176   -0.0000    0.0000    0.0000
       65 NB     6d1+       0.0366    0.0000    0.0778    0.0000   -0.0000   -0.0000    0.0074    0.0000    0.0000    0.0000
       66 NB     7d1+      -0.0280   -0.0000   -0.0590   -0.0000    0.0000    0.0000   -0.0039   -0.0000   -0.0000    0.0000
       67 NB     8d1+       0.0279    0.0000    0.0590    0.0000   -0.0000   -0.0000    0.0035    0.0000    0.0000   -0.0000
       68 NB     9d1+      -0.0200   -0.0000   -0.0427   -0.0000    0.0000    0.0000   -0.0030   -0.0000   -0.0000   -0.0000
       69 NB    10d1+      -0.0185   -0.0000   -0.0416   -0.0000    0.0000    0.0000   -0.0017   -0.0000   -0.0000    0.0000
       70 NB     3d2+       0.8428   -0.0000   -0.4950   -0.0000    0.0000    0.0000   -0.0139   -0.0000   -0.0000   -0.0000
       71 NB     4d2+       0.0965   -0.0000   -0.0755   -0.0000    0.0000    0.0000   -0.0205   -0.0000   -0.0000   -0.0000
       72 NB     5d2+      -0.0834    0.0000    0.0641    0.0000   -0.0000   -0.0000    0.0091    0.0000   -0.0000   -0.0000
       73 NB     6d2+       0.0623   -0.0000   -0.0472   -0.0000    0.0000    0.0000   -0.0038   -0.0000   -0.0000   -0.0000
       74 NB     7d2+      -0.0479    0.0000    0.0359    0.0000   -0.0000   -0.0000    0.0022    0.0000    0.0000   -0.0000
       75 NB     8d2+       0.0481   -0.0000   -0.0361   -0.0000    0.0000    0.0000   -0.0023   -0.0000   -0.0000    0.0000
       76 NB     9d2+      -0.0346    0.0000    0.0262    0.0000   -0.0000   -0.0000    0.0018    0.0000    0.0000    0.0000
       77 NB    10d2+      -0.0327    0.0000    0.0260    0.0000   -0.0000   -0.0000    0.0014    0.0000    0.0000   -0.0000
       78 NB     4f3-       0.0000   -0.0000   -0.0000    0.0000   -0.0000    0.0000    0.0000    0.0000    0.0000   -0.0000
       79 NB     5f3-       0.0000    0.0000   -0.0000    0.0000    0.0000    0.0000    0.0000    0.0000   -0.0000    0.0000
       80 NB     6f3-      -0.0000    0.0000    0.0000   -0.0000   -0.0000   -0.0000   -0.0000   -0.0000   -0.0000    0.0000
       81 NB     7f3-       0.0000   -0.0000   -0.0000    0.0000   -0.0000   -0.0000   -0.0000   -0.0000   -0.0000    0.0000
       82 NB     8f3-       0.0000    0.0000   -0.0000    0.0000    0.0000    0.0000    0.0000   -0.0000    0.0000   -0.0000
       83 NB     4f2-       0.0000   -0.0000   -0.0000    0.0026   -0.0000    0.0010    0.0000    0.0000    0.0000   -0.0003
       84 NB     5f2-       0.0000   -0.0000   -0.0000    0.0017   -0.0000    0.0005    0.0000    0.0000   -0.0000    0.0001
       85 NB     6f2-      -0.0000    0.0000    0.0000   -0.0001    0.0000   -0.0000   -0.0000    0.0000   -0.0000    0.0002
       86 NB     7f2-       0.0000   -0.0000   -0.0000    0.0006   -0.0000   -0.0002   -0.0000   -0.0000   -0.0000    0.0003
       87 NB     8f2-       0.0000   -0.0000   -0.0000    0.0044   -0.0000    0.0013    0.0000    0.0000    0.0000   -0.0004
       88 NB     4f1-      -0.0000    0.0000   -0.0000    0.0019   -0.0000   -0.0009   -0.0000   -0.0000    0.0000   -0.0001
       89 NB     5f1-      -0.0000    0.0000   -0.0000    0.0016    0.0000   -0.0003   -0.0000   -0.0000   -0.0000    0.0006
       90 NB     6f1-       0.0000   -0.0000    0.0000   -0.0008   -0.0000    0.0002    0.0000    0.0000   -0.0000    0.0006
       91 NB     7f1-      -0.0000    0.0000   -0.0000    0.0009   -0.0000   -0.0003   -0.0000   -0.0000   -0.0000    0.0005
       92 NB     8f1-      -0.0000    0.0000   -0.0000    0.0022    0.0000    0.0008    0.0000    0.0000   -0.0000   -0.0005
       93 NB     4f0       -0.0000    0.0013   -0.0000   -0.0000   -0.0012   -0.0000    0.0000   -0.0014    0.0003   -0.0000
       94 NB     5f0       -0.0000    0.0013   -0.0000   -0.0000   -0.0004   -0.0000    0.0000   -0.0005   -0.0005    0.0000
       95 NB     6f0        0.0000   -0.0011    0.0000    0.0000    0.0005    0.0000   -0.0000    0.0003   -0.0002    0.0000
       96 NB     7f0       -0.0000    0.0010   -0.0000   -0.0000   -0.0005   -0.0000    0.0000   -0.0004    0.0005    0.0000
       97 NB     8f0       -0.0000    0.0007   -0.0000   -0.0000    0.0016    0.0000   -0.0000    0.0009   -0.0011   -0.0000
       98 NB     4f1+       0.0013    0.0000    0.0019    0.0000   -0.0000    0.0000   -0.0009   -0.0000    0.0000    0.0000
       99 NB     5f1+       0.0010    0.0000    0.0016    0.0000   -0.0000    0.0000   -0.0003   -0.0000    0.0000   -0.0000
      100 NB     6f1+      -0.0004   -0.0000   -0.0008   -0.0000    0.0000   -0.0000    0.0002    0.0000   -0.0000   -0.0000
      101 NB     7f1+       0.0006    0.0000    0.0009    0.0000   -0.0000    0.0000   -0.0003   -0.0000    0.0000   -0.0000
      102 NB     8f1+       0.0018    0.0000    0.0022    0.0000   -0.0000   -0.0000    0.0008    0.0000   -0.0000    0.0000
      103 NB     4f2+       0.0023   -0.0000   -0.0026   -0.0000    0.0000    0.0000   -0.0010   -0.0000   -0.0000   -0.0000
      104 NB     5f2+       0.0016   -0.0000   -0.0017   -0.0000    0.0000    0.0000   -0.0005   -0.0000    0.0000    0.0000
      105 NB     6f2+      -0.0005    0.0000    0.0001    0.0000   -0.0000   -0.0000    0.0000   -0.0000    0.0000    0.0000
      106 NB     7f2+       0.0009   -0.0000   -0.0006   -0.0000    0.0000   -0.0000    0.0002    0.0000    0.0000    0.0000
      107 NB     8f2+       0.0034   -0.0000   -0.0044   -0.0000    0.0000    0.0000   -0.0013   -0.0000   -0.0000   -0.0000
      108 NB     4f3+       0.0000    0.0009   -0.0000    0.0000   -0.0008    0.0000   -0.0000   -0.0006    0.0002   -0.0000
      109 NB     5f3+       0.0000    0.0005   -0.0000   -0.0000   -0.0002    0.0000   -0.0000   -0.0003   -0.0003   -0.0000
      110 NB     6f3+      -0.0000    0.0001    0.0000   -0.0000    0.0003   -0.0000    0.0000   -0.0000   -0.0001   -0.0000
      111 NB     7f3+       0.0000    0.0001   -0.0000   -0.0000   -0.0003   -0.0000    0.0000    0.0002    0.0004   -0.0000
      112 NB     8f3+       0.0000    0.0017   -0.0000   -0.0000    0.0010    0.0000   -0.0000   -0.0010   -0.0007   -0.0000
      113 NB     5g4-      -0.0000   -0.0000   -0.0000    0.0001   -0.0000   -0.0001   -0.0000    0.0000   -0.0000    0.0001
      114 NB     6g4-       0.0000    0.0000    0.0000   -0.0001    0.0000    0.0001    0.0000   -0.0000   -0.0000    0.0001
      115 NB     7g4-      -0.0000    0.0000   -0.0000    0.0003   -0.0000   -0.0000   -0.0000    0.0000    0.0000    0.0001
      116 NB     8g4-       0.0000    0.0000    0.0000   -0.0004   -0.0000   -0.0002   -0.0000   -0.0000   -0.0000    0.0001
      117 NB     5g3-      -0.0000   -0.0000    0.0000   -0.0000   -0.0000   -0.0000   -0.0000    0.0000   -0.0000    0.0000
      118 NB     6g3-       0.0000   -0.0000   -0.0000    0.0000    0.0000    0.0000    0.0000   -0.0000   -0.0000   -0.0000
      119 NB     7g3-       0.0000    0.0000    0.0000   -0.0000   -0.0000   -0.0000   -0.0000   -0.0000   -0.0000    0.0000
      120 NB     8g3-       0.0000   -0.0000   -0.0000    0.0000   -0.0000    0.0000    0.0000   -0.0000    0.0000   -0.0000
      121 NB     5g2-      -0.0000    0.0000    0.0000   -0.0002    0.0000   -0.0000   -0.0000    0.0000   -0.0000    0.0000
      122 NB     6g2-       0.0000   -0.0000   -0.0000    0.0003    0.0000    0.0000    0.0000    0.0000   -0.0000    0.0000
      123 NB     7g2-      -0.0000    0.0000    0.0000   -0.0004   -0.0000   -0.0000   -0.0000   -0.0000   -0.0000    0.0000
      124 NB     8g2-       0.0000   -0.0000   -0.0000    0.0007    0.0000    0.0000    0.0000    0.0000    0.0000    0.0000
      125 NB     5g1-       0.0000   -0.0000    0.0000   -0.0003    0.0000   -0.0002   -0.0000    0.0000   -0.0000    0.0001
      126 NB     6g1-      -0.0000   -0.0000   -0.0000    0.0003   -0.0000    0.0002    0.0000   -0.0000   -0.0000    0.0002
      127 NB     7g1-       0.0000    0.0000    0.0000   -0.0004    0.0000   -0.0000   -0.0000   -0.0000   -0.0000    0.0001
      128 NB     8g1-      -0.0000    0.0000   -0.0000    0.0005    0.0000   -0.0002   -0.0000   -0.0000    0.0000    0.0001
      129 NB     5g0        0.0000   -0.0006    0.0000   -0.0000   -0.0000    0.0000    0.0000   -0.0001    0.0000    0.0000
      130 NB     6g0       -0.0000    0.0006   -0.0000   -0.0000   -0.0000    0.0000   -0.0000    0.0001    0.0000    0.0000
      131 NB     7g0        0.0000   -0.0009    0.0000    0.0000    0.0000   -0.0000    0.0000    0.0000    0.0000    0.0000
      132 NB     8g0       -0.0000    0.0014   -0.0000    0.0000   -0.0000    0.0000    0.0000   -0.0003    0.0000    0.0000
      133 NB     5g1+      -0.0002   -0.0000   -0.0003   -0.0000   -0.0000    0.0000   -0.0002   -0.0000    0.0000   -0.0000
      134 NB     6g1+       0.0003    0.0000    0.0003    0.0000    0.0000   -0.0000    0.0002    0.0000    0.0000   -0.0000
      135 NB     7g1+      -0.0005   -0.0000   -0.0004   -0.0000   -0.0000    0.0000   -0.0000   -0.0000    0.0000   -0.0000
      136 NB     8g1+       0.0007    0.0000    0.0005    0.0000    0.0000    0.0000   -0.0002   -0.0000   -0.0000   -0.0000
      137 NB     5g2+      -0.0002    0.0000    0.0002    0.0000    0.0000   -0.0000    0.0000    0.0000   -0.0000    0.0000
      138 NB     6g2+       0.0002   -0.0000   -0.0003   -0.0000   -0.0000    0.0000   -0.0000   -0.0000   -0.0000    0.0000
      139 NB     7g2+      -0.0003    0.0000    0.0004    0.0000    0.0000   -0.0000    0.0000    0.0000   -0.0000    0.0000
      140 NB     8g2+       0.0004   -0.0000   -0.0007   -0.0000   -0.0000    0.0000   -0.0000    0.0000    0.0000    0.0000
      141 NB     5g3+      -0.0000   -0.0000    0.0000   -0.0000   -0.0000   -0.0000    0.0000   -0.0001    0.0000    0.0000
      142 NB     6g3+       0.0000    0.0001   -0.0000   -0.0000    0.0000    0.0000   -0.0000    0.0001    0.0000    0.0000
      143 NB     7g3+      -0.0000   -0.0001    0.0000   -0.0000   -0.0001   -0.0000    0.0000    0.0000    0.0000    0.0000
      144 NB     8g3+       0.0000    0.0002   -0.0000    0.0000    0.0002    0.0000   -0.0000   -0.0002   -0.0000    0.0000
      145 NB     5g4+       0.0000    0.0000    0.0001    0.0000   -0.0000    0.0000   -0.0001   -0.0000    0.0000   -0.0000
      146 NB     6g4+      -0.0000   -0.0000   -0.0001   -0.0000    0.0000   -0.0000    0.0001    0.0000    0.0000   -0.0000
      147 NB     7g4+       0.0001    0.0000    0.0003    0.0000   -0.0000    0.0000   -0.0000    0.0000    0.0000   -0.0000
      148 NB     8g4+      -0.0001   -0.0000   -0.0004   -0.0000    0.0000    0.0000   -0.0002   -0.0000   -0.0000   -0.0000
      149 NB     6h5-      -0.0000   -0.0000    0.0000   -0.0001    0.0000   -0.0000   -0.0000    0.0000   -0.0000   -0.0000
      150 NB     7h5-       0.0000    0.0000   -0.0000    0.0001   -0.0000    0.0000    0.0000   -0.0000    0.0000   -0.0000
      151 NB     6h4-       0.0000   -0.0000    0.0000   -0.0001    0.0000    0.0001    0.0000    0.0000   -0.0000   -0.0000
      152 NB     7h4-      -0.0000    0.0000   -0.0000    0.0001   -0.0000   -0.0000   -0.0000   -0.0000   -0.0000    0.0000
      153 NB     6h3-       0.0000   -0.0000   -0.0000    0.0000    0.0000   -0.0000   -0.0000    0.0000   -0.0000    0.0000
      154 NB     7h3-       0.0000    0.0000   -0.0000   -0.0000   -0.0000    0.0000    0.0000    0.0000    0.0000   -0.0000
      155 NB     6h2-      -0.0000    0.0000    0.0000   -0.0001    0.0000    0.0000    0.0000    0.0000   -0.0000   -0.0000
      156 NB     7h2-       0.0000   -0.0000   -0.0000    0.0001    0.0000    0.0000    0.0000   -0.0000    0.0000   -0.0000
      157 NB     6h1-       0.0000   -0.0000    0.0000   -0.0001   -0.0000   -0.0000   -0.0000   -0.0000   -0.0000   -0.0000
      158 NB     7h1-      -0.0000    0.0000   -0.0000    0.0002   -0.0000    0.0000    0.0000   -0.0000    0.0000   -0.0000
      159 NB     6h0       -0.0000   -0.0002    0.0000   -0.0000    0.0000    0.0000   -0.0000    0.0000    0.0000    0.0000
      160 NB     7h0        0.0000    0.0002   -0.0000   -0.0000   -0.0000   -0.0000   -0.0000   -0.0000    0.0000   -0.0000
      161 NB     6h1+      -0.0001   -0.0000   -0.0001   -0.0000    0.0000    0.0000   -0.0000    0.0000    0.0000    0.0000
      162 NB     7h1+       0.0001    0.0000    0.0002    0.0000   -0.0000   -0.0000    0.0000    0.0000    0.0000    0.0000
      163 NB     6h2+      -0.0001    0.0000    0.0001    0.0000   -0.0000    0.0000   -0.0000   -0.0000   -0.0000   -0.0000
      164 NB     7h2+       0.0001   -0.0000   -0.0001   -0.0000    0.0000    0.0000   -0.0000   -0.0000   -0.0000   -0.0000
      165 NB     6h3+      -0.0000   -0.0001    0.0000    0.0000    0.0000    0.0000   -0.0000    0.0001    0.0000   -0.0000
      166 NB     7h3+       0.0000    0.0001   -0.0000   -0.0000   -0.0000    0.0000    0.0000   -0.0000    0.0000    0.0000
      167 NB     6h4+      -0.0000   -0.0000   -0.0001   -0.0000    0.0000   -0.0000    0.0001    0.0000    0.0000    0.0000
      168 NB     7h4+       0.0000    0.0000    0.0001    0.0000   -0.0000    0.0000   -0.0000   -0.0000    0.0000   -0.0000
      169 NB     6h5+      -0.0001    0.0000    0.0001    0.0000   -0.0000   -0.0000    0.0000    0.0000   -0.0000   -0.0000
      170 NB     7h5+       0.0001   -0.0000   -0.0001   -0.0000    0.0000    0.0000   -0.0000   -0.0000   -0.0000   -0.0000

          Orbital           21        22        23        24        25        26        27        28        29        30    
          Energy           -0.0841   -0.0828   -0.0537   -0.0537   -0.0532   -0.0532   -0.0532   -0.0126    0.0321    0.0321
          Occ. No.          0.0000    0.0000    0.0000    0.0000    0.0000    0.0000    0.0000    0.0000    0.0000    0.0000

        1 NB     1s        -0.0000    0.0000   -0.0000   -0.0000    0.0000    0.0000   -0.0000    0.0000   -0.0000    0.0000
        2 NB     2s        -0.0000   -0.0000   -0.0000   -0.0000   -0.0000   -0.0000   -0.0001    0.0003   -0.0000    0.0000
        3 NB     3s        -0.0000   -0.0008   -0.0000   -0.0000   -0.0000   -0.0000   -0.0002   -0.0100   -0.0000    0.0000
        4 NB     4s         0.0000    0.0037    0.0000    0.0000    0.0000    0.0000    0.0002    0.0768    0.0000   -0.0000
        5 NB     5s        -0.0000   -0.0162    0.0000    0.0000    0.0000    0.0000    0.0011   -0.3071   -0.0000    0.0000
        6 NB     6s        -0.0000   -0.0306   -0.0000   -0.0000   -0.0000   -0.0000   -0.0087    0.7902    0.0000   -0.0000
        7 NB     7s        -0.0000   -0.0033   -0.0000   -0.0000   -0.0000   -0.0000   -0.0025    0.4557    0.0000   -0.0000
        8 NB     8s        -0.0000   -0.0023   -0.0000   -0.0000   -0.0000   -0.0000   -0.0014    0.2499    0.0000   -0.0000
        9 NB     9s        -0.0000   -0.0002   -0.0000   -0.0000   -0.0000   -0.0000   -0.0002    0.0598    0.0000   -0.0000
       10 NB    10s        -0.0000   -0.0001   -0.0000   -0.0000   -0.0000   -0.0000   -0.0001    0.0030   -0.0000    0.0000
       11 NB     2px       -0.0002   -0.0000   -0.0000   -0.0000    0.0002    0.0000   -0.0000    0.0000   -0.0000    0.0000
       12 NB     3px        0.0090    0.0000   -0.0001   -0.0000    0.0013    0.0000   -0.0000    0.0000    0.0000   -0.0000
       13 NB     4px       -0.0785   -0.0000    0.0006    0.0000   -0.0062   -0.0000    0.0000   -0.0000   -0.0000    0.0001
       14 NB     5px        0.7695    0.0000   -0.0029   -0.0000    0.0117    0.0000   -0.0000    0.0000   -0.0000    0.0004
       15 NB     6px        0.4761    0.0000   -0.0022   -0.0000    0.0183    0.0000   -0.0000    0.0000    0.0000   -0.0004
       16 NB     7px        0.3829    0.0000   -0.0018   -0.0000    0.0149    0.0000   -0.0000    0.0000    0.0000   -0.0003
       17 NB     8px        0.1558    0.0000   -0.0009   -0.0000    0.0071    0.0000   -0.0000    0.0000   -0.0000    0.0001
       18 NB     9px        0.0528    0.0000   -0.0003   -0.0000    0.0023    0.0000   -0.0000    0.0000    0.0000   -0.0000
       19 NB    10px        0.0080    0.0000   -0.0001   -0.0000    0.0006    0.0000   -0.0000    0.0000   -0.0000    0.0001
       20 NB     2py       -0.0000    0.0000   -0.0000    0.0000   -0.0000    0.0002   -0.0000   -0.0000   -0.0000   -0.0000
       21 NB     3py        0.0000   -0.0000   -0.0000    0.0001   -0.0000    0.0013   -0.0000    0.0000    0.0000    0.0000
       22 NB     4py       -0.0000    0.0000    0.0000   -0.0006    0.0000   -0.0062    0.0000   -0.0000   -0.0001   -0.0000
       23 NB     5py        0.0000   -0.0000   -0.0000    0.0029   -0.0000    0.0117   -0.0000   -0.0000   -0.0004   -0.0000
       24 NB     6py        0.0000   -0.0000   -0.0000    0.0022   -0.0000    0.0183   -0.0000   -0.0000    0.0004    0.0000
       25 NB     7py        0.0000   -0.0000   -0.0000    0.0018   -0.0000    0.0149   -0.0000   -0.0000    0.0003    0.0000
       26 NB     8py        0.0000   -0.0000   -0.0000    0.0009   -0.0000    0.0071   -0.0000   -0.0000   -0.0001   -0.0000
       27 NB     9py        0.0000   -0.0000   -0.0000    0.0003   -0.0000    0.0023   -0.0000   -0.0000    0.0000    0.0000
       28 NB    10py        0.0000   -0.0000   -0.0000    0.0001   -0.0000    0.0006   -0.0000   -0.0000   -0.0001   -0.0000
       29 NB     2pz        0.0000   -0.0002    0.0000    0.0000   -0.0000   -0.0000   -0.0001   -0.0000    0.0000   -0.0000
       30 NB     3pz       -0.0000    0.0101    0.0000    0.0000    0.0000    0.0000   -0.0005    0.0015    0.0000   -0.0000
       31 NB     4pz        0.0000   -0.0832   -0.0000   -0.0000   -0.0000    0.0000    0.0029   -0.0074   -0.0000    0.0000
       32 NB     5pz       -0.0000    0.7611    0.0000    0.0000   -0.0000   -0.0000   -0.0111   -0.0001   -0.0000    0.0000
       33 NB     6pz       -0.0000    0.4829    0.0000    0.0000    0.0000   -0.0000   -0.0104    0.0217    0.0000   -0.0000
       34 NB     7pz       -0.0000    0.3883    0.0000    0.0000    0.0000   -0.0000   -0.0085    0.0205    0.0000   -0.0000
       35 NB     8pz       -0.0000    0.1589    0.0000    0.0000    0.0000   -0.0000   -0.0041    0.0109    0.0000   -0.0000
       36 NB     9pz       -0.0000    0.0538    0.0000    0.0000    0.0000   -0.0000   -0.0013    0.0040    0.0000   -0.0000
       37 NB    10pz       -0.0000    0.0083    0.0000    0.0000   -0.0000   -0.0000   -0.0003    0.0007    0.0000   -0.0000
       38 NB     3d2-      -0.0000    0.0000    0.0000   -0.0107    0.0000   -0.0062    0.0000    0.0000    0.0237    0.0000
       39 NB     4d2-      -0.0000    0.0000   -0.0001    0.3309   -0.0000    0.1531   -0.0000   -0.0000   -0.4889   -0.0000
       40 NB     5d2-      -0.0000    0.0000   -0.0001    0.5433   -0.0000    0.2623   -0.0000   -0.0000   -0.2991   -0.0000
       41 NB     6d2-      -0.0000    0.0000   -0.0001    0.5645   -0.0000    0.2745   -0.0000    0.0000    0.2983    0.0000
       42 NB     7d2-      -0.0000    0.0000   -0.0001    0.2948   -0.0000    0.1448   -0.0000    0.0000    0.5108    0.0000
       43 NB     8d2-       0.0000    0.0000   -0.0000    0.0255   -0.0000    0.0128   -0.0000    0.0000    0.2545    0.0000
       44 NB     9d2-       0.0000    0.0000    0.0000   -0.0036    0.0000   -0.0013    0.0000    0.0000    0.1287    0.0000
       45 NB    10d2-      -0.0000   -0.0000   -0.0000    0.0069   -0.0000    0.0035   -0.0000   -0.0000   -0.0159   -0.0000
       46 NB     3d1-      -0.0000    0.0000   -0.0000    0.0048    0.0000   -0.0123    0.0000   -0.0000   -0.0129   -0.0000
       47 NB     4d1-      -0.0000    0.0000    0.0000   -0.1609   -0.0000    0.3196   -0.0000   -0.0000    0.2750    0.0000
       48 NB     5d1-      -0.0000   -0.0000    0.0001   -0.2620   -0.0000    0.5432   -0.0000    0.0000    0.1675    0.0000
       49 NB     6d1-      -0.0000   -0.0000    0.0001   -0.2721   -0.0000    0.5682   -0.0000    0.0000   -0.1674   -0.0000
       50 NB     7d1-      -0.0000   -0.0000    0.0000   -0.1420   -0.0000    0.2994   -0.0000    0.0000   -0.2865   -0.0000
       51 NB     8d1-       0.0000    0.0000    0.0000   -0.0124   -0.0000    0.0266   -0.0000    0.0000   -0.1425   -0.0000
       52 NB     9d1-       0.0000    0.0000   -0.0000    0.0018    0.0000   -0.0029    0.0000    0.0000   -0.0721   -0.0000
       53 NB    10d1-      -0.0000   -0.0000    0.0000   -0.0032   -0.0000    0.0072   -0.0000   -0.0000    0.0088    0.0000
       54 NB     3d0        0.0000    0.0013   -0.0000   -0.0000   -0.0000   -0.0000   -0.0136   -0.0008   -0.0000    0.0000
       55 NB     4d0        0.0000    0.0117    0.0000    0.0000    0.0000    0.0000    0.3551   -0.0121    0.0000   -0.0000
       56 NB     5d0        0.0000    0.0112    0.0000    0.0000    0.0000    0.0000    0.6031    0.0034    0.0000   -0.0000
       57 NB     6d0        0.0000    0.0090    0.0000    0.0000    0.0000    0.0000    0.6309    0.0122   -0.0000    0.0000
       58 NB     7d0        0.0000    0.0027    0.0000    0.0000    0.0000    0.0000    0.3325    0.0111   -0.0000    0.0000
       59 NB     8d0       -0.0000   -0.0002    0.0000    0.0000    0.0000    0.0000    0.0297    0.0034   -0.0000    0.0000
       60 NB     9d0       -0.0000   -0.0007   -0.0000   -0.0000   -0.0000   -0.0000   -0.0032    0.0016   -0.0000    0.0000
       61 NB    10d0        0.0000   -0.0001    0.0000    0.0000    0.0000    0.0000    0.0079   -0.0001    0.0000   -0.0000
       62 NB     3d1+      -0.0016   -0.0000   -0.0048   -0.0000   -0.0123   -0.0000    0.0000   -0.0000   -0.0000    0.0129
       63 NB     4d1+      -0.0255   -0.0000    0.1609    0.0000    0.3196    0.0000   -0.0000   -0.0000    0.0000   -0.2750
       64 NB     5d1+      -0.0111   -0.0000    0.2620    0.0001    0.5432    0.0000   -0.0000    0.0000    0.0000   -0.1675
       65 NB     6d1+      -0.0074   -0.0000    0.2721    0.0001    0.5682    0.0000   -0.0000    0.0000   -0.0000    0.1674
       66 NB     7d1+      -0.0014   -0.0000    0.1420    0.0000    0.2994    0.0000   -0.0000    0.0000   -0.0000    0.2865
       67 NB     8d1+       0.0004    0.0000    0.0124    0.0000    0.0266    0.0000   -0.0000    0.0000   -0.0000    0.1425
       68 NB     9d1+       0.0007    0.0000   -0.0018   -0.0000   -0.0029   -0.0000    0.0000    0.0000   -0.0000    0.0721
       69 NB    10d1+      -0.0001   -0.0000    0.0032    0.0000    0.0072    0.0000   -0.0000   -0.0000    0.0000   -0.0088
       70 NB     3d2+       0.0011    0.0000   -0.0107   -0.0000    0.0062    0.0000   -0.0000    0.0000   -0.0000    0.0237
       71 NB     4d2+       0.0148    0.0000    0.3309    0.0001   -0.1531   -0.0000    0.0000    0.0000    0.0000   -0.4889
       72 NB     5d2+       0.0085    0.0000    0.5433    0.0001   -0.2623   -0.0000    0.0000   -0.0000    0.0000   -0.2991
       73 NB     6d2+       0.0062    0.0000    0.5645    0.0001   -0.2745   -0.0000    0.0000   -0.0000   -0.0000    0.2983
       74 NB     7d2+       0.0015    0.0000    0.2948    0.0001   -0.1448   -0.0000    0.0000   -0.0000   -0.0000    0.5108
       75 NB     8d2+      -0.0003   -0.0000    0.0255    0.0000   -0.0128   -0.0000    0.0000   -0.0000   -0.0000    0.2545
       76 NB     9d2+      -0.0006   -0.0000   -0.0036   -0.0000    0.0013    0.0000   -0.0000   -0.0000   -0.0000    0.1287
       77 NB    10d2+       0.0000    0.0000    0.0069    0.0000   -0.0035   -0.0000    0.0000   -0.0000    0.0000   -0.0159
       78 NB     4f3-      -0.0000    0.0000   -0.0000    0.0000    0.0000    0.0000   -0.0000   -0.0000   -0.0000    0.0000
       79 NB     5f3-       0.0000   -0.0000    0.0000   -0.0000   -0.0000    0.0000    0.0000    0.0000   -0.0000   -0.0000
       80 NB     6f3-       0.0000   -0.0000    0.0000   -0.0000   -0.0000    0.0000    0.0000    0.0000   -0.0000   -0.0000
       81 NB     7f3-       0.0000   -0.0000   -0.0000    0.0000   -0.0000    0.0000    0.0000   -0.0000   -0.0000   -0.0000
       82 NB     8f3-      -0.0000    0.0000    0.0000   -0.0000    0.0000   -0.0000   -0.0000    0.0000    0.0000    0.0000
       83 NB     4f2-      -0.0000    0.0000   -0.0000    0.0004    0.0000   -0.0000    0.0000   -0.0000   -0.0003   -0.0000
       84 NB     5f2-       0.0000   -0.0000    0.0000   -0.0001   -0.0000    0.0003   -0.0000    0.0000   -0.0009   -0.0000
       85 NB     6f2-       0.0000   -0.0000    0.0000   -0.0001   -0.0000    0.0004   -0.0000    0.0000   -0.0014   -0.0000
       86 NB     7f2-       0.0000   -0.0000   -0.0000    0.0001   -0.0000    0.0005   -0.0000    0.0000   -0.0017   -0.0000
       87 NB     8f2-      -0.0000    0.0000    0.0000   -0.0004    0.0000   -0.0007    0.0000   -0.0000    0.0022    0.0000
       88 NB     4f1-      -0.0000   -0.0000    0.0000   -0.0003   -0.0000    0.0006   -0.0000   -0.0000    0.0005    0.0000
       89 NB     5f1-       0.0000    0.0000   -0.0000    0.0002    0.0000   -0.0007    0.0000    0.0000   -0.0000   -0.0000
       90 NB     6f1-       0.0000    0.0000   -0.0000    0.0002    0.0000   -0.0008    0.0000    0.0000    0.0002    0.0000
       91 NB     7f1-       0.0000   -0.0000   -0.0000    0.0001    0.0000   -0.0004    0.0000    0.0000    0.0005    0.0000
       92 NB     8f1-      -0.0000    0.0000   -0.0000    0.0001   -0.0000    0.0001   -0.0000   -0.0000   -0.0008   -0.0000
       93 NB     4f0        0.0000   -0.0000   -0.0000   -0.0000    0.0000    0.0000    0.0008   -0.0001    0.0000   -0.0000
       94 NB     5f0       -0.0000    0.0007   -0.0000   -0.0000   -0.0000   -0.0000   -0.0011    0.0000   -0.0000    0.0000
       95 NB     6f0       -0.0000    0.0007   -0.0000   -0.0000   -0.0000   -0.0000   -0.0012   -0.0007   -0.0000    0.0000
       96 NB     7f0       -0.0000    0.0007   -0.0000   -0.0000   -0.0000   -0.0000   -0.0009   -0.0014   -0.0000    0.0000
       97 NB     8f0        0.0000   -0.0007    0.0000    0.0000    0.0000    0.0000    0.0007    0.0019    0.0000   -0.0000
       98 NB     4f1+      -0.0001    0.0000    0.0003    0.0000    0.0006    0.0000   -0.0000   -0.0000    0.0000   -0.0005
       99 NB     5f1+       0.0006    0.0000   -0.0002   -0.0000   -0.0007   -0.0000    0.0000   -0.0000   -0.0000    0.0000
      100 NB     6f1+       0.0006    0.0000   -0.0002   -0.0000   -0.0008   -0.0000    0.0000    0.0000    0.0000   -0.0002
      101 NB     7f1+       0.0005    0.0000   -0.0001   -0.0000   -0.0004   -0.0000    0.0000   -0.0000    0.0000   -0.0005
      102 NB     8f1+      -0.0005   -0.0000   -0.0001   -0.0000    0.0001    0.0000   -0.0000    0.0000   -0.0000    0.0008
      103 NB     4f2+       0.0003   -0.0000    0.0004    0.0000    0.0000    0.0000   -0.0000    0.0000    0.0000   -0.0003
      104 NB     5f2+      -0.0001    0.0000   -0.0001   -0.0000   -0.0003   -0.0000    0.0000   -0.0000    0.0000   -0.0009
      105 NB     6f2+      -0.0002    0.0000   -0.0001   -0.0000   -0.0004   -0.0000    0.0000   -0.0000    0.0000   -0.0014
      106 NB     7f2+      -0.0003    0.0000    0.0001    0.0000   -0.0005   -0.0000    0.0000    0.0000    0.0000   -0.0017
      107 NB     8f2+       0.0004   -0.0000   -0.0004   -0.0000    0.0007    0.0000   -0.0000   -0.0000   -0.0000    0.0022
      108 NB     4f3+       0.0000    0.0002    0.0000    0.0000   -0.0000   -0.0000   -0.0001   -0.0000   -0.0000   -0.0000
      109 NB     5f3+       0.0000   -0.0001   -0.0000   -0.0000    0.0000    0.0000    0.0003   -0.0000    0.0000   -0.0000
      110 NB     6f3+       0.0000   -0.0002   -0.0000   -0.0000    0.0000    0.0000    0.0004   -0.0005    0.0000   -0.0000
      111 NB     7f3+      -0.0000   -0.0002    0.0000    0.0000    0.0000    0.0000    0.0004   -0.0010    0.0000   -0.0000
      112 NB     8f3+       0.0000    0.0004   -0.0000   -0.0000    0.0000   -0.0000   -0.0004    0.0013   -0.0000    0.0000
      113 NB     5g4-       0.0000   -0.0000    0.0000   -0.0000   -0.0000    0.0000   -0.0000    0.0000    0.0000    0.0000
      114 NB     6g4-       0.0000   -0.0000    0.0000   -0.0000   -0.0000    0.0000   -0.0000    0.0000    0.0000    0.0000
      115 NB     7g4-       0.0000   -0.0000    0.0000   -0.0000    0.0000   -0.0000    0.0000    0.0000    0.0000    0.0000
      116 NB     8g4-       0.0000   -0.0000    0.0000   -0.0000   -0.0000    0.0000   -0.0000   -0.0000    0.0000    0.0000
      117 NB     5g3-       0.0000   -0.0000    0.0000   -0.0000    0.0000   -0.0000   -0.0000   -0.0000    0.0000    0.0000
      118 NB     6g3-      -0.0000    0.0000    0.0000   -0.0000    0.0000   -0.0000   -0.0000    0.0000    0.0000    0.0000
      119 NB     7g3-       0.0000    0.0000    0.0000   -0.0000    0.0000   -0.0000   -0.0000   -0.0000    0.0000    0.0000
      120 NB     8g3-      -0.0000    0.0000    0.0000   -0.0000    0.0000   -0.0000    0.0000   -0.0000    0.0000    0.0000
      121 NB     5g2-       0.0000    0.0000    0.0000   -0.0001    0.0000   -0.0000    0.0000   -0.0000    0.0002    0.0000
      122 NB     6g2-       0.0000   -0.0000    0.0000   -0.0001    0.0000   -0.0001    0.0000    0.0000    0.0002    0.0000
      123 NB     7g2-       0.0000   -0.0000    0.0000   -0.0001    0.0000   -0.0000    0.0000   -0.0000    0.0001    0.0000
      124 NB     8g2-       0.0000   -0.0000    0.0000   -0.0000    0.0000   -0.0000    0.0000    0.0000    0.0001    0.0000
      125 NB     5g1-       0.0000   -0.0000   -0.0000    0.0001    0.0000   -0.0001    0.0000    0.0000   -0.0002   -0.0000
      126 NB     6g1-       0.0000   -0.0000   -0.0000    0.0001    0.0000   -0.0001    0.0000    0.0000   -0.0002   -0.0000
      127 NB     7g1-       0.0000   -0.0000   -0.0000    0.0000    0.0000   -0.0001    0.0000   -0.0000   -0.0001   -0.0000
      128 NB     8g1-       0.0000   -0.0000   -0.0000    0.0000    0.0000   -0.0000    0.0000    0.0000   -0.0001   -0.0000
      129 NB     5g0       -0.0000    0.0001    0.0000    0.0000   -0.0000   -0.0000   -0.0002    0.0000    0.0000   -0.0000
      130 NB     6g0       -0.0000    0.0002   -0.0000   -0.0000   -0.0000   -0.0000   -0.0002   -0.0000    0.0000   -0.0000
      131 NB     7g0       -0.0000    0.0002   -0.0000   -0.0000   -0.0000   -0.0000   -0.0001   -0.0000    0.0000   -0.0000
      132 NB     8g0       -0.0000    0.0001    0.0000    0.0000   -0.0000   -0.0000   -0.0001    0.0000    0.0000   -0.0000
      133 NB     5g1+       0.0001    0.0000   -0.0001   -0.0000   -0.0001   -0.0000    0.0000   -0.0000   -0.0000    0.0002
      134 NB     6g1+       0.0002    0.0000   -0.0001   -0.0000   -0.0001   -0.0000    0.0000   -0.0000   -0.0000    0.0002
      135 NB     7g1+       0.0001    0.0000   -0.0000   -0.0000   -0.0001   -0.0000    0.0000   -0.0000   -0.0000    0.0001
      136 NB     8g1+       0.0001    0.0000   -0.0000   -0.0000   -0.0000   -0.0000   -0.0000    0.0000   -0.0000    0.0001
      137 NB     5g2+      -0.0000   -0.0000   -0.0001   -0.0000    0.0000    0.0000   -0.0000    0.0000   -0.0000    0.0002
      138 NB     6g2+      -0.0000   -0.0000   -0.0001   -0.0000    0.0001    0.0000   -0.0000    0.0000   -0.0000    0.0002
      139 NB     7g2+      -0.0000   -0.0000   -0.0001   -0.0000    0.0000    0.0000   -0.0000    0.0000   -0.0000    0.0001
      140 NB     8g2+      -0.0000   -0.0000   -0.0000   -0.0000    0.0000    0.0000   -0.0000   -0.0000   -0.0000    0.0001
      141 NB     5g3+      -0.0000    0.0001   -0.0000   -0.0000   -0.0000   -0.0000   -0.0000   -0.0000   -0.0000    0.0000
      142 NB     6g3+      -0.0000    0.0001   -0.0000   -0.0000   -0.0000   -0.0000   -0.0000   -0.0000   -0.0000    0.0000
      143 NB     7g3+      -0.0000    0.0001   -0.0000   -0.0000   -0.0000   -0.0000   -0.0000   -0.0000   -0.0000    0.0000
      144 NB     8g3+      -0.0000    0.0001   -0.0000   -0.0000    0.0000    0.0000   -0.0000    0.0000   -0.0000    0.0000
      145 NB     5g4+       0.0001    0.0000    0.0000    0.0000    0.0000    0.0000   -0.0000   -0.0000    0.0000   -0.0000
      146 NB     6g4+       0.0001    0.0000    0.0000    0.0000    0.0000    0.0000   -0.0000   -0.0000    0.0000   -0.0000
      147 NB     7g4+       0.0001    0.0000    0.0000    0.0000   -0.0000   -0.0000    0.0000   -0.0000    0.0000   -0.0000
      148 NB     8g4+       0.0001    0.0000    0.0000    0.0000    0.0000    0.0000   -0.0000    0.0000    0.0000   -0.0000
      149 NB     6h5-      -0.0000   -0.0000   -0.0000    0.0000   -0.0000    0.0000   -0.0000   -0.0000   -0.0001   -0.0000
      150 NB     7h5-      -0.0000    0.0000   -0.0000    0.0000   -0.0000    0.0000   -0.0000    0.0000   -0.0001   -0.0000
      151 NB     6h4-      -0.0000    0.0000    0.0000   -0.0000   -0.0000    0.0000   -0.0000    0.0000    0.0000    0.0000
      152 NB     7h4-       0.0000   -0.0000    0.0000   -0.0000   -0.0000    0.0000   -0.0000   -0.0000    0.0000    0.0000
      153 NB     6h3-       0.0000   -0.0000   -0.0000    0.0000   -0.0000   -0.0000    0.0000   -0.0000   -0.0000   -0.0000
      154 NB     7h3-      -0.0000    0.0000   -0.0000    0.0000    0.0000    0.0000    0.0000    0.0000   -0.0000   -0.0000
      155 NB     6h2-      -0.0000    0.0000   -0.0000    0.0000   -0.0000    0.0000   -0.0000    0.0000   -0.0001   -0.0000
      156 NB     7h2-      -0.0000    0.0000   -0.0000    0.0000   -0.0000    0.0000   -0.0000   -0.0000   -0.0001   -0.0000
      157 NB     6h1-      -0.0000    0.0000    0.0000   -0.0000   -0.0000    0.0000   -0.0000   -0.0000    0.0001    0.0000
      158 NB     7h1-      -0.0000    0.0000    0.0000   -0.0000   -0.0000    0.0001   -0.0000    0.0000    0.0001    0.0000
      159 NB     6h0        0.0000    0.0000    0.0000    0.0000    0.0000    0.0000    0.0001   -0.0000   -0.0000   -0.0000
      160 NB     7h0        0.0000    0.0000    0.0000    0.0000    0.0000    0.0000    0.0001   -0.0000   -0.0000   -0.0000
      161 NB     6h1+      -0.0000   -0.0000    0.0000    0.0000    0.0000    0.0000   -0.0000   -0.0000    0.0000   -0.0001
      162 NB     7h1+      -0.0000   -0.0000    0.0000    0.0000    0.0001    0.0000   -0.0000   -0.0000    0.0000   -0.0001
      163 NB     6h2+       0.0000    0.0000    0.0000    0.0000   -0.0000   -0.0000    0.0000    0.0000    0.0000   -0.0001
      164 NB     7h2+       0.0000   -0.0000    0.0000    0.0000   -0.0000   -0.0000    0.0000    0.0000    0.0000   -0.0001
      165 NB     6h3+       0.0000   -0.0000    0.0000    0.0000    0.0000    0.0000    0.0000   -0.0000    0.0000   -0.0000
      166 NB     7h3+      -0.0000    0.0000    0.0000    0.0000    0.0000    0.0000    0.0000   -0.0000    0.0000   -0.0000
      167 NB     6h4+      -0.0000   -0.0000    0.0000    0.0000    0.0000    0.0000   -0.0000   -0.0000    0.0000   -0.0000
      168 NB     7h4+       0.0000    0.0000    0.0000    0.0000    0.0000    0.0000   -0.0000   -0.0000    0.0000   -0.0000
      169 NB     6h5+       0.0000    0.0000    0.0000    0.0000   -0.0000   -0.0000    0.0000    0.0000    0.0000   -0.0001
[...]
         2   10       1.34498215E-05  1.50295669E+01  3.61458798E+03  1.00986858E-08  3.62961755E+03
         2   12       1.34514171E-05  3.61502036E+03  1.50277613E+01  2.40657561E-06  3.63004812E+03
         2   14       1.22912207E-03  5.74130762E+00  3.35430726E+05  1.90591438E-10  3.35436468E+05
         2   16       1.22911100E-03  3.35427706E+05  5.74135767E+00  1.08392472E-05  3.35433447E+05
         2   18       1.73124591E-05  2.77572275E-05  2.44897318E-16  4.72790497E+03  4.72790500E+03
         3    7       3.61279966E-05  3.96664672E-08  1.90549398E+00  5.14060172E-19  1.90549402E+00
         3    9       1.52183000E-01  3.63455044E+06  1.50430063E+04  8.51290647E+05  4.50088409E+06
         3   11       1.23520219E-01  1.50429227E+04  3.63457068E+06  3.55518939E+03  3.65316879E+06
         3   13       1.54644938E-01  9.00122414E+05  1.64996430E+01  3.83026622E+06  4.73040514E+06
         3   15       2.94280426E-02  1.65002287E+01  9.00091336E+05  6.10672049E+01  9.00168903E+05
         3   17       5.35317595E-02  3.41556704E-02  1.64079439E+06  9.54358078E-12  1.64079443E+06
         4    8       3.61279966E-05  3.96664672E-08  1.90549398E+00  5.14060172E-19  1.90549402E+00
         4   10       1.52183000E-01  3.63455044E+06  1.50430063E+04  8.51290647E+05  4.50088409E+06
         4   12       1.23520219E-01  1.50429227E+04  3.63457068E+06  3.55518939E+03  3.65316879E+06
         4   14       1.54644938E-01  9.00122414E+05  1.64996430E+01  3.83026622E+06  4.73040514E+06
         4   16       2.94280426E-02  1.65002287E+01  9.00091336E+05  6.10672049E+01  9.00168903E+05
         4   18       5.35317595E-02  3.41556704E-02  1.64079439E+06  9.54358078E-12  1.64079443E+06
         5    7       3.61278278E-05  1.90547666E+00  3.96655724E-08  3.69465511E-11  1.90547670E+00
         5    9       1.23519781E-01  1.50429450E+04  3.63455709E+06  3.55511795E+03  3.65315515E+06
         5   11       1.52182628E-01  3.63455589E+06  1.50429501E+04  8.51273396E+05  4.50087224E+06
         5   13       2.94287960E-02  1.65002559E+01  9.00114215E+05  6.10675161E+01  9.00191783E+05
         5   15       1.54645621E-01  9.00125368E+05  1.65000579E+01  3.83028331E+06  4.73042518E+06
         5   17       5.35311294E-02  1.64077478E+06  3.41560283E-02  2.60745611E-04  1.64077481E+06
         6    8       3.61278278E-05  1.90547666E+00  3.96655724E-08  3.69465511E-11  1.90547670E+00
         6   10       1.23519781E-01  1.50429450E+04  3.63455709E+06  3.55511795E+03  3.65315515E+06
         6   12       1.52182628E-01  3.63455589E+06  1.50429501E+04  8.51273396E+05  4.50087224E+06
         6   14       2.94287960E-02  1.65002559E+01  9.00114215E+05  6.10675161E+01  9.00191783E+05
         6   16       1.54645621E-01  9.00125368E+05  1.65000579E+01  3.83028331E+06  4.73042518E+06
         6   18       5.35311294E-02  1.64077478E+06  3.41560283E-02  2.60745611E-04  1.64077481E+06
         7    9       2.80069553E-02  3.14595883E+03  7.56691135E+05  4.22641345E-08  7.59837093E+05
         7   11       2.80068876E-02  7.56689292E+05  3.14596614E+03  1.01901202E-05  7.59835258E+05
         7   13       1.20996336E-01  5.81971575E+01  3.40008508E+06  4.44119924E-09  3.40014327E+06
         7   15       1.20996407E-01  3.40008706E+06  5.81970999E+01  2.54869157E-04  3.40014526E+06
         7   17       1.96491284E-01  1.62684922E-04  1.64786910E-13  5.53332803E+06  5.53332803E+06
         8   10       2.80069553E-02  3.14595883E+03  7.56691135E+05  4.22641345E-08  7.59837093E+05
         8   12       2.80068876E-02  7.56689292E+05  3.14596614E+03  1.01901202E-05  7.59835258E+05
         8   14       1.20996336E-01  5.81971575E+01  3.40008508E+06  4.44119924E-09  3.40014327E+06
         8   16       1.20996407E-01  3.40008706E+06  5.81970999E+01  2.54869157E-04  3.40014526E+06
         8   18       1.96491284E-01  1.62684922E-04  1.64786910E-13  5.53332803E+06  5.53332803E+06
     -----------------------------------------------------------------------------------------------
--

++ Velocity transition strengths (SO states):
   ------------------------------------------
    for osc. strength at least    1.0000000000000001E-005

      From   To        Osc. strength     Einstein coefficients Ax, Ay, Az (sec-1)    Total A (sec-1)
     -----------------------------------------------------------------------------------------------
         1    3       3.22705092E-01  8.11245750E-01  3.89707622E+07  1.31341428E-11  3.89707630E+07
         1    5       3.22705106E-01  3.89707675E+07  8.11245818E-01  1.79482167E-04  3.89707683E+07
         1    7       3.28846866E-01  1.86952098E-04  2.83531912E-12  4.13896705E+07  4.13896705E+07
         1    9       2.49336888E-05  2.78615075E+01  6.70085743E+03  1.01853958E-08  6.72871894E+03
         1   11       2.49358887E-05  6.70145361E+03  2.78590202E+01  2.43614934E-06  6.72931263E+03
         1   13       1.02451353E-03  4.78558331E+00  2.79593475E+05  2.28872950E-10  2.79598261E+05
         1   15       1.02450411E-03  2.79590904E+05  4.78562620E+00  1.31716385E-05  2.79595690E+05
         1   17       7.58032054E-05  2.43033510E-05  2.77689084E-16  2.07013688E+04  2.07013688E+04
         2    4       3.22705092E-01  8.11245750E-01  3.89707622E+07  1.31341428E-11  3.89707630E+07
         2    6       3.22705106E-01  3.89707675E+07  8.11245818E-01  1.79482167E-04  3.89707683E+07
         2    8       3.28846866E-01  1.86952098E-04  2.83531912E-12  4.13896705E+07  4.13896705E+07
         2   10       2.49336888E-05  2.78615075E+01  6.70085743E+03  1.01853958E-08  6.72871894E+03
         2   12       2.49358887E-05  6.70145361E+03  2.78590202E+01  2.43614934E-06  6.72931263E+03
         2   14       1.02451353E-03  4.78558331E+00  2.79593475E+05  2.28872950E-10  2.79598261E+05
         2   16       1.02450411E-03  2.79590904E+05  4.78562620E+00  1.31716385E-05  2.79595690E+05
         2   18       7.58032054E-05  2.43033510E-05  2.77689084E-16  2.07013688E+04  2.07013688E+04
         3    7       5.45643269E-04  5.99129737E-07  2.87788884E+01  3.86805372E-18  2.87788890E+01
         3    9       4.38208216E-01  1.04684081E+07  4.33275937E+04  2.44852424E+06  1.29602600E+07
         3   11       3.55767187E-01  4.33273543E+04  1.04684662E+07  1.02256115E+04  1.05220191E+07
         3   13       4.43918973E-01  2.58707206E+06  4.74221849E+01  1.09918823E+07  1.35790018E+07
         3   15       8.45798365E-02  4.74238590E+01  2.58698315E+06  1.75247229E+02  2.58720583E+06
         3   17       1.52085084E-01  9.70374454E-02  4.66155462E+06  2.72479199E-11  4.66155472E+06
         4    8       5.45643269E-04  5.99129737E-07  2.87788884E+01  3.86805372E-18  2.87788890E+01
         4   10       4.38208216E-01  1.04684081E+07  4.33275937E+04  2.44852424E+06  1.29602600E+07
         4   12       3.55767187E-01  4.33273543E+04  1.04684662E+07  1.02256115E+04  1.05220191E+07
         4   14       4.43918973E-01  2.58707206E+06  4.74221849E+01  1.09918823E+07  1.35790018E+07
         4   16       8.45798365E-02  4.74238590E+01  2.58698315E+06  1.75247229E+02  2.58720583E+06
         4   18       1.52085084E-01  9.70374454E-02  4.66155462E+06  2.72479199E-11  4.66155472E+06
         5    7       5.45643445E-04  2.87787705E+01  5.99049784E-07  3.06015593E-12  2.87787711E+01
         5    9       3.55765972E-01  4.33274237E+04  1.04684284E+07  1.02254071E+04  1.05219812E+07
         5   11       4.38207197E-01  1.04684251E+07  4.33274378E+04  2.44847489E+06  1.29602274E+07
         5   13       8.45819987E-02  4.74239314E+01  2.58704882E+06  1.75248131E+02  2.58727149E+06
         5   15       4.43920946E-01  2.58708013E+06  4.74233751E+01  1.09919321E+07  1.35790597E+07
         5   17       1.52083296E-01  4.66149896E+06  9.70384957E-02  7.50571595E-04  4.66149906E+06
         6    8       5.45643445E-04  2.87787705E+01  5.99049784E-07  3.06015593E-12  2.87787711E+01
         6   10       3.55765972E-01  4.33274237E+04  1.04684284E+07  1.02254071E+04  1.05219812E+07
         6   12       4.38207197E-01  1.04684251E+07  4.33274378E+04  2.44847489E+06  1.29602274E+07
         6   14       8.45819987E-02  4.74239314E+01  2.58704882E+06  1.75248131E+02  2.58727149E+06
         6   16       4.43920946E-01  2.58708013E+06  4.74233751E+01  1.09919321E+07  1.35790597E+07
         6   18       1.52083296E-01  4.66149896E+06  9.70384957E-02  7.50571595E-04  4.66149906E+06
         7    9       8.43540635E-02  9.47533699E+03  2.27908365E+06  1.29557268E-07  2.28855899E+06
         7   11       8.43538612E-02  2.27907814E+06  9.47535882E+03  3.12295097E-05  2.28855350E+06
         7   13       3.64590712E-01  1.75362466E+02  1.02452999E+07  1.34697130E-08  1.02454752E+07
         7   15       3.64590906E-01  1.02453053E+07  1.75362301E+02  7.72653026E-04  1.02454807E+07
         7   17       5.92345012E-01  4.89489106E-04  5.07296882E-13  1.66808959E+07  1.66808959E+07
         8   10       8.43540635E-02  9.47533699E+03  2.27908365E+06  1.29557268E-07  2.28855899E+06
         8   12       8.43538612E-02  2.27907814E+06  9.47535882E+03  3.12295097E-05  2.28855350E+06
         8   14       3.64590712E-01  1.75362466E+02  1.02452999E+07  1.34697130E-08  1.02454752E+07
         8   16       3.64590906E-01  1.02453053E+07  1.75362301E+02  7.72653026E-04  1.02454807E+07
         8   18       5.92345012E-01  4.89489106E-04  5.07296882E-13  1.66808959E+07  1.66808959E+07
         9   13       5.85815139E-03  3.22207386E+01  1.17259000E-01  1.76580318E+01  4.99960294E+01
         9   15       3.79883941E-03  1.17256498E-01  3.22205239E+01  8.31787829E-02  3.24209592E+01
         9   17       1.04535620E-03  4.15588941E-02  9.99566645E+00  1.09363676E-11  1.00372253E+01
        10   14       5.85815139E-03  3.22207386E+01  1.17259000E-01  1.76580318E+01  4.99960294E+01
        10   16       3.79883941E-03  1.17256498E-01  3.22205239E+01  8.31787829E-02  3.24209592E+01
        10   18       1.04535620E-03  4.15588941E-02  9.99566645E+00  1.09363676E-11  1.00372253E+01
        11   13       3.79892048E-03  1.17257122E-01  3.22212127E+01  8.31812225E-02  3.24216510E+01
        11   15       5.85806456E-03  3.22205874E+01  1.17256139E-01  1.76574449E+01  4.99952884E+01
        11   17       1.04539645E-03  9.99605456E+00  4.15572832E-02  2.59939303E-09  1.00376119E+01
        12   14       3.79892048E-03  1.17257122E-01  3.22212127E+01  8.31812225E-02  3.24216510E+01
        12   16       5.85806456E-03  3.22205874E+01  1.17256139E-01  1.76574449E+01  4.99952884E+01
        12   18       1.04539645E-03  9.99605456E+00  4.15572832E-02  2.59939303E-09  1.00376119E+01
        13   17       1.05174269E-03  5.65822958E-07  3.30573185E-02  2.74689537E-15  3.30578843E-02
        14   18       1.05174269E-03  5.65822958E-07  3.30573185E-02  2.74689537E-15  3.30578843E-02
        15   17       1.05175137E-03  3.30575915E-02  5.65819169E-07  1.48454328E-10  3.30581574E-02
        16   18       1.05175137E-03  3.30575915E-02  5.65819169E-07  1.48454328E-10  3.30581574E-02
     -----------------------------------------------------------------------------------------------
--

++ Length and velocity gauge comparison (SO states):

 --------------------------------------------------
 A comparison between the dipole oscillator strengths in 
 length and velocity gauge will be performed

 All dipole oscillator differences above the tolerance of   0.10000000000000001       will be printed 

 Due to basis set deficiency these oscillator may be problematic 

 The tolerance is defined as ABS(1-O_l/O_v) 
 O_l : dipole oscillator strength in length gauge
 O_p : dipole oscillator strength in velocity gauge
 --------------------------------------------------

  Problematic transitions have been found

      From   To       Difference (%) Osc. st. (len.) Osc. st. (vel.)
     ---------------------------------------------------------------
         1    3            27.887633  4.12699905E-01  3.22705092E-01
         1    5            27.887633  4.12699922E-01  3.22705106E-01
         1    7            28.638890  4.23024958E-01  3.28846866E-01
         1    9            46.057634  1.34498215E-05  2.49336888E-05
         1   11            46.055995  1.34514171E-05  2.49358887E-05
         1   13            19.971288  1.22912207E-03  1.02451353E-03
         1   15            19.971310  1.22911100E-03  1.02450411E-03
         1   17            77.161310  1.73124591E-05  7.58032054E-05
         2    4            27.887633  4.12699905E-01  3.22705092E-01
         2    6            27.887633  4.12699922E-01  3.22705106E-01
         2    8            28.638890  4.23024958E-01  3.28846866E-01
         2   10            46.057634  1.34498215E-05  2.49336888E-05
         2   12            46.055995  1.34514171E-05  2.49358887E-05
         2   14            19.971288  1.22912207E-03  1.02451353E-03
         2   16            19.971310  1.22911100E-03  1.02450411E-03
         2   18            77.161310  1.73124591E-05  7.58032054E-05
         3    7            93.378825  3.61279966E-05  5.45643269E-04
         3    9            65.271532  1.52183000E-01  4.38208216E-01
         3   11            65.280604  1.23520219E-01  3.55767187E-01
         3   13            65.163702  1.54644938E-01  4.43918973E-01
         3   15            65.206787  2.94280426E-02  8.45798365E-02
         3   17            64.801440  5.35317595E-02  1.52085084E-01
         4    8            93.378825  3.61279966E-05  5.45643269E-04
         4   10            65.271532  1.52183000E-01  4.38208216E-01
         4   12            65.280604  1.23520219E-01  3.55767187E-01
         4   14            65.163702  1.54644938E-01  4.43918973E-01
         4   16            65.206787  2.94280426E-02  8.45798365E-02
         4   18            64.801440  5.35317595E-02  1.52085084E-01
         5    7            93.378858  3.61278278E-05  5.45643445E-04
         5    9            65.280609  1.23519781E-01  3.55765972E-01
         5   11            65.271536  1.52182628E-01  4.38207197E-01
         5   13            65.206786  2.94287960E-02  8.45819987E-02
         5   15            65.163702  1.54645621E-01  4.43920946E-01
         5   17            64.801441  5.35311294E-02  1.52083296E-01
         6    8            93.378858  3.61278278E-05  5.45643445E-04
         6   10            65.280609  1.23519781E-01  3.55765972E-01
         6   12            65.271536  1.52182628E-01  4.38207197E-01
         6   14            65.206786  2.94287960E-02  8.45819987E-02
         6   16            65.163702  1.54645621E-01  4.43920946E-01
         6   18            64.801441  5.35311294E-02  1.52083296E-01
         7    9            66.798333  2.80069553E-02  8.43540635E-02
         7   11            66.798334  2.80068876E-02  8.43538612E-02
         7   13            66.813105  1.20996336E-01  3.64590712E-01
         7   15            66.813103  1.20996407E-01  3.64590906E-01
         7   17            66.828237  1.96491284E-01  5.92345012E-01
         8   10            66.798333  2.80069553E-02  8.43540635E-02
         8   12            66.798334  2.80068876E-02  8.43538612E-02
         8   14            66.813105  1.20996336E-01  3.64590712E-01
         8   16            66.813103  1.20996407E-01  3.64590906E-01
         8   18            66.828237  1.96491284E-01  5.92345012E-01
         9   13      --------------- below threshold  5.85815139E-03
         9   15      --------------- below threshold  3.79883941E-03
         9   17      --------------- below threshold  1.04535620E-03
        10   14      --------------- below threshold  5.85815139E-03
        10   16      --------------- below threshold  3.79883941E-03
        10   18      --------------- below threshold  1.04535620E-03
        11   13      --------------- below threshold  3.79892048E-03
        11   15      --------------- below threshold  5.85806456E-03
        11   17      --------------- below threshold  1.04539645E-03
        12   14      --------------- below threshold  3.79892048E-03
        12   16      --------------- below threshold  5.85806456E-03
        12   18      --------------- below threshold  1.04539645E-03
        13   17      --------------- below threshold  1.05174269E-03
        14   18      --------------- below threshold  1.05174269E-03
        15   17      --------------- below threshold  1.05175137E-03
        16   18      --------------- below threshold  1.05175137E-03
     ---------------------------------------------------------------

 Number of problematic transitions =                    66

--

 Electric-dipole - electric-octupole not included
++ I/O STATISTICS
 
  I. General I/O information
  - - - - - - - - - - - - - - - - - - - - - - - - - - - - - - - - - - - - - - - - - - -
  Unit  Name          Flsize      Write/Read            MBytes           Write/Read
                      (MBytes)       Calls              In/Out           Time, sec.
  - - - - - - - - - - - - - - - - - - - - - - - - - - - - - - - - - - - - - - - - - - -
   1  SCRATCH           0.00 .       9/      45 .      0.0/      0.0 .       0/       0
   2  ANNI              0.00 .       0/       0 .      0.0/      0.0 .       0/       0
   3  RUNFILE          14.67 .     322/    9977 .      2.3/     72.4 .       0/       0
   4  ONEINT            5.14 .       0/   22237 .      0.0/   3722.5 .       0/       0
   5  JOBIPH            5.92 .       0/      92 .      0.0/      0.7 .       0/       0
   6  ORDINT          403.03 .       1/    3225 .      0.0/    806.0 .       0/       0
  - - - - - - - - - - - - - - - - - - - - - - - - - - - - - - - - - - - - - - - - - - -
   *  TOTAL           428.76 .     332/   35576 .      2.3/   4601.6 .       0/       0
  - - - - - - - - - - - - - - - - - - - - - - - - - - - - - - - - - - - - - - - - - - -
 
  II. I/O Access Patterns
  - - - - - - - - - - - - - - - - - - - -
  Unit  Name               % of random
                         Write/Read calls
  - - - - - - - - - - - - - - - - - - - -
   1  SCRATCH             88.9/ 100.0
   2  ANNI                 0.0/   0.0
   3  RUNFILE             28.6/  10.8
   4  ONEINT               0.0/  17.4
   5  JOBIPH               0.0/  76.1
   6  ORDINT             100.0/   0.1
  - - - - - - - - - - - - - - - - - - - -
--
--- Stop Module: rassi at Thu Jan  9 21:04:05 2025 /rc=_RC_ALL_IS_WELL_ ---
*** files: xmldump
    saved to directory /home4/s4752295/Internship/Initial_simulations/Point_charge_model/1_electron/active_space_9_non_rel/Nb/varying_bond_length
--- Module rassi spent 3 seconds ---

.##################.
.# Happy landing! #.
.##################.

    Timing: Wall=46.92 User=36.44 System=7.81

###############################################################################
Hbrk Cluster
Job 14549894 for user s4752295
Finished at: Thu Jan  9 21:04:05 CET 2025

Job details:
============

Job ID                         : 14549894
Name                           : Nb_no_c_light
User                           : s4752295
Partition                      : regularmedium
Nodes                          : node95
Number of Nodes                : 1
Cores                          : 1
Number of Tasks                : 1
State                          : RUNNING  
Submit                         : 2025-01-09T21:03:13
Start                          : 2025-01-09T21:03:14
End                            : --
Reserved walltime              : 15:00:00
Used walltime                  : 00:00:52
Used CPU time                  : -- 
% User (Computation)           : --
% System (I/O)                 : --
Total memory reserved          : 25000M
Maximum memory used            : --

Acknowledgements:
=================

Please see this page for information about acknowledging Hbrk in your publications:

https://wiki.hpc.rug.nl/habrok/introduction/scientific_output

################################################################################
