   This run of MOLCAS is using the pymolcas driver

                             OPE
                             OPE          NMOL  CASOP  ENMOLC A   SO
                 OPE        NMOLC        AS  OP EN  MO LC     AS  OP
                OPENM       OL CA        SO  PE NM  OL CA     SOP EN
                OP EN      MO   LC       AS  OP ENMOL  CASO   PENMOL
                OP  EN     MO   LC       AS  OP EN     MO     LC ASO
               OP   E  NMOL  C  AS       OP  EN MO     LC     AS  OP
               OP  E   NMO   LC AS        OPEN  MO     LCASOP EN   M
               O  PEN   MO  LCA  SO
            OPE   NMO   L   CAS    OP
        OPENMOL  CASOP     ENMOL   CASOPE
     OPENMOLCA   SOPENMOLCASOPEN   MOLCASOPE
    OPENMOLCAS   OP           EN   MOL    CAS
    OPENMOLCAS       OP  ENM        O     LCA
    OPENMOLCAS    OPEN  MOLCASO     P  E  NMO
    OPENMOLCAS     OP               E  N  MOL
    OPENMOLCA   SO           PENM   O  L  CAS    OPEN    MO    LCAS
    OPENMOLCA   SOP           ENM   O  L  CAS   OP  EN  MOLC  AS   O
    OPENMOLCA   SOPE           NM      O  LCA   S      OP  EN MO
    OPENMOLC                AS         O  PEN   M      OL  CA  SOPE
    OPENMO        LCASOPE  NMOL        C  ASO   P      ENMOLC     AS
    OPE     NMO      LCA  SO     P     E   NM   OL  CA SO  PE N   MO
          OPENMOLCA            SOPE   NMO        LCAS  O    P  ENMO
     OPENMOLCASOPENMOLCASOPENMOLCASOPENMOLCA
        OPENMOLCASOPENMOLCASOPENMOLCASOPE
            OPENMOLCASOPENMOLCASOPENM
               OPENMOLCASOPENMOLCA        version: o91e1abe7de707b ?
                   OPENMOLCASO
                       OPE                tag:

 OpenMolcas is free software; you can redistribute it and/or modify it
 under the terms of the GNU Lesser General Public License version 2.1.
 OpenMolcas is distributed in the hope that it will be useful, but it
 is provided "as is" and without any express or implied warranties.
 For more details see the full text of the license in the file
 LICENSE or in <http://www.gnu.org/licenses/>.

                 Copyright (C) The OpenMolcas Authors
           For the author list and the recommended citation,
                   consult the file CONTRIBUTORS.md

           *************************************************
           * pymolcas version py2.10                       *
           *   build 3068ae8b88c9345ec6cfef6fef7f1169      *
           *   (after the EMIL interpreter by V. Veryazov) *
           *************************************************

configuration info
------------------
Host name: login1 (Linux)
C Compiler ID: GNU
C flags: -std=gnu99
Fortran Compiler ID: GNU
Fortran flags: -fno-aggressive-loop-optimizations -cpp -fdefault-integer-8 -fmax-stack-var-size=1048576
Definitions: _MOLCAS_;_I8_;_LINUX_;_MKL_
Parallel: OFF (GA=OFF)


   ----------------------------------------------------------------------------------------------------------------------------------------------
  |
  |           Project: niobium_so_cf
  |    Submitted from: /home4/s4752295/Internship/Initial_simulations/Point_charge_model/1_electron/active_space_9_non_rel/Nb/varying_bond_length
  |      Scratch area: /tmp/niobium_so_cf
  |   Save outputs to: /home4/s4752295/Internship/Initial_simulations/Point_charge_model/1_electron/active_space_9_non_rel/Nb/varying_bond_length
  |            Molcas: /home4/s4752295/Internship/Molcas/recomp_try/OpenMolcas-master/build
  |
  | Scratch area is empty
  |
  |    MOLCAS_DRIVER = /home4/s4752295/Internship/Molcas/bin/pymolcas
  |    MOLCAS_NPROCS = 1
  |    MOLCAS_SOURCE = /home4/s4752295/Internship/Molcas/recomp_try/OpenMolcas-master
  | MOLCAS_STRUCTURE = 0
  |
   ----------------------------------------------------------------------------------------------------------------------------------------------

++ ---------   Input file   ---------

&SEWARD
AMFi

CLIG
$R

Basis Set
Nb.ANO-rcc.Roos.21s18p13d6f4g2h.10s9p8d5f4g2h.
Spherical d
Nb            0.0       0.0     0.0
End of Basis

Xfield

4
0.000000,  0.0000,  0.630       -1.0
0.545596,  0.0000, -0.315       -1.0
-0.272798,  0.4725, -0.315      -1.0
-0.272798, -0.4725, -0.315      -1.0

End of input

&SCF
Occupied
18
Iterations
   50  100
End of Input

&RASSCF
LumOrb
Symmetry
1
Spin
2
Nactel
1 0 0
CIRoot
9 9 1
inactive
18
ras2
9
Alter
4
1 19 24
1 20 25
1 21 26
1 22 27
End of Input

>>> COPY niobium_so_cf.JobIph $SLURM_SUBMIT_DIR/niobium_so_cf.doublet.JobIph

>>> COPY $SLURM_SUBMIT_DIR/niobium_so_cf.doublet.JobIph ./JOB002

&RASSI
NROFJobIph
1 All
SpinOrbit
End of Input

EOF

-- ----------------------------------

--- Start Module: seward at Thu Jan  9 20:10:14 2025 ---

()()()()()()()()()()()()()()()()()()()()()()()()()()()()()()()()()()()()()()()()()()()()()()()()()()

                                              &SEWARD

                                   only a single process is used
                       available to each process: 4.1 GB of memory, 1 thread?
                                            pid: 512554
()()()()()()()()()()()()()()()()()()()()()()()()()()()()()()()()()()()()()()()()()()()()()()()()()()

 The speed of LIGHT in this CALCULATION =   137.03599917700001     
               SEWARD will generate:
                  Multipole Moment integrals up to order  2
                  Kinetic Energy integrals
                  Nuclear Attraction integrals (point charge)
                  One-Electron Hamiltonian integrals
                  Velocity integrals
                  Relativistic Douglas-Kroll-Hess integrals:
                    - Parametrization         : EXP
                    - DKH order of Hamiltonian: 2
                    - DKH order of Properties : 0
                         - multipole moment operators
                         - electric potential operators
                         - contact operators
                  External field from     4 point(s) added to the one-electron Hamiltonian
                  Orbital angular momentum around ( 0.0000  0.0000  0.0000 )
                  Velocity quadrupole around ( 0.0000  0.0000  0.0000 )
                  Atomic mean-field integrals
                  Two-Electron Repulsion integrals

                   Integrals are discarded if absolute value <: 0.10E-13
                   Integral cutoff threshold is set to       <: 0.10E-15

++    Symmetry information:
      ---------------------

                    Character Table for C1 

                             E  
                    a        1  x, y, xy, Rz, z, xz, Ry, yz, Rx, I
--


++    Basis set information:
      ----------------------


      Basis set label: NB.ANO-RCC.ROOS.21S18P13D6F4G2H.10S9P8D5F4G2H......

      Electronic valence basis set:
      ------------------
      Associated Effective Charge  41.000000 au
      Associated Actual Charge     41.000000 au
      Nuclear Model: Point charge

      Shell  nPrim  nBasis  Cartesian Spherical Contaminant
         s      21      10        X                  
         p      18       9        X                  
         d      13       8                 X         
         f       6       5                 X         
         g       4       4                 X         
         h       2       2                 X         
--


++    Molecular structure info:
      -------------------------

                    ************************************************ 
                    **** Cartesian Coordinates / Bohr, Angstrom **** 
                    ************************************************ 

     Center  Label                x              y              z                     x              y              z
        1      NB               0.000000       0.000000       0.000000              0.000000       0.000000       0.000000
--


++    Operator info:
      --------------


  Net charge from external field:   -4.0000000000000000     
--


            Nuclear Potential Energy              0.00000000 au

                    Nuclear-External Field Potential Energy    -260.31746091 au
                    External Field Potential Energy               5.92389019 au 


            Total Nuclear Potential Energy           -260.31746091 au


      Basis set specifications :
      Symmetry species         a  
      Basis functions          170

 Sorry, Molden does not know how to handle
 functions with angular momentum larger than g
Note: The following floating-point exceptions are signalling: IEEE_UNDERFLOW_FLAG IEEE_DENORMAL
--- Stop Module: seward at Thu Jan  9 20:10:23 2025 /rc=_RC_ALL_IS_WELL_ ---
*** files: niobium_so_cf.GssOrb xmldump
    saved to directory /home4/s4752295/Internship/Initial_simulations/Point_charge_model/1_electron/active_space_9_non_rel/Nb/varying_bond_length
--- Module seward spent 8 seconds ---

*** symbolic link created: INPORB -> niobium_so_cf.GssOrb
--- Start Module: scf at Thu Jan  9 20:10:23 2025 ---

()()()()()()()()()()()()()()()()()()()()()()()()()()()()()()()()()()()()()()()()()()()()()()()()()()

                                                &SCF

                                   only a single process is used
                       available to each process: 4.1 GB of memory, 1 thread?
                                            pid: 512606
()()()()()()()()()()()()()()()()()()()()()()()()()()()()()()()()()()()()()()()()()()()()()()()()()()

++    Input section:
      --------------

      Header of the integral files:
      
       Integrals generated by seward 4.2.0  , Thu Jan  9 20:10:14 2025


      Cartesian coordinates in Angstrom:
      -----------------------------------------------------
      No.  Label        X            Y            Z        
      -----------------------------------------------------
       1   NB         0.00000000   0.00000000   0.00000000
      -----------------------------------------------------
      Nuclear repulsion energy = -260.31746091
--

++    Orbital specifications:
      -----------------------

      Symmetry species               1
                                     a
      Frozen orbitals                0
      Occupied orbitals             18
      Secondary orbitals           152
      Deleted orbitals               0
      Total number of orbitals     170
      Number of basis functions    170
--

      Molecular charge                           5.000

++    Optimization specifications:
      ----------------------------

      SCF Algorithm: Conventional
      Minimized density differences are used
      Number of density matrices in core                5
      Maximum number of NDDO SCF iterations            50
      Maximum number of HF SCF iterations             100
      Threshold for SCF energy change            0.10E-08
      Threshold for density matrix               0.10E-03
      Threshold for Fock matrix                  0.15E-03
      Threshold for linear dependence            0.10E-08
      Threshold at which DIIS is turned on       0.15E+00
      Threshold at which QNR/C2DIIS is turned on 0.75E-01
      Threshold for Norm(delta) (QNR/C2DIIS)     0.20E-04
      DIIS extrapolation of the SCF procedure
      All orbitals punched on: SCFORB
--

      Detected guessorb starting orbitals                                             


++ Convergence information
                                   SCF        iterations: Energy and convergence statistics

Iter     Tot. SCF        One-elec.       Two-elec.     Energy      Max Dij or  Max Fij      DNorm      TNorm      AccCon     Time
         Energy          Energy          Energy        Change      Delta Norm                                                in Sec.

 The total and one-electron energies are shifted by a value of      3000. a.u.

   1  -869.152458767 -1964.239433914  1355.404436053   0.00E+00    0.35E+00*   0.73E+00*    0.85E+01   0.49E+03   None         1.
   2  -870.925367506 -1904.336300373  1293.728393773  -0.18E+01*   0.11E+00*   0.20E+00*    0.25E+01   0.48E+03   EDIIS        1.
   3  -871.053593590 -1928.846600142  1318.110467458  -0.13E+00*   0.33E-01*   0.12E+00*    0.35E+00   0.48E+03   EDIIS        1.
   4  -871.077657595 -1918.161587666  1307.401390977  -0.24E-01*   0.12E-01*   0.60E-01*    0.10E+00   0.48E+03   EDIIS        1.
   5  -871.083151037 -1923.243414671  1312.477724539  -0.55E-02*   0.18E-02*   0.20E-01*    0.18E-01   0.48E+03   c2DIIS       1.
   6  -871.084807872 -1921.621017231  1310.853670265  -0.17E-02*   0.69E-03*   0.33E-03*    0.28E-02   0.48E+03   QNRc2DIIS    1.
   7  -871.084809754 -1921.597201741  1310.829852893  -0.19E-05*   0.45E-03*   0.15E-03*    0.51E-03   0.48E+03   QNRc2DIIS    1.
   8  -871.084810061 -1921.608400755  1310.841051599  -0.31E-06*   0.40E-04*   0.61E-04     0.45E-04   0.48E+03   QNRc2DIIS    1.
   9  -871.084810071 -1921.605195917  1310.837846752  -0.92E-08*   0.54E-05    0.49E-05     0.17E-04   0.48E+03   QNRc2DIIS    1.
  10  -871.084810071 -1921.605325393  1310.837976228  -0.11E-09    0.15E-05    0.85E-06     0.23E-02   0.48E+03   QNRc2DIIS    1.

       Convergence after 10 Macro Iterations
--

 *****************************************************************************************************************************
 *                                                                                                                           *
 *                                             SCF/KS-DFT Program, Final results                                             *
 *                                                                                                                           *
 *                                                                                                                           *
 *                                                                                                                           *
 *                                                       Final Results                                                       *
 *                                                                                                                           *
 *****************************************************************************************************************************

::    Total SCF energy                              -3871.0848100708
      One-electron energy                           -4921.6053253931
      Two-electron energy                            1310.8379762281
      Nuclear repulsion energy                       -260.3174609058
      Kinetic energy (interpolated)                  4160.0785986142
      Virial theorem                                    0.9305316518
      Total spin, S(S+1)                                0.0000000000
      Total spin, S                                     0.0000000000
      Max non-diagonal density matrix element           0.0000014910
      Max non-diagonal Fock matrix element              0.0000002195


      All orbitals with orbital energies smaller than  E(LUMO)+0.5 are printed

++    Molecular orbitals:
      -------------------

      Title: SCF orbitals

      Molecular orbitals for symmetry species 1: a  

          Orbital            1         2         3         4         5         6         7         8         9        10    
          Energy         -699.5700  -98.9489  -88.0052  -88.0052  -87.9708  -15.7636  -12.1904  -12.1904  -11.8875   -6.2702
          Occ. No.          2.0000    2.0000    2.0000    2.0000    2.0000    2.0000    2.0000    2.0000    2.0000    2.0000

        1 NB     1s         1.0000    0.0000   -0.0000    0.0000   -0.0000   -0.0000   -0.0000    0.0000    0.0000   -0.0000
        2 NB     2s        -0.0000    1.0000   -0.0000    0.0000   -0.0073    0.0009    0.0000    0.0000   -0.0005   -0.0000
        3 NB     3s         0.0000   -0.0009    0.0000   -0.0000    0.0003    0.9977    0.0000   -0.0000   -0.0630   -0.0000
        4 NB     4s        -0.0000    0.0003   -0.0000    0.0000   -0.0001    0.0100    0.0000    0.0000    0.0002    0.0000
        5 NB     5s         0.0000   -0.0001    0.0000   -0.0000    0.0000   -0.0016   -0.0000   -0.0000   -0.0002   -0.0000
        6 NB     6s        -0.0000    0.0001   -0.0000    0.0000   -0.0000    0.0017    0.0000    0.0000    0.0003    0.0000
        7 NB     7s         0.0000   -0.0002    0.0000   -0.0000    0.0001   -0.0027   -0.0000   -0.0000   -0.0009   -0.0000
        8 NB     8s        -0.0000    0.0002    0.0000    0.0000   -0.0001    0.0001    0.0000   -0.0000    0.0012    0.0000
        9 NB     9s         0.0000   -0.0003    0.0000   -0.0000    0.0001    0.0026   -0.0000    0.0000   -0.0018   -0.0000
       10 NB    10s        -0.0000    0.0003   -0.0000    0.0000   -0.0001   -0.0035   -0.0000    0.0000    0.0011    0.0000
       11 NB     2px       -0.0000   -0.0000   -0.0117    0.9999   -0.0000    0.0000    0.0008    0.0000   -0.0000   -0.0002
       12 NB     3px        0.0000   -0.0000    0.0000   -0.0009    0.0000   -0.0000    0.9970    0.0001   -0.0000   -0.0008
       13 NB     4px       -0.0000    0.0000   -0.0000    0.0003   -0.0000    0.0000    0.0147    0.0000   -0.0000   -0.0015
       14 NB     5px        0.0000   -0.0000    0.0000   -0.0001    0.0000   -0.0000   -0.0036   -0.0000    0.0000    0.0004
       15 NB     6px       -0.0000    0.0000   -0.0000    0.0002   -0.0000    0.0000    0.0064    0.0000   -0.0000   -0.0010
       16 NB     7px        0.0000   -0.0000    0.0000   -0.0002    0.0000   -0.0000   -0.0028   -0.0000    0.0000    0.0008
       17 NB     8px       -0.0000    0.0000   -0.0000    0.0002   -0.0000    0.0000   -0.0005   -0.0000    0.0000   -0.0009
       18 NB     9px        0.0000   -0.0000    0.0000   -0.0002    0.0000    0.0000    0.0030    0.0000   -0.0000    0.0007
       19 NB    10px       -0.0000    0.0000   -0.0000    0.0002   -0.0000   -0.0000   -0.0028   -0.0000    0.0000   -0.0001
       20 NB     2py        0.0000    0.0000    0.9999    0.0117    0.0000    0.0000   -0.0000    0.0008   -0.0000   -0.0000
       21 NB     3py       -0.0000   -0.0000   -0.0009   -0.0000   -0.0000    0.0000   -0.0001    0.9970    0.0000   -0.0000
       22 NB     4py        0.0000    0.0000    0.0003    0.0000    0.0000   -0.0000   -0.0000    0.0147    0.0000   -0.0000
       23 NB     5py        0.0000   -0.0000   -0.0001   -0.0000   -0.0000    0.0000    0.0000   -0.0036    0.0000    0.0000
       24 NB     6py        0.0000    0.0000    0.0002    0.0000    0.0000   -0.0000   -0.0000    0.0064    0.0000   -0.0000
       25 NB     7py       -0.0000   -0.0000   -0.0002   -0.0000   -0.0000    0.0000    0.0000   -0.0028   -0.0000    0.0000
       26 NB     8py        0.0000    0.0000    0.0002    0.0000    0.0000   -0.0000    0.0000   -0.0005    0.0000   -0.0000
       27 NB     9py       -0.0000   -0.0000   -0.0002   -0.0000   -0.0000    0.0000   -0.0000    0.0030    0.0000    0.0000
       28 NB    10py        0.0000    0.0000    0.0002    0.0000    0.0000   -0.0000    0.0000   -0.0028    0.0000   -0.0000
       29 NB     2pz        0.0000    0.0073   -0.0000    0.0000    1.0000   -0.0002    0.0000   -0.0000    0.0012    0.0000
       30 NB     3pz       -0.0000    0.0004    0.0000   -0.0000   -0.0012    0.0624    0.0000    0.0000    0.9972    0.0000
       31 NB     4pz        0.0000   -0.0001   -0.0000    0.0000    0.0004    0.0006    0.0000    0.0000    0.0135    0.0000
       32 NB     5pz       -0.0000    0.0000    0.0000   -0.0000   -0.0001   -0.0002   -0.0000   -0.0000   -0.0029    0.0000
       33 NB     6pz        0.0000   -0.0001   -0.0000    0.0000    0.0003    0.0007    0.0000   -0.0000    0.0044   -0.0000
       34 NB     7pz       -0.0000    0.0001    0.0000   -0.0000   -0.0003   -0.0007   -0.0000    0.0000   -0.0007    0.0000
       35 NB     8pz        0.0000   -0.0001   -0.0000    0.0000    0.0003    0.0010   -0.0000   -0.0000   -0.0035   -0.0000
       36 NB     9pz       -0.0000    0.0001    0.0000   -0.0000   -0.0003   -0.0010    0.0000    0.0000    0.0059    0.0000
       37 NB    10pz        0.0000   -0.0002   -0.0000    0.0000    0.0003    0.0007   -0.0000    0.0000   -0.0040   -0.0000
       38 NB     3d2-      -0.0000   -0.0000    0.0003    0.0000    0.0000   -0.0000   -0.0000    0.0377    0.0000   -0.0000
       39 NB     4d2-      -0.0000   -0.0000   -0.0000   -0.0000   -0.0000   -0.0000   -0.0000    0.0013   -0.0000   -0.0000
       40 NB     5d2-       0.0000    0.0000    0.0000    0.0000    0.0000   -0.0000    0.0000   -0.0016   -0.0000    0.0000
       41 NB     6d2-      -0.0000   -0.0000   -0.0000   -0.0000   -0.0000    0.0000   -0.0000    0.0018    0.0000   -0.0000
       42 NB     7d2-       0.0000    0.0000    0.0000    0.0000    0.0000   -0.0000    0.0000   -0.0019   -0.0000    0.0000
       43 NB     8d2-      -0.0000   -0.0000   -0.0000   -0.0000   -0.0000    0.0000   -0.0000    0.0034    0.0000   -0.0000
       44 NB     9d2-      -0.0000   -0.0000    0.0000    0.0000    0.0000   -0.0000    0.0000   -0.0036   -0.0000    0.0000
       45 NB    10d2-      -0.0000   -0.0000    0.0000    0.0000    0.0000   -0.0000    0.0000   -0.0040   -0.0000   -0.0000
       46 NB     3d1-       0.0000   -0.0000    0.0008    0.0000    0.0000    0.0000   -0.0000    0.0631    0.0000    0.0000
       47 NB     4d1-       0.0000    0.0000   -0.0001   -0.0000   -0.0000    0.0000   -0.0000    0.0014    0.0000    0.0000
       48 NB     5d1-      -0.0000    0.0000    0.0002    0.0000    0.0000   -0.0000    0.0000   -0.0019   -0.0000   -0.0000
       49 NB     6d1-       0.0000   -0.0000   -0.0001   -0.0000   -0.0000    0.0000   -0.0000    0.0022    0.0000    0.0000
       50 NB     7d1-      -0.0000    0.0000    0.0001    0.0000    0.0000   -0.0000    0.0000   -0.0024   -0.0000   -0.0000
       51 NB     8d1-       0.0000   -0.0000   -0.0002   -0.0000   -0.0000    0.0000   -0.0000    0.0045    0.0000    0.0000
       52 NB     9d1-      -0.0000    0.0000    0.0002    0.0000    0.0000   -0.0000    0.0000   -0.0048   -0.0000   -0.0000
       53 NB    10d1-       0.0000    0.0000    0.0003    0.0000    0.0000   -0.0000    0.0000   -0.0057   -0.0000    0.0000
       54 NB     3d0       -0.0000   -0.0004   -0.0000    0.0000    0.0002   -0.0196   -0.0000    0.0000   -0.0303   -0.0000
       55 NB     4d0        0.0000    0.0001    0.0000   -0.0000   -0.0000   -0.0004   -0.0000   -0.0000   -0.0019   -0.0000
       56 NB     5d0       -0.0000   -0.0001   -0.0000    0.0000    0.0001    0.0007    0.0000    0.0000    0.0023    0.0000
       57 NB     6d0        0.0000    0.0001    0.0000   -0.0000   -0.0001   -0.0008   -0.0000   -0.0000   -0.0024   -0.0000
       58 NB     7d0       -0.0000   -0.0001   -0.0000    0.0000    0.0001    0.0009    0.0000    0.0000    0.0025    0.0000
       59 NB     8d0        0.0000    0.0001    0.0000   -0.0000   -0.0001   -0.0019   -0.0000   -0.0000   -0.0044   -0.0000
       60 NB     9d0       -0.0000   -0.0001   -0.0000    0.0000    0.0001    0.0021    0.0000    0.0000    0.0044    0.0000
       61 NB    10d0       -0.0000   -0.0001   -0.0000    0.0000    0.0002    0.0028    0.0000    0.0000    0.0045   -0.0000
       62 NB     3d1+       0.0000    0.0000   -0.0000    0.0008   -0.0000    0.0000    0.0631    0.0000   -0.0000    0.5206
       63 NB     4d1+      -0.0000   -0.0000    0.0000   -0.0001    0.0000   -0.0000    0.0014    0.0000    0.0000    0.0127
       64 NB     5d1+       0.0000    0.0000   -0.0000    0.0002   -0.0000    0.0000   -0.0019   -0.0000    0.0000   -0.0105
       65 NB     6d1+      -0.0000   -0.0000    0.0000   -0.0001    0.0000   -0.0000    0.0022    0.0000   -0.0000    0.0073
       66 NB     7d1+       0.0000    0.0000   -0.0000    0.0001   -0.0000    0.0000   -0.0024   -0.0000    0.0000   -0.0050
       67 NB     8d1+      -0.0000   -0.0000    0.0000   -0.0002    0.0000    0.0000    0.0045    0.0000   -0.0000    0.0032
       68 NB     9d1+       0.0000    0.0000   -0.0000    0.0002   -0.0000   -0.0000   -0.0048   -0.0000    0.0000   -0.0012
       69 NB    10d1+       0.0000    0.0000   -0.0000    0.0003   -0.0000   -0.0000   -0.0057   -0.0000    0.0000    0.0009
       70 NB     3d2+       0.0000    0.0000    0.0000   -0.0003    0.0000    0.0000   -0.0377   -0.0000    0.0000    0.8530
       71 NB     4d2+       0.0000   -0.0000   -0.0000    0.0000   -0.0000    0.0000   -0.0013   -0.0000   -0.0000    0.0200
       72 NB     5d2+       0.0000    0.0000    0.0000   -0.0000    0.0000   -0.0000    0.0016    0.0000    0.0000   -0.0163
       73 NB     6d2+      -0.0000   -0.0000   -0.0000    0.0000   -0.0000    0.0000   -0.0018   -0.0000   -0.0000    0.0111
       74 NB     7d2+       0.0000    0.0000    0.0000   -0.0000    0.0000   -0.0000    0.0019    0.0000   -0.0000   -0.0073
       75 NB     8d2+      -0.0000   -0.0000   -0.0000    0.0000   -0.0000    0.0000   -0.0034   -0.0000    0.0000    0.0038
       76 NB     9d2+       0.0000    0.0000    0.0000   -0.0000    0.0000   -0.0000    0.0036    0.0000   -0.0000   -0.0004
       77 NB    10d2+       0.0000    0.0000    0.0000   -0.0000    0.0000   -0.0000    0.0040    0.0000   -0.0000    0.0027
       78 NB     4f3-      -0.0000    0.0000    0.0000    0.0000    0.0000    0.0000   -0.0000    0.0000   -0.0000    0.0000
       79 NB     5f3-       0.0000    0.0000    0.0000    0.0000    0.0000    0.0000   -0.0000    0.0000   -0.0000    0.0000
       80 NB     6f3-      -0.0000   -0.0000   -0.0000   -0.0000   -0.0000   -0.0000    0.0000   -0.0000    0.0000   -0.0000
       81 NB     7f3-       0.0000    0.0000    0.0000    0.0000   -0.0000    0.0000   -0.0000    0.0000    0.0000    0.0000
       82 NB     8f3-      -0.0000   -0.0000    0.0000    0.0000   -0.0000    0.0000   -0.0000    0.0000    0.0000    0.0000
       83 NB     4f2-      -0.0000   -0.0000   -0.0000   -0.0000   -0.0000   -0.0000    0.0000   -0.0024   -0.0000   -0.0000
       84 NB     5f2-      -0.0000   -0.0000   -0.0000   -0.0000   -0.0000   -0.0000    0.0000   -0.0026   -0.0000   -0.0000
       85 NB     6f2-       0.0000   -0.0000    0.0000    0.0000    0.0000    0.0000   -0.0000    0.0024    0.0000    0.0000
       86 NB     7f2-      -0.0000    0.0000   -0.0000   -0.0000   -0.0000   -0.0000    0.0000   -0.0029   -0.0000   -0.0000
       87 NB     8f2-      -0.0000   -0.0000   -0.0000   -0.0000   -0.0000   -0.0000    0.0000   -0.0029   -0.0000   -0.0000
       88 NB     4f1-       0.0000    0.0000   -0.0000   -0.0000   -0.0000   -0.0000    0.0000   -0.0014   -0.0000    0.0000
       89 NB     5f1-       0.0000    0.0000   -0.0000   -0.0000   -0.0000   -0.0000    0.0000   -0.0015   -0.0000    0.0000
       90 NB     6f1-      -0.0000    0.0000    0.0000    0.0000    0.0000    0.0000   -0.0000    0.0013    0.0000   -0.0000
       91 NB     7f1-       0.0000   -0.0000   -0.0000   -0.0000   -0.0000   -0.0000    0.0000   -0.0015   -0.0000    0.0000
       92 NB     8f1-       0.0000   -0.0000   -0.0000   -0.0000   -0.0000   -0.0000    0.0000   -0.0016   -0.0000    0.0000
       93 NB     4f0       -0.0000   -0.0000    0.0000   -0.0000   -0.0000   -0.0048   -0.0000   -0.0000   -0.0019    0.0000
       94 NB     5f0       -0.0000   -0.0000    0.0000   -0.0000   -0.0000   -0.0051   -0.0000   -0.0000   -0.0019    0.0000
       95 NB     6f0       -0.0000    0.0000   -0.0000    0.0000    0.0000    0.0049    0.0000    0.0000    0.0017   -0.0000
       96 NB     7f0        0.0000   -0.0000    0.0000   -0.0000   -0.0000   -0.0058   -0.0000   -0.0000   -0.0020    0.0000
       97 NB     8f0       -0.0000   -0.0000    0.0000   -0.0000   -0.0000   -0.0058   -0.0000   -0.0000   -0.0020    0.0000
       98 NB     4f1+      -0.0000   -0.0000    0.0000   -0.0000    0.0000   -0.0000   -0.0014   -0.0000    0.0000    0.0020
       99 NB     5f1+       0.0000   -0.0000    0.0000   -0.0000    0.0000   -0.0000   -0.0015   -0.0000    0.0000    0.0018
      100 NB     6f1+      -0.0000    0.0000   -0.0000    0.0000   -0.0000    0.0000    0.0013    0.0000   -0.0000   -0.0013
      101 NB     7f1+       0.0000   -0.0000    0.0000   -0.0000    0.0000   -0.0000   -0.0015   -0.0000    0.0000    0.0014
      102 NB     8f1+      -0.0000   -0.0000    0.0000   -0.0000    0.0000   -0.0000   -0.0016   -0.0000    0.0000    0.0018
      103 NB     4f2+      -0.0000    0.0000   -0.0000    0.0000   -0.0000   -0.0000    0.0024    0.0000   -0.0000    0.0052
      104 NB     5f2+      -0.0000   -0.0000   -0.0000    0.0000   -0.0000   -0.0000    0.0026    0.0000   -0.0000    0.0049
      105 NB     6f2+      -0.0000    0.0000    0.0000   -0.0000    0.0000    0.0000   -0.0024   -0.0000   -0.0000   -0.0037
      106 NB     7f2+       0.0000   -0.0000   -0.0000    0.0000   -0.0000   -0.0000    0.0029    0.0000   -0.0000    0.0040
      107 NB     8f2+      -0.0000    0.0000   -0.0000    0.0000   -0.0000   -0.0000    0.0029    0.0000   -0.0000    0.0051
      108 NB     4f3+      -0.0000   -0.0000   -0.0000    0.0000    0.0000   -0.0031    0.0000    0.0000    0.0026    0.0000
      109 NB     5f3+      -0.0000   -0.0000   -0.0000    0.0000    0.0000   -0.0033    0.0000    0.0000    0.0027    0.0000
      110 NB     6f3+      -0.0000    0.0000    0.0000   -0.0000   -0.0000    0.0031   -0.0000   -0.0000   -0.0025   -0.0000
      111 NB     7f3+       0.0000   -0.0000   -0.0000    0.0000    0.0000   -0.0037    0.0000    0.0000    0.0029    0.0000
      112 NB     8f3+      -0.0000   -0.0000   -0.0000    0.0000    0.0000   -0.0037    0.0000    0.0000    0.0030   -0.0000
      113 NB     5g4-      -0.0000   -0.0000   -0.0000   -0.0000   -0.0000   -0.0000    0.0000   -0.0017   -0.0000    0.0000
      114 NB     6g4-       0.0000    0.0000    0.0000    0.0000    0.0000    0.0000   -0.0000    0.0022    0.0000   -0.0000
      115 NB     7g4-      -0.0000   -0.0000   -0.0000   -0.0000   -0.0000   -0.0000    0.0000   -0.0033   -0.0000    0.0000
      116 NB     8g4-       0.0000    0.0000    0.0000    0.0000    0.0000    0.0000   -0.0000    0.0046    0.0000   -0.0000
      117 NB     5g3-      -0.0000   -0.0000   -0.0000   -0.0000   -0.0000   -0.0000    0.0000   -0.0000    0.0000   -0.0000
      118 NB     6g3-      -0.0000    0.0000    0.0000    0.0000   -0.0000   -0.0000   -0.0000    0.0000    0.0000   -0.0000
      119 NB     7g3-       0.0000   -0.0000   -0.0000   -0.0000    0.0000    0.0000    0.0000   -0.0000    0.0000    0.0000
      120 NB     8g3-      -0.0000   -0.0000    0.0000    0.0000   -0.0000   -0.0000   -0.0000    0.0000   -0.0000    0.0000
      121 NB     5g2-       0.0000    0.0000    0.0000    0.0000    0.0000   -0.0000   -0.0000    0.0002    0.0000    0.0000
      122 NB     6g2-      -0.0000   -0.0000   -0.0000   -0.0000   -0.0000    0.0000    0.0000   -0.0003   -0.0000   -0.0000
      123 NB     7g2-       0.0000    0.0000    0.0000    0.0000    0.0000   -0.0000   -0.0000    0.0006    0.0000    0.0000
      124 NB     8g2-      -0.0000   -0.0000   -0.0000   -0.0000   -0.0000    0.0000    0.0000   -0.0008   -0.0000   -0.0000
      125 NB     5g1-      -0.0000   -0.0000   -0.0000   -0.0000   -0.0000   -0.0000    0.0000   -0.0021   -0.0000   -0.0000
      126 NB     6g1-       0.0000    0.0000    0.0000    0.0000    0.0000    0.0000   -0.0000    0.0026    0.0000    0.0000
      127 NB     7g1-      -0.0000   -0.0000   -0.0000   -0.0000   -0.0000   -0.0000    0.0000   -0.0040   -0.0000   -0.0000
      128 NB     8g1-       0.0000    0.0000    0.0000    0.0000    0.0000    0.0000   -0.0000    0.0055    0.0000    0.0000
      129 NB     5g0       -0.0000   -0.0000    0.0000   -0.0000   -0.0000   -0.0003   -0.0000   -0.0000   -0.0036   -0.0000
      130 NB     6g0       -0.0000    0.0000   -0.0000    0.0000    0.0000    0.0004    0.0000    0.0000    0.0046    0.0000
      131 NB     7g0        0.0000   -0.0000    0.0000   -0.0000   -0.0000   -0.0006   -0.0000   -0.0000   -0.0070   -0.0000
      132 NB     8g0       -0.0000    0.0000   -0.0000    0.0000    0.0001    0.0008    0.0000    0.0000    0.0098    0.0000
      133 NB     5g1+       0.0000   -0.0000    0.0000   -0.0000    0.0000    0.0000   -0.0021   -0.0000    0.0000   -0.0015
      134 NB     6g1+      -0.0000    0.0000   -0.0000    0.0000   -0.0000   -0.0000    0.0026    0.0000   -0.0000    0.0017
      135 NB     7g1+       0.0000   -0.0000    0.0000   -0.0000    0.0000    0.0000   -0.0040   -0.0000    0.0000   -0.0023
      136 NB     8g1+      -0.0000    0.0000   -0.0000    0.0000   -0.0000   -0.0000    0.0055    0.0000   -0.0000    0.0031
      137 NB     5g2+       0.0000   -0.0000    0.0000   -0.0000    0.0000   -0.0000   -0.0002   -0.0000   -0.0000   -0.0004
      138 NB     6g2+      -0.0000    0.0000   -0.0000    0.0000   -0.0000    0.0000    0.0003    0.0000    0.0000    0.0004
      139 NB     7g2+       0.0000   -0.0000    0.0000   -0.0000    0.0000   -0.0000   -0.0006   -0.0000    0.0000   -0.0006
      140 NB     8g2+      -0.0000    0.0000   -0.0000    0.0000   -0.0000    0.0000    0.0008    0.0000   -0.0000    0.0008
      141 NB     5g3+      -0.0000    0.0000    0.0000   -0.0000   -0.0000    0.0017   -0.0000   -0.0000   -0.0023   -0.0000
      142 NB     6g3+       0.0000   -0.0000   -0.0000    0.0000    0.0000   -0.0023    0.0000    0.0000    0.0029    0.0000
      143 NB     7g3+      -0.0000    0.0000    0.0000   -0.0000   -0.0000    0.0038   -0.0000   -0.0000   -0.0045   -0.0000
      144 NB     8g3+       0.0000   -0.0000   -0.0000    0.0000    0.0000   -0.0053    0.0000    0.0000    0.0063    0.0000
      145 NB     5g4+       0.0000   -0.0000    0.0000   -0.0000    0.0000   -0.0000   -0.0017   -0.0000    0.0000    0.0003
      146 NB     6g4+      -0.0000    0.0000   -0.0000    0.0000   -0.0000    0.0000    0.0022    0.0000   -0.0000   -0.0003
      147 NB     7g4+       0.0000   -0.0000    0.0000   -0.0000    0.0000   -0.0000   -0.0033   -0.0000    0.0000    0.0004
      148 NB     8g4+      -0.0000    0.0000   -0.0000    0.0000   -0.0000    0.0000    0.0046    0.0000   -0.0000   -0.0006
      149 NB     6h5-       0.0000    0.0000    0.0000    0.0000   -0.0000    0.0000   -0.0000    0.0002    0.0000    0.0000
      150 NB     7h5-      -0.0000   -0.0000   -0.0000   -0.0000    0.0000   -0.0000    0.0000   -0.0002    0.0000   -0.0000
      151 NB     6h4-       0.0000    0.0000    0.0000    0.0000    0.0000    0.0000   -0.0000    0.0008    0.0000   -0.0000
      152 NB     7h4-      -0.0000   -0.0000   -0.0000   -0.0000   -0.0000   -0.0000    0.0000   -0.0009   -0.0000    0.0000
      153 NB     6h3-      -0.0000   -0.0000    0.0000    0.0000   -0.0000   -0.0000   -0.0000    0.0000    0.0000    0.0000
      154 NB     7h3-       0.0000    0.0000   -0.0000   -0.0000    0.0000    0.0000    0.0000   -0.0000    0.0000    0.0000
      155 NB     6h2-       0.0000    0.0000    0.0000    0.0000    0.0000    0.0000   -0.0000    0.0003    0.0000    0.0000
      156 NB     7h2-      -0.0000   -0.0000   -0.0000   -0.0000   -0.0000   -0.0000    0.0000   -0.0003   -0.0000   -0.0000
      157 NB     6h1-       0.0000   -0.0000    0.0000    0.0000   -0.0000   -0.0000   -0.0000    0.0002   -0.0000   -0.0000
      158 NB     7h1-      -0.0000    0.0000   -0.0000   -0.0000   -0.0000    0.0000    0.0000   -0.0003    0.0000    0.0000
      159 NB     6h0        0.0000   -0.0000    0.0000   -0.0000   -0.0000   -0.0003   -0.0000   -0.0000   -0.0006   -0.0000
      160 NB     7h0       -0.0000    0.0000   -0.0000    0.0000    0.0000    0.0003    0.0000    0.0000    0.0007    0.0000
      161 NB     6h1+      -0.0000    0.0000   -0.0000    0.0000   -0.0000    0.0000    0.0002    0.0000   -0.0000   -0.0008
      162 NB     7h1+       0.0000   -0.0000    0.0000   -0.0000    0.0000   -0.0000   -0.0003   -0.0000    0.0000    0.0008
      163 NB     6h2+      -0.0000    0.0000    0.0000   -0.0000    0.0000    0.0000   -0.0003   -0.0000   -0.0000   -0.0009
      164 NB     7h2+       0.0000   -0.0000   -0.0000    0.0000   -0.0000   -0.0000    0.0003    0.0000    0.0000    0.0009
      165 NB     6h3+       0.0000   -0.0000   -0.0000    0.0000    0.0000   -0.0004    0.0000    0.0000    0.0008   -0.0000
      166 NB     7h3+      -0.0000    0.0000    0.0000   -0.0000   -0.0000    0.0005   -0.0000   -0.0000   -0.0009    0.0000
      167 NB     6h4+      -0.0000    0.0000   -0.0000    0.0000   -0.0000    0.0000    0.0008    0.0000   -0.0000   -0.0005
      168 NB     7h4+       0.0000   -0.0000    0.0000   -0.0000    0.0000   -0.0000   -0.0009   -0.0000    0.0000    0.0005
      169 NB     6h5+      -0.0000    0.0000    0.0000   -0.0000    0.0000    0.0000   -0.0002   -0.0000   -0.0000   -0.0011
      170 NB     7h5+       0.0000   -0.0000   -0.0000    0.0000   -0.0000   -0.0000    0.0002    0.0000    0.0000    0.0012

          Orbital           11        12        13        14        15        16        17        18        19        20    
          Energy           -6.2702   -5.9382   -5.8995   -5.8995   -1.9459   -1.0967   -1.0967   -1.0162   -0.1463   -0.0861
          Occ. No.          2.0000    2.0000    2.0000    2.0000    2.0000    2.0000    2.0000    2.0000    0.0000    0.0000

        1 NB     1s         0.0000    0.0000   -0.0000   -0.0000    0.0000    0.0000   -0.0000   -0.0000   -0.0000   -0.0000
        2 NB     2s        -0.0000    0.0004    0.0000   -0.0000   -0.0003   -0.0000   -0.0000    0.0001    0.0001    0.0000
        3 NB     3s        -0.0000    0.0176    0.0000   -0.0000   -0.0093   -0.0000    0.0000    0.0010    0.0015    0.0000
        4 NB     4s         0.0000   -0.0057   -0.0000   -0.0000    0.9732    0.0000   -0.0000   -0.0748   -0.0694   -0.0000
        5 NB     5s         0.0000    0.0010    0.0000    0.0000    0.1217    0.0000    0.0000   -0.0374    0.9195   -0.0000
        6 NB     6s        -0.0000   -0.0012   -0.0000    0.0000   -0.1061   -0.0000   -0.0000    0.0258    0.3780    0.0000
        7 NB     7s        -0.0000    0.0029    0.0000   -0.0000    0.1295    0.0000    0.0000   -0.0226   -0.0342    0.0000
        8 NB     8s         0.0000   -0.0023    0.0000    0.0000   -0.0143   -0.0000    0.0000   -0.0020   -0.0189    0.0000
        9 NB     9s        -0.0000    0.0025    0.0000   -0.0000   -0.0017    0.0000    0.0000    0.0005   -0.0065    0.0000
       10 NB    10s        -0.0000   -0.0008   -0.0000    0.0000    0.0020    0.0000   -0.0000   -0.0005   -0.0010    0.0000
       11 NB     2px       -0.0000   -0.0000    0.0000   -0.0009   -0.0000   -0.0002   -0.0000    0.0000    0.0000    0.0000
       12 NB     3px       -0.0000   -0.0000    0.0000   -0.0733   -0.0000   -0.0124   -0.0000    0.0000    0.0000    0.0018
       13 NB     4px       -0.0000    0.0000   -0.0000    0.0066   -0.0000    0.9646    0.0000   -0.0000   -0.0000   -0.0689
       14 NB     5px        0.0000   -0.0000    0.0000   -0.0023    0.0000    0.1813    0.0000   -0.0000   -0.0000    0.7846
       15 NB     6px       -0.0000    0.0000   -0.0000    0.0063   -0.0000   -0.1728   -0.0000    0.0000    0.0000    0.4609
       16 NB     7px        0.0000   -0.0000    0.0000   -0.0057    0.0000    0.0128    0.0000   -0.0000   -0.0000    0.3751
       17 NB     8px       -0.0000    0.0000   -0.0000    0.0069   -0.0000    0.0074    0.0000   -0.0000   -0.0000    0.1488
       18 NB     9px        0.0000   -0.0000    0.0000   -0.0061    0.0000    0.0090    0.0000   -0.0000   -0.0000    0.0524
       19 NB    10px       -0.0000    0.0000   -0.0000    0.0017    0.0000    0.0033    0.0000   -0.0000   -0.0000    0.0067
       20 NB     2py        0.0002    0.0000   -0.0009   -0.0000    0.0000    0.0000   -0.0002    0.0000   -0.0000   -0.0000
       21 NB     3py        0.0008    0.0000   -0.0733   -0.0000    0.0000    0.0000   -0.0124   -0.0000    0.0000   -0.0000
       22 NB     4py        0.0015   -0.0000    0.0066    0.0000    0.0000   -0.0000    0.9646    0.0000   -0.0000    0.0001
       23 NB     5py       -0.0004   -0.0000   -0.0023   -0.0000   -0.0000   -0.0000    0.1813    0.0000   -0.0000   -0.0011
       24 NB     6py        0.0010   -0.0000    0.0063    0.0000    0.0000    0.0000   -0.1728   -0.0000   -0.0000   -0.0007
       25 NB     7py       -0.0008    0.0000   -0.0057   -0.0000   -0.0000   -0.0000    0.0128   -0.0000   -0.0000   -0.0005
       26 NB     8py        0.0009   -0.0000    0.0069    0.0000    0.0000   -0.0000    0.0074   -0.0000   -0.0000   -0.0002
       27 NB     9py       -0.0007    0.0000   -0.0061   -0.0000   -0.0000   -0.0000    0.0090    0.0000   -0.0000   -0.0001
       28 NB    10py        0.0001   -0.0000    0.0017    0.0000    0.0000   -0.0000    0.0033   -0.0000    0.0000   -0.0000
       29 NB     2pz        0.0000   -0.0001    0.0000    0.0000    0.0000    0.0000    0.0000   -0.0003   -0.0000   -0.0000
       30 NB     3pz        0.0000    0.0313    0.0000   -0.0000   -0.0017    0.0000    0.0000   -0.0115    0.0002   -0.0000
       31 NB     4pz        0.0000   -0.0078    0.0000    0.0000    0.0870    0.0000   -0.0000    0.9514    0.0076   -0.0000
       32 NB     5pz       -0.0000    0.0024   -0.0000   -0.0000   -0.0012    0.0000   -0.0000    0.2169    0.0673    0.0000
       33 NB     6pz       -0.0000   -0.0061   -0.0000    0.0000    0.0008   -0.0000    0.0000   -0.1953    0.0154    0.0000
       34 NB     7pz        0.0000    0.0052    0.0000   -0.0000    0.0000    0.0000   -0.0000    0.0096    0.0129    0.0000
       35 NB     8pz        0.0000   -0.0058    0.0000    0.0000   -0.0001    0.0000   -0.0000    0.0088    0.0040    0.0000
       36 NB     9pz        0.0000    0.0050    0.0000   -0.0000    0.0002    0.0000   -0.0000    0.0099    0.0012    0.0000
       37 NB    10pz        0.0000   -0.0012   -0.0000   -0.0000   -0.0003    0.0000   -0.0000    0.0042    0.0003    0.0000
       38 NB     3d2-       0.8530   -0.0000    0.5190    0.0000   -0.0000    0.0000   -0.0047   -0.0000   -0.0000   -0.0000
       39 NB     4d2-       0.0200   -0.0000    0.0107    0.0000   -0.0000   -0.0000    0.0337   -0.0000   -0.0000    0.0000
       40 NB     5d2-      -0.0163    0.0000   -0.0076   -0.0000    0.0000    0.0000   -0.0146   -0.0000   -0.0000    0.0000
       41 NB     6d2-       0.0111   -0.0000    0.0040    0.0000   -0.0000   -0.0000    0.0054    0.0000    0.0000    0.0000
       42 NB     7d2-      -0.0073    0.0000   -0.0014   -0.0000    0.0000    0.0000   -0.0023    0.0000    0.0000    0.0000
       43 NB     8d2-       0.0038   -0.0000   -0.0028   -0.0000    0.0000   -0.0000    0.0016    0.0000    0.0000   -0.0000
       44 NB     9d2-      -0.0004   -0.0000    0.0048    0.0000   -0.0000    0.0000   -0.0013   -0.0000    0.0000   -0.0000
       45 NB    10d2-       0.0027   -0.0000    0.0065    0.0000    0.0000   -0.0000    0.0004   -0.0000   -0.0000    0.0000
       46 NB     3d1-      -0.5206   -0.0000    0.8506    0.0000   -0.0000    0.0000   -0.0059   -0.0000   -0.0000   -0.0000
       47 NB     4d1-      -0.0127   -0.0000    0.0185    0.0000   -0.0000   -0.0000    0.0617   -0.0000   -0.0000    0.0000
       48 NB     5d1-       0.0105    0.0000   -0.0136   -0.0000   -0.0000    0.0000   -0.0262   -0.0000   -0.0000   -0.0000
       49 NB     6d1-      -0.0073   -0.0000    0.0077    0.0000    0.0000   -0.0000    0.0091    0.0000   -0.0000   -0.0000
       50 NB     7d1-       0.0050    0.0000   -0.0035   -0.0000   -0.0000    0.0000   -0.0035   -0.0000   -0.0000   -0.0000
       51 NB     8d1-      -0.0032    0.0000   -0.0029   -0.0000    0.0000   -0.0000    0.0022   -0.0000    0.0000    0.0000
       52 NB     9d1-       0.0012   -0.0000    0.0061    0.0000   -0.0000    0.0000   -0.0020   -0.0000   -0.0000   -0.0000
       53 NB    10d1-      -0.0009   -0.0000    0.0092    0.0000   -0.0000   -0.0000    0.0007   -0.0000   -0.0000    0.0000
       54 NB     3d0        0.0000    0.9986    0.0000   -0.0000    0.0064    0.0000    0.0000    0.0060   -0.0012   -0.0000
       55 NB     4d0        0.0000    0.0221    0.0000   -0.0000   -0.0203   -0.0000   -0.0000   -0.0192    0.0130    0.0000
       56 NB     5d0        0.0000   -0.0165   -0.0000    0.0000    0.0131    0.0000   -0.0000    0.0084   -0.0024    0.0000
       57 NB     6d0       -0.0000    0.0097    0.0000   -0.0000   -0.0069   -0.0000   -0.0000   -0.0037    0.0003    0.0000
       58 NB     7d0        0.0000   -0.0048   -0.0000    0.0000    0.0037   -0.0000   -0.0000    0.0022   -0.0007    0.0000
       59 NB     8d0       -0.0000   -0.0021   -0.0000    0.0000   -0.0021   -0.0000    0.0000   -0.0019    0.0005   -0.0000
       60 NB     9d0       -0.0000    0.0059    0.0000   -0.0000    0.0015   -0.0000   -0.0000    0.0013   -0.0003   -0.0000
       61 NB    10d0        0.0000    0.0096    0.0000   -0.0000   -0.0002   -0.0000   -0.0000   -0.0004    0.0000    0.0000
       62 NB     3d1+       0.0000    0.0000   -0.0000    0.8506    0.0000   -0.0059   -0.0000   -0.0000   -0.0000    0.0013
       63 NB     4d1+       0.0000    0.0000   -0.0000    0.0185    0.0000    0.0617    0.0000   -0.0000   -0.0000   -0.0273
       64 NB     5d1+      -0.0000   -0.0000    0.0000   -0.0136   -0.0000   -0.0262   -0.0000    0.0000   -0.0000    0.0029
       65 NB     6d1+       0.0000    0.0000   -0.0000    0.0077    0.0000    0.0091    0.0000   -0.0000   -0.0000    0.0034
       66 NB     7d1+      -0.0000   -0.0000    0.0000   -0.0035   -0.0000   -0.0035   -0.0000    0.0000    0.0000    0.0028
       67 NB     8d1+       0.0000   -0.0000    0.0000   -0.0029    0.0000    0.0022    0.0000   -0.0000    0.0000   -0.0003
       68 NB     9d1+      -0.0000    0.0000   -0.0000    0.0061   -0.0000   -0.0020   -0.0000    0.0000    0.0000    0.0000
       69 NB    10d1+       0.0000    0.0000   -0.0000    0.0092    0.0000    0.0007    0.0000   -0.0000   -0.0000   -0.0000
       70 NB     3d2+       0.0000   -0.0000    0.0000   -0.5190   -0.0000    0.0047    0.0000    0.0000    0.0000   -0.0010
       71 NB     4d2+       0.0000   -0.0000    0.0000   -0.0107    0.0000   -0.0337   -0.0000   -0.0000   -0.0000    0.0244
       72 NB     5d2+      -0.0000    0.0000   -0.0000    0.0076   -0.0000    0.0146    0.0000    0.0000    0.0000    0.0118
       73 NB     6d2+       0.0000   -0.0000    0.0000   -0.0040    0.0000   -0.0054   -0.0000   -0.0000   -0.0000    0.0091
       74 NB     7d2+      -0.0000    0.0000   -0.0000    0.0014   -0.0000    0.0023    0.0000    0.0000    0.0000    0.0019
       75 NB     8d2+       0.0000    0.0000   -0.0000    0.0028    0.0000   -0.0016   -0.0000   -0.0000   -0.0000   -0.0004
       76 NB     9d2+      -0.0000   -0.0000    0.0000   -0.0048   -0.0000    0.0013    0.0000    0.0000    0.0000   -0.0008
       77 NB    10d2+       0.0000   -0.0000    0.0000   -0.0065    0.0000   -0.0004   -0.0000   -0.0000   -0.0000    0.0002
       78 NB     4f3-      -0.0000   -0.0000   -0.0000   -0.0000   -0.0000   -0.0000    0.0000    0.0000    0.0000    0.0000
       79 NB     5f3-      -0.0000    0.0000   -0.0000   -0.0000    0.0000   -0.0000    0.0000    0.0000   -0.0000    0.0000
       80 NB     6f3-       0.0000    0.0000    0.0000   -0.0000   -0.0000    0.0000   -0.0000    0.0000   -0.0000    0.0000
       81 NB     7f3-      -0.0000    0.0000   -0.0000   -0.0000   -0.0000   -0.0000    0.0000   -0.0000   -0.0000    0.0000
       82 NB     8f3-      -0.0000    0.0000   -0.0000   -0.0000    0.0000   -0.0000    0.0000   -0.0000    0.0000    0.0000
       83 NB     4f2-       0.0052   -0.0000    0.0108    0.0000   -0.0000    0.0000   -0.0070   -0.0000   -0.0000   -0.0000
       84 NB     5f2-       0.0049   -0.0000    0.0102    0.0000   -0.0000    0.0000   -0.0045   -0.0000   -0.0000   -0.0000
       85 NB     6f2-      -0.0037    0.0000   -0.0079   -0.0000    0.0000   -0.0000    0.0024    0.0000    0.0000    0.0000
       86 NB     7f2-       0.0040   -0.0000    0.0086    0.0000   -0.0000    0.0000   -0.0016   -0.0000    0.0000    0.0000
       87 NB     8f2-       0.0051   -0.0000    0.0110    0.0000   -0.0000    0.0000   -0.0020   -0.0000   -0.0000   -0.0000
       88 NB     4f1-      -0.0020   -0.0000    0.0020    0.0000   -0.0000    0.0000   -0.0078   -0.0000   -0.0000   -0.0000
       89 NB     5f1-      -0.0018   -0.0000    0.0018    0.0000    0.0000    0.0000   -0.0039   -0.0000   -0.0000   -0.0000
       90 NB     6f1-       0.0013   -0.0000   -0.0013   -0.0000    0.0000   -0.0000    0.0015    0.0000    0.0000   -0.0000
       91 NB     7f1-      -0.0014    0.0000    0.0014    0.0000   -0.0000    0.0000   -0.0009   -0.0000    0.0000   -0.0000
       92 NB     8f1-      -0.0018   -0.0000    0.0020    0.0000    0.0000    0.0000   -0.0008   -0.0000   -0.0000    0.0000
       93 NB     4f0        0.0000   -0.0045   -0.0000    0.0000   -0.0246    0.0000    0.0000   -0.0096    0.0064   -0.0000
       94 NB     5f0        0.0000   -0.0044   -0.0000    0.0000   -0.0166    0.0000    0.0000   -0.0045    0.0027    0.0000
       95 NB     6f0       -0.0000    0.0037    0.0000   -0.0000    0.0089   -0.0000   -0.0000    0.0017   -0.0032    0.0000
       96 NB     7f0        0.0000   -0.0042   -0.0000    0.0000   -0.0060    0.0000    0.0000   -0.0011    0.0002    0.0000
       97 NB     8f0        0.0000   -0.0049   -0.0000    0.0000   -0.0051    0.0000    0.0000   -0.0010    0.0029   -0.0000
       98 NB     4f1+       0.0000    0.0000   -0.0000    0.0020   -0.0000   -0.0078   -0.0000    0.0000    0.0000    0.0006
       99 NB     5f1+       0.0000    0.0000   -0.0000    0.0018   -0.0000   -0.0039   -0.0000    0.0000    0.0000    0.0021
      100 NB     6f1+      -0.0000   -0.0000    0.0000   -0.0013    0.0000    0.0015    0.0000   -0.0000   -0.0000    0.0010
      101 NB     7f1+       0.0000    0.0000   -0.0000    0.0014   -0.0000   -0.0009   -0.0000    0.0000   -0.0000    0.0009
      102 NB     8f1+       0.0000    0.0000   -0.0000    0.0020   -0.0000   -0.0008   -0.0000    0.0000    0.0000   -0.0002
      103 NB     4f2+       0.0000   -0.0000    0.0000   -0.0108   -0.0000    0.0070    0.0000    0.0000    0.0000   -0.0010
      104 NB     5f2+       0.0000   -0.0000    0.0000   -0.0102   -0.0000    0.0045    0.0000    0.0000    0.0000   -0.0006
      105 NB     6f2+      -0.0000    0.0000   -0.0000    0.0079    0.0000   -0.0024   -0.0000   -0.0000   -0.0000    0.0006
      106 NB     7f2+       0.0000   -0.0000    0.0000   -0.0086   -0.0000    0.0016    0.0000    0.0000   -0.0000    0.0000
      107 NB     8f2+       0.0000   -0.0000    0.0000   -0.0110   -0.0000    0.0020    0.0000    0.0000    0.0000   -0.0008
      108 NB     4f3+       0.0000    0.0040    0.0000   -0.0000   -0.0155    0.0000    0.0000    0.0083    0.0044   -0.0000
      109 NB     5f3+      -0.0000    0.0038    0.0000   -0.0000   -0.0104    0.0000    0.0000    0.0049    0.0017   -0.0000
      110 NB     6f3+       0.0000   -0.0029   -0.0000    0.0000    0.0056   -0.0000   -0.0000   -0.0024   -0.0021   -0.0000
      111 NB     7f3+      -0.0000    0.0031    0.0000   -0.0000   -0.0037    0.0000    0.0000    0.0016    0.0001   -0.0000
      112 NB     8f3+      -0.0000    0.0039    0.0000   -0.0000   -0.0031    0.0000    0.0000    0.0019    0.0019   -0.0000
      113 NB     5g4-      -0.0003   -0.0000    0.0021    0.0000   -0.0000    0.0000   -0.0059   -0.0000   -0.0000   -0.0000
      114 NB     6g4-       0.0003    0.0000   -0.0025   -0.0000    0.0000   -0.0000    0.0031    0.0000    0.0000    0.0000
      115 NB     7g4-      -0.0004   -0.0000    0.0035    0.0000   -0.0000    0.0000   -0.0022   -0.0000   -0.0000   -0.0000
      116 NB     8g4-       0.0006    0.0000   -0.0049   -0.0000    0.0000   -0.0000    0.0018    0.0000    0.0000    0.0000
      117 NB     5g3-      -0.0000   -0.0000    0.0000    0.0000   -0.0000    0.0000   -0.0000    0.0000    0.0000   -0.0000
      118 NB     6g3-      -0.0000   -0.0000   -0.0000    0.0000    0.0000   -0.0000    0.0000   -0.0000    0.0000    0.0000
      119 NB     7g3-       0.0000    0.0000    0.0000    0.0000    0.0000    0.0000   -0.0000   -0.0000   -0.0000   -0.0000
      120 NB     8g3-      -0.0000    0.0000   -0.0000   -0.0000   -0.0000   -0.0000    0.0000   -0.0000    0.0000    0.0000
      121 NB     5g2-      -0.0004    0.0000   -0.0020   -0.0000    0.0000    0.0000   -0.0003    0.0000    0.0000   -0.0000
      122 NB     6g2-       0.0004   -0.0000    0.0023    0.0000   -0.0000    0.0000   -0.0001   -0.0000   -0.0000   -0.0000
      123 NB     7g2-      -0.0006    0.0000   -0.0033   -0.0000    0.0000   -0.0000    0.0002    0.0000    0.0000   -0.0000
      124 NB     8g2-       0.0008   -0.0000    0.0045    0.0000   -0.0000    0.0000   -0.0003   -0.0000   -0.0000   -0.0000
      125 NB     5g1-       0.0015   -0.0000    0.0005    0.0000    0.0000    0.0000   -0.0076   -0.0000   -0.0000   -0.0000
      126 NB     6g1-      -0.0017    0.0000   -0.0007   -0.0000    0.0000   -0.0000    0.0039    0.0000    0.0000    0.0000
      127 NB     7g1-       0.0023   -0.0000    0.0013    0.0000   -0.0000    0.0000   -0.0026   -0.0000   -0.0000   -0.0000
      128 NB     8g1-      -0.0031    0.0000   -0.0019   -0.0000    0.0000   -0.0000    0.0022    0.0000    0.0000    0.0000
      129 NB     5g0       -0.0000   -0.0037   -0.0000    0.0000   -0.0013   -0.0000    0.0000   -0.0108    0.0001    0.0000
      130 NB     6g0       -0.0000    0.0043    0.0000   -0.0000    0.0009    0.0000    0.0000    0.0057   -0.0001   -0.0000
      131 NB     7g0        0.0000   -0.0060   -0.0000    0.0000   -0.0007   -0.0000   -0.0000   -0.0041    0.0001    0.0000
      132 NB     8g0        0.0000    0.0083    0.0000   -0.0000    0.0007    0.0000    0.0000    0.0036   -0.0001   -0.0000
      133 NB     5g1+      -0.0000    0.0000   -0.0000    0.0005    0.0000   -0.0076   -0.0000   -0.0000   -0.0000    0.0014
      134 NB     6g1+       0.0000   -0.0000    0.0000   -0.0007   -0.0000    0.0039    0.0000    0.0000    0.0000   -0.0005
      135 NB     7g1+      -0.0000    0.0000   -0.0000    0.0013    0.0000   -0.0026   -0.0000   -0.0000   -0.0000    0.0006
      136 NB     8g1+       0.0000   -0.0000    0.0000   -0.0019   -0.0000    0.0022    0.0000    0.0000    0.0000   -0.0004
      137 NB     5g2+      -0.0000    0.0000   -0.0000    0.0020    0.0000    0.0003    0.0000   -0.0000    0.0000   -0.0001
      138 NB     6g2+       0.0000   -0.0000    0.0000   -0.0023   -0.0000    0.0001    0.0000    0.0000    0.0000   -0.0000
      139 NB     7g2+      -0.0000    0.0000   -0.0000    0.0033    0.0000   -0.0002   -0.0000   -0.0000   -0.0000   -0.0000
      140 NB     8g2+       0.0000   -0.0000    0.0000   -0.0045   -0.0000    0.0003    0.0000    0.0000    0.0000   -0.0001
      141 NB     5g3+      -0.0000   -0.0008   -0.0000    0.0000    0.0053   -0.0000   -0.0000   -0.0062   -0.0011    0.0000
      142 NB     6g3+       0.0000    0.0010    0.0000   -0.0000   -0.0038    0.0000    0.0000    0.0034    0.0009   -0.0000
      143 NB     7g3+      -0.0000   -0.0014   -0.0000    0.0000    0.0032   -0.0000   -0.0000   -0.0025   -0.0007    0.0000
      144 NB     8g3+       0.0000    0.0019    0.0000   -0.0000   -0.0032    0.0000    0.0000    0.0023    0.0008   -0.0000
      145 NB     5g4+       0.0000    0.0000   -0.0000    0.0021    0.0000   -0.0059   -0.0000    0.0000    0.0000    0.0010
      146 NB     6g4+      -0.0000   -0.0000    0.0000   -0.0025   -0.0000    0.0031    0.0000   -0.0000   -0.0000   -0.0004
      147 NB     7g4+       0.0000    0.0000   -0.0000    0.0035    0.0000   -0.0022   -0.0000    0.0000    0.0000    0.0005
      148 NB     8g4+      -0.0000   -0.0000    0.0000   -0.0049   -0.0000    0.0018    0.0000   -0.0000   -0.0000   -0.0003
      149 NB     6h5-      -0.0011    0.0000   -0.0010   -0.0000    0.0000   -0.0000    0.0002    0.0000   -0.0000    0.0000
      150 NB     7h5-       0.0012   -0.0000    0.0011    0.0000   -0.0000    0.0000   -0.0002   -0.0000    0.0000   -0.0000
      151 NB     6h4-       0.0005    0.0000   -0.0016   -0.0000    0.0000   -0.0000    0.0022    0.0000    0.0000    0.0000
      152 NB     7h4-      -0.0005   -0.0000    0.0018    0.0000   -0.0000    0.0000   -0.0015   -0.0000   -0.0000   -0.0000
      153 NB     6h3-       0.0000    0.0000   -0.0000   -0.0000    0.0000   -0.0000    0.0000    0.0000   -0.0000    0.0000
      154 NB     7h3-      -0.0000    0.0000    0.0000   -0.0000   -0.0000    0.0000   -0.0000    0.0000    0.0000   -0.0000
      155 NB     6h2-      -0.0009    0.0000   -0.0009   -0.0000    0.0000   -0.0000    0.0007    0.0000    0.0000    0.0000
      156 NB     7h2-       0.0009   -0.0000    0.0010    0.0000   -0.0000    0.0000   -0.0005   -0.0000   -0.0000   -0.0000
      157 NB     6h1-       0.0008    0.0000   -0.0022   -0.0000   -0.0000   -0.0000    0.0001   -0.0000   -0.0000   -0.0000
      158 NB     7h1-      -0.0008   -0.0000    0.0023    0.0000   -0.0000    0.0000   -0.0002   -0.0000    0.0000   -0.0000
      159 NB     6h0       -0.0000   -0.0029   -0.0000    0.0000   -0.0006   -0.0000    0.0000   -0.0008    0.0001    0.0000
      160 NB     7h0       -0.0000    0.0032    0.0000   -0.0000    0.0006    0.0000   -0.0000    0.0008   -0.0001   -0.0000
      161 NB     6h1+      -0.0000   -0.0000    0.0000   -0.0022   -0.0000    0.0001    0.0000    0.0000    0.0000    0.0000
      162 NB     7h1+       0.0000    0.0000   -0.0000    0.0023    0.0000   -0.0002   -0.0000   -0.0000   -0.0000    0.0000
      163 NB     6h2+      -0.0000    0.0000   -0.0000    0.0009    0.0000   -0.0007   -0.0000   -0.0000   -0.0000    0.0001
      164 NB     7h2+       0.0000   -0.0000    0.0000   -0.0010   -0.0000    0.0005    0.0000    0.0000    0.0000   -0.0001
      165 NB     6h3+       0.0000   -0.0006    0.0000    0.0000   -0.0009    0.0000   -0.0000    0.0022    0.0002   -0.0000
      166 NB     7h3+      -0.0000    0.0007   -0.0000   -0.0000    0.0009   -0.0000    0.0000   -0.0015   -0.0002    0.0000
      167 NB     6h4+      -0.0000   -0.0000    0.0000   -0.0016   -0.0000    0.0022    0.0000   -0.0000   -0.0000   -0.0003
      168 NB     7h4+       0.0000    0.0000   -0.0000    0.0018    0.0000   -0.0015   -0.0000    0.0000    0.0000    0.0003
      169 NB     6h5+      -0.0000    0.0000   -0.0000    0.0010    0.0000   -0.0002   -0.0000   -0.0000   -0.0000    0.0000
      170 NB     7h5+       0.0000   -0.0000    0.0000   -0.0011   -0.0000    0.0002    0.0000    0.0000    0.0000   -0.0000

          Orbital           21        22        23        24        25        26        27        28        29        30    
          Energy           -0.0861   -0.0829   -0.0541   -0.0541   -0.0533   -0.0533   -0.0531   -0.0141    0.0299    0.0299
          Occ. No.          0.0000    0.0000    0.0000    0.0000    0.0000    0.0000    0.0000    0.0000    0.0000    0.0000

        1 NB     1s        -0.0000    0.0000    0.0000    0.0000   -0.0000    0.0000   -0.0000    0.0000   -0.0000   -0.0000
        2 NB     2s         0.0000   -0.0000    0.0000    0.0000    0.0000    0.0000   -0.0000   -0.0001   -0.0000   -0.0000
        3 NB     3s         0.0000   -0.0001   -0.0000    0.0000    0.0000    0.0000   -0.0000   -0.0016   -0.0000   -0.0000
        4 NB     4s         0.0000    0.0082   -0.0000    0.0000    0.0000    0.0000    0.0010    0.0695    0.0000    0.0000
        5 NB     5s         0.0000   -0.0445   -0.0000    0.0000    0.0000    0.0000    0.0044   -0.3017   -0.0000   -0.0000
        6 NB     6s         0.0000   -0.0607    0.0000   -0.0000   -0.0000   -0.0000   -0.0105    0.7984    0.0000    0.0000
        7 NB     7s         0.0000   -0.0076    0.0000   -0.0000   -0.0000   -0.0000   -0.0034    0.4434    0.0000    0.0000
        8 NB     8s         0.0000   -0.0040    0.0000   -0.0000   -0.0000   -0.0000   -0.0016    0.2486    0.0000    0.0000
        9 NB     9s         0.0000   -0.0007    0.0000   -0.0000   -0.0000   -0.0000   -0.0004    0.0560    0.0000    0.0000
       10 NB    10s         0.0000    0.0000    0.0000   -0.0000   -0.0000   -0.0000   -0.0000    0.0050    0.0000    0.0000
       11 NB     2px        0.0000   -0.0000   -0.0000    0.0000    0.0000    0.0000   -0.0000   -0.0000   -0.0000   -0.0000
       12 NB     3px        0.0000   -0.0000   -0.0000    0.0000    0.0002    0.0000   -0.0000   -0.0000   -0.0000   -0.0000
       13 NB     4px       -0.0001    0.0000    0.0034   -0.0000   -0.0109   -0.0000    0.0000    0.0000   -0.0020   -0.0000
       14 NB     5px        0.0011   -0.0000   -0.0129    0.0000   -0.0010   -0.0000   -0.0000   -0.0000   -0.0038   -0.0000
       15 NB     6px        0.0007   -0.0000   -0.0114    0.0000    0.0135    0.0000   -0.0000   -0.0000    0.0084    0.0000
       16 NB     7px        0.0005   -0.0000   -0.0099    0.0000    0.0114    0.0000   -0.0000   -0.0000    0.0118    0.0000
       17 NB     8px        0.0002   -0.0000   -0.0042    0.0000    0.0051    0.0000   -0.0000   -0.0000    0.0068    0.0000
       18 NB     9px        0.0001   -0.0000   -0.0016    0.0000    0.0020    0.0000   -0.0000   -0.0000    0.0031    0.0000
       19 NB    10px        0.0000   -0.0000   -0.0002    0.0000    0.0002    0.0000   -0.0000   -0.0000    0.0004    0.0000
       20 NB     2py        0.0000    0.0000    0.0000    0.0000   -0.0000    0.0000   -0.0000   -0.0000   -0.0000    0.0000
       21 NB     3py        0.0018   -0.0000    0.0000    0.0000   -0.0000    0.0002   -0.0000    0.0000   -0.0000    0.0000
       22 NB     4py       -0.0689    0.0000   -0.0000   -0.0034    0.0000   -0.0109    0.0000    0.0000   -0.0000    0.0020
       23 NB     5py        0.7846   -0.0000    0.0000    0.0129    0.0000   -0.0010    0.0000   -0.0000   -0.0000    0.0038
       24 NB     6py        0.4609   -0.0000    0.0000    0.0114   -0.0000    0.0135   -0.0000   -0.0000    0.0000   -0.0084
       25 NB     7py        0.3751   -0.0000    0.0000    0.0099   -0.0000    0.0114   -0.0000   -0.0000    0.0000   -0.0118
       26 NB     8py        0.1488   -0.0000    0.0000    0.0042   -0.0000    0.0051   -0.0000   -0.0000    0.0000   -0.0068
       27 NB     9py        0.0524   -0.0000    0.0000    0.0016   -0.0000    0.0020   -0.0000   -0.0000    0.0000   -0.0031
       28 NB    10py        0.0067   -0.0000    0.0000    0.0002   -0.0000    0.0002   -0.0000   -0.0000    0.0000   -0.0004
       29 NB     2pz        0.0000    0.0000   -0.0000    0.0000   -0.0000   -0.0000    0.0000    0.0000    0.0000    0.0000
       30 NB     3pz       -0.0000    0.0018   -0.0000    0.0000   -0.0000   -0.0000   -0.0001   -0.0001    0.0000   -0.0000
       31 NB     4pz       -0.0000   -0.0815    0.0000   -0.0000    0.0000    0.0000    0.0073   -0.0099   -0.0000    0.0000
       32 NB     5pz        0.0000    0.7628    0.0000   -0.0000   -0.0000   -0.0000   -0.0394   -0.0014   -0.0000   -0.0000
       33 NB     6pz        0.0000    0.4743    0.0000   -0.0000   -0.0000   -0.0000   -0.0315    0.0390    0.0000    0.0000
       34 NB     7pz        0.0000    0.3873    0.0000   -0.0000   -0.0000   -0.0000   -0.0274    0.0422    0.0000    0.0000
       35 NB     8pz        0.0000    0.1551    0.0000   -0.0000   -0.0000   -0.0000   -0.0117    0.0220    0.0000    0.0000
       36 NB     9pz        0.0000    0.0550    0.0000   -0.0000   -0.0000   -0.0000   -0.0044    0.0092    0.0000    0.0000
       37 NB    10pz        0.0000    0.0069    0.0000   -0.0000   -0.0000   -0.0000   -0.0005    0.0012    0.0000    0.0000
       38 NB     3d2-       0.0010   -0.0000   -0.0000   -0.0029    0.0000   -0.0007    0.0000    0.0000   -0.0000    0.0067
       39 NB     4d2-      -0.0244    0.0000    0.0010    0.3652   -0.0000    0.1025   -0.0000   -0.0000    0.0004   -0.5442
       40 NB     5d2-      -0.0118   -0.0000    0.0016    0.5732   -0.0000    0.1706   -0.0000    0.0000    0.0002   -0.2940
       41 NB     6d2-      -0.0091    0.0000    0.0017    0.5998   -0.0000    0.1810   -0.0000    0.0000   -0.0002    0.3226
       42 NB     7d2-      -0.0019    0.0000    0.0009    0.3089   -0.0000    0.0944   -0.0000    0.0000   -0.0004    0.5450
       43 NB     8d2-       0.0004    0.0000    0.0001    0.0281   -0.0000    0.0091   -0.0000    0.0000   -0.0002    0.2613
       44 NB     9d2-       0.0008    0.0000   -0.0000   -0.0053    0.0000   -0.0013    0.0000    0.0000   -0.0001    0.1353
       45 NB    10d2-      -0.0002   -0.0000    0.0000    0.0059   -0.0000    0.0017   -0.0000   -0.0000    0.0000   -0.0132
       46 NB     3d1-       0.0013   -0.0000    0.0000    0.0010    0.0000   -0.0026    0.0000   -0.0000    0.0000   -0.0027
       47 NB     4d1-      -0.0273   -0.0000   -0.0003   -0.1114   -0.0001    0.3511   -0.0000    0.0000   -0.0002    0.2104
       48 NB     5d1-       0.0029   -0.0000   -0.0005   -0.1705   -0.0001    0.5722   -0.0000    0.0000   -0.0001    0.1125
       49 NB     6d1-       0.0034   -0.0000   -0.0005   -0.1779   -0.0001    0.6057   -0.0000    0.0000    0.0001   -0.1242
       50 NB     7d1-       0.0028   -0.0000   -0.0003   -0.0914   -0.0001    0.3155   -0.0000    0.0000    0.0002   -0.2093
       51 NB     8d1-      -0.0003    0.0000   -0.0000   -0.0083   -0.0000    0.0304   -0.0000    0.0000    0.0001   -0.1002
       52 NB     9d1-       0.0000    0.0000    0.0000    0.0016    0.0000   -0.0044    0.0000    0.0000    0.0000   -0.0519
       53 NB    10d1-      -0.0000   -0.0000   -0.0000   -0.0018   -0.0000    0.0058   -0.0000   -0.0000   -0.0000    0.0051
       54 NB     3d0       -0.0000   -0.0013    0.0000   -0.0000   -0.0000   -0.0000   -0.0027    0.0013   -0.0000   -0.0000
       55 NB     4d0        0.0000    0.0345   -0.0000    0.0000    0.0000    0.0000    0.3642   -0.0198    0.0000    0.0000
       56 NB     5d0        0.0000    0.0374   -0.0000    0.0000    0.0000    0.0000    0.5955    0.0079    0.0000    0.0000
       57 NB     6d0        0.0000    0.0312   -0.0000    0.0000    0.0000    0.0000    0.6317    0.0179   -0.0000   -0.0000
       58 NB     7d0        0.0000    0.0099   -0.0000    0.0000    0.0000    0.0000    0.3299    0.0165   -0.0000   -0.0000
       59 NB     8d0       -0.0000   -0.0014   -0.0000    0.0000    0.0000    0.0000    0.0322    0.0044   -0.0000   -0.0000
       60 NB     9d0       -0.0000   -0.0022    0.0000   -0.0000   -0.0000   -0.0000   -0.0043    0.0023   -0.0000   -0.0000
       61 NB    10d0        0.0000    0.0005   -0.0000    0.0000    0.0000    0.0000    0.0060   -0.0001    0.0000    0.0000
       62 NB     3d1+       0.0000    0.0000   -0.0010    0.0000   -0.0026   -0.0000    0.0000    0.0000    0.0027    0.0000
       63 NB     4d1+      -0.0000    0.0000    0.1114   -0.0003    0.3511    0.0001   -0.0000    0.0000   -0.2104   -0.0002
       64 NB     5d1+       0.0000    0.0000    0.1705   -0.0005    0.5722    0.0001   -0.0000   -0.0000   -0.1125   -0.0001
       65 NB     6d1+       0.0000    0.0000    0.1779   -0.0005    0.6057    0.0001   -0.0000   -0.0000    0.1242    0.0001
       66 NB     7d1+       0.0000    0.0000    0.0914   -0.0003    0.3155    0.0001   -0.0000   -0.0000    0.2093    0.0002
       67 NB     8d1+      -0.0000   -0.0000    0.0083   -0.0000    0.0304    0.0000   -0.0000   -0.0000    0.1002    0.0001
       68 NB     9d1+       0.0000   -0.0000   -0.0016    0.0000   -0.0044   -0.0000    0.0000   -0.0000    0.0519    0.0000
       69 NB    10d1+      -0.0000    0.0000    0.0018   -0.0000    0.0058    0.0000   -0.0000    0.0000   -0.0051   -0.0000
       70 NB     3d2+      -0.0000   -0.0000   -0.0029    0.0000    0.0007    0.0000   -0.0000   -0.0000    0.0067    0.0000
       71 NB     4d2+       0.0000    0.0000    0.3652   -0.0010   -0.1025   -0.0000    0.0000    0.0000   -0.5442   -0.0004
       72 NB     5d2+       0.0000    0.0000    0.5732   -0.0016   -0.1706   -0.0000    0.0000   -0.0000   -0.2940   -0.0002
       73 NB     6d2+       0.0000    0.0000    0.5998   -0.0017   -0.1810   -0.0000    0.0000   -0.0000    0.3226    0.0002
       74 NB     7d2+       0.0000    0.0000    0.3089   -0.0009   -0.0944   -0.0000    0.0000   -0.0000    0.5450    0.0004
       75 NB     8d2+      -0.0000   -0.0000    0.0281   -0.0001   -0.0091   -0.0000    0.0000   -0.0000    0.2613    0.0002
       76 NB     9d2+      -0.0000   -0.0000   -0.0053    0.0000    0.0013    0.0000   -0.0000   -0.0000    0.1353    0.0001
       77 NB    10d2+       0.0000    0.0000    0.0059   -0.0000   -0.0017   -0.0000    0.0000    0.0000   -0.0132   -0.0000
       78 NB     4f3-      -0.0000    0.0000   -0.0000    0.0000    0.0000   -0.0000   -0.0000   -0.0000    0.0000   -0.0000
       79 NB     5f3-      -0.0000   -0.0000    0.0000   -0.0000   -0.0000   -0.0000    0.0000    0.0000   -0.0000    0.0000
       80 NB     6f3-      -0.0000   -0.0000    0.0000   -0.0000   -0.0000    0.0000    0.0000   -0.0000   -0.0000    0.0000
       81 NB     7f3-      -0.0000   -0.0000    0.0000   -0.0000   -0.0000   -0.0000    0.0000   -0.0000   -0.0000    0.0000
       82 NB     8f3-      -0.0000    0.0000   -0.0000    0.0000    0.0000    0.0000   -0.0000    0.0000    0.0000   -0.0000
       83 NB     4f2-       0.0010   -0.0000    0.0000    0.0051   -0.0000    0.0027   -0.0000   -0.0000    0.0000   -0.0120
       84 NB     5f2-       0.0006   -0.0000   -0.0000   -0.0031    0.0000   -0.0006    0.0000    0.0000   -0.0000    0.0074
       85 NB     6f2-      -0.0006    0.0000   -0.0000   -0.0037    0.0000   -0.0012    0.0000    0.0000   -0.0000    0.0082
       86 NB     7f2-      -0.0000   -0.0000   -0.0000   -0.0024    0.0000   -0.0005    0.0000    0.0000   -0.0000    0.0049
       87 NB     8f2-       0.0008   -0.0000    0.0000    0.0018   -0.0000    0.0005   -0.0000   -0.0000    0.0000   -0.0033
       88 NB     4f1-       0.0006   -0.0000   -0.0000   -0.0016   -0.0000    0.0038   -0.0000    0.0000   -0.0000    0.0047
       89 NB     5f1-       0.0021    0.0000    0.0000    0.0013    0.0000   -0.0045    0.0000    0.0000    0.0000   -0.0036
       90 NB     6f1-       0.0010    0.0000    0.0000    0.0014    0.0000   -0.0046    0.0000    0.0000    0.0000   -0.0037
       91 NB     7f1-       0.0009    0.0000    0.0000    0.0009    0.0000   -0.0033    0.0000   -0.0000    0.0000   -0.0023
       92 NB     8f1-      -0.0002   -0.0000   -0.0000   -0.0007   -0.0000    0.0024   -0.0000   -0.0000   -0.0000    0.0015
       93 NB     4f0       -0.0000    0.0015   -0.0000    0.0000    0.0000    0.0000    0.0028   -0.0078   -0.0000    0.0000
       94 NB     5f0        0.0000    0.0021    0.0000   -0.0000   -0.0000   -0.0000   -0.0054   -0.0012   -0.0000   -0.0000
       95 NB     6f0        0.0000    0.0009    0.0000   -0.0000   -0.0000   -0.0000   -0.0051    0.0052   -0.0000   -0.0000
       96 NB     7f0        0.0000    0.0010    0.0000   -0.0000   -0.0000   -0.0000   -0.0039    0.0015   -0.0000   -0.0000
       97 NB     8f0       -0.0000   -0.0001   -0.0000    0.0000    0.0000    0.0000    0.0027   -0.0045    0.0000    0.0000
       98 NB     4f1+       0.0000   -0.0000    0.0016   -0.0000    0.0038    0.0000   -0.0000   -0.0000   -0.0047   -0.0000
       99 NB     5f1+       0.0000   -0.0000   -0.0013    0.0000   -0.0045   -0.0000    0.0000   -0.0000    0.0036    0.0000
      100 NB     6f1+       0.0000    0.0000   -0.0014    0.0000   -0.0046   -0.0000    0.0000    0.0000    0.0037    0.0000
      101 NB     7f1+       0.0000   -0.0000   -0.0009    0.0000   -0.0033   -0.0000    0.0000    0.0000    0.0023    0.0000
      102 NB     8f1+      -0.0000    0.0000    0.0007   -0.0000    0.0024    0.0000   -0.0000   -0.0000   -0.0015   -0.0000
      103 NB     4f2+      -0.0000   -0.0000    0.0051   -0.0000   -0.0027   -0.0000    0.0000   -0.0000   -0.0120   -0.0000
      104 NB     5f2+      -0.0000   -0.0000   -0.0031    0.0000    0.0006    0.0000   -0.0000   -0.0000    0.0074    0.0000
      105 NB     6f2+       0.0000   -0.0000   -0.0037    0.0000    0.0012    0.0000   -0.0000    0.0000    0.0082    0.0000
      106 NB     7f2+       0.0000   -0.0000   -0.0024    0.0000    0.0005    0.0000   -0.0000    0.0000    0.0049    0.0000
      107 NB     8f2+      -0.0000   -0.0000    0.0018   -0.0000   -0.0005   -0.0000    0.0000   -0.0000   -0.0033   -0.0000
      108 NB     4f3+      -0.0000   -0.0018    0.0000    0.0000   -0.0000    0.0000    0.0013   -0.0055   -0.0000   -0.0000
      109 NB     5f3+      -0.0000   -0.0006   -0.0000   -0.0000    0.0000   -0.0000    0.0004   -0.0008    0.0000    0.0000
      110 NB     6f3+      -0.0000    0.0008   -0.0000   -0.0000    0.0000   -0.0000   -0.0000    0.0035    0.0000    0.0000
      111 NB     7f3+      -0.0000    0.0001   -0.0000   -0.0000    0.0000   -0.0000    0.0002    0.0010    0.0000    0.0000
      112 NB     8f3+      -0.0000   -0.0008    0.0000    0.0000   -0.0000    0.0000   -0.0000   -0.0030   -0.0000   -0.0000
      113 NB     5g4-       0.0010   -0.0000   -0.0000   -0.0000   -0.0000    0.0003   -0.0000    0.0000   -0.0000    0.0002
      114 NB     6g4-      -0.0004    0.0000   -0.0000   -0.0000    0.0000   -0.0001    0.0000    0.0000    0.0000   -0.0000
      115 NB     7g4-       0.0005   -0.0000    0.0000    0.0000   -0.0000    0.0001   -0.0000    0.0000   -0.0000    0.0000
      116 NB     8g4-      -0.0003    0.0000   -0.0000   -0.0000    0.0000   -0.0001    0.0000    0.0000    0.0000   -0.0000
      117 NB     5g3-       0.0000   -0.0000   -0.0000   -0.0000   -0.0000    0.0000   -0.0000   -0.0000   -0.0000    0.0000
      118 NB     6g3-      -0.0000    0.0000   -0.0000   -0.0000   -0.0000    0.0000    0.0000    0.0000   -0.0000    0.0000
      119 NB     7g3-       0.0000    0.0000   -0.0000   -0.0000   -0.0000    0.0000   -0.0000   -0.0000   -0.0000    0.0000
      120 NB     8g3-      -0.0000    0.0000   -0.0000   -0.0000   -0.0000    0.0000   -0.0000   -0.0000    0.0000    0.0000
      121 NB     5g2-       0.0001    0.0000   -0.0000   -0.0005    0.0000   -0.0003    0.0000    0.0000   -0.0000    0.0009
      122 NB     6g2-       0.0000   -0.0000   -0.0000   -0.0003    0.0000   -0.0000   -0.0000    0.0000   -0.0000    0.0006
      123 NB     7g2-       0.0000    0.0000   -0.0000   -0.0002    0.0000   -0.0001    0.0000    0.0000   -0.0000    0.0004
      124 NB     8g2-       0.0001   -0.0000   -0.0000   -0.0001   -0.0000    0.0000   -0.0000    0.0000   -0.0000    0.0001
      125 NB     5g1-       0.0014   -0.0000    0.0000    0.0005    0.0000   -0.0005    0.0000    0.0000    0.0000   -0.0011
      126 NB     6g1-      -0.0005    0.0000    0.0000    0.0001    0.0000   -0.0005    0.0000    0.0000    0.0000   -0.0002
      127 NB     7g1-       0.0006   -0.0000    0.0000    0.0002    0.0000   -0.0003    0.0000   -0.0000    0.0000   -0.0003
      128 NB     8g1-      -0.0004    0.0000   -0.0000   -0.0000    0.0000   -0.0001    0.0000    0.0000   -0.0000    0.0000
      129 NB     5g0        0.0000    0.0019    0.0000   -0.0000   -0.0000   -0.0000   -0.0011    0.0000   -0.0000   -0.0000
      130 NB     6g0       -0.0000   -0.0009    0.0000   -0.0000   -0.0000   -0.0000   -0.0003    0.0001   -0.0000    0.0000
      131 NB     7g0       -0.0000    0.0009    0.0000   -0.0000   -0.0000   -0.0000   -0.0005   -0.0001   -0.0000   -0.0000
      132 NB     8g0       -0.0000   -0.0006    0.0000   -0.0000   -0.0000   -0.0000   -0.0000    0.0001   -0.0000   -0.0000
      133 NB     5g1+       0.0000    0.0000   -0.0005    0.0000   -0.0005   -0.0000    0.0000    0.0000    0.0011    0.0000
      134 NB     6g1+      -0.0000   -0.0000   -0.0001    0.0000   -0.0005   -0.0000    0.0000   -0.0000    0.0002    0.0000
      135 NB     7g1+       0.0000    0.0000   -0.0002    0.0000   -0.0003   -0.0000    0.0000    0.0000    0.0003    0.0000
      136 NB     8g1+      -0.0000   -0.0000    0.0000   -0.0000   -0.0001   -0.0000    0.0000   -0.0000   -0.0000   -0.0000
      137 NB     5g2+      -0.0000    0.0000   -0.0005    0.0000    0.0003    0.0000    0.0000   -0.0000    0.0009    0.0000
      138 NB     6g2+      -0.0000   -0.0000   -0.0003    0.0000    0.0000    0.0000    0.0000   -0.0000    0.0006    0.0000
      139 NB     7g2+      -0.0000    0.0000   -0.0002    0.0000    0.0001    0.0000    0.0000    0.0000    0.0004    0.0000
      140 NB     8g2+      -0.0000   -0.0000   -0.0001    0.0000   -0.0000   -0.0000    0.0000   -0.0000    0.0001    0.0000
      141 NB     5g3+       0.0000    0.0011    0.0000   -0.0000    0.0000    0.0000   -0.0002    0.0012   -0.0000   -0.0000
      142 NB     6g3+      -0.0000   -0.0005    0.0000   -0.0000    0.0000    0.0000    0.0001   -0.0010   -0.0000   -0.0000
      143 NB     7g3+       0.0000    0.0005    0.0000   -0.0000    0.0000    0.0000   -0.0001    0.0008   -0.0000   -0.0000
      144 NB     8g3+      -0.0000   -0.0004    0.0000   -0.0000    0.0000    0.0000    0.0000   -0.0008   -0.0000   -0.0000
      145 NB     5g4+       0.0000   -0.0000    0.0000   -0.0000    0.0003    0.0000   -0.0000   -0.0000   -0.0002   -0.0000
      146 NB     6g4+      -0.0000    0.0000    0.0000   -0.0000   -0.0001   -0.0000    0.0000    0.0000    0.0000    0.0000
      147 NB     7g4+       0.0000   -0.0000   -0.0000    0.0000    0.0001    0.0000   -0.0000   -0.0000   -0.0000   -0.0000
      148 NB     8g4+      -0.0000    0.0000    0.0000   -0.0000   -0.0001   -0.0000    0.0000    0.0000    0.0000    0.0000
      149 NB     6h5-      -0.0000   -0.0000   -0.0000   -0.0003    0.0000   -0.0001   -0.0000   -0.0000   -0.0000    0.0007
      150 NB     7h5-       0.0000    0.0000    0.0000    0.0001   -0.0000    0.0000    0.0000    0.0000    0.0000   -0.0003
      151 NB     6h4-      -0.0003    0.0000    0.0000    0.0001    0.0000   -0.0003    0.0000    0.0000    0.0000   -0.0002
      152 NB     7h4-       0.0003   -0.0000   -0.0000   -0.0000   -0.0000    0.0001   -0.0000   -0.0000   -0.0000    0.0001
      153 NB     6h3-      -0.0000   -0.0000    0.0000    0.0000   -0.0000   -0.0000    0.0000   -0.0000    0.0000   -0.0000
      154 NB     7h3-       0.0000    0.0000   -0.0000   -0.0000   -0.0000    0.0000    0.0000    0.0000   -0.0000    0.0000
      155 NB     6h2-      -0.0001    0.0000   -0.0000   -0.0003    0.0000   -0.0001    0.0000    0.0000   -0.0000    0.0006
      156 NB     7h2-       0.0001   -0.0000    0.0000    0.0001   -0.0000    0.0001   -0.0000   -0.0000    0.0000   -0.0002
      157 NB     6h1-       0.0000    0.0000    0.0000    0.0001    0.0000   -0.0004    0.0000   -0.0000    0.0000   -0.0004
      158 NB     7h1-       0.0000    0.0000   -0.0000   -0.0000   -0.0000    0.0002   -0.0000    0.0000   -0.0000    0.0001
      159 NB     6h0        0.0000    0.0001    0.0000   -0.0000   -0.0000   -0.0000   -0.0005   -0.0000   -0.0000   -0.0000
      160 NB     7h0       -0.0000   -0.0001   -0.0000    0.0000    0.0000    0.0000    0.0002    0.0001    0.0000    0.0000
      161 NB     6h1+       0.0000   -0.0000   -0.0001    0.0000   -0.0004   -0.0000    0.0000   -0.0000    0.0004    0.0000
      162 NB     7h1+       0.0000    0.0000    0.0000   -0.0000    0.0002    0.0000   -0.0000    0.0000   -0.0001   -0.0000
      163 NB     6h2+       0.0000    0.0000   -0.0003    0.0000    0.0001    0.0000   -0.0000    0.0000    0.0006    0.0000
      164 NB     7h2+      -0.0000   -0.0000    0.0001   -0.0000   -0.0001   -0.0000    0.0000   -0.0000   -0.0002   -0.0000
      165 NB     6h3+      -0.0000   -0.0004    0.0000   -0.0000   -0.0000   -0.0000   -0.0001   -0.0002   -0.0000    0.0000
      166 NB     7h3+       0.0000    0.0003   -0.0000    0.0000    0.0000    0.0000    0.0000    0.0002    0.0000    0.0000
      167 NB     6h4+      -0.0000    0.0000   -0.0001    0.0000   -0.0003   -0.0000    0.0000    0.0000    0.0002    0.0000
      168 NB     7h4+       0.0000   -0.0000    0.0000   -0.0000    0.0001    0.0000   -0.0000   -0.0000   -0.0001   -0.0000
      169 NB     6h5+       0.0000    0.0000   -0.0003    0.0000    0.0001    0.0000   -0.0000    0.0000    0.0007    0.0000
      170 NB     7h5+      -0.0000   -0.0000    0.0001   -0.0000   -0.0000   -0.0000    0.0000   -0.0000   -0.0003   -0.0000

[...]
         1   15       1.96088494E-03  5.47457058E+05  2.48511326E+02  3.06898243E-12  5.47705569E+05
         2    4       4.00759627E-01  6.83484568E+01  4.71113404E+07  5.29567015E-13  4.71114088E+07
         2    6       4.00759627E-01  4.71113404E+07  6.83484605E+01  3.06575063E-11  4.71114088E+07
         2    8       4.18679336E-01  3.75287564E-11  5.20361109E-13  5.45138598E+07  5.45138598E+07
         2   10       1.25869461E-05  1.59572008E+03  1.85884312E+03  4.35122621E-12  3.45456320E+03
         2   12       1.25869459E-05  1.85884302E+03  1.59572014E+03  3.81370712E-12  3.45456315E+03
         2   14       1.96088495E-03  2.48511296E+02  5.47457062E+05  1.81517214E-13  5.47705574E+05
         2   16       1.96088494E-03  5.47457058E+05  2.48511326E+02  3.06898243E-12  5.47705569E+05
         3    7       2.93915233E-04  1.37772765E-04  9.49641953E+01  1.17497846E-17  9.49643331E+01
         3    9       1.51257422E-01  2.55076314E+06  2.17914144E+06  2.26653190E+05  4.95655777E+06
         3   11       1.50307108E-01  2.17914148E+06  2.55076310E+06  1.95512325E+05  4.92541690E+06
         3   13       1.61558668E-01  4.63532532E+05  1.87286786E+02  5.10393274E+06  5.56765256E+06
         3   15       1.35309817E-02  1.87286857E+02  4.63532526E+05  2.58636376E+03  4.66306177E+05
         3   17       5.60229458E-02  2.83905710E+00  1.95691023E+06  6.63276604E-14  1.95691307E+06
         4    8       2.93915233E-04  1.37772765E-04  9.49641953E+01  1.17497846E-17  9.49643331E+01
         4   10       1.51257422E-01  2.55076314E+06  2.17914144E+06  2.26653190E+05  4.95655777E+06
         4   12       1.50307108E-01  2.17914148E+06  2.55076310E+06  1.95512325E+05  4.92541690E+06
         4   14       1.61558668E-01  4.63532532E+05  1.87286786E+02  5.10393274E+06  5.56765256E+06
         4   16       1.35309817E-02  1.87286857E+02  4.63532526E+05  2.58636376E+03  4.66306177E+05
         4   18       5.60229458E-02  2.83905710E+00  1.95691023E+06  6.63276604E-14  1.95691307E+06
         5    7       2.93915231E-04  9.49641944E+01  1.37772722E-04  4.22690381E-16  9.49643321E+01
         5    9       1.50307110E-01  2.17914149E+06  2.55076313E+06  1.95512333E+05  4.92541696E+06
         5   11       1.51257424E-01  2.55076315E+06  2.17914147E+06  2.26653202E+05  4.95655783E+06
         5   13       1.35309819E-02  1.87286814E+02  4.63532534E+05  2.58636381E+03  4.66306185E+05
         5   15       1.61558669E-01  4.63532577E+05  1.87286853E+02  5.10393271E+06  5.56765258E+06
         5   17       5.60229411E-02  1.95691007E+06  2.83905738E+00  6.06378108E-10  1.95691291E+06
         6    8       2.93915231E-04  9.49641944E+01  1.37772722E-04  4.22690381E-16  9.49643321E+01
         6   10       1.50307110E-01  2.17914149E+06  2.55076313E+06  1.95512333E+05  4.92541696E+06
         6   12       1.51257424E-01  2.55076315E+06  2.17914147E+06  2.26653202E+05  4.95655783E+06
         6   14       1.35309819E-02  1.87286814E+02  4.63532534E+05  2.58636381E+03  4.66306185E+05
         6   16       1.61558669E-01  4.63532577E+05  1.87286853E+02  5.10393271E+06  5.56765258E+06
         6   18       5.60229411E-02  1.95691007E+06  2.83905738E+00  6.06378108E-10  1.95691291E+06
         7    9       1.19879943E-02  1.47209729E+05  1.71483566E+05  1.58865227E-10  3.18693294E+05
         7   11       1.19879944E-02  1.71483573E+05  1.47209725E+05  1.89017548E-10  3.18693297E+05
         7   13       1.35322067E-01  1.72604048E+03  3.80237453E+06  7.97321456E-13  3.80410057E+06
         7   15       1.35322067E-01  3.80237452E+06  1.72604043E+03  1.01009273E-09  3.80410056E+06
         7   17       1.95329891E-01  4.90578944E-10  1.72434921E-14  5.57368091E+06  5.57368091E+06
         8   10       1.19879943E-02  1.47209729E+05  1.71483566E+05  1.58865227E-10  3.18693294E+05
         8   12       1.19879944E-02  1.71483573E+05  1.47209725E+05  1.89017548E-10  3.18693297E+05
         8   14       1.35322067E-01  1.72604048E+03  3.80237453E+06  7.97321456E-13  3.80410057E+06
         8   16       1.35322067E-01  3.80237452E+06  1.72604043E+03  1.01009273E-09  3.80410056E+06
         8   18       1.95329891E-01  4.90578944E-10  1.72434921E-14  5.57368091E+06  5.57368091E+06
     -----------------------------------------------------------------------------------------------
--

++ Velocity transition strengths (SO states):
   ------------------------------------------
    for osc. strength at least    1.0000000000000001E-005

      From   To        Osc. strength     Einstein coefficients Ax, Ay, Az (sec-1)    Total A (sec-1)
     -----------------------------------------------------------------------------------------------
         1    3       3.17745957E-01  5.41908933E+01  3.73527895E+07  3.70125237E-13  3.73528437E+07
         1    5       3.17745956E-01  3.73527894E+07  5.41908914E+01  2.50045281E-11  3.73528436E+07
         1    7       3.28142339E-01  2.88566346E-11  4.75046556E-13  4.27256999E+07  4.27256999E+07
         1   13       2.29020852E-03  2.90248883E+02  6.39402727E+05  6.05021273E-14  6.39692976E+05
         1   15       2.29020850E-03  6.39402722E+05  2.90248903E+02  4.31473163E-13  6.39692971E+05
         1   17       3.71243999E-05  1.18273599E-10  7.03757117E-15  1.04188595E+04  1.04188595E+04
         2    4       3.17745957E-01  5.41908933E+01  3.73527895E+07  3.70125237E-13  3.73528437E+07
         2    6       3.17745956E-01  3.73527894E+07  5.41908914E+01  2.50045281E-11  3.73528436E+07
         2    8       3.28142339E-01  2.88566346E-11  4.75046556E-13  4.27256999E+07  4.27256999E+07
         2   14       2.29020852E-03  2.90248883E+02  6.39402727E+05  6.05021273E-14  6.39692976E+05
         2   16       2.29020850E-03  6.39402722E+05  2.90248903E+02  4.31473163E-13  6.39692971E+05
         2   18       3.71243999E-05  1.18273599E-10  7.03757117E-15  1.04188595E+04  1.04188595E+04
         3    7       5.16333798E-03  2.42031470E-03  1.66828352E+03  2.48192897E-15  1.66828594E+03
         3    9       4.08531514E-01  6.88704823E+06  5.88367144E+06  6.16504947E+05  1.33872246E+07
         3   11       4.05946633E-01  5.88367153E+06  6.88704812E+06  5.31800658E+05  1.33025203E+07
         3   13       4.28498599E-01  1.22172112E+06  4.93627104E+02  1.35448024E+07  1.47670171E+07
         3   15       3.56645065E-02  4.93627289E+02  1.22172110E+06  6.86368489E+03  1.22907841E+06
         3   17       1.48516206E-01  7.52633511E+00  5.18776530E+06  1.58951678E-13  5.18777283E+06
         4    8       5.16333798E-03  2.42031470E-03  1.66828352E+03  2.48192897E-15  1.66828594E+03
         4   10       4.08531514E-01  6.88704823E+06  5.88367144E+06  6.16504947E+05  1.33872246E+07
         4   12       4.05946633E-01  5.88367153E+06  6.88704812E+06  5.31800658E+05  1.33025203E+07
         4   14       4.28498599E-01  1.22172112E+06  4.93627104E+02  1.35448024E+07  1.47670171E+07
         4   16       3.56645065E-02  4.93627289E+02  1.22172110E+06  6.86368489E+03  1.22907841E+06
         4   18       1.48516206E-01  7.52633511E+00  5.18776530E+06  1.58951678E-13  5.18777283E+06
         5    7       5.16333801E-03  1.66828353E+03  2.42032257E-03  6.02863284E-15  1.66828595E+03
         5    9       4.05946639E-01  5.88367158E+06  6.88704823E+06  5.31800679E+05  1.33025205E+07
         5   11       4.08531519E-01  6.88704828E+06  5.88367153E+06  6.16504979E+05  1.33872248E+07
         5   13       3.56645072E-02  4.93627181E+02  1.22172112E+06  6.86368503E+03  1.22907844E+06
         5   15       4.28498601E-01  1.22172124E+06  4.93627280E+02  1.35448023E+07  1.47670172E+07
         5   17       1.48516194E-01  5.18776488E+06  7.52633572E+00  1.58899431E-09  5.18777240E+06
         6    8       5.16333801E-03  1.66828353E+03  2.42032257E-03  6.02863284E-15  1.66828595E+03
         6   10       4.05946639E-01  5.88367158E+06  6.88704823E+06  5.31800679E+05  1.33025205E+07
         6   12       4.08531519E-01  6.88704828E+06  5.88367153E+06  6.16504979E+05  1.33872248E+07
         6   14       3.56645072E-02  4.93627181E+02  1.22172112E+06  6.86368503E+03  1.22907844E+06
         6   16       4.28498601E-01  1.22172124E+06  4.93627280E+02  1.35448023E+07  1.47670172E+07
         6   18       1.48516194E-01  5.18776488E+06  7.52633572E+00  1.58899431E-09  5.18777240E+06
         7    9       3.63988499E-02  4.46970804E+05  5.20673110E+05  4.82927382E-10  9.67643915E+05
         7   11       3.63988503E-02  5.20673132E+05  4.46970793E+05  5.64296880E-10  9.67643925E+05
         7   13       4.06922568E-01  5.19033799E+03  1.14340360E+07  2.31615507E-12  1.14392263E+07
         7   15       4.06922567E-01  1.14340360E+07  5.19033784E+03  2.99824725E-09  1.14392263E+07
         7   17       5.80302271E-01  1.47219747E-09  5.31311479E-14  1.65588120E+07  1.65588120E+07
         8   10       3.63988499E-02  4.46970804E+05  5.20673110E+05  4.82927382E-10  9.67643915E+05
         8   12       3.63988503E-02  5.20673132E+05  4.46970793E+05  5.64296880E-10  9.67643925E+05
         8   14       4.06922568E-01  5.19033799E+03  1.14340360E+07  2.31615507E-12  1.14392263E+07
         8   16       4.06922567E-01  1.14340360E+07  5.19033784E+03  2.99824725E-09  1.14392263E+07
         8   18       5.80302271E-01  1.47219747E-09  5.31311479E-14  1.65588120E+07  1.65588120E+07
         9   13       2.01154278E-03  4.86961758E-02  4.55275400E-02  4.27959985E+01  4.28902222E+01
         9   15       1.58603899E-03  4.55274050E-02  4.86961741E-02  3.37233842E+01  3.38176078E+01
         9   17       5.09527949E-03  8.12372313E+01  9.46326737E+01  9.56819674E-16  1.75869905E+02
        10   14       2.01154278E-03  4.86961758E-02  4.55275400E-02  4.27959985E+01  4.28902222E+01
        10   16       1.58603899E-03  4.55274050E-02  4.86961741E-02  3.37233842E+01  3.38176078E+01
        10   18       5.09527949E-03  8.12372313E+01  9.46326737E+01  9.56819674E-16  1.75869905E+02
        11   13       1.58603901E-03  4.55275123E-02  4.86962023E-02  3.37233844E+01  3.38176081E+01
        11   15       2.01154277E-03  4.86960266E-02  4.55275356E-02  4.27959984E+01  4.28902220E+01
        11   17       5.09527952E-03  9.46326763E+01  8.12372295E+01  2.21696807E-15  1.75869906E+02
        12   14       1.58603901E-03  4.55275123E-02  4.86962023E-02  3.37233844E+01  3.38176081E+01
        12   16       2.01154277E-03  4.86960266E-02  4.55275356E-02  4.27959984E+01  4.28902220E+01
        12   18       5.09527952E-03  9.46326763E+01  8.12372295E+01  2.21696807E-15  1.75869906E+02
        13   17       8.05123361E-02  5.77640806E-02  1.27251168E+02  1.23915548E-17  1.27308932E+02
        14   18       8.05123361E-02  5.77640806E-02  1.27251168E+02  1.23915548E-17  1.27308932E+02
        15   17       8.05123361E-02  1.27251168E+02  5.77640731E-02  4.56407150E-16  1.27308932E+02
        16   18       8.05123361E-02  1.27251168E+02  5.77640731E-02  4.56407150E-16  1.27308932E+02
     -----------------------------------------------------------------------------------------------
--

++ Length and velocity gauge comparison (SO states):

 --------------------------------------------------
 A comparison between the dipole oscillator strengths in 
 length and velocity gauge will be performed

 All dipole oscillator differences above the tolerance of   0.10000000000000001       will be printed 

 Due to basis set deficiency these oscillator may be problematic 

 The tolerance is defined as ABS(1-O_l/O_v) 
 O_l : dipole oscillator strength in length gauge
 O_p : dipole oscillator strength in velocity gauge
 --------------------------------------------------

  Problematic transitions have been found

      From   To       Difference (%) Osc. st. (len.) Osc. st. (vel.)
     ---------------------------------------------------------------
         1    3            26.125799  4.00759627E-01  3.17745957E-01
         1    5            26.125799  4.00759627E-01  3.17745956E-01
         1    7            27.590770  4.18679336E-01  3.28142339E-01
         1    9      ---------------  1.25869461E-05 below threshold
         1   11      ---------------  1.25869459E-05 below threshold
         1   13            14.379632  1.96088495E-03  2.29020852E-03
         1   15            14.379632  1.96088494E-03  2.29020850E-03
         1   17      --------------- below threshold  3.71243999E-05
         2    4            26.125799  4.00759627E-01  3.17745957E-01
         2    6            26.125799  4.00759627E-01  3.17745956E-01
         2    8            27.590770  4.18679336E-01  3.28142339E-01
         2   10      ---------------  1.25869461E-05 below threshold
         2   12      ---------------  1.25869459E-05 below threshold
         2   14            14.379632  1.96088495E-03  2.29020852E-03
         2   16            14.379632  1.96088494E-03  2.29020850E-03
         2   18      --------------- below threshold  3.71243999E-05
         3    7            94.307651  2.93915233E-04  5.16333798E-03
         3    9            62.975335  1.51257422E-01  4.08531514E-01
         3   11            62.973678  1.50307108E-01  4.05946633E-01
         3   13            62.296570  1.61558668E-01  4.28498599E-01
         3   15            62.060370  1.35309817E-02  3.56645065E-02
         3   17            62.278227  5.60229458E-02  1.48516206E-01
         4    8            94.307651  2.93915233E-04  5.16333798E-03
         4   10            62.975335  1.51257422E-01  4.08531514E-01
         4   12            62.973678  1.50307108E-01  4.05946633E-01
         4   14            62.296570  1.61558668E-01  4.28498599E-01
         4   16            62.060370  1.35309817E-02  3.56645065E-02
         4   18            62.278227  5.60229458E-02  1.48516206E-01
         5    7            94.307651  2.93915231E-04  5.16333801E-03
         5    9            62.973678  1.50307110E-01  4.05946639E-01
         5   11            62.975336  1.51257424E-01  4.08531519E-01
         5   13            62.060370  1.35309819E-02  3.56645072E-02
         5   15            62.296570  1.61558669E-01  4.28498601E-01
         5   17            62.278227  5.60229411E-02  1.48516194E-01
         6    8            94.307651  2.93915231E-04  5.16333801E-03
         6   10            62.973678  1.50307110E-01  4.05946639E-01
         6   12            62.975336  1.51257424E-01  4.08531519E-01
         6   14            62.060370  1.35309819E-02  3.56645072E-02
         6   16            62.296570  1.61558669E-01  4.28498601E-01
         6   18            62.278227  5.60229411E-02  1.48516194E-01
         7    9            67.064909  1.19879943E-02  3.63988499E-02
         7   11            67.064909  1.19879944E-02  3.63988503E-02
         7   13            66.745008  1.35322067E-01  4.06922568E-01
         7   15            66.745008  1.35322067E-01  4.06922567E-01
         7   17            66.339975  1.95329891E-01  5.80302271E-01
         8   10            67.064909  1.19879943E-02  3.63988499E-02
         8   12            67.064909  1.19879944E-02  3.63988503E-02
         8   14            66.745008  1.35322067E-01  4.06922568E-01
         8   16            66.745008  1.35322067E-01  4.06922567E-01
         8   18            66.339975  1.95329891E-01  5.80302271E-01
         9   13      --------------- below threshold  2.01154278E-03
         9   15      --------------- below threshold  1.58603899E-03
         9   17      --------------- below threshold  5.09527949E-03
        10   14      --------------- below threshold  2.01154278E-03
        10   16      --------------- below threshold  1.58603899E-03
        10   18      --------------- below threshold  5.09527949E-03
        11   13      --------------- below threshold  1.58603901E-03
        11   15      --------------- below threshold  2.01154277E-03
        11   17      --------------- below threshold  5.09527952E-03
        12   14      --------------- below threshold  1.58603901E-03
        12   16      --------------- below threshold  2.01154277E-03
        12   18      --------------- below threshold  5.09527952E-03
        13   17      --------------- below threshold  8.05123361E-02
        14   18      --------------- below threshold  8.05123361E-02
        15   17      --------------- below threshold  8.05123361E-02
        16   18      --------------- below threshold  8.05123361E-02
     ---------------------------------------------------------------

 Number of problematic transitions =                    66

--

 Electric-dipole - electric-octupole not included
++ I/O STATISTICS
 
  I. General I/O information
  - - - - - - - - - - - - - - - - - - - - - - - - - - - - - - - - - - - - - - - - - - -
  Unit  Name          Flsize      Write/Read            MBytes           Write/Read
                      (MBytes)       Calls              In/Out           Time, sec.
  - - - - - - - - - - - - - - - - - - - - - - - - - - - - - - - - - - - - - - - - - - -
   1  SCRATCH           0.00 .       9/      45 .      0.0/      0.0 .       0/       0
   2  ANNI              0.00 .       0/       0 .      0.0/      0.0 .       0/       0
   3  RUNFILE          14.67 .     322/    9923 .      2.3/     72.0 .       0/       0
   4  ONEINT            5.14 .       0/   22237 .      0.0/   3722.5 .       0/       0
   5  JOBIPH            5.92 .       0/      92 .      0.0/      0.7 .       0/       0
   6  ORDINT          403.03 .       1/    3225 .      0.0/    806.0 .       0/       0
  - - - - - - - - - - - - - - - - - - - - - - - - - - - - - - - - - - - - - - - - - - -
   *  TOTAL           428.76 .     332/   35522 .      2.3/   4601.2 .       0/       0
  - - - - - - - - - - - - - - - - - - - - - - - - - - - - - - - - - - - - - - - - - - -
 
  II. I/O Access Patterns
  - - - - - - - - - - - - - - - - - - - -
  Unit  Name               % of random
                         Write/Read calls
  - - - - - - - - - - - - - - - - - - - -
   1  SCRATCH             88.9/ 100.0
   2  ANNI                 0.0/   0.0
   3  RUNFILE             28.6/  10.8
   4  ONEINT               0.0/  17.4
   5  JOBIPH               0.0/  76.1
   6  ORDINT             100.0/   0.1
  - - - - - - - - - - - - - - - - - - - -
--
--- Stop Module: rassi at Thu Jan  9 20:11:04 2025 /rc=_RC_ALL_IS_WELL_ ---
*** files: xmldump
    saved to directory /home4/s4752295/Internship/Initial_simulations/Point_charge_model/1_electron/active_space_9_non_rel/Nb/varying_bond_length
--- Module rassi spent 4 seconds ---

.##################.
.# Happy landing! #.
.##################.

    Timing: Wall=47.15 User=35.60 System=6.87

###############################################################################
Hbrk Cluster
Job 14548074 for user s4752295
Finished at: Thu Jan  9 20:11:04 CET 2025

Job details:
============

Job ID                         : 14548074
Name                           : Nb_no_c_light
User                           : s4752295
Partition                      : regularmedium
Nodes                          : node101
Number of Nodes                : 1
Cores                          : 1
Number of Tasks                : 1
State                          : COMPLETED  
Submit                         : 2025-01-09T20:10:09
Start                          : 2025-01-09T20:10:10
End                            : 2025-01-09T20:11:04
Reserved walltime              : 15:00:00
Used walltime                  : 00:00:54
Used CPU time                  : 00:00:43 (Efficiency: 80.21%)
% User (Computation)           : 83.69%
% System (I/O)                 : 16.31%
Total memory reserved          : 25000M
Maximum memory used            : 376.48M

Acknowledgements:
=================

Please see this page for information about acknowledging Hbrk in your publications:

https://wiki.hpc.rug.nl/habrok/introduction/scientific_output

################################################################################
