   This run of MOLCAS is using the pymolcas driver

                             OPE
                             OPE          NMOL  CASOP  ENMOLC A   SO
                 OPE        NMOLC        AS  OP EN  MO LC     AS  OP
                OPENM       OL CA        SO  PE NM  OL CA     SOP EN
                OP EN      MO   LC       AS  OP ENMOL  CASO   PENMOL
                OP  EN     MO   LC       AS  OP EN     MO     LC ASO
               OP   E  NMOL  C  AS       OP  EN MO     LC     AS  OP
               OP  E   NMO   LC AS        OPEN  MO     LCASOP EN   M
               O  PEN   MO  LCA  SO
            OPE   NMO   L   CAS    OP
        OPENMOL  CASOP     ENMOL   CASOPE
     OPENMOLCA   SOPENMOLCASOPEN   MOLCASOPE
    OPENMOLCAS   OP           EN   MOL    CAS
    OPENMOLCAS       OP  ENM        O     LCA
    OPENMOLCAS    OPEN  MOLCASO     P  E  NMO
    OPENMOLCAS     OP               E  N  MOL
    OPENMOLCA   SO           PENM   O  L  CAS    OPEN    MO    LCAS
    OPENMOLCA   SOP           ENM   O  L  CAS   OP  EN  MOLC  AS   O
    OPENMOLCA   SOPE           NM      O  LCA   S      OP  EN MO
    OPENMOLC                AS         O  PEN   M      OL  CA  SOPE
    OPENMO        LCASOPE  NMOL        C  ASO   P      ENMOLC     AS
    OPE     NMO      LCA  SO     P     E   NM   OL  CA SO  PE N   MO
          OPENMOLCA            SOPE   NMO        LCAS  O    P  ENMO
     OPENMOLCASOPENMOLCASOPENMOLCASOPENMOLCA
        OPENMOLCASOPENMOLCASOPENMOLCASOPE
            OPENMOLCASOPENMOLCASOPENM
               OPENMOLCASOPENMOLCA        version: o91e1abe7de707b ?
                   OPENMOLCASO
                       OPE                tag:

 OpenMolcas is free software; you can redistribute it and/or modify it
 under the terms of the GNU Lesser General Public License version 2.1.
 OpenMolcas is distributed in the hope that it will be useful, but it
 is provided "as is" and without any express or implied warranties.
 For more details see the full text of the license in the file
 LICENSE or in <http://www.gnu.org/licenses/>.

                 Copyright (C) The OpenMolcas Authors
           For the author list and the recommended citation,
                   consult the file CONTRIBUTORS.md

           *************************************************
           * pymolcas version py2.10                       *
           *   build 3068ae8b88c9345ec6cfef6fef7f1169      *
           *   (after the EMIL interpreter by V. Veryazov) *
           *************************************************

configuration info
------------------
Host name: login1 (Linux)
C Compiler ID: GNU
C flags: -std=gnu99
Fortran Compiler ID: GNU
Fortran flags: -fno-aggressive-loop-optimizations -cpp -fdefault-integer-8 -fmax-stack-var-size=1048576
Definitions: _MOLCAS_;_I8_;_LINUX_;_MKL_
Parallel: OFF (GA=OFF)


   ----------------------------------------------------------------------------------------------------------------------------------------------
  |
  |           Project: rhenium_so_cf
  |    Submitted from: /home4/s4752295/Internship/Initial_simulations/Point_charge_model/1_electron/active_space_9_non_rel/Re/varying_bond_length
  |      Scratch area: /tmp/rhenium_so_cf
  |   Save outputs to: /home4/s4752295/Internship/Initial_simulations/Point_charge_model/1_electron/active_space_9_non_rel/Re/varying_bond_length
  |            Molcas: /home4/s4752295/Internship/Molcas/recomp_try/OpenMolcas-master/build
  |
  | Scratch area is empty
  |
  |    MOLCAS_DRIVER = /home4/s4752295/Internship/Molcas/bin/pymolcas
  |    MOLCAS_NPROCS = 1
  |    MOLCAS_SOURCE = /home4/s4752295/Internship/Molcas/recomp_try/OpenMolcas-master
  | MOLCAS_STRUCTURE = 0
  |
   ----------------------------------------------------------------------------------------------------------------------------------------------

++ ---------   Input file   ---------

&SEWARD
AMFi

CLIG
$R

Basis Set
Re.ano-rcc.Roos.24s21p15d11f4g2h.11s10p9d8f4g2h.
Spherical d
Re            0.0       0.0     0.0
End of Basis

Xfield

4
0.000000,  0.0000,  0.378       -1.0
0.327358,  0.0000, -0.189       -1.0
-0.163679,  0.2835, -0.189      -1.0
-0.163679, -0.2835, -0.189      -1.0

End of input

&SCF
Occupied
34
Iterations
   50  100
End of Input

&RASSCF
LumOrb
Symmetry
1
Spin
2
Nactel
1 0 0
CIRoot
9 9 1
inactive
34
ras2
9
End of Input

>>> COPY rhenium_so_cf.JobIph $SLURM_SUBMIT_DIR/rhenium_so_cf.doublet.JobIph

>>> COPY $SLURM_SUBMIT_DIR/rhenium_so_cf.doublet.JobIph ./JOB002

&RASSI
NROFJobIph
1 All
SpinOrbit
End of Input

EOF

-- ----------------------------------

--- Start Module: seward at Thu Jan  9 20:21:48 2025 ---

()()()()()()()()()()()()()()()()()()()()()()()()()()()()()()()()()()()()()()()()()()()()()()()()()()

                                              &SEWARD

                                   only a single process is used
                       available to each process: 4.1 GB of memory, 1 thread?
                                            pid: 520674
()()()()()()()()()()()()()()()()()()()()()()()()()()()()()()()()()()()()()()()()()()()()()()()()()()

 The speed of LIGHT in this CALCULATION =   137.03599917700001     
               SEWARD will generate:
                  Multipole Moment integrals up to order  2
                  Kinetic Energy integrals
                  Nuclear Attraction integrals (point charge)
                  One-Electron Hamiltonian integrals
                  Velocity integrals
                  Relativistic Douglas-Kroll-Hess integrals:
                    - Parametrization         : EXP
                    - DKH order of Hamiltonian: 2
                    - DKH order of Properties : 0
                         - multipole moment operators
                         - electric potential operators
                         - contact operators
                  External field from     4 point(s) added to the one-electron Hamiltonian
                  Orbital angular momentum around ( 0.0000  0.0000  0.0000 )
                  Velocity quadrupole around ( 0.0000  0.0000  0.0000 )
                  Atomic mean-field integrals
                  Two-Electron Repulsion integrals

                   Integrals are discarded if absolute value <: 0.10E-13
                   Integral cutoff threshold is set to       <: 0.10E-15

++    Symmetry information:
      ---------------------

                    Character Table for C1 

                             E  
                    a        1  x, y, xy, Rz, z, xz, Ry, yz, Rx, I
--


++    Basis set information:
      ----------------------


      Basis set label: RE.ANO-RCC.ROOS.24S21P15D11F4G2H.11S10P9D8F4G2H......

      Electronic valence basis set:
      ------------------
      Associated Effective Charge  75.000000 au
      Associated Actual Charge     75.000000 au
      Nuclear Model: Point charge

      Shell  nPrim  nBasis  Cartesian Spherical Contaminant
         s      24      11        X                  
         p      21      10        X                  
         d      15       9                 X         
         f      11       8                 X         
         g       4       4                 X         
         h       2       2                 X         
--


++    Molecular structure info:
      -------------------------

                    ************************************************ 
                    **** Cartesian Coordinates / Bohr, Angstrom **** 
                    ************************************************ 

     Center  Label                x              y              z                     x              y              z
        1      RE               0.000000       0.000000       0.000000              0.000000       0.000000       0.000000
--


++    Operator info:
      --------------


  Net charge from external field:   -4.0000000000000000     
--


            Nuclear Potential Energy              0.00000000 au

                    Nuclear-External Field Potential Energy    -793.65052270 au
                    External Field Potential Energy               9.87314638 au 


            Total Nuclear Potential Energy           -793.65052270 au


      Basis set specifications :
      Symmetry species         a  
      Basis functions          200

 Sorry, Molden does not know how to handle
 functions with angular momentum larger than g
Note: The following floating-point exceptions are signalling: IEEE_UNDERFLOW_FLAG IEEE_DENORMAL
--- Stop Module: seward at Thu Jan  9 20:22:08 2025 /rc=_RC_ALL_IS_WELL_ ---
*** files: rhenium_so_cf.GssOrb xmldump
    saved to directory /home4/s4752295/Internship/Initial_simulations/Point_charge_model/1_electron/active_space_9_non_rel/Re/varying_bond_length
--- Module seward spent 20 seconds ---

*** symbolic link created: INPORB -> rhenium_so_cf.GssOrb
--- Start Module: scf at Thu Jan  9 20:22:08 2025 ---

()()()()()()()()()()()()()()()()()()()()()()()()()()()()()()()()()()()()()()()()()()()()()()()()()()

                                                &SCF

                                   only a single process is used
                       available to each process: 4.1 GB of memory, 1 thread?
                                            pid: 520868
()()()()()()()()()()()()()()()()()()()()()()()()()()()()()()()()()()()()()()()()()()()()()()()()()()

++    Input section:
      --------------

      Header of the integral files:
      
       Integrals generated by seward 4.2.0  , Thu Jan  9 20:21:49 2025


      Cartesian coordinates in Angstrom:
      -----------------------------------------------------
      No.  Label        X            Y            Z        
      -----------------------------------------------------
       1   RE         0.00000000   0.00000000   0.00000000
      -----------------------------------------------------
      Nuclear repulsion energy = -793.65052270
--

++    Orbital specifications:
      -----------------------

      Symmetry species               1
                                     a
      Frozen orbitals                0
      Occupied orbitals             34
      Secondary orbitals           166
      Deleted orbitals               0
      Total number of orbitals     200
      Number of basis functions    200
--

      Molecular charge                           7.000

++    Optimization specifications:
      ----------------------------

      SCF Algorithm: Conventional
      Minimized density differences are used
      Number of density matrices in core                5
      Maximum number of NDDO SCF iterations            50
      Maximum number of HF SCF iterations             100
      Threshold for SCF energy change            0.10E-08
      Threshold for density matrix               0.10E-03
      Threshold for Fock matrix                  0.15E-03
      Threshold for linear dependence            0.10E-08
      Threshold at which DIIS is turned on       0.15E+00
      Threshold at which QNR/C2DIIS is turned on 0.75E-01
      Threshold for Norm(delta) (QNR/C2DIIS)     0.20E-04
      DIIS extrapolation of the SCF procedure
      All orbitals punched on: SCFORB
--

      Detected guessorb starting orbitals                                             


++ Convergence information
                                   SCF        iterations: Energy and convergence statistics

Iter     Tot. SCF        One-elec.       Two-elec.     Energy      Max Dij or  Max Fij      DNorm      TNorm      AccCon     Time
         Energy          Energy          Energy        Change      Delta Norm                                                in Sec.

 The total and one-electron energies are shifted by a value of     16000. a.u.

   1  -874.186730983 -6013.666475585  5933.130267300   0.00E+00    0.31E+00*   0.15E+01*    0.12E+02   0.16E+04   None         1.
   2  -784.382927891 -4556.107787034  4565.375381840   0.90E+02*   0.39E+00*   0.44E+00*    0.81E+01   0.14E+04   EDIIS        1.
   3  -879.169648637 -5510.388668935  5424.869542996  -0.95E+02*   0.37E+00*   0.54E+00*    0.46E+01   0.15E+04   EDIIS        1.
   4  -882.615627695 -5818.792943686  5729.827838689  -0.34E+01*   0.41E+00*   0.23E+00*    0.21E+01   0.15E+04   EDIIS        1.
   5  -882.930916997 -5651.868547546  5562.588153247  -0.32E+00*   0.85E-01*   0.14E+00*    0.66E+00   0.15E+04   EDIIS        1.
   6  -883.408535640 -5737.552386743  5647.794373801  -0.48E+00*   0.23E+00*   0.91E-01*    0.36E+00   0.15E+04   EDIIS        1.
   7  -883.402642237 -5701.279388276  5611.527268737   0.59E-02*   0.11E+00*   0.47E-01*    0.12E+00   0.15E+04   EDIIS        1.
   8  -883.451125258 -5725.823218696  5636.022616136  -0.48E-01*   0.11E+00*   0.41E-01*    0.59E-01   0.15E+04   c2DIIS       1.
   9  -883.463858022 -5720.898806967  5631.085471643  -0.13E-01*   0.10E+00*   0.13E-01*    0.25E-01   0.15E+04   c2DIIS       1.
  10  -883.467478396 -5720.443191712  5630.626236014  -0.36E-02*   0.99E-01*   0.89E-02*    0.29E-02   0.15E+04   c2DIIS       1.
  11  -883.469902969 -5720.186316682  5630.366936411  -0.24E-02*   0.95E-01*   0.68E-02*    0.68E-03   0.15E+04   c2DIIS       1.
  12  -883.471689687 -5720.010989324  5630.189822335  -0.18E-02*   0.98E-01*   0.23E-02*    0.60E-04   0.15E+04   c2DIIS       1.
  13  -883.471916060 -5719.065230328  5629.243836966  -0.23E-03*   0.77E-01*   0.16E-01*    0.57E-03   0.15E+04   c2DIIS       1.
  14  -883.476513883 -5721.180855995  5631.354864810  -0.46E-02*   0.74E-01*   0.70E-02*    0.66E-03   0.15E+04   c2DIIS       1.
  15  -883.478136274 -5720.783298359  5630.955684783  -0.16E-02*   0.48E-01*   0.25E-01*    0.53E-03   0.15E+04   QNRc2DIIS    1.
  16  -883.483177855 -5718.483026897  5628.650371741  -0.50E-02*   0.35E+00*   0.18E-01*    0.33E-02   0.15E+04   QNRc2DIIS    1.
  17  -883.488603812 -5724.097029754  5634.258948639  -0.54E-02*   0.14E+00*   0.32E-01*    0.57E-01   0.15E+04   QNRc2DIIS    1.
  18  -883.496814249 -5717.029307662  5627.183016111  -0.82E-02*   0.13E+00*   0.70E-02*    0.27E-01   0.15E+04   QNRc2DIIS    1.
  19  -883.497772174 -5719.659859826  5629.812610350  -0.96E-03*   0.92E-01*   0.11E-01*    0.55E-01   0.15E+04   QNRc2DIIS    1.
  20  -883.501146093 -5715.931874436  5626.081251041  -0.34E-02*   0.94E-01*   0.81E-02*    0.57E-01   0.15E+04   QNRc2DIIS    1.
  21  -883.502545438 -5717.015591324  5627.163568584  -0.14E-02*   0.81E-01*   0.56E-02*    0.41E-01   0.15E+04   QNRc2DIIS    1.
  22  -883.502643362 -5717.300787977  5627.448667313  -0.98E-04*   0.27E+00*   0.44E-02*    0.75E-01   0.15E+04   QNRc2DIIS    1.
  23  -883.504597933 -5718.287366043  5628.433290808  -0.20E-02*   0.78E-01*   0.54E-02*    0.12E+00   0.15E+04   QNRc2DIIS    1.
  24  -883.505381738 -5717.497872948  5627.643013908  -0.78E-03*   0.73E-01*   0.18E-02*    0.21E-01   0.15E+04   QNRc2DIIS    1.
  25  -883.505245117 -5718.099003677  5628.244281257   0.14E-03*   0.42E-01*   0.58E-02*    0.28E-01   0.15E+04   QNRc2DIIS    1.
  26  -883.505515127 -5717.597010581  5627.742018152  -0.27E-03*   0.25E-01*   0.13E-02*    0.64E-02   0.15E+04   QNRc2DIIS    1.
  27  -883.505581136 -5717.529510906  5627.674452468  -0.66E-04*   0.52E-02*   0.53E-03*    0.10E-01   0.15E+04   QNRc2DIIS    1.
  28  -883.505594413 -5717.571855135  5627.716783420  -0.13E-04*   0.37E-02*   0.45E-03*    0.37E-02   0.15E+04   QNRc2DIIS    1.
  29  -883.505598325 -5717.595154090  5627.740078463  -0.39E-05*   0.11E-02*   0.23E-03*    0.20E-02   0.15E+04   QNRc2DIIS    1.
  30  -883.505598741 -5717.595126267  5627.740050225  -0.42E-06*   0.48E-03*   0.13E-03     0.11E-02   0.15E+04   QNRc2DIIS    1.
  31  -883.505598848 -5717.598066410  5627.742990260  -0.11E-06*   0.73E-04*   0.24E-04     0.31E-03   0.15E+04   QNRc2DIIS    1.
  32  -883.505598854 -5717.596539104  5627.741462947  -0.63E-08*   0.42E-04*   0.17E-04     0.11E-03   0.15E+04   QNRc2DIIS    1.
  33  -883.505598857 -5717.596317371  5627.741241212  -0.26E-08*   0.19E-04    0.59E-05     0.50E-04   0.15E+04   QNRc2DIIS    1.
  34  -883.505598858 -5717.596316086  5627.741239926  -0.45E-09    0.69E-05    0.23E-05     0.25E-03   0.15E+04   QNRc2DIIS    1.

       Convergence after 34 Macro Iterations
--

 *****************************************************************************************************************************
 *                                                                                                                           *
 *                                             SCF/KS-DFT Program, Final results                                             *
 *                                                                                                                           *
 *                                                                                                                           *
 *                                                                                                                           *
 *                                                       Final Results                                                       *
 *                                                                                                                           *
 *****************************************************************************************************************************

::    Total SCF energy                             -16883.5055988575
      One-electron energy                          -21717.5963160858
      Two-electron energy                            5627.7412399262
      Nuclear repulsion energy                       -793.6505226978
      Kinetic energy (interpolated)                 23471.1850861331
      Virial theorem                                    0.7193290640
      Total spin, S(S+1)                                0.0000000000
      Total spin, S                                     0.0000000000
      Max non-diagonal density matrix element           0.0000069494
      Max non-diagonal Fock matrix element              0.0000032563


      All orbitals with orbital energies smaller than  E(LUMO)+0.5 are printed

++    Molecular orbitals:
      -------------------

      Title: SCF orbitals

      Molecular orbitals for symmetry species 1: a  

          Some orbital energies have been scaled by powers of 10, the power is written right after the orbital index


          Orbital            1 (1)     2         3         4         5         6         7         8         9        10    
          Energy         -264.3418 -464.2023 -406.8719 -406.8701 -406.8539 -109.5987  -92.3278  -92.3212  -92.1145  -71.9797
          Occ. No.          2.0000    2.0000    2.0000    2.0000    2.0000    2.0000    2.0000    2.0000    2.0000    2.0000

        1 RE     1s         1.0000    0.0000    0.0000    0.0000   -0.0000   -0.0000   -0.0000   -0.0000    0.0000   -0.0000
        2 RE     2s        -0.0000    1.0000    0.0000    0.0001   -0.0014    0.0002    0.0000    0.0000   -0.0001   -0.0000
        3 RE     3s         0.0000   -0.0002   -0.0000   -0.0000    0.0001    0.9999    0.0000    0.0004   -0.0139   -0.0000
        4 RE     4s        -0.0000    0.0001    0.0000    0.0000   -0.0000   -0.0032   -0.0000   -0.0000    0.0012    0.0000
        5 RE     5s         0.0000   -0.0000   -0.0000   -0.0000    0.0000    0.0010    0.0000    0.0000   -0.0004    0.0000
        6 RE     6s        -0.0000    0.0000    0.0000    0.0000   -0.0000   -0.0003   -0.0000   -0.0000    0.0001   -0.0000
        7 RE     7s         0.0000   -0.0000   -0.0000   -0.0000    0.0000    0.0005    0.0000    0.0000   -0.0002    0.0000
        8 RE     8s        -0.0000    0.0000    0.0000    0.0000   -0.0000   -0.0009   -0.0000   -0.0000    0.0003    0.0000
        9 RE     9s         0.0000   -0.0000   -0.0000   -0.0000    0.0000    0.0011    0.0000    0.0000   -0.0004   -0.0000
       10 RE    10s        -0.0000    0.0000    0.0000    0.0000   -0.0000   -0.0007   -0.0000   -0.0000    0.0002    0.0000
       11 RE    11s         0.0000   -0.0000   -0.0000   -0.0000    0.0000    0.0011    0.0000    0.0000   -0.0003   -0.0000
       12 RE     2px        0.0000    0.0000    0.0000    0.9940    0.1095   -0.0000    0.0000    0.0002    0.0000   -0.0000
       13 RE     3px       -0.0000    0.0000   -0.0000   -0.0002   -0.0000    0.0001    0.0000    0.9993    0.0298    0.0000
       14 RE     4px        0.0000   -0.0000    0.0000    0.0001    0.0000    0.0000   -0.0000   -0.0032   -0.0001   -0.0000
       15 RE     5px       -0.0000    0.0000   -0.0000   -0.0000   -0.0000   -0.0000    0.0000    0.0010    0.0000    0.0000
       16 RE     6px        0.0000   -0.0000    0.0000    0.0000    0.0000    0.0000   -0.0000   -0.0004   -0.0000   -0.0000
       17 RE     7px       -0.0000    0.0000   -0.0000   -0.0000   -0.0000   -0.0000    0.0000    0.0012    0.0000    0.0000
       18 RE     8px        0.0000   -0.0000    0.0000    0.0000    0.0000    0.0000   -0.0000   -0.0012   -0.0000   -0.0000
       19 RE     9px       -0.0000    0.0000   -0.0000   -0.0000   -0.0000   -0.0000    0.0000    0.0010    0.0000    0.0000
       20 RE    10px        0.0000   -0.0000    0.0000    0.0000    0.0000    0.0000   -0.0000   -0.0009   -0.0000   -0.0000
       21 RE    11px       -0.0000    0.0000   -0.0000   -0.0000   -0.0000   -0.0000    0.0000    0.0006    0.0000    0.0000
       22 RE     2py        0.0000    0.0000    1.0000   -0.0000    0.0000   -0.0000    0.0002   -0.0000    0.0000    0.0001
       23 RE     3py       -0.0000    0.0000   -0.0002    0.0000   -0.0000    0.0000    0.9998   -0.0000    0.0000    0.0011
       24 RE     4py        0.0000   -0.0000    0.0001   -0.0000    0.0000    0.0000   -0.0032    0.0000   -0.0000    0.0004
       25 RE     5py        0.0000    0.0000   -0.0000    0.0000   -0.0000   -0.0000    0.0010   -0.0000    0.0000   -0.0001
       26 RE     6py        0.0000   -0.0000    0.0000   -0.0000    0.0000    0.0000   -0.0004    0.0000   -0.0000    0.0001
       27 RE     7py       -0.0000    0.0000   -0.0000    0.0000   -0.0000   -0.0000    0.0012   -0.0000    0.0000   -0.0001
       28 RE     8py        0.0000   -0.0000    0.0000   -0.0000    0.0000    0.0000   -0.0012    0.0000   -0.0000    0.0001
       29 RE     9py       -0.0000    0.0000   -0.0000    0.0000   -0.0000   -0.0000    0.0010   -0.0000    0.0000   -0.0001
       30 RE    10py        0.0000   -0.0000    0.0000   -0.0000    0.0000    0.0000   -0.0009    0.0000   -0.0000    0.0001
       31 RE    11py       -0.0000    0.0000   -0.0000    0.0000   -0.0000   -0.0000    0.0006   -0.0000    0.0000   -0.0000
       32 RE     2pz        0.0000    0.0014   -0.0000   -0.1095    0.9940   -0.0001   -0.0000   -0.0000    0.0003    0.0000
       33 RE     3pz       -0.0000    0.0001    0.0000    0.0000   -0.0003    0.0139   -0.0000   -0.0298    0.9994    0.0000
       34 RE     4pz        0.0000   -0.0000   -0.0000   -0.0000    0.0001    0.0006    0.0000    0.0001   -0.0048    0.0000
       35 RE     5pz       -0.0000    0.0000    0.0000    0.0000   -0.0000   -0.0002   -0.0000   -0.0001    0.0014   -0.0000
       36 RE     6pz        0.0000   -0.0000   -0.0000   -0.0000    0.0000    0.0001    0.0000    0.0000   -0.0006   -0.0000
       37 RE     7pz       -0.0000    0.0000    0.0000    0.0000   -0.0000   -0.0003   -0.0000   -0.0001    0.0018    0.0000
       38 RE     8pz        0.0000   -0.0000   -0.0000   -0.0000    0.0000    0.0003    0.0000    0.0000   -0.0017   -0.0000
       39 RE     9pz       -0.0000    0.0000    0.0000    0.0000   -0.0000   -0.0002   -0.0000   -0.0000    0.0014    0.0000
       40 RE    10pz        0.0000   -0.0000   -0.0000   -0.0000    0.0000    0.0002    0.0000    0.0000   -0.0013   -0.0000
       41 RE    11pz       -0.0000    0.0000    0.0000    0.0000   -0.0000   -0.0002   -0.0000   -0.0000    0.0008    0.0000
       42 RE     3d2-       0.0000    0.0000    0.0001   -0.0000    0.0000    0.0000    0.0096   -0.0000    0.0000    0.8484
       43 RE     4d2-      -0.0000   -0.0000   -0.0000    0.0000   -0.0000    0.0000    0.0019   -0.0000    0.0000   -0.0020
       44 RE     5d2-       0.0000    0.0000    0.0000   -0.0000    0.0000   -0.0000   -0.0004    0.0000   -0.0000    0.0004
       45 RE     6d2-      -0.0000   -0.0000   -0.0000    0.0000   -0.0000    0.0000    0.0006   -0.0000    0.0000   -0.0006
       46 RE     7d2-       0.0000    0.0000    0.0000   -0.0000    0.0000   -0.0000   -0.0007    0.0000   -0.0000    0.0007
       47 RE     8d2-      -0.0000   -0.0000   -0.0000    0.0000   -0.0000    0.0000    0.0009   -0.0000    0.0000   -0.0008
       48 RE     9d2-       0.0000    0.0000    0.0000   -0.0000    0.0000   -0.0000   -0.0007    0.0000   -0.0000    0.0007
       49 RE    10d2-      -0.0000   -0.0000   -0.0000    0.0000   -0.0000    0.0000    0.0007   -0.0000    0.0000   -0.0007
       50 RE    11d2-       0.0000    0.0000   -0.0000    0.0000   -0.0000   -0.0000   -0.0001    0.0000   -0.0000    0.0003
       51 RE     3d1-      -0.0000   -0.0000    0.0002   -0.0000    0.0000   -0.0000    0.0173   -0.0000    0.0000   -0.5293
       52 RE     4d1-       0.0000    0.0000   -0.0001    0.0000   -0.0000   -0.0000    0.0025   -0.0000    0.0000    0.0008
       53 RE     5d1-      -0.0000   -0.0000    0.0000   -0.0000    0.0000    0.0000   -0.0006    0.0000   -0.0000   -0.0002
       54 RE     6d1-       0.0000    0.0000   -0.0000    0.0000   -0.0000   -0.0000    0.0007   -0.0000    0.0000    0.0002
       55 RE     7d1-      -0.0000   -0.0000    0.0000   -0.0000    0.0000    0.0000   -0.0010    0.0000   -0.0000   -0.0003
       56 RE     8d1-       0.0000    0.0000   -0.0000    0.0000   -0.0000   -0.0000    0.0012   -0.0000    0.0000    0.0004
       57 RE     9d1-      -0.0000   -0.0000    0.0000   -0.0000    0.0000    0.0000   -0.0010    0.0000   -0.0000   -0.0003
       58 RE    10d1-       0.0000    0.0000   -0.0000    0.0000   -0.0000   -0.0000    0.0011   -0.0000    0.0000    0.0004
       59 RE    11d1-      -0.0000   -0.0000    0.0000   -0.0000    0.0000    0.0000   -0.0003    0.0000   -0.0000   -0.0003
       60 RE     3d0       -0.0000   -0.0000   -0.0000   -0.0000    0.0001   -0.0034    0.0000    0.0002   -0.0062   -0.0000
       61 RE     4d0        0.0000    0.0000    0.0000    0.0000   -0.0000   -0.0008    0.0000    0.0001   -0.0023    0.0000
       62 RE     5d0       -0.0000   -0.0000   -0.0000   -0.0000    0.0000    0.0002   -0.0000   -0.0000    0.0005   -0.0000
       63 RE     6d0        0.0000    0.0000    0.0000    0.0000   -0.0000   -0.0002    0.0000    0.0000   -0.0006    0.0000
       64 RE     7d0       -0.0000   -0.0000   -0.0000   -0.0000    0.0000    0.0003   -0.0000   -0.0000    0.0009   -0.0000
       65 RE     8d0        0.0000    0.0000    0.0000    0.0000   -0.0000   -0.0004    0.0000    0.0000   -0.0010    0.0000
       66 RE     9d0       -0.0000   -0.0000   -0.0000   -0.0000    0.0000    0.0003   -0.0000   -0.0000    0.0008   -0.0000
       67 RE    10d0        0.0000    0.0000    0.0000    0.0000   -0.0000   -0.0004    0.0000    0.0000   -0.0008    0.0000
       68 RE    11d0       -0.0000   -0.0000   -0.0000   -0.0000    0.0000    0.0001    0.0000    0.0000   -0.0001   -0.0000
       69 RE     3d1+      -0.0000   -0.0000    0.0000    0.0002    0.0000   -0.0002    0.0000    0.0173    0.0006    0.0000
       70 RE     4d1+       0.0000    0.0000   -0.0000   -0.0001   -0.0000   -0.0000    0.0000    0.0025    0.0001   -0.0000
       71 RE     5d1+      -0.0000   -0.0000    0.0000    0.0000    0.0000    0.0000   -0.0000   -0.0006   -0.0000    0.0000
       72 RE     6d1+       0.0000    0.0000   -0.0000   -0.0000   -0.0000   -0.0000    0.0000    0.0007    0.0000   -0.0000
       73 RE     7d1+      -0.0000   -0.0000    0.0000    0.0000    0.0000    0.0000   -0.0000   -0.0010   -0.0000    0.0000
       74 RE     8d1+       0.0000    0.0000   -0.0000   -0.0000   -0.0000   -0.0000    0.0000    0.0012    0.0000   -0.0000
       75 RE     9d1+      -0.0000   -0.0000    0.0000    0.0000    0.0000    0.0000   -0.0000   -0.0010   -0.0000    0.0000
       76 RE    10d1+       0.0000    0.0000   -0.0000   -0.0000   -0.0000   -0.0000    0.0000    0.0011    0.0000   -0.0000
       77 RE    11d1+      -0.0000   -0.0000    0.0000    0.0000    0.0000    0.0000   -0.0000   -0.0003   -0.0000    0.0000
       78 RE     3d2+      -0.0000   -0.0000   -0.0000   -0.0001   -0.0000   -0.0001   -0.0000   -0.0095   -0.0003    0.0000
       79 RE     4d2+       0.0000    0.0000    0.0000    0.0000    0.0000   -0.0000   -0.0000   -0.0019   -0.0001   -0.0000
       80 RE     5d2+      -0.0000   -0.0000   -0.0000   -0.0000   -0.0000    0.0000    0.0000    0.0004    0.0000    0.0000
       81 RE     6d2+       0.0000    0.0000    0.0000    0.0000    0.0000   -0.0000   -0.0000   -0.0006   -0.0000   -0.0000
       82 RE     7d2+      -0.0000   -0.0000   -0.0000   -0.0000   -0.0000    0.0000    0.0000    0.0007    0.0000    0.0000
       83 RE     8d2+       0.0000    0.0000    0.0000    0.0000    0.0000   -0.0000   -0.0000   -0.0009   -0.0000   -0.0000
       84 RE     9d2+      -0.0000   -0.0000   -0.0000   -0.0000   -0.0000    0.0000    0.0000    0.0007    0.0000    0.0000
       85 RE    10d2+       0.0000    0.0000    0.0000    0.0000    0.0000   -0.0000   -0.0000   -0.0007   -0.0000   -0.0000
       86 RE    11d2+      -0.0000   -0.0000   -0.0000    0.0000    0.0000    0.0000    0.0000    0.0001    0.0000    0.0000
       87 RE     4f3-       0.0000    0.0000   -0.0000   -0.0000   -0.0000    0.0000   -0.0000    0.0000   -0.0000    0.0000
       88 RE     5f3-       0.0000   -0.0000   -0.0000    0.0000    0.0000   -0.0000    0.0000   -0.0000   -0.0000   -0.0000
       89 RE     6f3-       0.0000    0.0000   -0.0000   -0.0000   -0.0000    0.0000   -0.0000    0.0000   -0.0000    0.0000
       90 RE     7f3-      -0.0000   -0.0000    0.0000   -0.0000   -0.0000   -0.0000    0.0000   -0.0000    0.0000   -0.0000
       91 RE     8f3-       0.0000    0.0000   -0.0000    0.0000    0.0000    0.0000   -0.0000   -0.0000   -0.0000    0.0000
       92 RE     9f3-      -0.0000   -0.0000    0.0000   -0.0000   -0.0000   -0.0000    0.0000    0.0000    0.0000   -0.0000
       93 RE    10f3-       0.0000    0.0000   -0.0000    0.0000    0.0000    0.0000   -0.0000   -0.0000   -0.0000    0.0000
       94 RE    11f3-      -0.0000   -0.0000    0.0000   -0.0000   -0.0000    0.0000    0.0000    0.0000    0.0000   -0.0000
       95 RE     4f2-      -0.0000   -0.0000   -0.0000    0.0000   -0.0000   -0.0000   -0.0019    0.0000   -0.0000    0.0022
       96 RE     5f2-      -0.0000    0.0000    0.0000   -0.0000   -0.0000    0.0000    0.0011   -0.0000    0.0000   -0.0013
       97 RE     6f2-      -0.0000   -0.0000   -0.0000    0.0000   -0.0000   -0.0000   -0.0011    0.0000   -0.0000    0.0013
       98 RE     7f2-       0.0000    0.0000    0.0000   -0.0000    0.0000    0.0000    0.0007   -0.0000    0.0000   -0.0010
       99 RE     8f2-      -0.0000   -0.0000   -0.0000    0.0000   -0.0000   -0.0000   -0.0004    0.0000   -0.0000    0.0007
      100 RE     9f2-       0.0000    0.0000    0.0000   -0.0000    0.0000    0.0000    0.0000   -0.0000   -0.0000   -0.0004
      101 RE    10f2-      -0.0000   -0.0000   -0.0000    0.0000   -0.0000   -0.0000    0.0002   -0.0000    0.0000    0.0002
      102 RE    11f2-       0.0000    0.0000    0.0000   -0.0000    0.0000   -0.0000   -0.0005    0.0000   -0.0000    0.0001
      103 RE     4f1-       0.0000    0.0000   -0.0000    0.0000   -0.0000   -0.0000   -0.0008    0.0000   -0.0000   -0.0008
      104 RE     5f1-      -0.0000   -0.0000    0.0000   -0.0000    0.0000   -0.0000    0.0005   -0.0000    0.0000    0.0005
      105 RE     6f1-       0.0000    0.0000   -0.0000    0.0000   -0.0000    0.0000   -0.0005    0.0000   -0.0000   -0.0005
      106 RE     7f1-      -0.0000   -0.0000    0.0000   -0.0000    0.0000   -0.0000    0.0004   -0.0000    0.0000    0.0004
      107 RE     8f1-       0.0000    0.0000   -0.0000    0.0000   -0.0000    0.0000   -0.0003    0.0000   -0.0000   -0.0003
      108 RE     9f1-       0.0000   -0.0000    0.0000   -0.0000    0.0000   -0.0000    0.0001   -0.0000    0.0000    0.0002
      109 RE    10f1-      -0.0000    0.0000   -0.0000    0.0000   -0.0000    0.0000   -0.0000    0.0000   -0.0000   -0.0002
      110 RE    11f1-       0.0000   -0.0000    0.0000   -0.0000    0.0000    0.0000   -0.0001    0.0000   -0.0000    0.0001
      111 RE     4f0       -0.0000   -0.0000    0.0000    0.0000   -0.0000   -0.0033    0.0000    0.0001   -0.0013    0.0000
      112 RE     5f0        0.0000    0.0000   -0.0000   -0.0000    0.0000    0.0020   -0.0000   -0.0000    0.0007   -0.0000
      113 RE     6f0       -0.0000   -0.0000    0.0000    0.0000   -0.0000   -0.0020    0.0000    0.0000   -0.0007    0.0000
      114 RE     7f0        0.0000    0.0000   -0.0000   -0.0000    0.0000    0.0015   -0.0000   -0.0000    0.0005   -0.0000
      115 RE     8f0        0.0000   -0.0000    0.0000    0.0000   -0.0000   -0.0010    0.0000    0.0000   -0.0003    0.0000
      116 RE     9f0       -0.0000    0.0000   -0.0000   -0.0000    0.0000    0.0004   -0.0000   -0.0000    0.0001   -0.0000
      117 RE    10f0        0.0000   -0.0000    0.0000    0.0000   -0.0000    0.0001    0.0000    0.0000    0.0000    0.0000
      118 RE    11f0       -0.0000    0.0000   -0.0000   -0.0000    0.0000   -0.0007    0.0000    0.0000   -0.0002   -0.0000
      119 RE     4f1+       0.0000    0.0000   -0.0000   -0.0000   -0.0000   -0.0000   -0.0000   -0.0008   -0.0001    0.0000
      120 RE     5f1+      -0.0000   -0.0000    0.0000    0.0000    0.0000    0.0000    0.0000    0.0005    0.0000   -0.0000
      121 RE     6f1+       0.0000    0.0000   -0.0000   -0.0000   -0.0000   -0.0000   -0.0000   -0.0005   -0.0000    0.0000
      122 RE     7f1+       0.0000   -0.0000    0.0000    0.0000    0.0000    0.0000    0.0000    0.0004    0.0000   -0.0000
      123 RE     8f1+      -0.0000    0.0000   -0.0000   -0.0000   -0.0000    0.0000   -0.0000   -0.0003   -0.0000    0.0000
      124 RE     9f1+       0.0000   -0.0000    0.0000    0.0000    0.0000    0.0000    0.0000    0.0001    0.0000   -0.0000
      125 RE    10f1+      -0.0000    0.0000   -0.0000   -0.0000   -0.0000   -0.0000   -0.0000   -0.0000   -0.0000    0.0000
      126 RE    11f1+       0.0000   -0.0000    0.0000    0.0000    0.0000    0.0000   -0.0000   -0.0001   -0.0000   -0.0000
      127 RE     4f2+      -0.0000   -0.0000    0.0000    0.0000    0.0000   -0.0000    0.0000    0.0018    0.0000    0.0000
      128 RE     5f2+       0.0000    0.0000   -0.0000   -0.0000    0.0000    0.0000   -0.0000   -0.0010   -0.0000   -0.0000
      129 RE     6f2+      -0.0000   -0.0000    0.0000    0.0000    0.0000   -0.0000    0.0000    0.0010    0.0000    0.0000
      130 RE     7f2+       0.0000    0.0000   -0.0000   -0.0000   -0.0000    0.0000   -0.0000   -0.0007   -0.0000   -0.0000
      131 RE     8f2+      -0.0000   -0.0000    0.0000    0.0000    0.0000   -0.0000    0.0000    0.0003   -0.0000    0.0000
      132 RE     9f2+      -0.0000    0.0000   -0.0000   -0.0000   -0.0000    0.0000   -0.0000   -0.0000    0.0000   -0.0000
      133 RE    10f2+       0.0000   -0.0000    0.0000    0.0000    0.0000   -0.0000   -0.0000   -0.0002   -0.0000    0.0000
      134 RE    11f2+      -0.0000    0.0000   -0.0000   -0.0000   -0.0000   -0.0000    0.0000    0.0005    0.0000    0.0000
      135 RE     4f3+      -0.0000   -0.0000   -0.0000   -0.0000    0.0000   -0.0022   -0.0000   -0.0001    0.0016   -0.0000
      136 RE     5f3+       0.0000    0.0000    0.0000    0.0000   -0.0000    0.0013    0.0000    0.0000   -0.0009    0.0000
      137 RE     6f3+      -0.0000   -0.0000   -0.0000   -0.0000    0.0000   -0.0013   -0.0000   -0.0000    0.0009   -0.0000
      138 RE     7f3+      -0.0000    0.0000    0.0000    0.0000   -0.0000    0.0010    0.0000    0.0000   -0.0006    0.0000
      139 RE     8f3+       0.0000   -0.0000   -0.0000   -0.0000    0.0000   -0.0006   -0.0000   -0.0000    0.0003   -0.0000
      140 RE     9f3+      -0.0000    0.0000    0.0000    0.0000   -0.0000    0.0002    0.0000    0.0000   -0.0000    0.0000
      141 RE    10f3+       0.0000   -0.0000    0.0000   -0.0000    0.0000    0.0000   -0.0000   -0.0000   -0.0002   -0.0000
      142 RE    11f3+      -0.0000    0.0000   -0.0000    0.0000   -0.0000   -0.0005   -0.0000   -0.0000    0.0004    0.0000
      143 RE     5g4-       0.0000   -0.0000   -0.0000    0.0000   -0.0000   -0.0000   -0.0005    0.0000   -0.0000   -0.0000
      144 RE     6g4-      -0.0000    0.0000    0.0000   -0.0000    0.0000   -0.0000    0.0004   -0.0000    0.0000    0.0000
      145 RE     7g4-       0.0000   -0.0000   -0.0000    0.0000   -0.0000    0.0000   -0.0004    0.0000   -0.0000   -0.0000
      146 RE     8g4-      -0.0000    0.0000    0.0000   -0.0000    0.0000   -0.0000    0.0003   -0.0000    0.0000    0.0000
      147 RE     5g3-       0.0000   -0.0000    0.0000    0.0000    0.0000   -0.0000   -0.0000   -0.0000   -0.0000   -0.0000
      148 RE     6g3-      -0.0000    0.0000   -0.0000    0.0000   -0.0000   -0.0000    0.0000   -0.0000    0.0000    0.0000
      149 RE     7g3-       0.0000   -0.0000    0.0000   -0.0000    0.0000    0.0000   -0.0000    0.0000   -0.0000   -0.0000
      150 RE     8g3-      -0.0000    0.0000   -0.0000    0.0000   -0.0000   -0.0000    0.0000   -0.0000    0.0000    0.0000
      151 RE     5g2-      -0.0000    0.0000   -0.0000    0.0000   -0.0000    0.0000    0.0001   -0.0000    0.0000   -0.0001
      152 RE     6g2-       0.0000   -0.0000    0.0000   -0.0000    0.0000    0.0000   -0.0001    0.0000   -0.0000    0.0001
      153 RE     7g2-      -0.0000    0.0000   -0.0000    0.0000    0.0000   -0.0000    0.0001   -0.0000    0.0000   -0.0001
      154 RE     8g2-       0.0000   -0.0000    0.0000   -0.0000   -0.0000    0.0000   -0.0001    0.0000   -0.0000    0.0000
      155 RE     5g1-      -0.0000    0.0000   -0.0000    0.0000   -0.0000    0.0000   -0.0006    0.0000   -0.0000    0.0003
      156 RE     6g1-       0.0000   -0.0000    0.0000   -0.0000    0.0000    0.0000    0.0005   -0.0000    0.0000   -0.0002
      157 RE     7g1-      -0.0000    0.0000   -0.0000    0.0000   -0.0000   -0.0000   -0.0005    0.0000   -0.0000    0.0002
      158 RE     8g1-       0.0000   -0.0000    0.0000   -0.0000    0.0000    0.0000    0.0004   -0.0000    0.0000   -0.0002
      159 RE     5g0       -0.0000   -0.0000    0.0000    0.0000   -0.0000   -0.0001    0.0000    0.0000   -0.0010   -0.0000
      160 RE     6g0        0.0000    0.0000   -0.0000   -0.0000    0.0000    0.0000   -0.0000   -0.0000    0.0009    0.0000
      161 RE     7g0       -0.0000   -0.0000    0.0000    0.0000   -0.0000   -0.0000    0.0000    0.0000   -0.0010   -0.0000
      162 RE     8g0        0.0000    0.0000   -0.0000   -0.0000    0.0000    0.0000   -0.0000   -0.0000    0.0007    0.0000
      163 RE     5g1+      -0.0000    0.0000   -0.0000   -0.0000   -0.0000    0.0000   -0.0000   -0.0006   -0.0000   -0.0000
      164 RE     6g1+       0.0000   -0.0000    0.0000    0.0000    0.0000    0.0000    0.0000    0.0005    0.0000    0.0000
      165 RE     7g1+      -0.0000    0.0000   -0.0000   -0.0000   -0.0000   -0.0000   -0.0000   -0.0005   -0.0000   -0.0000
      166 RE     8g1+       0.0000   -0.0000    0.0000    0.0000    0.0000    0.0000    0.0000    0.0004    0.0000    0.0000
      167 RE     5g2+       0.0000   -0.0000    0.0000    0.0000    0.0000   -0.0000   -0.0000   -0.0001   -0.0000   -0.0000
      168 RE     6g2+      -0.0000    0.0000   -0.0000   -0.0000   -0.0000   -0.0000    0.0000    0.0001    0.0000    0.0000
      169 RE     7g2+       0.0000   -0.0000    0.0000    0.0000    0.0000    0.0000   -0.0000   -0.0001   -0.0000   -0.0000
      170 RE     8g2+      -0.0000    0.0000   -0.0000   -0.0000   -0.0000   -0.0000    0.0000    0.0001    0.0000    0.0000
      171 RE     5g3+       0.0000    0.0000    0.0000    0.0000    0.0000    0.0005    0.0000    0.0000   -0.0006    0.0000
      172 RE     6g3+      -0.0000   -0.0000   -0.0000   -0.0000   -0.0000   -0.0005   -0.0000   -0.0000    0.0006   -0.0000
      173 RE     7g3+       0.0000    0.0000    0.0000    0.0000   -0.0000    0.0005    0.0000    0.0000   -0.0006    0.0000
      174 RE     8g3+      -0.0000   -0.0000   -0.0000   -0.0000    0.0000   -0.0003   -0.0000   -0.0000    0.0004   -0.0000
      175 RE     5g4+       0.0000   -0.0000   -0.0000   -0.0000    0.0000   -0.0000   -0.0000   -0.0005   -0.0000   -0.0000
      176 RE     6g4+      -0.0000    0.0000    0.0000    0.0000    0.0000   -0.0000    0.0000    0.0004    0.0000    0.0000
      177 RE     7g4+       0.0000   -0.0000   -0.0000   -0.0000   -0.0000    0.0000   -0.0000   -0.0005   -0.0000   -0.0000
      178 RE     8g4+      -0.0000    0.0000    0.0000    0.0000    0.0000   -0.0000    0.0000    0.0003    0.0000    0.0000
      179 RE     6h5-       0.0000    0.0000    0.0000   -0.0000    0.0000   -0.0000    0.0000   -0.0000    0.0000   -0.0000
      180 RE     7h5-      -0.0000   -0.0000   -0.0000    0.0000   -0.0000    0.0000   -0.0000    0.0000   -0.0000    0.0001
      181 RE     6h4-      -0.0000    0.0000    0.0000   -0.0000    0.0000   -0.0000    0.0001   -0.0000    0.0000    0.0000
      182 RE     7h4-      -0.0000   -0.0000   -0.0000    0.0000   -0.0000    0.0000   -0.0001    0.0000   -0.0000   -0.0000
      183 RE     6h3-       0.0000    0.0000    0.0000   -0.0000   -0.0000   -0.0000   -0.0000    0.0000   -0.0000   -0.0000
      184 RE     7h3-      -0.0000   -0.0000    0.0000   -0.0000   -0.0000    0.0000    0.0000   -0.0000    0.0000    0.0000
      185 RE     6h2-       0.0000    0.0000    0.0000   -0.0000    0.0000   -0.0000    0.0000   -0.0000    0.0000   -0.0000
      186 RE     7h2-      -0.0000   -0.0000   -0.0000    0.0000   -0.0000    0.0000   -0.0000    0.0000   -0.0000    0.0001
      187 RE     6h1-      -0.0000   -0.0000    0.0000   -0.0000    0.0000    0.0000    0.0000   -0.0000    0.0000    0.0000
      188 RE     7h1-       0.0000    0.0000   -0.0000    0.0000   -0.0000   -0.0000   -0.0001    0.0000   -0.0000   -0.0000
      189 RE     6h0       -0.0000    0.0000    0.0000    0.0000   -0.0000   -0.0000    0.0000    0.0000   -0.0001    0.0000
      190 RE     7h0        0.0000    0.0000   -0.0000   -0.0000    0.0000    0.0000   -0.0000   -0.0000    0.0001   -0.0000
      191 RE     6h1+      -0.0000    0.0000    0.0000    0.0000    0.0000   -0.0000    0.0000    0.0000    0.0000    0.0000
      192 RE     7h1+      -0.0000   -0.0000   -0.0000   -0.0000   -0.0000    0.0000   -0.0000   -0.0001   -0.0000   -0.0000
      193 RE     6h2+       0.0000    0.0000   -0.0000   -0.0000   -0.0000   -0.0000   -0.0000   -0.0000   -0.0000   -0.0000
      194 RE     7h2+      -0.0000   -0.0000    0.0000    0.0000    0.0000    0.0000    0.0000    0.0000    0.0000    0.0000
      195 RE     6h3+      -0.0000    0.0000   -0.0000   -0.0000   -0.0000   -0.0000   -0.0000   -0.0000    0.0000    0.0000
      196 RE     7h3+       0.0000   -0.0000    0.0000    0.0000    0.0000    0.0000    0.0000    0.0000   -0.0001   -0.0000
      197 RE     6h4+      -0.0000    0.0000    0.0000    0.0000    0.0000   -0.0000    0.0000    0.0001    0.0000   -0.0000
      198 RE     7h4+      -0.0000   -0.0000   -0.0000   -0.0000   -0.0000    0.0000   -0.0000   -0.0001   -0.0000    0.0000
      199 RE     6h5+      -0.0000    0.0000   -0.0000   -0.0000   -0.0000   -0.0000   -0.0000   -0.0000   -0.0000   -0.0000
      200 RE     7h5+      -0.0000   -0.0000    0.0000    0.0000    0.0000    0.0000    0.0000    0.0000    0.0000    0.0000

          Orbital           11        12        13        14        15        16        17        18        19        20    
          Energy          -71.9775  -71.7218  -71.7129  -71.7105  -23.7374  -18.1590  -18.1471  -17.7480  -10.8376  -10.8310
          Occ. No.          2.0000    2.0000    2.0000    2.0000    2.0000    2.0000    2.0000    2.0000    2.0000    2.0000

        1 RE     1s        -0.0000    0.0000    0.0000   -0.0000   -0.0000    0.0000    0.0000   -0.0000    0.0000   -0.0000
        2 RE     2s        -0.0000    0.0000    0.0000   -0.0000    0.0001   -0.0000   -0.0000    0.0000    0.0000   -0.0000
        3 RE     3s        -0.0002    0.0029    0.0014   -0.0000   -0.0029    0.0000    0.0000   -0.0008   -0.0000    0.0000
        4 RE     4s         0.0000   -0.0015   -0.0007    0.0000   -0.9969    0.0000    0.0016   -0.0562   -0.0000    0.0011
        5 RE     5s        -0.0000    0.0004    0.0002   -0.0000   -0.0157    0.0000    0.0001   -0.0053    0.0000   -0.0015
        6 RE     6s         0.0000   -0.0001   -0.0000    0.0000    0.0034   -0.0000   -0.0000    0.0011   -0.0000    0.0003
        7 RE     7s        -0.0000    0.0002    0.0001   -0.0000   -0.0052    0.0000    0.0000   -0.0016    0.0000   -0.0004
        8 RE     8s         0.0000   -0.0003   -0.0002    0.0000    0.0086   -0.0000   -0.0001    0.0024   -0.0000    0.0005
        9 RE     9s        -0.0000    0.0004    0.0002   -0.0000   -0.0063    0.0000    0.0000   -0.0016   -0.0000   -0.0001
       10 RE    10s         0.0000   -0.0002   -0.0001    0.0000    0.0019   -0.0000   -0.0000    0.0004    0.0000   -0.0000
       11 RE    11s        -0.0000    0.0003    0.0001   -0.0000    0.0011   -0.0000   -0.0000    0.0006   -0.0000   -0.0000
       12 RE     2px        0.0001    0.0001   -0.0002    0.0000   -0.0000   -0.0000   -0.0000   -0.0000   -0.0000    0.0000
       13 RE     3px        0.0008    0.0081   -0.0179    0.0000   -0.0000    0.0000    0.0028    0.0001   -0.0000    0.0001
       14 RE     4px        0.0005   -0.0017    0.0037   -0.0000   -0.0000    0.0000    0.9943    0.0280    0.0000   -0.0018
       15 RE     5px       -0.0001    0.0005   -0.0011    0.0000    0.0000    0.0000    0.0160    0.0002   -0.0000    0.0012
       16 RE     6px        0.0001   -0.0002    0.0005   -0.0000   -0.0000   -0.0000   -0.0057   -0.0000    0.0000   -0.0004
       17 RE     7px       -0.0002    0.0005   -0.0012    0.0000    0.0000    0.0000    0.0115    0.0001   -0.0000    0.0007
       18 RE     8px        0.0002   -0.0005    0.0011   -0.0000   -0.0000   -0.0000   -0.0066   -0.0001    0.0000   -0.0003
       19 RE     9px       -0.0001    0.0004   -0.0009    0.0000    0.0000    0.0000    0.0026    0.0001   -0.0000    0.0001
       20 RE    10px        0.0001   -0.0003    0.0008   -0.0000   -0.0000   -0.0000   -0.0005   -0.0000   -0.0000    0.0000
       21 RE    11px       -0.0000    0.0001   -0.0003    0.0000   -0.0000   -0.0000   -0.0024   -0.0001    0.0000   -0.0002
       22 RE     2py        0.0000    0.0000    0.0000    0.0002   -0.0000   -0.0000    0.0000   -0.0000   -0.0000   -0.0000
       23 RE     3py        0.0000    0.0000    0.0000    0.0197   -0.0000    0.0028   -0.0000    0.0000   -0.0000   -0.0000
       24 RE     4py       -0.0000   -0.0000   -0.0000   -0.0040   -0.0000    0.9947   -0.0000    0.0000    0.0030    0.0000
       25 RE     5py        0.0000    0.0000    0.0000    0.0012    0.0000    0.0162   -0.0000    0.0000   -0.0007   -0.0000
       26 RE     6py       -0.0000   -0.0000   -0.0000   -0.0005   -0.0000   -0.0059    0.0000   -0.0000    0.0003    0.0000
       27 RE     7py        0.0000    0.0000    0.0000    0.0013    0.0000    0.0118   -0.0000    0.0000   -0.0005   -0.0000
       28 RE     8py       -0.0000   -0.0000   -0.0000   -0.0012   -0.0000   -0.0068    0.0000   -0.0000    0.0002    0.0000
       29 RE     9py        0.0000    0.0000    0.0000    0.0010    0.0000    0.0027   -0.0000    0.0000   -0.0001   -0.0000
       30 RE    10py       -0.0000   -0.0000   -0.0000   -0.0008   -0.0000   -0.0005    0.0000   -0.0000   -0.0000   -0.0000
       31 RE    11py        0.0000    0.0000    0.0000    0.0004   -0.0000   -0.0024    0.0000   -0.0000    0.0001    0.0000
       32 RE     2pz        0.0000   -0.0001   -0.0000    0.0000   -0.0000    0.0000    0.0000   -0.0001   -0.0000    0.0000
       33 RE     3pz        0.0000    0.0057    0.0025   -0.0000    0.0009   -0.0000   -0.0001    0.0045    0.0000    0.0000
       34 RE     4pz        0.0000   -0.0029   -0.0013    0.0000   -0.0556   -0.0000   -0.0281    0.9953    0.0000    0.0000
       35 RE     5pz       -0.0000    0.0008    0.0004   -0.0000    0.0025   -0.0000   -0.0009    0.0234    0.0000   -0.0000
       36 RE     6pz        0.0000   -0.0004   -0.0002    0.0000   -0.0009    0.0000    0.0004   -0.0086   -0.0000    0.0000
       37 RE     7pz       -0.0000    0.0009    0.0004   -0.0000    0.0019   -0.0000   -0.0007    0.0171    0.0000   -0.0000
       38 RE     8pz        0.0000   -0.0009   -0.0004    0.0000   -0.0012    0.0000    0.0004   -0.0099   -0.0000    0.0000
       39 RE     9pz       -0.0000    0.0007    0.0003   -0.0000    0.0005   -0.0000   -0.0001    0.0039    0.0000   -0.0000
       40 RE    10pz        0.0000   -0.0006   -0.0003    0.0000   -0.0001    0.0000    0.0000   -0.0007    0.0000   -0.0000
       41 RE    11pz       -0.0000    0.0002    0.0001   -0.0000   -0.0005    0.0000    0.0001   -0.0038   -0.0000   -0.0000
       42 RE     3d2-       0.0000   -0.0000   -0.0000   -0.5292    0.0000   -0.0019    0.0000   -0.0000    0.0016    0.0000
       43 RE     4d2-       0.0000    0.0000    0.0000    0.0037   -0.0000    0.0529   -0.0000    0.0000    0.8194    0.0000
       44 RE     5d2-      -0.0000   -0.0000   -0.0000   -0.0007   -0.0000   -0.0043    0.0000   -0.0000    0.0127    0.0000
       45 RE     6d2-       0.0000    0.0000    0.0000    0.0010    0.0000    0.0048   -0.0000    0.0000   -0.0125   -0.0000
       46 RE     7d2-      -0.0000   -0.0000   -0.0000   -0.0013   -0.0000   -0.0049    0.0000   -0.0000    0.0110    0.0000
       47 RE     8d2-       0.0000    0.0000    0.0000    0.0014    0.0000    0.0034   -0.0000    0.0000   -0.0060   -0.0000
       48 RE     9d2-      -0.0000   -0.0000   -0.0000   -0.0011   -0.0000   -0.0013    0.0000   -0.0000    0.0019    0.0000
       49 RE    10d2-       0.0000    0.0000    0.0000    0.0011   -0.0000   -0.0001    0.0000   -0.0000   -0.0001   -0.0000
       50 RE    11d2-      -0.0000   -0.0000   -0.0000   -0.0002   -0.0000    0.0015   -0.0000    0.0000   -0.0008   -0.0000
       51 RE     3d1-      -0.0000   -0.0000   -0.0000   -0.8482   -0.0000   -0.0025    0.0000   -0.0000   -0.0011   -0.0000
       52 RE     4d1-       0.0000    0.0000    0.0000    0.0051    0.0000    0.0800   -0.0000    0.0000   -0.5714   -0.0000
       53 RE     5d1-      -0.0000   -0.0000   -0.0000   -0.0011    0.0000   -0.0058    0.0000   -0.0000   -0.0095   -0.0000
       54 RE     6d1-       0.0000    0.0000    0.0000    0.0014   -0.0000    0.0064   -0.0000    0.0000    0.0091    0.0000
       55 RE     7d1-      -0.0000   -0.0000   -0.0000   -0.0018    0.0000   -0.0065    0.0000   -0.0000   -0.0078   -0.0000
       56 RE     8d1-       0.0000    0.0000    0.0000    0.0020   -0.0000    0.0044   -0.0000    0.0000    0.0042    0.0000
       57 RE     9d1-      -0.0000   -0.0000   -0.0000   -0.0016    0.0000   -0.0016    0.0000   -0.0000   -0.0013   -0.0000
       58 RE    10d1-       0.0000    0.0000    0.0000    0.0017   -0.0000   -0.0003    0.0000   -0.0000    0.0000   -0.0000
       59 RE    11d1-       0.0000   -0.0000   -0.0000   -0.0004    0.0000    0.0020   -0.0000    0.0000    0.0005    0.0000
       60 RE     3d0       -0.0034    0.9121    0.4098   -0.0000   -0.0016   -0.0000   -0.0001    0.0026   -0.0000    0.0000
       61 RE     4d0        0.0000   -0.0053   -0.0024    0.0000    0.0196    0.0000    0.0013   -0.0567    0.0000    0.0015
       62 RE     5d0       -0.0000    0.0010    0.0005   -0.0000   -0.0022   -0.0000   -0.0001    0.0051   -0.0000    0.0001
       63 RE     6d0        0.0000   -0.0013   -0.0006    0.0000    0.0026    0.0000    0.0002   -0.0058    0.0000   -0.0001
       64 RE     7d0       -0.0000    0.0018    0.0008   -0.0000   -0.0029   -0.0000   -0.0002    0.0061   -0.0000    0.0001
       65 RE     8d0        0.0000   -0.0020   -0.0009    0.0000    0.0023    0.0000    0.0001   -0.0045   -0.0000   -0.0001
       66 RE     9d0       -0.0000    0.0016    0.0007   -0.0000   -0.0010   -0.0000   -0.0001    0.0018   -0.0000    0.0000
       67 RE    10d0        0.0000   -0.0016   -0.0007    0.0000    0.0001    0.0000    0.0000   -0.0000    0.0000   -0.0000
       68 RE    11d0       -0.0000    0.0004    0.0002   -0.0000    0.0010    0.0000    0.0001   -0.0020    0.0000   -0.0000
       69 RE     3d1+      -0.5147   -0.3529    0.7811   -0.0000   -0.0000   -0.0000   -0.0025   -0.0001   -0.0000    0.0011
       70 RE     4d1+       0.0008    0.0021   -0.0047    0.0000    0.0011    0.0000    0.0802    0.0026   -0.0000    0.5610
       71 RE     5d1+      -0.0002   -0.0004    0.0010   -0.0000    0.0000   -0.0000   -0.0058   -0.0002   -0.0000    0.0078
       72 RE     6d1+       0.0002    0.0006   -0.0012    0.0000   -0.0001    0.0000    0.0064    0.0002    0.0000   -0.0075
       73 RE     7d1+      -0.0003   -0.0007    0.0016   -0.0000    0.0001   -0.0000   -0.0065   -0.0002   -0.0000    0.0064
       74 RE     8d1+       0.0004    0.0008   -0.0019    0.0000   -0.0001    0.0000    0.0045    0.0001    0.0000   -0.0035
       75 RE     9d1+      -0.0003   -0.0006    0.0014   -0.0000    0.0001   -0.0000   -0.0016   -0.0000   -0.0000    0.0011
       76 RE    10d1+       0.0004    0.0007   -0.0015    0.0000   -0.0000   -0.0000   -0.0003   -0.0000    0.0000    0.0000
       77 RE    11d1+      -0.0003   -0.0002    0.0004   -0.0000    0.0000    0.0000    0.0020    0.0001    0.0000   -0.0005
       78 RE     3d2+      -0.8573    0.2083   -0.4706    0.0000   -0.0000    0.0000    0.0019    0.0001   -0.0000    0.0017
       79 RE     4d2+       0.0021   -0.0015    0.0033   -0.0000    0.0006   -0.0000   -0.0530   -0.0016   -0.0000    0.8267
       80 RE     5d2+      -0.0005    0.0003   -0.0007    0.0000    0.0000    0.0000    0.0043    0.0001   -0.0000    0.0117
       81 RE     6d2+       0.0006   -0.0004    0.0009   -0.0000   -0.0000   -0.0000   -0.0047   -0.0001    0.0000   -0.0114
       82 RE     7d2+      -0.0008    0.0005   -0.0011    0.0000    0.0001    0.0000    0.0049    0.0002   -0.0000    0.0100
       83 RE     8d2+       0.0009   -0.0006    0.0013   -0.0000   -0.0001   -0.0000   -0.0034   -0.0001    0.0000   -0.0055
       84 RE     9d2+      -0.0007    0.0004   -0.0010    0.0000    0.0000    0.0000    0.0013    0.0000   -0.0000    0.0018
       85 RE    10d2+       0.0008   -0.0004    0.0010   -0.0000   -0.0000    0.0000    0.0001    0.0000    0.0000   -0.0000
       86 RE    11d2+      -0.0004    0.0001   -0.0001    0.0000    0.0000   -0.0000   -0.0015   -0.0000    0.0000   -0.0009
       87 RE     4f3-      -0.0000    0.0000   -0.0000   -0.0000   -0.0000   -0.0004    0.0000   -0.0000    0.0001    0.0000
       88 RE     5f3-       0.0000    0.0000    0.0000    0.0000   -0.0000    0.0001   -0.0000   -0.0000    0.0000    0.0000
       89 RE     6f3-      -0.0000    0.0000   -0.0000   -0.0000   -0.0000   -0.0001    0.0000    0.0000    0.0000    0.0000
       90 RE     7f3-       0.0000   -0.0000    0.0000    0.0000    0.0000   -0.0000   -0.0000   -0.0000    0.0000   -0.0000
       91 RE     8f3-      -0.0000    0.0000   -0.0000   -0.0000   -0.0000    0.0000   -0.0000   -0.0000   -0.0000   -0.0000
       92 RE     9f3-       0.0000   -0.0000    0.0000    0.0000   -0.0000   -0.0000    0.0000    0.0000    0.0000    0.0000
       93 RE    10f3-      -0.0000    0.0000   -0.0000   -0.0000    0.0000    0.0000   -0.0000   -0.0000   -0.0000   -0.0000
       94 RE    11f3-       0.0000   -0.0000    0.0000   -0.0000   -0.0000   -0.0000    0.0000    0.0000    0.0000    0.0000
       95 RE     4f2-       0.0000   -0.0000   -0.0000   -0.0044   -0.0000   -0.0190    0.0000   -0.0000    0.0317    0.0000
       96 RE     5f2-      -0.0000    0.0000    0.0000    0.0025   -0.0000    0.0066   -0.0000    0.0000   -0.0069   -0.0000
       97 RE     6f2-       0.0000   -0.0000   -0.0000   -0.0025    0.0000   -0.0042    0.0000   -0.0000    0.0031    0.0000
       98 RE     7f2-      -0.0000    0.0000    0.0000    0.0017   -0.0000    0.0008   -0.0000    0.0000    0.0005    0.0000
       99 RE     8f2-       0.0000   -0.0000   -0.0000   -0.0010   -0.0000    0.0011   -0.0000    0.0000   -0.0015   -0.0000
      100 RE     9f2-      -0.0000    0.0000    0.0000    0.0003    0.0000   -0.0016    0.0000   -0.0000    0.0013    0.0000
      101 RE    10f2-       0.0000    0.0000    0.0000    0.0001   -0.0000    0.0018   -0.0000    0.0000   -0.0011   -0.0000
      102 RE    11f2-      -0.0000   -0.0000   -0.0000   -0.0006    0.0000   -0.0006    0.0000   -0.0000    0.0004    0.0000
      103 RE     4f1-      -0.0000   -0.0000   -0.0000   -0.0008    0.0000   -0.0074    0.0000   -0.0000   -0.0139   -0.0000
      104 RE     5f1-       0.0000    0.0000    0.0000    0.0005   -0.0000    0.0028   -0.0000    0.0000    0.0024    0.0000
      105 RE     6f1-      -0.0000   -0.0000   -0.0000   -0.0005   -0.0000   -0.0018    0.0000    0.0000   -0.0008   -0.0000
      106 RE     7f1-       0.0000    0.0000    0.0000    0.0004    0.0000    0.0002   -0.0000   -0.0000   -0.0005   -0.0000
      107 RE     8f1-      -0.0000   -0.0000   -0.0000   -0.0003   -0.0000    0.0006   -0.0000    0.0000    0.0007    0.0000
      108 RE     9f1-       0.0000    0.0000    0.0000    0.0002   -0.0000   -0.0008    0.0000   -0.0000   -0.0005   -0.0000
      109 RE    10f1-      -0.0000   -0.0000   -0.0000   -0.0001    0.0000    0.0007   -0.0000    0.0000    0.0004    0.0000
      110 RE    11f1-       0.0000    0.0000    0.0000    0.0001    0.0000   -0.0002    0.0000   -0.0000   -0.0002   -0.0000
      111 RE     4f0        0.0000   -0.0016   -0.0007    0.0000    0.0349    0.0000    0.0008   -0.0101    0.0000   -0.0005
      112 RE     5f0        0.0000    0.0009    0.0004   -0.0000   -0.0133   -0.0000   -0.0001    0.0033    0.0000    0.0001
      113 RE     6f0       -0.0000   -0.0008   -0.0004    0.0000    0.0089   -0.0000   -0.0001   -0.0021    0.0000   -0.0001
      114 RE     7f0        0.0000    0.0004    0.0002   -0.0000   -0.0016    0.0000    0.0001    0.0003   -0.0000    0.0000
      115 RE     8f0       -0.0000   -0.0001   -0.0001    0.0000   -0.0025   -0.0000   -0.0000    0.0006   -0.0000    0.0000
      116 RE     9f0        0.0000   -0.0002   -0.0001    0.0000    0.0039    0.0000    0.0000   -0.0009    0.0000   -0.0000
      117 RE    10f0       -0.0000    0.0004    0.0002   -0.0000   -0.0042   -0.0000   -0.0000    0.0009   -0.0000    0.0000
      118 RE    11f0        0.0000   -0.0006   -0.0003    0.0000    0.0016    0.0000    0.0000   -0.0003    0.0000   -0.0000
      119 RE     4f1+      -0.0008   -0.0003    0.0008   -0.0000    0.0001   -0.0000   -0.0071   -0.0011   -0.0000    0.0136
      120 RE     5f1+       0.0005    0.0002   -0.0004    0.0000   -0.0000    0.0000    0.0027    0.0001    0.0000   -0.0023
      121 RE     6f1+      -0.0005   -0.0002    0.0005   -0.0000   -0.0000   -0.0000   -0.0017    0.0000   -0.0000    0.0009
      122 RE     7f1+       0.0004    0.0002   -0.0003    0.0000    0.0000    0.0000    0.0002   -0.0001   -0.0000    0.0004
      123 RE     8f1+      -0.0003   -0.0001    0.0003   -0.0000   -0.0000    0.0000    0.0006    0.0001    0.0000   -0.0007
      124 RE     9f1+       0.0002    0.0001   -0.0002    0.0000   -0.0000   -0.0000   -0.0007   -0.0000   -0.0000    0.0005
      125 RE    10f1+      -0.0002   -0.0001    0.0001   -0.0000    0.0000    0.0000    0.0007    0.0000    0.0000   -0.0004
      126 RE    11f1+       0.0001    0.0000   -0.0001    0.0000    0.0000   -0.0000   -0.0002   -0.0000   -0.0000    0.0001
      127 RE     4f2+      -0.0023    0.0018   -0.0039    0.0000    0.0000    0.0000    0.0177    0.0001   -0.0000    0.0327
      128 RE     5f2+       0.0013   -0.0010    0.0023   -0.0000   -0.0000   -0.0000   -0.0066   -0.0002    0.0000   -0.0072
      129 RE     6f2+      -0.0014    0.0010   -0.0023    0.0000   -0.0000    0.0000    0.0045    0.0003   -0.0000    0.0033
      130 RE     7f2+       0.0010   -0.0007    0.0015   -0.0000    0.0000   -0.0000   -0.0010   -0.0001   -0.0000    0.0005
      131 RE     8f2+      -0.0007    0.0004   -0.0009    0.0000   -0.0000   -0.0000   -0.0010   -0.0000    0.0000   -0.0016
      132 RE     9f2+       0.0004   -0.0001    0.0003   -0.0000    0.0000    0.0000    0.0017    0.0001   -0.0000    0.0014
      133 RE    10f2+      -0.0002   -0.0001    0.0001   -0.0000    0.0000   -0.0000   -0.0018   -0.0001    0.0000   -0.0011
      134 RE    11f2+      -0.0001    0.0003   -0.0006    0.0000   -0.0000    0.0000    0.0006    0.0000   -0.0000    0.0004
      135 RE     4f3+      -0.0000    0.0015    0.0007   -0.0000    0.0228   -0.0000   -0.0010    0.0201    0.0000   -0.0001
      136 RE     5f3+       0.0000   -0.0009   -0.0004    0.0000   -0.0087    0.0000    0.0002   -0.0072   -0.0000    0.0001
      137 RE     6f3+      -0.0000    0.0009    0.0004   -0.0000    0.0058    0.0000    0.0000    0.0047    0.0000   -0.0000
      138 RE     7f3+       0.0000   -0.0006   -0.0003    0.0000   -0.0010   -0.0000   -0.0001   -0.0009   -0.0000    0.0000
      139 RE     8f3+      -0.0000    0.0004    0.0002   -0.0000   -0.0016    0.0000    0.0000   -0.0011    0.0000   -0.0000
      140 RE     9f3+       0.0000   -0.0002   -0.0001    0.0000    0.0025   -0.0000   -0.0000    0.0017    0.0000   -0.0000
      141 RE    10f3+      -0.0000    0.0000    0.0000   -0.0000   -0.0027    0.0000    0.0000   -0.0019   -0.0000    0.0000
      142 RE    11f3+       0.0000    0.0002    0.0001   -0.0000    0.0010   -0.0000   -0.0000    0.0007    0.0000   -0.0000
      143 RE     5g4-      -0.0000   -0.0000   -0.0000   -0.0006    0.0000   -0.0057    0.0000   -0.0000   -0.0009    0.0000
      144 RE     6g4-       0.0000    0.0000    0.0000    0.0005   -0.0000    0.0040   -0.0000    0.0000    0.0006    0.0000
      145 RE     7g4-      -0.0000   -0.0000   -0.0000   -0.0004   -0.0000   -0.0032    0.0000   -0.0000   -0.0005   -0.0000
      146 RE     8g4-       0.0000    0.0000    0.0000    0.0003    0.0000    0.0018   -0.0000    0.0000    0.0003    0.0000
      147 RE     5g3-       0.0000   -0.0000    0.0000    0.0000    0.0000   -0.0000    0.0000   -0.0000   -0.0004   -0.0000
      148 RE     6g3-      -0.0000    0.0000   -0.0000   -0.0000   -0.0000    0.0000   -0.0000    0.0000    0.0001    0.0000
      149 RE     7g3-       0.0000   -0.0000    0.0000    0.0000   -0.0000   -0.0000    0.0000   -0.0000    0.0001    0.0000
      150 RE     8g3-      -0.0000    0.0000   -0.0000   -0.0000    0.0000    0.0000    0.0000    0.0000   -0.0000   -0.0000
      151 RE     5g2-       0.0000    0.0000    0.0000    0.0004   -0.0000    0.0006   -0.0000    0.0000   -0.0003   -0.0000
      152 RE     6g2-      -0.0000   -0.0000   -0.0000   -0.0004    0.0000   -0.0007    0.0000   -0.0000    0.0004    0.0000
      153 RE     7g2-       0.0000    0.0000    0.0000    0.0004    0.0000    0.0006   -0.0000    0.0000   -0.0002   -0.0000
      154 RE     8g2-      -0.0000   -0.0000   -0.0000   -0.0002   -0.0000   -0.0004    0.0000   -0.0000    0.0000    0.0000
      155 RE     5g1-       0.0000   -0.0000   -0.0000   -0.0005   -0.0000   -0.0067    0.0000   -0.0000    0.0029    0.0000
      156 RE     6g1-      -0.0000    0.0000    0.0000    0.0003    0.0000    0.0047   -0.0000    0.0000   -0.0019   -0.0000
      157 RE     7g1-       0.0000   -0.0000   -0.0000   -0.0003    0.0000   -0.0039    0.0000   -0.0000    0.0016    0.0000
      158 RE     8g1-      -0.0000    0.0000    0.0000    0.0002   -0.0000    0.0022   -0.0000    0.0000   -0.0009   -0.0000
      159 RE     5g0       -0.0000   -0.0011   -0.0005    0.0000    0.0007    0.0000    0.0004   -0.0120   -0.0000    0.0003
      160 RE     6g0       -0.0000    0.0008    0.0004   -0.0000   -0.0005   -0.0000   -0.0002    0.0085    0.0000   -0.0001
      161 RE     7g0        0.0000   -0.0007   -0.0003    0.0000    0.0004    0.0000    0.0002   -0.0070    0.0000   -0.0001
      162 RE     8g0       -0.0000    0.0005    0.0002   -0.0000   -0.0003   -0.0000   -0.0001    0.0041   -0.0000    0.0000
      163 RE     5g1+       0.0003   -0.0002    0.0005   -0.0000   -0.0000   -0.0000   -0.0067   -0.0002    0.0000   -0.0025
      164 RE     6g1+      -0.0002    0.0001   -0.0003    0.0000    0.0000    0.0000    0.0047    0.0001   -0.0000    0.0018
      165 RE     7g1+       0.0002   -0.0001    0.0003   -0.0000    0.0000   -0.0000   -0.0039   -0.0001    0.0000   -0.0017
      166 RE     8g1+      -0.0002    0.0001   -0.0002    0.0000   -0.0000    0.0000    0.0022    0.0001   -0.0000    0.0010
      167 RE     5g2+       0.0001   -0.0002    0.0003   -0.0000    0.0000   -0.0000   -0.0007   -0.0000   -0.0000   -0.0010
      168 RE     6g2+      -0.0001    0.0001   -0.0003    0.0000   -0.0000    0.0000    0.0007    0.0000   -0.0000    0.0004
      169 RE     7g2+       0.0001   -0.0001    0.0003   -0.0000   -0.0000   -0.0000   -0.0006   -0.0000    0.0000   -0.0001
      170 RE     8g2+      -0.0000    0.0001   -0.0002    0.0000    0.0000    0.0000    0.0004    0.0000   -0.0000    0.0000
      171 RE     5g3+       0.0000   -0.0003   -0.0001    0.0000   -0.0057    0.0000    0.0002   -0.0075    0.0000   -0.0008
      172 RE     6g3+      -0.0000    0.0002    0.0001   -0.0000    0.0044   -0.0000   -0.0001    0.0055   -0.0000    0.0002
      173 RE     7g3+       0.0000   -0.0002   -0.0001    0.0000   -0.0040    0.0000    0.0001   -0.0046   -0.0000    0.0001
      174 RE     8g3+      -0.0000    0.0001    0.0001   -0.0000    0.0025   -0.0000   -0.0001    0.0027    0.0000   -0.0001
      175 RE     5g4+       0.0000   -0.0002    0.0005   -0.0000    0.0001   -0.0000   -0.0057   -0.0002   -0.0000    0.0002
      176 RE     6g4+       0.0000    0.0002   -0.0004    0.0000   -0.0000    0.0000    0.0040    0.0001    0.0000   -0.0004
      177 RE     7g4+      -0.0000   -0.0002    0.0004   -0.0000   -0.0000   -0.0000   -0.0032   -0.0001   -0.0000    0.0005
      178 RE     8g4+       0.0000    0.0001   -0.0003    0.0000    0.0000    0.0000    0.0018    0.0001    0.0000   -0.0003
      179 RE     6h5-      -0.0000    0.0000    0.0000    0.0000    0.0000    0.0003   -0.0000    0.0000   -0.0014   -0.0000
      180 RE     7h5-       0.0000   -0.0000   -0.0000   -0.0001   -0.0000   -0.0003    0.0000   -0.0000    0.0016    0.0000
      181 RE     6h4-       0.0000    0.0000    0.0000    0.0001   -0.0000    0.0009   -0.0000   -0.0000    0.0007    0.0000
      182 RE     7h4-      -0.0000   -0.0000   -0.0000   -0.0001   -0.0000   -0.0011    0.0000    0.0000   -0.0009   -0.0000
      183 RE     6h3-       0.0000    0.0000   -0.0000   -0.0000   -0.0000   -0.0000    0.0000   -0.0000   -0.0000   -0.0000
      184 RE     7h3-      -0.0000    0.0000   -0.0000   -0.0000   -0.0000    0.0000   -0.0000    0.0000    0.0000    0.0000
      185 RE     6h2-      -0.0000    0.0000    0.0000    0.0000   -0.0000    0.0005   -0.0000    0.0000   -0.0009   -0.0000
      186 RE     7h2-       0.0000   -0.0000   -0.0000   -0.0001   -0.0000   -0.0005    0.0000   -0.0000    0.0012    0.0000
      187 RE     6h1-       0.0000    0.0000    0.0000    0.0001   -0.0000    0.0006   -0.0000    0.0000    0.0013    0.0000
      188 RE     7h1-      -0.0000   -0.0000   -0.0000   -0.0001    0.0000   -0.0006    0.0000   -0.0000   -0.0014   -0.0000
      189 RE     6h0        0.0000   -0.0001   -0.0001    0.0000    0.0003    0.0000    0.0000   -0.0011   -0.0000    0.0000
      190 RE     7h0       -0.0000    0.0002    0.0001   -0.0000   -0.0004   -0.0000   -0.0000    0.0011    0.0000   -0.0000
      191 RE     6h1+       0.0000    0.0000   -0.0001    0.0000   -0.0000    0.0000    0.0007    0.0000    0.0000   -0.0012
      192 RE     7h1+      -0.0000   -0.0001    0.0001   -0.0000    0.0000   -0.0000   -0.0006   -0.0000   -0.0000    0.0014
      193 RE     6h2+       0.0000   -0.0000    0.0000   -0.0000   -0.0000   -0.0000   -0.0004   -0.0000    0.0000   -0.0010
      194 RE     7h2+      -0.0001    0.0000   -0.0000    0.0000   -0.0000    0.0000    0.0004    0.0000   -0.0000    0.0012
      195 RE     6h3+       0.0000   -0.0000   -0.0000    0.0000    0.0004   -0.0000   -0.0000    0.0006    0.0000   -0.0000
      196 RE     7h3+      -0.0000    0.0000    0.0000   -0.0000   -0.0007    0.0000    0.0000   -0.0010   -0.0000    0.0000
      197 RE     6h4+       0.0000    0.0000   -0.0001    0.0000   -0.0000    0.0000    0.0009   -0.0000    0.0000   -0.0007
      198 RE     7h4+      -0.0000   -0.0000    0.0001   -0.0000   -0.0000   -0.0000   -0.0011    0.0000   -0.0000    0.0009
      199 RE     6h5+       0.0001   -0.0000    0.0000   -0.0000   -0.0000   -0.0000   -0.0004   -0.0000    0.0000   -0.0014
      200 RE     7h5+      -0.0001    0.0000   -0.0001    0.0000    0.0000    0.0000    0.0004    0.0000   -0.0000    0.0016

          Orbital           21        22        23        24        25        26        27        28        29        30    
          Energy          -10.1928  -10.1188  -10.1100   -4.4261   -2.9148   -2.9129   -2.8753   -2.3908   -2.2912   -2.2499
          Occ. No.          2.0000    2.0000    2.0000    2.0000    2.0000    2.0000    2.0000    2.0000    2.0000    2.0000

        1 RE     1s        -0.0000   -0.0000    0.0000   -0.0000   -0.0000   -0.0000    0.0000   -0.0000    0.0000    0.0000
        2 RE     2s        -0.0000   -0.0000    0.0000    0.0000    0.0000    0.0000   -0.0000   -0.0000    0.0000   -0.0000
        3 RE     3s         0.0007    0.0001   -0.0000   -0.0007   -0.0000   -0.0000    0.0002   -0.0000    0.0004    0.0000
        4 RE     4s         0.0152    0.0022   -0.0000   -0.0125   -0.0004   -0.0000    0.0033   -0.0000    0.0047    0.0000
        5 RE     5s         0.0107    0.0001    0.0000    0.9950    0.0086    0.0000   -0.0573    0.0000   -0.0151   -0.0000
        6 RE     6s        -0.0019   -0.0000   -0.0000    0.0272    0.0011    0.0000   -0.0092    0.0000   -0.0077   -0.0000
        7 RE     7s         0.0025    0.0000    0.0000   -0.0259   -0.0011   -0.0000    0.0085   -0.0000    0.0068    0.0000
        8 RE     8s        -0.0034   -0.0001    0.0000    0.0288    0.0009    0.0000   -0.0066    0.0000   -0.0050   -0.0000
        9 RE     9s         0.0017    0.0002   -0.0000   -0.0072   -0.0000   -0.0000    0.0004   -0.0000    0.0005    0.0000
       10 RE    10s        -0.0004   -0.0001    0.0000    0.0005    0.0000   -0.0000   -0.0002    0.0000   -0.0005   -0.0000
       11 RE    11s        -0.0006   -0.0001    0.0000   -0.0004   -0.0000   -0.0000   -0.0000    0.0000   -0.0001    0.0000
       12 RE     2px       -0.0000    0.0001   -0.0000    0.0000    0.0000    0.0000    0.0000   -0.0000    0.0000    0.0000
       13 RE     3px        0.0003   -0.0031    0.0000   -0.0000   -0.0007   -0.0000   -0.0001    0.0000    0.0001    0.0000
       14 RE     4px        0.0099   -0.0915    0.0000   -0.0001   -0.0136   -0.0000   -0.0019    0.0000    0.0015    0.0000
       15 RE     5px        0.0029   -0.0279    0.0000   -0.0007    0.9815    0.0000    0.1339   -0.0000   -0.0020   -0.0000
       16 RE     6px       -0.0008    0.0083   -0.0000    0.0001    0.0194    0.0000    0.0041    0.0000    0.0023   -0.0000
       17 RE     7px        0.0014   -0.0146    0.0000   -0.0001   -0.0344   -0.0000   -0.0048    0.0000   -0.0010    0.0000
       18 RE     8px       -0.0007    0.0068   -0.0000   -0.0000    0.0069    0.0000    0.0003   -0.0000   -0.0006    0.0000
       19 RE     9px        0.0002   -0.0020    0.0000    0.0000    0.0028    0.0000    0.0003    0.0000    0.0001   -0.0000
       20 RE    10px       -0.0000   -0.0000    0.0000    0.0000    0.0000    0.0000    0.0002   -0.0000    0.0001   -0.0000
       21 RE    11px       -0.0003    0.0026   -0.0000    0.0000    0.0008    0.0000    0.0001   -0.0000   -0.0000    0.0000
       22 RE     2py       -0.0000   -0.0000   -0.0001    0.0000    0.0000   -0.0000    0.0000    0.0000    0.0000    0.0000
       23 RE     3py        0.0000    0.0000    0.0031   -0.0000   -0.0000    0.0007   -0.0000   -0.0000    0.0000    0.0002
       24 RE     4py        0.0000    0.0000    0.0916   -0.0000   -0.0000    0.0142   -0.0000   -0.0004    0.0000    0.0009
       25 RE     5py        0.0000    0.0000    0.0280   -0.0000    0.0000   -0.9922    0.0000    0.0232    0.0000   -0.0198
       26 RE     6py       -0.0000   -0.0000   -0.0084    0.0000    0.0000   -0.0204    0.0000   -0.0014    0.0000   -0.0028
       27 RE     7py        0.0000    0.0000    0.0148   -0.0000   -0.0000    0.0354   -0.0000   -0.0001   -0.0000    0.0024
       28 RE     8py       -0.0000   -0.0000   -0.0069   -0.0000    0.0000   -0.0071    0.0000    0.0006   -0.0000    0.0001
       29 RE     9py        0.0000    0.0000    0.0020    0.0000    0.0000   -0.0027    0.0000    0.0000    0.0000   -0.0002
       30 RE    10py       -0.0000    0.0000    0.0000    0.0000   -0.0000    0.0001    0.0000   -0.0000    0.0000   -0.0000
       31 RE    11py       -0.0000   -0.0000   -0.0027    0.0000    0.0000   -0.0008    0.0000    0.0000   -0.0000    0.0000
       32 RE     2pz        0.0000    0.0000   -0.0000   -0.0000   -0.0000   -0.0000    0.0000    0.0000   -0.0000    0.0000
       33 RE     3pz        0.0022    0.0002   -0.0000    0.0002    0.0002    0.0000   -0.0011    0.0000   -0.0021   -0.0000
       34 RE     4pz        0.0544    0.0053   -0.0000    0.0021    0.0028    0.0000   -0.0184    0.0000   -0.0250   -0.0000
       35 RE     5pz        0.0207    0.0022   -0.0000    0.0608   -0.1318   -0.0000    0.9722   -0.0000    0.1667    0.0000
       36 RE     6pz       -0.0066   -0.0007    0.0000   -0.0070   -0.0019   -0.0000    0.0259    0.0000    0.0374    0.0000
       37 RE     7pz        0.0117    0.0012   -0.0000    0.0072    0.0056    0.0000   -0.0430   -0.0000   -0.0370   -0.0000
       38 RE     8pz       -0.0056   -0.0006    0.0000   -0.0006   -0.0019   -0.0000    0.0089   -0.0000    0.0025   -0.0000
       39 RE     9pz        0.0017    0.0002   -0.0000   -0.0002   -0.0004   -0.0000    0.0027    0.0000    0.0009    0.0000
       40 RE    10pz       -0.0000   -0.0000   -0.0000   -0.0001    0.0002    0.0000    0.0001    0.0000    0.0011    0.0000
       41 RE    11pz       -0.0023   -0.0002    0.0000   -0.0002   -0.0002   -0.0000    0.0012    0.0000    0.0017    0.0000
       42 RE     3d2-      -0.0000   -0.0000   -0.0033   -0.0000    0.0000   -0.0003    0.0000    0.0001   -0.0000    0.0014
       43 RE     4d2-      -0.0000   -0.0000   -0.5636   -0.0000    0.0000   -0.0074    0.0000    0.0022   -0.0000    0.0240
       44 RE     5d2-      -0.0000   -0.0000   -0.0176    0.0000    0.0000   -0.0169    0.0000    0.0035   -0.0000    0.0349
       45 RE     6d2-       0.0000    0.0000    0.0178   -0.0000   -0.0000    0.0105   -0.0000   -0.0020    0.0000   -0.0187
       46 RE     7d2-      -0.0000   -0.0000   -0.0163    0.0000    0.0000   -0.0053    0.0000    0.0009   -0.0000    0.0076
       47 RE     8d2-       0.0000    0.0000    0.0094    0.0000   -0.0000    0.0016   -0.0000   -0.0002    0.0000   -0.0020
       48 RE     9d2-      -0.0000   -0.0000   -0.0031   -0.0000    0.0000   -0.0007    0.0000    0.0001   -0.0000    0.0011
       49 RE    10d2-       0.0000    0.0000    0.0001   -0.0000   -0.0000    0.0002   -0.0000   -0.0000    0.0000   -0.0002
       50 RE    11d2-       0.0000    0.0000    0.0023   -0.0000   -0.0000    0.0005   -0.0000   -0.0001    0.0000   -0.0004
       51 RE     3d1-      -0.0000   -0.0000   -0.0048    0.0000    0.0000   -0.0006    0.0000    0.0001   -0.0000   -0.0003
       52 RE     4d1-      -0.0000   -0.0000   -0.8128    0.0000    0.0000   -0.0127    0.0000    0.0012   -0.0000   -0.0032
       53 RE     5d1-      -0.0000   -0.0000   -0.0259   -0.0000    0.0000   -0.0428    0.0000    0.0033   -0.0000    0.0175
       54 RE     6d1-       0.0000    0.0000    0.0260    0.0000   -0.0000    0.0247   -0.0000   -0.0019    0.0000   -0.0081
       55 RE     7d1-      -0.0000   -0.0000   -0.0234   -0.0000    0.0000   -0.0103    0.0000    0.0008   -0.0000    0.0023
       56 RE     8d1-       0.0000    0.0000    0.0133   -0.0000   -0.0000    0.0019   -0.0000   -0.0001    0.0000   -0.0002
       57 RE     9d1-      -0.0000   -0.0000   -0.0043    0.0000    0.0000   -0.0011    0.0000    0.0001   -0.0000    0.0004
       58 RE    10d1-       0.0000    0.0000    0.0000    0.0000   -0.0000    0.0003   -0.0000   -0.0000    0.0000    0.0000
       59 RE    11d1-       0.0000    0.0000    0.0031    0.0000   -0.0000    0.0006   -0.0000   -0.0001    0.0000   -0.0002
       60 RE     3d0        0.0056    0.0006   -0.0000   -0.0005    0.0001    0.0000   -0.0005    0.0000   -0.0022   -0.0000
       61 RE     4d0        0.9896    0.1027   -0.0000   -0.0105    0.0014    0.0000   -0.0093    0.0000   -0.0428   -0.0000
       62 RE     5d0        0.0284    0.0028   -0.0000   -0.0029    0.0002   -0.0000    0.0005    0.0000   -0.0911   -0.0000
       63 RE     6d0       -0.0286   -0.0029    0.0000    0.0032   -0.0004   -0.0000    0.0019   -0.0000    0.0476    0.0000
       64 RE     7d0        0.0259    0.0026   -0.0000   -0.0035    0.0006    0.0000   -0.0033    0.0000   -0.0184   -0.0000
       65 RE     8d0       -0.0149   -0.0015    0.0000    0.0025   -0.0004   -0.0000    0.0026   -0.0000    0.0046    0.0000
       66 RE     9d0        0.0049    0.0005   -0.0000   -0.0010    0.0001    0.0000   -0.0010    0.0000   -0.0028   -0.0000
       67 RE    10d0       -0.0001   -0.0000    0.0000    0.0003   -0.0000   -0.0000    0.0003    0.0000    0.0005    0.0000
       68 RE    11d0       -0.0032   -0.0003    0.0000    0.0004   -0.0001   -0.0000    0.0006   -0.0000    0.0013    0.0000
       69 RE     3d1+      -0.0005    0.0048   -0.0000    0.0000    0.0005    0.0000    0.0001   -0.0000   -0.0001   -0.0000
       70 RE     4d1+      -0.0855    0.8156   -0.0000    0.0018    0.0117    0.0000    0.0018   -0.0000   -0.0020   -0.0000
       71 RE     5d1+      -0.0028    0.0258   -0.0000   -0.0043    0.0410    0.0000    0.0067   -0.0000   -0.0028    0.0000
       72 RE     6d1+       0.0028   -0.0258    0.0000    0.0031   -0.0238   -0.0000   -0.0037    0.0000    0.0018   -0.0000
       73 RE     7d1+      -0.0025    0.0232   -0.0000   -0.0010    0.0099    0.0000    0.0014   -0.0000   -0.0010    0.0000
       74 RE     8d1+       0.0014   -0.0132    0.0000   -0.0006   -0.0018   -0.0000   -0.0002    0.0000    0.0003   -0.0000
       75 RE     9d1+      -0.0004    0.0043   -0.0000    0.0002    0.0010    0.0000    0.0002   -0.0000   -0.0001    0.0000
       76 RE    10d1+       0.0000   -0.0000    0.0000    0.0001   -0.0003   -0.0000   -0.0000    0.0000    0.0000    0.0000
       77 RE    11d1+       0.0003   -0.0031    0.0000    0.0000   -0.0006   -0.0000   -0.0001    0.0000    0.0001   -0.0000
       78 RE     3d2+       0.0003   -0.0032    0.0000   -0.0000   -0.0003   -0.0000   -0.0000    0.0000    0.0002   -0.0000
       79 RE     4d2+       0.0558   -0.5502    0.0000    0.0007   -0.0064   -0.0000   -0.0007    0.0000    0.0027   -0.0000
       80 RE     5d2+       0.0020   -0.0179    0.0000   -0.0011   -0.0155   -0.0000   -0.0020    0.0000    0.0038   -0.0000
       81 RE     6d2+      -0.0019    0.0180   -0.0000    0.0009    0.0097    0.0000    0.0012   -0.0000   -0.0023    0.0000
       82 RE     7d2+       0.0017   -0.0163    0.0000   -0.0004   -0.0049   -0.0000   -0.0006    0.0000    0.0010   -0.0000
       83 RE     8d2+      -0.0010    0.0093   -0.0000   -0.0002    0.0015    0.0000    0.0002   -0.0000   -0.0003    0.0000
       84 RE     9d2+       0.0003   -0.0031    0.0000    0.0001   -0.0007   -0.0000   -0.0001    0.0000    0.0001   -0.0000
[...]
         6   10       2.98641240E-04  4.43994868E-09  3.06718962E+04  6.09025366E-11  3.06718962E+04
         6   12       2.99016235E-01  2.32875236E+08  3.02191645E-04  2.94577746E+08  5.27452983E+08
         6   14       3.66108619E-01  1.86790469E-04  6.70852284E+08  1.53667526E-04  6.70852284E+08
         6   16       4.65790121E-01  7.26965697E+08  4.58053545E-06  2.15654873E+08  9.42620570E+08
         6   18       3.89095168E-04  2.95625894E+05  4.85554930E-08  6.23219401E+05  9.18845295E+05
         7    9       4.17664254E-05  3.30268961E-10  5.28604186E+02  2.76881783E-11  5.28604186E+02
         7   11       6.40768499E-02  8.03923030E+07  2.94358315E-05  9.49396476E+03  8.04017970E+07
         7   13       3.80382478E-02  2.16750192E-05  4.99283745E+07  8.37504345E-06  4.99283745E+07
         7   15       6.72550576E-02  1.32752072E+05  7.89954798E-06  9.90843030E+07  9.92170551E+07
         7   17       2.38927781E-02  3.54103828E+07  2.98309896E-06  6.77342596E+06  4.21838088E+07
         8   10       4.17664254E-05  3.30268961E-10  5.28604186E+02  2.76881783E-11  5.28604186E+02
         8   12       6.40768499E-02  8.03923030E+07  2.94358315E-05  9.49396476E+03  8.04017970E+07
         8   14       3.80382478E-02  2.16750192E-05  4.99283745E+07  8.37504345E-06  4.99283745E+07
         8   16       6.72550576E-02  1.32752072E+05  7.89954798E-06  9.90843030E+07  9.92170551E+07
         8   18       2.38927781E-02  3.54103828E+07  2.98309896E-06  6.77342596E+06  4.21838088E+07
         9   11       1.76781443E-03  5.20737240E-06  1.79502248E+06  1.15962556E-05  1.79502248E+06
         9   13       6.96814448E-02  3.95638914E+07  5.85558633E-06  3.48184095E+07  7.43823010E+07
         9   15       7.94372157E-02  8.86573065E-09  9.64851552E+07  9.35309697E-06  9.64851552E+07
         9   17       1.89071654E-02  2.35162408E-06  2.79681791E+07  9.72425012E-07  2.79681791E+07
        10   12       1.76781443E-03  5.20737240E-06  1.79502248E+06  1.15962556E-05  1.79502248E+06
        10   14       6.96814448E-02  3.95638914E+07  5.85558633E-06  3.48184095E+07  7.43823010E+07
        10   16       7.94372157E-02  8.86573065E-09  9.64851552E+07  9.35309697E-06  9.64851552E+07
        10   18       1.89071654E-02  2.35162408E-06  2.79681791E+07  9.72425012E-07  2.79681791E+07
        11   13       3.49178337E-05  6.07931563E-11  2.27312653E+01  2.01862998E-10  2.27312653E+01
        11   15       1.33211261E-03  6.55153154E+02  1.00194085E-09  1.12225711E+04  1.18777242E+04
        11   17       4.34509563E-03  1.56783463E+05  2.61050977E-07  3.22396881E+04  1.89023151E+05
        12   14       3.49178337E-05  6.07931563E-11  2.27312653E+01  2.01862998E-10  2.27312653E+01
        12   16       1.33211261E-03  6.55153154E+02  1.00194085E-09  1.12225711E+04  1.18777242E+04
        12   18       4.34509563E-03  1.56783463E+05  2.61050977E-07  3.22396881E+04  1.89023151E+05
        13   15       1.37725447E-04  3.06284558E-10  6.54047471E+02  1.87591129E-09  6.54047471E+02
        13   17       1.01248229E-02  7.41338151E-08  3.39286312E+05  9.10606863E-09  3.39286312E+05
        14   16       1.37725447E-04  3.06284558E-10  6.54047471E+02  1.87591129E-09  6.54047471E+02
        14   18       1.01248229E-02  7.41338151E-08  3.39286312E+05  9.10606863E-09  3.39286312E+05
        15   17       3.80983849E-03  4.81118849E+04  3.88333571E-10  1.52757953E+03  4.96394644E+04
        16   18       3.80983849E-03  4.81118849E+04  3.88333571E-10  1.52757953E+03  4.96394644E+04
     -----------------------------------------------------------------------------------------------
--

++ Velocity transition strengths (SO states):
   ------------------------------------------
    for osc. strength at least    1.0000000000000001E-005

      From   To        Osc. strength     Einstein coefficients Ax, Ay, Az (sec-1)    Total A (sec-1)
     -----------------------------------------------------------------------------------------------
         1    3       1.73966170E-04  5.81636210E-11  4.00836272E+03  6.12329232E-11  4.00836272E+03
         1    5       5.59346046E-05  1.87240100E-10  2.12088605E+03  1.26991524E-09  2.12088605E+03
         1    7       4.85842530E-04  1.04074196E-08  7.87877780E+04  5.76193908E-10  7.87877780E+04
         1    9       1.39655440E-03  1.65145446E+05  4.59368589E-08  2.05543437E+05  3.70688883E+05
         1   11       6.48368222E-02  7.48240723E-05  1.50364773E+08  1.39255913E-04  1.50364773E+08
         1   13       7.17378657E-02  7.01752799E+07  1.99232786E-05  1.01815389E+08  1.71990669E+08
         1   15       7.90172862E-04  6.71433447E-06  2.06680998E+06  8.86346858E-07  2.06680998E+06
         1   17       2.35867391E-04  9.51745067E-08  7.07104001E+05  4.42999044E-07  7.07104001E+05
         2    4       1.73966170E-04  5.81636210E-11  4.00836272E+03  6.12329232E-11  4.00836272E+03
         2    6       5.59346046E-05  1.87240100E-10  2.12088605E+03  1.26991524E-09  2.12088605E+03
         2    8       4.85842530E-04  1.04074196E-08  7.87877780E+04  5.76193908E-10  7.87877780E+04
         2   10       1.39655440E-03  1.65145446E+05  4.59368589E-08  2.05543437E+05  3.70688883E+05
         2   12       6.48368222E-02  7.48240723E-05  1.50364773E+08  1.39255913E-04  1.50364773E+08
         2   14       7.17378657E-02  7.01752799E+07  1.99232786E-05  1.01815389E+08  1.71990669E+08
         2   16       7.90172862E-04  6.71433447E-06  2.06680998E+06  8.86346858E-07  2.06680998E+06
         2   18       2.35867391E-04  9.51745067E-08  7.07104001E+05  4.42999044E-07  7.07104001E+05
         3    5       3.03852218E-04  3.59618825E+02  1.78997847E-11  2.00395254E+02  5.60014078E+02
         3    7       3.18126287E-04  1.65735375E-02  1.59650408E-09  2.00274487E+04  2.00274653E+04
         3    9       2.70423829E-04  1.45378525E-11  3.57134712E+04  2.73526679E-09  3.57134712E+04
         3   11       1.58425111E-01  2.23451906E+07  2.39576877E-06  2.75469716E+08  2.97814907E+08
         3   13       1.38712551E-03  2.06519937E-05  2.70553625E+06  1.45151085E-04  2.70553625E+06
         3   15       5.19294675E-02  1.02004379E+07  6.27234946E-07  1.01328298E+08  1.11528736E+08
         3   17       3.06799282E-02  3.38721772E+06  3.68459377E-08  7.31680542E+07  7.65552719E+07
         4    6       3.03852218E-04  3.59618825E+02  1.78997847E-11  2.00395254E+02  5.60014078E+02
         4    8       3.18126287E-04  1.65735375E-02  1.59650408E-09  2.00274487E+04  2.00274653E+04
         4   10       2.70423829E-04  1.45378525E-11  3.57134712E+04  2.73526679E-09  3.57134712E+04
         4   12       1.58425111E-01  2.23451906E+07  2.39576877E-06  2.75469716E+08  2.97814907E+08
         4   14       1.38712551E-03  2.06519937E-05  2.70553625E+06  1.45151085E-04  2.70553625E+06
         4   16       5.19294675E-02  1.02004379E+07  6.27234946E-07  1.01328298E+08  1.11528736E+08
         4   18       3.06799282E-02  3.38721772E+06  3.68459377E-08  7.31680542E+07  7.65552719E+07
         5    7       1.27861298E-03  5.52985936E+04  2.41641775E-09  6.83181307E+00  5.53054254E+04
         5    9       6.40724751E-04  7.92911652E-09  6.58057520E+04  5.86289434E-10  6.58057520E+04
         5   11       2.74108793E-01  2.08682769E+08  2.77268922E-04  2.74836137E+08  4.83518906E+08
         5   13       3.37116220E-01  1.68172298E-04  6.17729168E+08  1.43569499E-04  6.17729168E+08
         5   15       4.27161620E-01  6.62316368E+08  4.29045261E-06  2.02134619E+08  8.64450987E+08
         5   17       2.15772430E-04  1.96280688E+05  2.34560908E-08  3.13266043E+05  5.09546731E+05
         6    8       1.27861298E-03  5.52985936E+04  2.41641775E-09  6.83181307E+00  5.53054254E+04
         6   10       6.40724751E-04  7.92911652E-09  6.58057520E+04  5.86289434E-10  6.58057520E+04
         6   12       2.74108793E-01  2.08682769E+08  2.77268922E-04  2.74836137E+08  4.83518906E+08
         6   14       3.37116220E-01  1.68172298E-04  6.17729168E+08  1.43569499E-04  6.17729168E+08
         6   16       4.27161620E-01  6.62316368E+08  4.29045261E-06  2.02134619E+08  8.64450987E+08
         6   18       2.15772430E-04  1.96280688E+05  2.34560908E-08  3.13266043E+05  5.09546731E+05
         7    9       2.09968665E-04  5.16706233E-11  2.65741441E+03  4.83550310E-12  2.65741441E+03
         7   11       4.60719669E-02  5.77823597E+07  2.47684689E-05  2.76265386E+04  5.78099863E+07
         7   13       3.27072823E-02  1.61867152E-05  4.29311868E+07  7.04672391E-06  4.29311868E+07
         7   15       5.27584951E-02  3.40585388E+04  6.11471188E-06  7.77974222E+07  7.78314807E+07
         7   17       1.82631218E-02  2.68857107E+07  2.31285730E-06  5.35879072E+06  3.22445014E+07
         8   10       2.09968665E-04  5.16706233E-11  2.65741441E+03  4.83550310E-12  2.65741441E+03
         8   12       4.60719669E-02  5.77823597E+07  2.47684689E-05  2.76265386E+04  5.78099863E+07
         8   14       3.27072823E-02  1.61867152E-05  4.29311868E+07  7.04672391E-06  4.29311868E+07
         8   16       5.27584951E-02  3.40585388E+04  6.11471188E-06  7.77974222E+07  7.78314807E+07
         8   18       1.82631218E-02  2.68857107E+07  2.31285730E-06  5.35879072E+06  3.22445014E+07
         9   11       1.45393786E-03  3.82342260E-06  1.47632023E+06  8.28477362E-06  1.47632023E+06
         9   13       5.17889727E-02  2.85144492E+07  5.33533187E-06  2.67685082E+07  5.52829574E+07
         9   15       5.94790450E-02  2.01733325E-08  7.22440331E+07  7.05690515E-06  7.22440331E+07
         9   17       1.45374315E-02  1.84205547E-06  2.15043816E+07  7.55736402E-07  2.15043816E+07
        10   12       1.45393786E-03  3.82342260E-06  1.47632023E+06  8.28477362E-06  1.47632023E+06
        10   14       5.17889727E-02  2.85144492E+07  5.33533187E-06  2.67685082E+07  5.52829574E+07
        10   16       5.94790450E-02  2.01733325E-08  7.22440331E+07  7.05690515E-06  7.22440331E+07
        10   18       1.45374315E-02  1.84205547E-06  2.15043816E+07  7.55736402E-07  2.15043816E+07
        11   13       9.98900297E-05  9.24696262E-11  6.50279361E+01  2.21886607E-10  6.50279361E+01
        11   15       1.03268253E-03  4.60705054E+02  1.21874606E-10  8.74719590E+03  9.20790095E+03
        11   17       3.59473797E-03  1.47811439E+05  2.25950077E-07  8.56971248E+03  1.56381152E+05
        12   14       9.98900297E-05  9.24696262E-11  6.50279361E+01  2.21886607E-10  6.50279361E+01
        12   16       1.03268253E-03  4.60705054E+02  1.21874606E-10  8.74719590E+03  9.20790095E+03
        12   18       3.59473797E-03  1.47811439E+05  2.25950077E-07  8.56971248E+03  1.56381152E+05
        13   17       8.45529131E-03  6.82147279E-08  2.83340717E+05  2.88030495E-09  2.83340717E+05
        14   18       8.45529131E-03  6.82147279E-08  2.83340717E+05  2.88030495E-09  2.83340717E+05
        15   17       1.12484694E-03  6.99543293E+03  3.69816144E-11  7.66056737E+03  1.46560003E+04
        16   18       1.12484694E-03  6.99543293E+03  3.69816144E-11  7.66056737E+03  1.46560003E+04
     -----------------------------------------------------------------------------------------------
--

++ Length and velocity gauge comparison (SO states):

 --------------------------------------------------
 A comparison between the dipole oscillator strengths in 
 length and velocity gauge will be performed

 All dipole oscillator differences above the tolerance of   0.10000000000000001       will be printed 

 Due to basis set deficiency these oscillator may be problematic 

 The tolerance is defined as ABS(1-O_l/O_v) 
 O_l : dipole oscillator strength in length gauge
 O_p : dipole oscillator strength in velocity gauge
 --------------------------------------------------

  Problematic transitions have been found

      From   To       Difference (%) Osc. st. (len.) Osc. st. (vel.)
     ---------------------------------------------------------------
         1    3            68.414789  5.49475824E-05  1.73966170E-04
         1    5      --------------- below threshold  5.59346046E-05
         1    7            91.108522  9.28486477E-04  4.85842530E-04
         1    9            41.069238  1.97010864E-03  1.39655440E-03
         1   11            20.032901  7.78255186E-02  6.48368222E-02
         1   13            16.938533  8.38892079E-02  7.17378657E-02
         1   15            33.255011  1.05294493E-03  7.90172862E-04
         1   17           101.486444  4.75240818E-04  2.35867391E-04
         2    4            68.414789  5.49475824E-05  1.73966170E-04
         2    6      --------------- below threshold  5.59346046E-05
         2    8            91.108522  9.28486477E-04  4.85842530E-04
         2   10            41.069238  1.97010864E-03  1.39655440E-03
         2   12            20.032901  7.78255186E-02  6.48368222E-02
         2   14            16.938533  8.38892079E-02  7.17378657E-02
         2   16            33.255011  1.05294493E-03  7.90172862E-04
         2   18           101.486444  4.75240818E-04  2.35867391E-04
         3    5            85.004877  4.55630147E-05  3.03852218E-04
         3    7            17.294207  2.63108868E-04  3.18126287E-04
         3    9            69.072612  8.36350266E-05  2.70423829E-04
         3   11            15.436538  1.82880464E-01  1.58425111E-01
         3   13            78.682169  2.47854594E-03  1.38712551E-03
         3   15            10.378842  5.73191451E-02  5.19294675E-02
         3   17            33.529748  4.09668309E-02  3.06799282E-02
         4    6            85.004877  4.55630147E-05  3.03852218E-04
         4    8            17.294207  2.63108868E-04  3.18126287E-04
         4   10            69.072612  8.36350266E-05  2.70423829E-04
         4   12            15.436538  1.82880464E-01  1.58425111E-01
         4   14            78.682169  2.47854594E-03  1.38712551E-03
         4   16            10.378842  5.73191451E-02  5.19294675E-02
         4   18            33.529748  4.09668309E-02  3.06799282E-02
         5    7            70.281304  3.79987108E-04  1.27861298E-03
         5    9            53.390088  2.98641240E-04  6.40724751E-04
         5   17            80.326638  3.89095168E-04  2.15772430E-04
         6    8            70.281304  3.79987108E-04  1.27861298E-03
         6   10            53.390088  2.98641240E-04  6.40724751E-04
         6   18            80.326638  3.89095168E-04  2.15772430E-04
         7    9            80.108258  4.17664254E-05  2.09968665E-04
         7   11            39.079909  6.40768499E-02  4.60719669E-02
         7   13            16.299017  3.80382478E-02  3.27072823E-02
         7   15            27.477210  6.72550576E-02  5.27584951E-02
         7   17            30.825268  2.38927781E-02  1.82631218E-02
         8   10            80.108258  4.17664254E-05  2.09968665E-04
         8   12            39.079909  6.40768499E-02  4.60719669E-02
         8   14            16.299017  3.80382478E-02  3.27072823E-02
         8   16            27.477210  6.72550576E-02  5.27584951E-02
         8   18            30.825268  2.38927781E-02  1.82631218E-02
         9   11            21.588032  1.76781443E-03  1.45393786E-03
         9   13            34.548807  6.96814448E-02  5.17889727E-02
         9   15            33.554962  7.94372157E-02  5.94790450E-02
         9   17            30.058501  1.89071654E-02  1.45374315E-02
        10   12            21.588032  1.76781443E-03  1.45393786E-03
        10   14            34.548807  6.96814448E-02  5.17889727E-02
        10   16            33.554962  7.94372157E-02  5.94790450E-02
        10   18            30.058501  1.89071654E-02  1.45374315E-02
        11   13            65.043725  3.49178337E-05  9.98900297E-05
        11   15            28.995366  1.33211261E-03  1.03268253E-03
        11   17            20.873779  4.34509563E-03  3.59473797E-03
        12   14            65.043725  3.49178337E-05  9.98900297E-05
        12   16            28.995366  1.33211261E-03  1.03268253E-03
        12   18            20.873779  4.34509563E-03  3.59473797E-03
        13   15      ---------------  1.37725447E-04 below threshold
        13   17            19.745406  1.01248229E-02  8.45529131E-03
        14   16      ---------------  1.37725447E-04 below threshold
        14   18            19.745406  1.01248229E-02  8.45529131E-03
        15   17           238.698390  3.80983849E-03  1.12484694E-03
        16   18           238.698390  3.80983849E-03  1.12484694E-03
     ---------------------------------------------------------------

 Number of problematic transitions =                    66

--

 Electric-dipole - electric-octupole not included
++ I/O STATISTICS
 
  I. General I/O information
  - - - - - - - - - - - - - - - - - - - - - - - - - - - - - - - - - - - - - - - - - - -
  Unit  Name          Flsize      Write/Read            MBytes           Write/Read
                      (MBytes)       Calls              In/Out           Time, sec.
  - - - - - - - - - - - - - - - - - - - - - - - - - - - - - - - - - - - - - - - - - - -
   1  SCRATCH           0.00 .       9/      45 .      0.0/      0.0 .       0/       0
   2  ANNI              0.00 .       0/       0 .      0.0/      0.0 .       0/       0
   3  RUNFILE          15.28 .     322/   10733 .      2.3/     77.8 .       0/       0
   4  ONEINT            6.58 .       0/   28767 .      0.0/   3777.9 .       0/       0
   5  JOBIPH            7.71 .       0/      92 .      0.0/      0.9 .       0/       0
   6  ORDINT          771.03 .       1/    6169 .      0.0/   1542.0 .       0/       0
  - - - - - - - - - - - - - - - - - - - - - - - - - - - - - - - - - - - - - - - - - - -
   *  TOTAL           800.61 .     332/   45806 .      2.3/   5398.7 .       0/       0
  - - - - - - - - - - - - - - - - - - - - - - - - - - - - - - - - - - - - - - - - - - -
 
  II. I/O Access Patterns
  - - - - - - - - - - - - - - - - - - - -
  Unit  Name               % of random
                         Write/Read calls
  - - - - - - - - - - - - - - - - - - - -
   1  SCRATCH             88.9/ 100.0
   2  ANNI                 0.0/   0.0
   3  RUNFILE             28.6/  10.8
   4  ONEINT               0.0/  13.4
   5  JOBIPH               0.0/  76.1
   6  ORDINT             100.0/   0.0
  - - - - - - - - - - - - - - - - - - - -
--
--- Stop Module: rassi at Thu Jan  9 20:24:31 2025 /rc=_RC_ALL_IS_WELL_ ---
*** files: xmldump
    saved to directory /home4/s4752295/Internship/Initial_simulations/Point_charge_model/1_electron/active_space_9_non_rel/Re/varying_bond_length
--- Module rassi spent 4 seconds ---

.##################.
.# Happy landing! #.
.##################.

    Timing: Wall=161.92 User=127.74 System=28.67

###############################################################################
Hbrk Cluster
Job 14548089 for user s4752295
Finished at: Thu Jan  9 20:24:31 CET 2025

Job details:
============

Job ID                         : 14548089
Name                           : Re_no_c_light
User                           : s4752295
Partition                      : regularmedium
Nodes                          : node101
Number of Nodes                : 1
Cores                          : 1
Number of Tasks                : 1
State                          : RUNNING  
Submit                         : 2025-01-09T20:21:43
Start                          : 2025-01-09T20:21:44
End                            : --
Reserved walltime              : 15:00:00
Used walltime                  : 00:02:48
Used CPU time                  : -- 
% User (Computation)           : --
% System (I/O)                 : --
Total memory reserved          : 25000M
Maximum memory used            : --

Acknowledgements:
=================

Please see this page for information about acknowledging Hbrk in your publications:

https://wiki.hpc.rug.nl/habrok/introduction/scientific_output

################################################################################
