   This run of MOLCAS is using the pymolcas driver

                             OPE
                             OPE          NMOL  CASOP  ENMOLC A   SO
                 OPE        NMOLC        AS  OP EN  MO LC     AS  OP
                OPENM       OL CA        SO  PE NM  OL CA     SOP EN
                OP EN      MO   LC       AS  OP ENMOL  CASO   PENMOL
                OP  EN     MO   LC       AS  OP EN     MO     LC ASO
               OP   E  NMOL  C  AS       OP  EN MO     LC     AS  OP
               OP  E   NMO   LC AS        OPEN  MO     LCASOP EN   M
               O  PEN   MO  LCA  SO
            OPE   NMO   L   CAS    OP
        OPENMOL  CASOP     ENMOL   CASOPE
     OPENMOLCA   SOPENMOLCASOPEN   MOLCASOPE
    OPENMOLCAS   OP           EN   MOL    CAS
    OPENMOLCAS       OP  ENM        O     LCA
    OPENMOLCAS    OPEN  MOLCASO     P  E  NMO
    OPENMOLCAS     OP               E  N  MOL
    OPENMOLCA   SO           PENM   O  L  CAS    OPEN    MO    LCAS
    OPENMOLCA   SOP           ENM   O  L  CAS   OP  EN  MOLC  AS   O
    OPENMOLCA   SOPE           NM      O  LCA   S      OP  EN MO
    OPENMOLC                AS         O  PEN   M      OL  CA  SOPE
    OPENMO        LCASOPE  NMOL        C  ASO   P      ENMOLC     AS
    OPE     NMO      LCA  SO     P     E   NM   OL  CA SO  PE N   MO
          OPENMOLCA            SOPE   NMO        LCAS  O    P  ENMO
     OPENMOLCASOPENMOLCASOPENMOLCASOPENMOLCA
        OPENMOLCASOPENMOLCASOPENMOLCASOPE
            OPENMOLCASOPENMOLCASOPENM
               OPENMOLCASOPENMOLCA        version: o91e1abe7de707b ?
                   OPENMOLCASO
                       OPE                tag:

 OpenMolcas is free software; you can redistribute it and/or modify it
 under the terms of the GNU Lesser General Public License version 2.1.
 OpenMolcas is distributed in the hope that it will be useful, but it
 is provided "as is" and without any express or implied warranties.
 For more details see the full text of the license in the file
 LICENSE or in <http://www.gnu.org/licenses/>.

                 Copyright (C) The OpenMolcas Authors
           For the author list and the recommended citation,
                   consult the file CONTRIBUTORS.md

           *************************************************
           * pymolcas version py2.10                       *
           *   build 3068ae8b88c9345ec6cfef6fef7f1169      *
           *   (after the EMIL interpreter by V. Veryazov) *
           *************************************************

configuration info
------------------
Host name: login1 (Linux)
C Compiler ID: GNU
C flags: -std=gnu99
Fortran Compiler ID: GNU
Fortran flags: -fno-aggressive-loop-optimizations -cpp -fdefault-integer-8 -fmax-stack-var-size=1048576
Definitions: _MOLCAS_;_I8_;_LINUX_;_MKL_
Parallel: OFF (GA=OFF)


   ---------------------------------------------------------------------------------------------------------------------------------------------
  |
  |           Project: tungsten_so_cf
  |    Submitted from: /home4/s4752295/Internship/Initial_simulations/Point_charge_model/1_electron/active_space_9_non_rel/W/varying_bond_length
  |      Scratch area: /tmp/tungsten_so_cf
  |   Save outputs to: /home4/s4752295/Internship/Initial_simulations/Point_charge_model/1_electron/active_space_9_non_rel/W/varying_bond_length
  |            Molcas: /home4/s4752295/Internship/Molcas/recomp_try/OpenMolcas-master/build
  |
  | Scratch area is empty
  |
  |    MOLCAS_DRIVER = /home4/s4752295/Internship/Molcas/bin/pymolcas
  |    MOLCAS_NPROCS = 1
  |    MOLCAS_SOURCE = /home4/s4752295/Internship/Molcas/recomp_try/OpenMolcas-master
  | MOLCAS_STRUCTURE = 0
  |
   ---------------------------------------------------------------------------------------------------------------------------------------------

++ ---------   Input file   ---------

&SEWARD
AMFi

CLIG
$R

Basis Set
W.ANO-rcc.Roos.24s21p15d11f4g2h.11s10p9d8f4g2h.
Spherical d
W            0.0        0.0     0.0
End of Basis

Xfield

4
0.000000,  0.000000,  0.236250  -1.0
0.204599,  0.000000, -0.118125  -1.0
-0.102299,  0.177187, -0.118125 -1.0
-0.102299, -0.177187, -0.118125 -1.0

End of input

&SCF
Occupied
34
Iterations
   50  100
End of Input

&RASSCF
LumOrb
Symmetry
1
Spin
2
Nactel
1 0 0
CIRoot
9 9 1
inactive
34
ras2
9
End of Input

>>> COPY tungsten_so_cf.JobIph $SLURM_SUBMIT_DIR/tungsten_so_cf.doublet.JobIph

>>> COPY $SLURM_SUBMIT_DIR/tungsten_so_cf.doublet.JobIph ./JOB002

&RASSI
NROFJobIph
1 All
SpinOrbit
End of Input

EOF

-- ----------------------------------

--- Start Module: seward at Thu Jan  9 21:00:41 2025 ---

()()()()()()()()()()()()()()()()()()()()()()()()()()()()()()()()()()()()()()()()()()()()()()()()()()

                                              &SEWARD

                                   only a single process is used
                       available to each process: 4.1 GB of memory, 1 thread?
                                            pid: 1582127
()()()()()()()()()()()()()()()()()()()()()()()()()()()()()()()()()()()()()()()()()()()()()()()()()()

 The speed of LIGHT in this CALCULATION =   137.03599917700001     
               SEWARD will generate:
                  Multipole Moment integrals up to order  2
                  Kinetic Energy integrals
                  Nuclear Attraction integrals (point charge)
                  One-Electron Hamiltonian integrals
                  Velocity integrals
                  Relativistic Douglas-Kroll-Hess integrals:
                    - Parametrization         : EXP
                    - DKH order of Hamiltonian: 2
                    - DKH order of Properties : 0
                         - multipole moment operators
                         - electric potential operators
                         - contact operators
                  External field from     4 point(s) added to the one-electron Hamiltonian
                  Orbital angular momentum around ( 0.0000  0.0000  0.0000 )
                  Velocity quadrupole around ( 0.0000  0.0000  0.0000 )
                  Atomic mean-field integrals
                  Two-Electron Repulsion integrals

                   Integrals are discarded if absolute value <: 0.10E-13
                   Integral cutoff threshold is set to       <: 0.10E-15

++    Symmetry information:
      ---------------------

                    Character Table for C1 

                             E  
                    a        1  x, y, xy, Rz, z, xz, Ry, yz, Rx, I
--


++    Basis set information:
      ----------------------


      Basis set label: W.ANO-RCC.ROOS.24S21P15D11F4G2H.11S10P9D8F4G2H......

      Electronic valence basis set:
      ------------------
      Associated Effective Charge  74.000000 au
      Associated Actual Charge     74.000000 au
      Nuclear Model: Point charge

      Shell  nPrim  nBasis  Cartesian Spherical Contaminant
         s      24      11        X                  
         p      21      10        X                  
         d      15       9                 X         
         f      11       8                 X         
         g       4       4                 X         
         h       2       2                 X         
--


++    Molecular structure info:
      -------------------------

                    ************************************************ 
                    **** Cartesian Coordinates / Bohr, Angstrom **** 
                    ************************************************ 

     Center  Label                x              y              z                     x              y              z
        1      W                0.000000       0.000000       0.000000              0.000000       0.000000       0.000000
--


++    Operator info:
      --------------


  Net charge from external field:   -4.0000000000000000     
--


            Nuclear Potential Energy              0.00000000 au

                    Nuclear-External Field Potential Energy   -1252.91076307 au
                    External Field Potential Energy              15.79705083 au 


            Total Nuclear Potential Energy          -1252.91076307 au


      Basis set specifications :
      Symmetry species         a  
      Basis functions          200

 Sorry, Molden does not know how to handle
 functions with angular momentum larger than g
Note: The following floating-point exceptions are signalling: IEEE_UNDERFLOW_FLAG IEEE_DENORMAL
--- Stop Module: seward at Thu Jan  9 21:01:00 2025 /rc=_RC_ALL_IS_WELL_ ---
*** files: tungsten_so_cf.GssOrb xmldump
    saved to directory /home4/s4752295/Internship/Initial_simulations/Point_charge_model/1_electron/active_space_9_non_rel/W/varying_bond_length
--- Module seward spent 18 seconds ---

*** symbolic link created: INPORB -> tungsten_so_cf.GssOrb
--- Start Module: scf at Thu Jan  9 21:01:00 2025 ---

()()()()()()()()()()()()()()()()()()()()()()()()()()()()()()()()()()()()()()()()()()()()()()()()()()

                                                &SCF

                                   only a single process is used
                       available to each process: 4.1 GB of memory, 1 thread?
                                            pid: 1582176
()()()()()()()()()()()()()()()()()()()()()()()()()()()()()()()()()()()()()()()()()()()()()()()()()()

++    Input section:
      --------------

      Header of the integral files:
      
       Integrals generated by seward 4.2.0  , Thu Jan  9 21:00:41 2025


      Cartesian coordinates in Angstrom:
      -----------------------------------------------------
      No.  Label        X            Y            Z        
      -----------------------------------------------------
       1   W          0.00000000   0.00000000   0.00000000
      -----------------------------------------------------
      Nuclear repulsion energy =-1252.91076307
--

++    Orbital specifications:
      -----------------------

      Symmetry species               1
                                     a
      Frozen orbitals                0
      Occupied orbitals             34
      Secondary orbitals           166
      Deleted orbitals               0
      Total number of orbitals     200
      Number of basis functions    200
--

      Molecular charge                           6.000

++    Optimization specifications:
      ----------------------------

      SCF Algorithm: Conventional
      Minimized density differences are used
      Number of density matrices in core                5
      Maximum number of NDDO SCF iterations            50
      Maximum number of HF SCF iterations             100
      Threshold for SCF energy change            0.10E-08
      Threshold for density matrix               0.10E-03
      Threshold for Fock matrix                  0.15E-03
      Threshold for linear dependence            0.10E-08
      Threshold at which DIIS is turned on       0.15E+00
      Threshold at which QNR/C2DIIS is turned on 0.75E-01
      Threshold for Norm(delta) (QNR/C2DIIS)     0.20E-04
      DIIS extrapolation of the SCF procedure
      All orbitals punched on: SCFORB
--

      Detected guessorb starting orbitals                                             


++ Convergence information
                                   SCF        iterations: Energy and convergence statistics

Iter     Tot. SCF        One-elec.       Two-elec.     Energy      Max Dij or  Max Fij      DNorm      TNorm      AccCon     Time
         Energy          Energy          Energy        Change      Delta Norm                                                in Sec.

 The total and one-electron energies are shifted by a value of     16000. a.u.

   1  -603.867391050 -5144.276216426  5793.319588443   0.00E+00    0.44E+00*   0.22E+01*    0.12E+02   0.15E+04   None         1.
   2  -513.429473108 -3548.582199076  4288.063489035   0.90E+02*   0.34E+00*   0.65E+00*    0.85E+01   0.13E+04   EDIIS        1.
   3  -616.854665804 -4668.656070798  5304.712168060  -0.10E+03*   0.22E+00*   0.71E+00*    0.39E+01   0.15E+04   EDIIS        1.
   4  -616.658189327 -4932.927161222  5569.179734962   0.20E+00*   0.89E+00*   0.29E+00*    0.60E+00   0.15E+04   EDIIS        1.
   5  -618.636035929 -4702.796441563  5337.071168701  -0.20E+01*   0.22E+00*   0.16E+00*    0.22E+01   0.15E+04   EDIIS        1.
   6  -618.736247099 -4824.179268555  5458.353784523  -0.10E+00*   0.25E+00*   0.10E+00*    0.75E+00   0.15E+04   EDIIS        1.
   7  -619.092716783 -4742.750777786  5376.568824069  -0.36E+00*   0.88E-01*   0.82E-01*    0.55E+00   0.15E+04   EDIIS        1.
   8  -619.090108355 -4783.958323274  5417.778977985   0.26E-02*   0.30E+00*   0.80E-01*    0.13E+00   0.15E+04   EDIIS        1.
   9  -619.178125966 -4737.446451480  5371.179088581  -0.88E-01*   0.10E+00*   0.59E-01*    0.73E-01   0.15E+04   EDIIS        1.
  10  -619.202122609 -4765.492459488  5399.201099945  -0.24E-01*   0.13E+00*   0.20E-01*    0.31E-01   0.15E+04   c2DIIS       1.
  11  -619.224671024 -4758.697041630  5392.383133673  -0.23E-01*   0.23E-01*   0.16E+00*    0.68E-02   0.15E+04   c2DIIS       1.
  12  -619.261964945 -4748.579597427  5382.228395549  -0.37E-01*   0.30E-01*   0.12E-01*    0.47E-01   0.15E+04   QNRc2DIIS    1.
  13  -619.262910619 -4742.740297892  5376.388150340  -0.95E-03*   0.15E-01*   0.15E-01*    0.59E-01   0.15E+04   QNRc2DIIS    1.
  14  -619.264149573 -4745.746563683  5379.393177177  -0.12E-02*   0.20E-01*   0.46E-02*    0.22E-01   0.15E+04   QNRc2DIIS    1.
  15  -619.264590132 -4745.948253043  5379.594425978  -0.44E-03*   0.15E+00*   0.46E-02*    0.19E-01   0.15E+04   QNRc2DIIS    1.
  16  -619.266423313 -4746.335875944  5379.980215698  -0.18E-02*   0.77E-01*   0.55E-02*    0.73E-01   0.15E+04   QNRc2DIIS    1.
  17  -619.266769551 -4746.404074767  5380.048068282  -0.35E-03*   0.82E-01*   0.53E-02*    0.14E-01   0.15E+04   QNRc2DIIS    1.
  18  -619.266745336 -4745.078085896  5378.722103627   0.24E-04*   0.68E-02*   0.28E-02*    0.46E-01   0.15E+04   QNRc2DIIS    1.
  19  -619.266678219 -4745.094267156  5378.738352004   0.67E-04*   0.79E-01*   0.27E-02*    0.39E-02   0.15E+04   QNRc2DIIS    1.
  20  -619.267271086 -4745.578002987  5379.221494967  -0.59E-03*   0.24E-01*   0.76E-03*    0.71E-02   0.15E+04   QNRc2DIIS    1.
  21  -619.267299094 -4745.740418589  5379.383882562  -0.28E-04*   0.43E-02*   0.26E-03*    0.24E-02   0.15E+04   QNRc2DIIS    1.
  22  -619.267300108 -4745.688389545  5379.331852504  -0.10E-05*   0.77E-03*   0.28E-03*    0.21E-02   0.15E+04   QNRc2DIIS    1.
  23  -619.267300627 -4745.679436050  5379.322898490  -0.52E-06*   0.21E-02*   0.96E-04     0.66E-03   0.15E+04   QNRc2DIIS    1.
  24  -619.267301056 -4745.701116932  5379.344578943  -0.43E-06*   0.33E-03*   0.50E-04     0.32E-03   0.15E+04   QNRc2DIIS    1.
  25  -619.267301107 -4745.702046347  5379.345508307  -0.52E-07*   0.15E-03*   0.14E-04     0.27E-03   0.15E+04   QNRc2DIIS    1.
  26  -619.267301119 -4745.702789308  5379.346251256  -0.11E-07*   0.20E-03*   0.12E-04     0.13E-03   0.15E+04   QNRc2DIIS    1.
  27  -619.267301127 -4745.702549772  5379.346011712  -0.85E-08*   0.82E-04*   0.99E-05     0.15E-03   0.15E+04   QNRc2DIIS    1.
  28  -619.267301130 -4745.702196852  5379.345658789  -0.31E-08*   0.13E-03*   0.86E-05     0.92E-04   0.15E+04   QNRc2DIIS    1.
  29  -619.267301134 -4745.701986572  5379.345448505  -0.34E-08*   0.12E-03*   0.69E-05     0.58E-04   0.15E+04   QNRc2DIIS    1.
  30  -619.267301136 -4745.702219552  5379.345681483  -0.27E-08*   0.25E-04*   0.22E-05     0.22E-02   0.15E+04   QNRc2DIIS    1.
  31  -619.267301137 -4745.702248642  5379.345710572  -0.29E-09    0.54E-04*   0.23E-05     0.14E-01   0.15E+04   QNRc2DIIS    1.
  32  -619.267301137 -4745.702273063  5379.345734993  -0.48E-09    0.29E-04*   0.23E-05     0.47E-03   0.15E+04   QNRc2DIIS    1.
  33  -619.267301137 -4745.702257429  5379.345719359   0.18E-09    0.18E-05    0.23E-05     0.15E+00   0.15E+04   QNRc2DIIS    1.

       Convergence after 33 Macro Iterations
--

 *****************************************************************************************************************************
 *                                                                                                                           *
 *                                             SCF/KS-DFT Program, Final results                                             *
 *                                                                                                                           *
 *                                                                                                                           *
 *                                                                                                                           *
 *                                                       Final Results                                                       *
 *                                                                                                                           *
 *****************************************************************************************************************************

::    Total SCF energy                             -16619.2673011370
      One-electron energy                          -20745.7022574289
      Two-electron energy                            5379.3457193589
      Nuclear repulsion energy                      -1252.9107630670
      Kinetic energy (interpolated)                 22301.0993307080
      Virial theorem                                    0.7452218859
      Total spin, S(S+1)                                0.0000000000
      Total spin, S                                     0.0000000000
      Max non-diagonal density matrix element           0.0000028123
      Max non-diagonal Fock matrix element              0.0000019781


      All orbitals with orbital energies smaller than  E(LUMO)+0.5 are printed

++    Molecular orbitals:
      -------------------

      Title: SCF orbitals

      Molecular orbitals for symmetry species 1: a  

          Some orbital energies have been scaled by powers of 10, the power is written right after the orbital index


          Orbital            1 (1)     2         3         4         5         6         7         8         9        10    
          Energy         -256.0214 -444.1464 -389.5810 -389.5810 -389.4391 -101.3105  -85.0633  -85.0633  -84.1844  -65.4380
          Occ. No.          2.0000    2.0000    2.0000    2.0000    2.0000    2.0000    2.0000    2.0000    2.0000    2.0000

        1 W      1s         1.0000    0.0000   -0.0000    0.0000   -0.0000   -0.0000   -0.0000    0.0000    0.0000    0.0000
        2 W      2s        -0.0000    1.0000   -0.0000    0.0000   -0.0050    0.0005    0.0000   -0.0000   -0.0004    0.0000
        3 W      3s         0.0000   -0.0006    0.0000   -0.0000    0.0003    0.9989   -0.0000    0.0000   -0.0412    0.0000
        4 W      4s        -0.0000    0.0002    0.0000   -0.0000   -0.0001    0.0083    0.0000   -0.0000   -0.0010   -0.0000
        5 W      5s         0.0000   -0.0001   -0.0000    0.0000    0.0000   -0.0020   -0.0000    0.0000    0.0001    0.0000
        6 W      6s        -0.0000    0.0000    0.0000   -0.0000   -0.0000    0.0005    0.0000   -0.0000   -0.0000   -0.0000
        7 W      7s         0.0000   -0.0000   -0.0000    0.0000    0.0000   -0.0006   -0.0000    0.0000    0.0000    0.0000
        8 W      8s        -0.0000    0.0001    0.0000   -0.0000   -0.0000    0.0014    0.0000   -0.0000   -0.0001   -0.0000
        9 W      9s         0.0000   -0.0001   -0.0000    0.0000    0.0000   -0.0017   -0.0000    0.0000    0.0001    0.0000
       10 W     10s        -0.0000    0.0001    0.0000   -0.0000   -0.0000    0.0017    0.0000   -0.0000   -0.0000   -0.0000
       11 W     11s         0.0000   -0.0002   -0.0000    0.0000    0.0001   -0.0011   -0.0000    0.0000   -0.0003    0.0000
       12 W      2px        0.0000    0.0000   -0.6071    0.7946    0.0000   -0.0000   -0.0000    0.0004    0.0000   -0.0000
       13 W      3px       -0.0000    0.0000    0.0003   -0.0004   -0.0000    0.0000   -0.0848    0.9938    0.0000   -0.0000
       14 W      4px        0.0000   -0.0000   -0.0001    0.0001    0.0000   -0.0000   -0.0008    0.0095    0.0000   -0.0000
       15 W      5px       -0.0000    0.0000    0.0000   -0.0001   -0.0000    0.0000    0.0002   -0.0022   -0.0000    0.0000
       16 W      6px        0.0000   -0.0000   -0.0000    0.0000    0.0000   -0.0000   -0.0001    0.0009    0.0000   -0.0000
       17 W      7px       -0.0000    0.0000    0.0001   -0.0001   -0.0000    0.0000    0.0002   -0.0024   -0.0000    0.0000
       18 W      8px        0.0000   -0.0000   -0.0001    0.0001    0.0000   -0.0000   -0.0002    0.0022    0.0000   -0.0000
       19 W      9px       -0.0000    0.0000    0.0001   -0.0001   -0.0000    0.0000    0.0002   -0.0019   -0.0000    0.0000
       20 W     10px        0.0000   -0.0000   -0.0001    0.0001    0.0000   -0.0000   -0.0001    0.0014    0.0000   -0.0000
       21 W     11px       -0.0000    0.0000    0.0001   -0.0001   -0.0000    0.0000   -0.0000    0.0001   -0.0000    0.0000
       22 W      2py        0.0000    0.0000    0.7946    0.6071   -0.0000    0.0000    0.0004    0.0000   -0.0000    0.0002
       23 W      3py        0.0000    0.0000   -0.0004   -0.0003    0.0000    0.0000    0.9938    0.0848   -0.0000    0.0006
       24 W      4py       -0.0000    0.0000    0.0001    0.0001   -0.0000   -0.0000    0.0095    0.0008   -0.0000    0.0002
       25 W      5py        0.0000   -0.0000   -0.0001   -0.0000    0.0000    0.0000   -0.0022   -0.0002    0.0000   -0.0001
       26 W      6py        0.0000   -0.0000    0.0000    0.0000    0.0000   -0.0000    0.0009    0.0001   -0.0000    0.0000
       27 W      7py       -0.0000    0.0000   -0.0001   -0.0001    0.0000    0.0000   -0.0024   -0.0002    0.0000   -0.0001
       28 W      8py       -0.0000   -0.0000    0.0001    0.0001   -0.0000    0.0000    0.0022    0.0002   -0.0000    0.0001
       29 W      9py        0.0000    0.0000   -0.0001   -0.0001    0.0000   -0.0000   -0.0019   -0.0002    0.0000   -0.0001
       30 W     10py       -0.0000   -0.0000    0.0001    0.0001   -0.0000    0.0000    0.0014    0.0001   -0.0000    0.0001
       31 W     11py        0.0000    0.0000   -0.0001   -0.0001    0.0000   -0.0000    0.0001    0.0000   -0.0000   -0.0003
       32 W      2pz        0.0000    0.0050    0.0000   -0.0000    1.0000   -0.0003    0.0000   -0.0000    0.0009   -0.0000
       33 W      3pz       -0.0000    0.0003   -0.0000    0.0000   -0.0009    0.0406    0.0000   -0.0000    0.9984    0.0000
       34 W      4pz        0.0000   -0.0001    0.0000   -0.0000    0.0003   -0.0002    0.0000   -0.0000    0.0104   -0.0000
       35 W      5pz       -0.0000    0.0000   -0.0000    0.0000   -0.0001   -0.0000   -0.0000    0.0000   -0.0023    0.0000
       36 W      6pz        0.0000   -0.0000    0.0000   -0.0000    0.0000    0.0000    0.0000   -0.0000    0.0009   -0.0000
       37 W      7pz       -0.0000    0.0001   -0.0000    0.0000   -0.0001   -0.0001   -0.0000    0.0000   -0.0024    0.0000
       38 W      8pz        0.0000   -0.0001    0.0000   -0.0000    0.0001    0.0001    0.0000   -0.0000    0.0021   -0.0000
       39 W      9pz       -0.0000    0.0001   -0.0000    0.0000   -0.0002   -0.0002   -0.0000    0.0000   -0.0017    0.0000
       40 W     10pz        0.0000   -0.0001    0.0000   -0.0000    0.0002    0.0002    0.0000   -0.0000    0.0009   -0.0000
       41 W     11pz       -0.0000    0.0001   -0.0000    0.0000   -0.0002   -0.0006    0.0000   -0.0000    0.0013    0.0000
       42 W      3d2-      -0.0000   -0.0000    0.0004    0.0003   -0.0000   -0.0000    0.0375    0.0032   -0.0000    0.8385
       43 W      4d2-       0.0000    0.0000   -0.0001   -0.0001    0.0000   -0.0000    0.0010    0.0001   -0.0000    0.0085
       44 W      5d2-      -0.0000   -0.0000    0.0000    0.0000   -0.0000    0.0000   -0.0003   -0.0000    0.0000   -0.0014
       45 W      6d2-       0.0000    0.0000   -0.0000   -0.0000    0.0000   -0.0000    0.0004    0.0000   -0.0000    0.0020
       46 W      7d2-      -0.0000   -0.0000    0.0000    0.0000   -0.0000    0.0000   -0.0006   -0.0001    0.0000   -0.0024
       47 W      8d2-       0.0000    0.0000   -0.0000   -0.0000    0.0000   -0.0000    0.0009    0.0001   -0.0000    0.0025
       48 W      9d2-      -0.0000   -0.0000    0.0000    0.0000   -0.0000    0.0000   -0.0011   -0.0001    0.0000   -0.0022
       49 W     10d2-       0.0000    0.0000   -0.0000   -0.0000    0.0000   -0.0000    0.0016    0.0001   -0.0000    0.0017
       50 W     11d2-      -0.0000   -0.0000    0.0000    0.0000   -0.0000    0.0000   -0.0023   -0.0002    0.0000    0.0001
       51 W      3d1-       0.0000    0.0000    0.0008    0.0006   -0.0000    0.0000    0.0586    0.0050   -0.0000   -0.5443
       52 W      4d1-       0.0000   -0.0000   -0.0002   -0.0002    0.0000    0.0000    0.0014    0.0001   -0.0000   -0.0058
       53 W      5d1-       0.0000    0.0000    0.0000    0.0000   -0.0000   -0.0000   -0.0004   -0.0000    0.0000    0.0010
       54 W      6d1-      -0.0000   -0.0000   -0.0001   -0.0000    0.0000    0.0000    0.0006    0.0001   -0.0000   -0.0014
       55 W      7d1-       0.0000    0.0000    0.0001    0.0001   -0.0000   -0.0000   -0.0009   -0.0001    0.0000    0.0017
       56 W      8d1-      -0.0000   -0.0000   -0.0001   -0.0001    0.0000    0.0000    0.0012    0.0001   -0.0000   -0.0018
       57 W      9d1-      -0.0000    0.0000    0.0001    0.0001   -0.0000   -0.0000   -0.0015   -0.0001    0.0000    0.0016
       58 W     10d1-       0.0000   -0.0000   -0.0001   -0.0001    0.0000    0.0000    0.0022    0.0002   -0.0000   -0.0013
       59 W     11d1-      -0.0000    0.0000    0.0001    0.0001   -0.0000   -0.0000   -0.0032   -0.0003    0.0000    0.0003
       60 W      3d0       -0.0000   -0.0004    0.0000   -0.0000   -0.0001   -0.0149   -0.0000    0.0000   -0.0365    0.0000
       61 W      4d0        0.0000    0.0001   -0.0000    0.0000   -0.0000   -0.0004   -0.0000    0.0000   -0.0012    0.0000
       62 W      5d0       -0.0000   -0.0000    0.0000   -0.0000    0.0000    0.0001    0.0000   -0.0000    0.0004   -0.0000
       63 W      6d0        0.0000    0.0000   -0.0000    0.0000   -0.0000   -0.0002   -0.0000    0.0000   -0.0005    0.0000
       64 W      7d0       -0.0000   -0.0000    0.0000   -0.0000    0.0000    0.0003    0.0000   -0.0000    0.0008   -0.0000
       65 W      8d0        0.0000    0.0000   -0.0000    0.0000   -0.0000   -0.0004   -0.0000    0.0000   -0.0010    0.0000
       66 W      9d0       -0.0000   -0.0001    0.0000   -0.0000    0.0000    0.0006    0.0000   -0.0000    0.0013   -0.0000
       67 W     10d0        0.0000    0.0001   -0.0000    0.0000   -0.0001   -0.0009   -0.0000    0.0000   -0.0019    0.0000
       68 W     11d0       -0.0000   -0.0001    0.0000   -0.0000    0.0002    0.0014    0.0000   -0.0000    0.0026   -0.0000
       69 W      3d1+      -0.0000   -0.0000   -0.0006    0.0008    0.0000   -0.0000   -0.0050    0.0586    0.0000    0.0118
       70 W      4d1+       0.0000    0.0000    0.0002   -0.0002   -0.0000    0.0000   -0.0001    0.0014   -0.0000    0.0001
       71 W      5d1+      -0.0000   -0.0000   -0.0000    0.0000    0.0000   -0.0000    0.0000   -0.0004    0.0000   -0.0000
       72 W      6d1+       0.0000    0.0000    0.0000   -0.0001   -0.0000    0.0000   -0.0001    0.0006   -0.0000    0.0000
       73 W      7d1+      -0.0000   -0.0000   -0.0001    0.0001    0.0000   -0.0000    0.0001   -0.0009    0.0000   -0.0000
       74 W      8d1+       0.0000    0.0000    0.0001   -0.0001   -0.0000    0.0000   -0.0001    0.0012    0.0000    0.0000
       75 W      9d1+      -0.0000   -0.0000   -0.0001    0.0001    0.0000    0.0000    0.0001   -0.0015   -0.0000   -0.0000
       76 W     10d1+       0.0000    0.0000    0.0001   -0.0001   -0.0000   -0.0000   -0.0002    0.0022    0.0000    0.0000
       77 W     11d1+      -0.0000   -0.0000   -0.0001    0.0001    0.0000    0.0000    0.0003   -0.0032   -0.0000   -0.0000
       78 W      3d2+       0.0000   -0.0000    0.0003   -0.0004   -0.0000    0.0000    0.0032   -0.0375   -0.0000    0.0181
       79 W      4d2+      -0.0000    0.0000   -0.0001    0.0001    0.0000   -0.0000    0.0001   -0.0010    0.0000    0.0002
       80 W      5d2+       0.0000   -0.0000    0.0000   -0.0000   -0.0000    0.0000   -0.0000    0.0003   -0.0000   -0.0000
       81 W      6d2+      -0.0000   -0.0000   -0.0000    0.0000    0.0000   -0.0000    0.0000   -0.0004    0.0000    0.0000
       82 W      7d2+       0.0000   -0.0000    0.0000   -0.0000   -0.0000    0.0000   -0.0001    0.0006    0.0000   -0.0001
       83 W      8d2+      -0.0000    0.0000   -0.0000    0.0000    0.0000   -0.0000    0.0001   -0.0009   -0.0000    0.0001
       84 W      9d2+       0.0000   -0.0000    0.0000   -0.0000   -0.0000    0.0000   -0.0001    0.0011    0.0000   -0.0000
       85 W     10d2+      -0.0000    0.0000   -0.0000    0.0000    0.0000   -0.0000    0.0001   -0.0016   -0.0000    0.0000
       86 W     11d2+       0.0000   -0.0000    0.0000   -0.0000   -0.0000    0.0000   -0.0002    0.0023    0.0000    0.0000
       87 W      4f3-      -0.0000   -0.0000   -0.0000   -0.0000   -0.0000   -0.0000   -0.0000   -0.0000    0.0000    0.0000
       88 W      5f3-      -0.0000    0.0000    0.0000    0.0000    0.0000    0.0000    0.0000    0.0000    0.0000   -0.0000
       89 W      6f3-       0.0000   -0.0000   -0.0000   -0.0000   -0.0000   -0.0000   -0.0000   -0.0000   -0.0000    0.0000
       90 W      7f3-       0.0000    0.0000    0.0000    0.0000    0.0000    0.0000    0.0000    0.0000    0.0000   -0.0000
       91 W      8f3-      -0.0000   -0.0000   -0.0000   -0.0000   -0.0000   -0.0000   -0.0000   -0.0000   -0.0000    0.0000
       92 W      9f3-       0.0000    0.0000    0.0000    0.0000    0.0000    0.0000    0.0000    0.0000    0.0000   -0.0000
       93 W     10f3-      -0.0000    0.0000   -0.0000   -0.0000   -0.0000   -0.0000   -0.0000   -0.0000   -0.0000    0.0000
       94 W     11f3-      -0.0000   -0.0000   -0.0000    0.0000    0.0000   -0.0000   -0.0000   -0.0000    0.0000   -0.0000
       95 W      4f2-      -0.0000   -0.0000   -0.0001   -0.0000   -0.0000   -0.0000   -0.0034   -0.0003   -0.0000    0.0042
       96 W      5f2-       0.0000    0.0000    0.0001    0.0000    0.0000    0.0000    0.0025    0.0002    0.0000   -0.0030
       97 W      6f2-      -0.0000   -0.0000   -0.0001   -0.0000   -0.0000   -0.0000   -0.0025   -0.0002   -0.0000    0.0030
       98 W      7f2-       0.0000    0.0000    0.0001    0.0000    0.0000    0.0000    0.0024    0.0002    0.0000   -0.0027
       99 W      8f2-      -0.0000   -0.0000   -0.0001   -0.0001   -0.0000   -0.0000   -0.0022   -0.0002   -0.0000    0.0025
      100 W      9f2-       0.0000    0.0000    0.0001    0.0001    0.0000    0.0000    0.0018    0.0002    0.0000   -0.0020
      101 W     10f2-      -0.0000   -0.0000   -0.0001   -0.0001   -0.0000    0.0000   -0.0017   -0.0001   -0.0000    0.0018
      102 W     11f2-       0.0000    0.0000    0.0001    0.0001    0.0000   -0.0000    0.0010    0.0001    0.0000   -0.0013
      103 W      4f1-      -0.0000    0.0000   -0.0000   -0.0000    0.0000    0.0000   -0.0016   -0.0001    0.0000   -0.0017
      104 W      5f1-       0.0000   -0.0000    0.0000    0.0000   -0.0000   -0.0000    0.0013    0.0001   -0.0000    0.0012
      105 W      6f1-       0.0000    0.0000   -0.0000   -0.0000    0.0000    0.0000   -0.0013   -0.0001    0.0000   -0.0012
      106 W      7f1-      -0.0000   -0.0000    0.0000    0.0000   -0.0000   -0.0000    0.0012    0.0001   -0.0000    0.0011
      107 W      8f1-       0.0000    0.0000   -0.0000   -0.0000    0.0000    0.0000   -0.0011   -0.0001    0.0000   -0.0010
      108 W      9f1-      -0.0000   -0.0000    0.0000    0.0000   -0.0000   -0.0000    0.0009    0.0001   -0.0000    0.0008
      109 W     10f1-       0.0000    0.0000   -0.0001   -0.0000    0.0000    0.0000   -0.0008   -0.0001    0.0000   -0.0007
      110 W     11f1-      -0.0000   -0.0000    0.0001    0.0001   -0.0000   -0.0000    0.0005    0.0000   -0.0000    0.0006
      111 W      4f0       -0.0000   -0.0002   -0.0000    0.0000   -0.0001   -0.0068   -0.0000    0.0000   -0.0023    0.0000
      112 W      5f0        0.0000    0.0001    0.0000   -0.0000    0.0001    0.0052    0.0000   -0.0000    0.0017   -0.0000
      113 W      6f0       -0.0000   -0.0002   -0.0000    0.0000   -0.0001   -0.0053   -0.0000    0.0000   -0.0017    0.0000
      114 W      7f0        0.0000    0.0002    0.0000   -0.0000    0.0001    0.0050    0.0000   -0.0000    0.0016   -0.0000
      115 W      8f0       -0.0000   -0.0002   -0.0000    0.0000   -0.0001   -0.0048   -0.0000    0.0000   -0.0015    0.0000
      116 W      9f0        0.0000    0.0002    0.0000   -0.0000    0.0001    0.0040    0.0000   -0.0000    0.0012    0.0000
      117 W     10f0       -0.0000   -0.0002   -0.0000    0.0000   -0.0001   -0.0037   -0.0000    0.0000   -0.0011   -0.0000
      118 W     11f0        0.0000    0.0003    0.0000   -0.0000    0.0001    0.0023    0.0000   -0.0000    0.0008   -0.0000
      119 W      4f1+       0.0000    0.0000    0.0000   -0.0000   -0.0000    0.0000    0.0001   -0.0016   -0.0000    0.0000
      120 W      5f1+      -0.0000   -0.0000   -0.0000    0.0000    0.0000   -0.0000   -0.0001    0.0013    0.0000   -0.0000
      121 W      6f1+       0.0000    0.0000    0.0000   -0.0000   -0.0000    0.0000    0.0001   -0.0013   -0.0000    0.0000
      122 W      7f1+      -0.0000   -0.0000   -0.0000    0.0000    0.0000   -0.0000   -0.0001    0.0012    0.0000   -0.0000
      123 W      8f1+       0.0000    0.0000    0.0000   -0.0000   -0.0000    0.0000    0.0001   -0.0011   -0.0000    0.0000
      124 W      9f1+      -0.0000   -0.0000   -0.0000    0.0000    0.0000   -0.0000   -0.0001    0.0009    0.0000   -0.0000
      125 W     10f1+       0.0000    0.0000    0.0000   -0.0001   -0.0000    0.0000    0.0001   -0.0008   -0.0000    0.0000
      126 W     11f1+      -0.0000   -0.0000   -0.0001    0.0001    0.0000   -0.0000   -0.0000    0.0005    0.0000   -0.0000
      127 W      4f2+      -0.0000   -0.0000   -0.0000    0.0001    0.0000   -0.0000   -0.0003    0.0034    0.0000    0.0001
      128 W      5f2+       0.0000    0.0000    0.0000   -0.0001   -0.0000    0.0000    0.0002   -0.0025   -0.0000   -0.0001
      129 W      6f2+      -0.0000   -0.0000   -0.0000    0.0001    0.0000   -0.0000   -0.0002    0.0025    0.0000    0.0001
      130 W      7f2+       0.0000    0.0000    0.0000   -0.0001   -0.0000    0.0000    0.0002   -0.0024   -0.0000   -0.0001
      131 W      8f2+      -0.0000   -0.0000   -0.0001    0.0001    0.0000   -0.0000   -0.0002    0.0022    0.0000    0.0001
      132 W      9f2+       0.0000    0.0000    0.0001   -0.0001   -0.0000    0.0000    0.0002   -0.0018   -0.0000   -0.0000
      133 W     10f2+      -0.0000   -0.0000   -0.0001    0.0001    0.0000   -0.0000   -0.0001    0.0017    0.0000    0.0000
      134 W     11f2+       0.0000    0.0000    0.0001   -0.0001   -0.0000    0.0000    0.0001   -0.0010   -0.0000   -0.0000
      135 W      4f3+      -0.0000   -0.0001    0.0000   -0.0000    0.0001   -0.0045    0.0000   -0.0000    0.0034    0.0000
      136 W      5f3+       0.0000    0.0001   -0.0000    0.0000   -0.0001    0.0034   -0.0000    0.0000   -0.0025   -0.0000
      137 W      6f3+      -0.0000   -0.0001    0.0000   -0.0000    0.0001   -0.0034    0.0000   -0.0000    0.0025    0.0000
      138 W      7f3+       0.0000    0.0001   -0.0000    0.0000   -0.0001    0.0033   -0.0000    0.0000   -0.0024   -0.0000
      139 W      8f3+      -0.0000   -0.0001    0.0000   -0.0000    0.0001   -0.0031    0.0000   -0.0000    0.0022    0.0000
      140 W      9f3+       0.0000    0.0001   -0.0000    0.0000   -0.0001    0.0026   -0.0000    0.0000   -0.0018   -0.0000
      141 W     10f3+      -0.0000   -0.0002    0.0000   -0.0000    0.0001   -0.0024    0.0000   -0.0000    0.0017    0.0000
      142 W     11f3+       0.0000    0.0002   -0.0000    0.0000   -0.0001    0.0015    0.0000   -0.0000   -0.0010   -0.0000
      143 W      5g4-      -0.0000    0.0000   -0.0000   -0.0000   -0.0000    0.0000   -0.0004   -0.0000    0.0000   -0.0000
      144 W      6g4-      -0.0000   -0.0000    0.0000    0.0000   -0.0000   -0.0000    0.0004    0.0000   -0.0000    0.0000
      145 W      7g4-       0.0000    0.0000   -0.0000   -0.0000    0.0000    0.0000   -0.0004   -0.0000    0.0000   -0.0000
      146 W      8g4-       0.0000   -0.0000    0.0000    0.0000   -0.0000    0.0000    0.0003    0.0000   -0.0000    0.0000
      147 W      5g3-       0.0000    0.0000   -0.0000   -0.0000   -0.0000    0.0000   -0.0000   -0.0000    0.0000    0.0000
      148 W      6g3-      -0.0000   -0.0000    0.0000    0.0000    0.0000   -0.0000   -0.0000   -0.0000    0.0000   -0.0000
      149 W      7g3-       0.0000    0.0000   -0.0000   -0.0000   -0.0000   -0.0000    0.0000    0.0000   -0.0000    0.0000
      150 W      8g3-      -0.0000   -0.0000    0.0000    0.0000    0.0000    0.0000   -0.0000   -0.0000    0.0000   -0.0000
      151 W      5g2-      -0.0000    0.0000    0.0000    0.0000    0.0000    0.0000    0.0001    0.0000   -0.0000   -0.0001
      152 W      6g2-       0.0000   -0.0000   -0.0000   -0.0000   -0.0000    0.0000   -0.0001   -0.0000    0.0000    0.0001
      153 W      7g2-      -0.0000    0.0000    0.0000    0.0000    0.0000   -0.0000    0.0001    0.0000   -0.0000   -0.0000
      154 W      8g2-       0.0000   -0.0000   -0.0000   -0.0000   -0.0000    0.0000   -0.0000   -0.0000    0.0000    0.0000
      155 W      5g1-       0.0000   -0.0000   -0.0000   -0.0000   -0.0000   -0.0000   -0.0005   -0.0000    0.0000    0.0002
      156 W      6g1-      -0.0000    0.0000    0.0000    0.0000    0.0000   -0.0000    0.0005    0.0000   -0.0000   -0.0002
      157 W      7g1-       0.0000   -0.0000   -0.0000   -0.0000   -0.0000    0.0000   -0.0004   -0.0000    0.0000    0.0002
      158 W      8g1-      -0.0000    0.0000    0.0000    0.0000    0.0000   -0.0000    0.0003    0.0000   -0.0000   -0.0001
      159 W      5g0        0.0000   -0.0000   -0.0000    0.0000   -0.0000   -0.0001   -0.0000    0.0000   -0.0008    0.0000
      160 W      6g0       -0.0000    0.0000    0.0000   -0.0000    0.0000    0.0000    0.0000   -0.0000    0.0008   -0.0000
      161 W      7g0        0.0000   -0.0000   -0.0000    0.0000   -0.0000   -0.0000   -0.0000    0.0000   -0.0008    0.0000
      162 W      8g0       -0.0000    0.0000    0.0000   -0.0000    0.0000    0.0000    0.0000   -0.0000    0.0006   -0.0000
      163 W      5g1+      -0.0000    0.0000    0.0000   -0.0000    0.0000   -0.0000    0.0000   -0.0005   -0.0000   -0.0000
      164 W      6g1+       0.0000   -0.0000   -0.0000    0.0000    0.0000    0.0000   -0.0000    0.0005    0.0000    0.0000
      165 W      7g1+      -0.0000    0.0000    0.0000   -0.0000   -0.0000   -0.0000    0.0000   -0.0004   -0.0000   -0.0000
      166 W      8g1+       0.0000   -0.0000   -0.0000    0.0000    0.0000    0.0000   -0.0000    0.0003    0.0000    0.0000
      167 W      5g2+      -0.0000    0.0000    0.0000   -0.0000    0.0000    0.0000    0.0000   -0.0001   -0.0000   -0.0000
      168 W      6g2+       0.0000   -0.0000   -0.0000    0.0000   -0.0000   -0.0000   -0.0000    0.0001    0.0000    0.0000
      169 W      7g2+      -0.0000    0.0000    0.0000   -0.0000   -0.0000    0.0000    0.0000   -0.0001   -0.0000   -0.0000
      170 W      8g2+       0.0000   -0.0000   -0.0000    0.0000    0.0000   -0.0000   -0.0000    0.0000    0.0000    0.0000
      171 W      5g3+       0.0000    0.0000   -0.0000    0.0000   -0.0000    0.0004   -0.0000    0.0000   -0.0005   -0.0000
      172 W      6g3+      -0.0000   -0.0000    0.0000   -0.0000    0.0000   -0.0004    0.0000   -0.0000    0.0005    0.0000
      173 W      7g3+       0.0000    0.0000   -0.0000    0.0000   -0.0000    0.0004   -0.0000    0.0000   -0.0005   -0.0000
      174 W      8g3+      -0.0000   -0.0000    0.0000   -0.0000    0.0000   -0.0003    0.0000   -0.0000    0.0003    0.0000
      175 W      5g4+      -0.0000    0.0000    0.0000   -0.0000   -0.0000   -0.0000    0.0000   -0.0004   -0.0000    0.0000
      176 W      6g4+       0.0000   -0.0000   -0.0000    0.0000    0.0000    0.0000   -0.0000    0.0004    0.0000   -0.0000
      177 W      7g4+      -0.0000    0.0000    0.0000   -0.0000   -0.0000   -0.0000    0.0000   -0.0004   -0.0000    0.0000
      178 W      8g4+       0.0000   -0.0000   -0.0000    0.0000    0.0000    0.0000   -0.0000    0.0003    0.0000   -0.0000
      179 W      6h5-       0.0000    0.0000    0.0000    0.0000   -0.0000   -0.0000    0.0000    0.0000    0.0000   -0.0000
      180 W      7h5-      -0.0000   -0.0000   -0.0000   -0.0000    0.0000    0.0000   -0.0000   -0.0000   -0.0000    0.0000
      181 W      6h4-      -0.0000   -0.0000    0.0000    0.0000   -0.0000    0.0000    0.0000    0.0000   -0.0000    0.0000
      182 W      7h4-       0.0000    0.0000   -0.0000   -0.0000    0.0000   -0.0000   -0.0000   -0.0000    0.0000   -0.0000
      183 W      6h3-      -0.0000    0.0000   -0.0000   -0.0000    0.0000   -0.0000   -0.0000   -0.0000   -0.0000    0.0000
      184 W      7h3-      -0.0000   -0.0000    0.0000    0.0000    0.0000    0.0000    0.0000    0.0000    0.0000   -0.0000
      185 W      6h2-       0.0000    0.0000    0.0000    0.0000    0.0000   -0.0000    0.0000    0.0000    0.0000   -0.0000
      186 W      7h2-      -0.0000   -0.0000   -0.0000   -0.0000   -0.0000    0.0000   -0.0000   -0.0000   -0.0000    0.0000
      187 W      6h1-      -0.0000   -0.0000    0.0000    0.0000   -0.0000    0.0000    0.0000    0.0000   -0.0000    0.0000
      188 W      7h1-       0.0000    0.0000   -0.0000   -0.0000    0.0000   -0.0000   -0.0000   -0.0000    0.0000   -0.0000
      189 W      6h0        0.0000   -0.0000   -0.0000    0.0000   -0.0000   -0.0000   -0.0000    0.0000   -0.0001    0.0000
      190 W      7h0       -0.0000    0.0000    0.0000   -0.0000    0.0000    0.0000    0.0000   -0.0000    0.0001   -0.0000
      191 W      6h1+       0.0000    0.0000   -0.0000    0.0000    0.0000   -0.0000   -0.0000    0.0000    0.0000   -0.0000
      192 W      7h1+      -0.0000   -0.0000    0.0000   -0.0000   -0.0000    0.0000    0.0000   -0.0000   -0.0000    0.0000
      193 W      6h2+       0.0000    0.0000    0.0000   -0.0000   -0.0000   -0.0000    0.0000   -0.0000    0.0000   -0.0000
      194 W      7h2+      -0.0000   -0.0000   -0.0000    0.0000    0.0000    0.0000   -0.0000    0.0000   -0.0000    0.0000
      195 W      6h3+       0.0000   -0.0000   -0.0000    0.0000    0.0000   -0.0000   -0.0000    0.0000    0.0000   -0.0000
      196 W      7h3+      -0.0000    0.0000    0.0000   -0.0000   -0.0000    0.0000    0.0000   -0.0000   -0.0000    0.0000
      197 W      6h4+       0.0000    0.0000   -0.0000    0.0000    0.0000    0.0000   -0.0000    0.0000    0.0000   -0.0000
      198 W      7h4+      -0.0000   -0.0000    0.0000   -0.0000   -0.0000   -0.0000    0.0000   -0.0000   -0.0000    0.0000
      199 W      6h5+       0.0000    0.0000    0.0000   -0.0000   -0.0000   -0.0000    0.0000   -0.0000    0.0000   -0.0000
      200 W      7h5+      -0.0000   -0.0000   -0.0000    0.0000    0.0000    0.0000   -0.0000    0.0000   -0.0000    0.0000

          Orbital           11        12        13        14        15        16        17        18        19        20    
          Energy          -65.4380  -64.3429  -64.1934  -64.1934  -22.2250  -16.8482  -16.8482  -16.6673   -9.6747   -9.6747
          Occ. No.          2.0000    2.0000    2.0000    2.0000    2.0000    2.0000    2.0000    2.0000    2.0000    2.0000

        1 W      1s         0.0000    0.0000    0.0000    0.0000    0.0000   -0.0000   -0.0000   -0.0000   -0.0000   -0.0000
        2 W      2s         0.0000    0.0004    0.0000    0.0000   -0.0002    0.0000    0.0000    0.0001   -0.0000   -0.0000
        3 W      3s         0.0000    0.0134    0.0000    0.0000   -0.0083   -0.0000    0.0000    0.0010    0.0000    0.0000
        4 W      4s        -0.0000    0.0011    0.0000    0.0000    0.9981   -0.0000    0.0000   -0.0430    0.0000    0.0000
        5 W      5s         0.0000   -0.0001   -0.0000    0.0000    0.0256   -0.0000    0.0000   -0.0060   -0.0000   -0.0000
        6 W      6s        -0.0000    0.0000    0.0000    0.0000   -0.0060    0.0000   -0.0000    0.0013    0.0000    0.0000
        7 W      7s         0.0000   -0.0000   -0.0000   -0.0000    0.0065   -0.0000    0.0000   -0.0013   -0.0000   -0.0000
        8 W      8s        -0.0000    0.0000    0.0000   -0.0000   -0.0149    0.0000   -0.0000    0.0030    0.0000    0.0000
        9 W      9s         0.0000   -0.0000   -0.0000    0.0000    0.0160   -0.0000    0.0000   -0.0030   -0.0000   -0.0000
       10 W     10s        -0.0000   -0.0000    0.0000   -0.0000   -0.0137    0.0000   -0.0000    0.0024    0.0000    0.0000
       11 W     11s         0.0000    0.0003   -0.0000    0.0000    0.0110   -0.0000    0.0000   -0.0015    0.0000    0.0000
       12 W      2px       -0.0002    0.0000   -0.0011    0.0000    0.0000    0.0000   -0.0002   -0.0000    0.0000    0.0000
       13 W      3px       -0.0006    0.0000   -0.0697    0.0002    0.0000    0.0004   -0.0096   -0.0000    0.0000    0.0001
       14 W      4px       -0.0002    0.0000   -0.0029    0.0000   -0.0000   -0.0395    0.9970    0.0000   -0.0002   -0.0038
       15 W      5px        0.0001   -0.0000    0.0003   -0.0000    0.0000   -0.0011    0.0268    0.0000   -0.0000   -0.0002
       16 W      6px       -0.0000    0.0000   -0.0001    0.0000   -0.0000    0.0004   -0.0094   -0.0000    0.0000    0.0000
       17 W      7px        0.0001   -0.0000    0.0002   -0.0000    0.0000   -0.0009    0.0225    0.0000   -0.0000   -0.0000
       18 W      8px       -0.0001    0.0000    0.0000   -0.0000    0.0000    0.0007   -0.0172   -0.0000    0.0000    0.0000
       19 W      9px        0.0001   -0.0000   -0.0003    0.0000   -0.0000   -0.0005    0.0127    0.0000   -0.0000   -0.0000
       20 W     10px       -0.0001   -0.0000    0.0006   -0.0000    0.0000    0.0003   -0.0079   -0.0000    0.0000    0.0000
       21 W     11px        0.0003    0.0000   -0.0020    0.0000   -0.0000   -0.0002    0.0042    0.0000   -0.0000   -0.0000
       22 W      2py       -0.0000   -0.0000    0.0000    0.0011   -0.0000   -0.0002   -0.0000    0.0000   -0.0000    0.0000
       23 W      3py       -0.0000   -0.0000    0.0002    0.0697    0.0000   -0.0096   -0.0004    0.0000   -0.0001    0.0000
       24 W      4py       -0.0000   -0.0000    0.0000    0.0029   -0.0000    0.9970    0.0395   -0.0000    0.0038   -0.0002
       25 W      5py        0.0000    0.0000   -0.0000   -0.0003   -0.0000    0.0268    0.0011   -0.0000    0.0002   -0.0000
       26 W      6py       -0.0000   -0.0000    0.0000    0.0001    0.0000   -0.0094   -0.0004    0.0000   -0.0000    0.0000
       27 W      7py        0.0000    0.0000   -0.0000   -0.0002    0.0000    0.0225    0.0009   -0.0000    0.0000   -0.0000
       28 W      8py       -0.0000    0.0000   -0.0000   -0.0000   -0.0000   -0.0172   -0.0007    0.0000   -0.0000    0.0000
       29 W      9py        0.0000   -0.0000    0.0000    0.0003    0.0000    0.0127    0.0005   -0.0000    0.0000   -0.0000
       30 W     10py       -0.0000    0.0000   -0.0000   -0.0006   -0.0000   -0.0079   -0.0003    0.0000   -0.0000    0.0000
       31 W     11py        0.0000   -0.0000    0.0000    0.0020   -0.0000    0.0042    0.0002   -0.0000    0.0000   -0.0000
       32 W      2pz       -0.0000    0.0002   -0.0000    0.0000    0.0001   -0.0000    0.0000   -0.0003    0.0000    0.0000
       33 W      3pz       -0.0000    0.0370    0.0000    0.0000    0.0001   -0.0000    0.0000   -0.0102    0.0000    0.0000
       34 W      4pz       -0.0000    0.0010   -0.0000    0.0000    0.0434    0.0000   -0.0000    0.9976    0.0000    0.0000
       35 W      5pz        0.0000    0.0000    0.0000   -0.0000   -0.0022    0.0000   -0.0000    0.0316    0.0000    0.0000
       36 W      6pz       -0.0000   -0.0000   -0.0000    0.0000    0.0008   -0.0000    0.0000   -0.0111   -0.0000   -0.0000
       37 W      7pz        0.0000    0.0002    0.0000   -0.0000   -0.0019    0.0000   -0.0000    0.0267    0.0000    0.0000
       38 W      8pz       -0.0000   -0.0004   -0.0000   -0.0000    0.0014   -0.0000    0.0000   -0.0204   -0.0000   -0.0000
       39 W      9pz        0.0000    0.0006    0.0000    0.0000   -0.0010    0.0000   -0.0000    0.0150   -0.0000   -0.0000
       40 W     10pz       -0.0000   -0.0008   -0.0000   -0.0000    0.0006   -0.0000    0.0000   -0.0093   -0.0000   -0.0000
       41 W     11pz        0.0000    0.0019    0.0000    0.0000   -0.0001    0.0000   -0.0000    0.0046    0.0000    0.0000
       42 W      3d2-      -0.0181    0.0000   -0.0018   -0.5429    0.0000    0.0009    0.0000   -0.0000   -0.0085    0.0004
       43 W      4d2-      -0.0002    0.0000   -0.0000   -0.0046   -0.0000    0.0224    0.0009   -0.0000    0.8482   -0.0360
       44 W      5d2-       0.0000   -0.0000    0.0000    0.0007   -0.0000   -0.0019   -0.0001    0.0000    0.0230   -0.0010
       45 W      6d2-      -0.0000    0.0000   -0.0000   -0.0009    0.0000    0.0023    0.0001   -0.0000   -0.0255    0.0011
       46 W      7d2-       0.0001   -0.0000    0.0000    0.0010   -0.0000   -0.0025   -0.0001    0.0000    0.0247   -0.0010
       47 W      8d2-      -0.0001    0.0000   -0.0000   -0.0008    0.0000    0.0020    0.0001   -0.0000   -0.0183    0.0008
       48 W      9d2-       0.0000   -0.0000    0.0000    0.0003   -0.0000   -0.0013   -0.0001    0.0000    0.0123   -0.0005
       49 W     10d2-      -0.0000   -0.0000    0.0000    0.0005    0.0000    0.0007    0.0000   -0.0000   -0.0082    0.0003
       50 W     11d2-      -0.0000    0.0000   -0.0000   -0.0025   -0.0000    0.0004    0.0000   -0.0000    0.0034   -0.0001
       51 W      3d1-       0.0118    0.0000   -0.0027   -0.8366   -0.0000    0.0016    0.0001   -0.0000    0.0054   -0.0002
       52 W      4d1-       0.0001    0.0000   -0.0000   -0.0076    0.0000    0.0434    0.0017   -0.0000   -0.5243    0.0223
       53 W      5d1-      -0.0000   -0.0000    0.0000    0.0012    0.0000   -0.0032   -0.0001    0.0000   -0.0148    0.0006
       54 W      6d1-       0.0000    0.0000   -0.0000   -0.0015   -0.0000    0.0038    0.0002   -0.0000    0.0163   -0.0007
       55 W      7d1-      -0.0000   -0.0000    0.0000    0.0018    0.0000   -0.0040   -0.0002    0.0000   -0.0157    0.0007
       56 W      8d1-       0.0000    0.0000   -0.0000   -0.0015   -0.0000    0.0032    0.0001   -0.0000    0.0116   -0.0005
       57 W      9d1-      -0.0000   -0.0000    0.0000    0.0008    0.0000   -0.0020   -0.0001    0.0000   -0.0078    0.0003
       58 W     10d1-       0.0000   -0.0000    0.0000    0.0003   -0.0000    0.0010    0.0000   -0.0000    0.0051   -0.0002
       59 W     11d1-      -0.0000    0.0000   -0.0000   -0.0033    0.0000    0.0008    0.0000   -0.0000   -0.0021    0.0001
       60 W      3d0        0.0000    0.9991    0.0000    0.0000   -0.0009   -0.0000   -0.0000   -0.0006   -0.0000   -0.0000
       61 W      4d0        0.0000    0.0091    0.0000    0.0000   -0.0085   -0.0000    0.0000   -0.0115    0.0000    0.0000
       62 W      5d0       -0.0000   -0.0015   -0.0000   -0.0000    0.0011    0.0000   -0.0000    0.0015    0.0000    0.0000
       63 W      6d0        0.0000    0.0019    0.0000    0.0000   -0.0015   -0.0000    0.0000   -0.0019   -0.0000   -0.0000
       64 W      7d0       -0.0000   -0.0023   -0.0000   -0.0000    0.0018    0.0000   -0.0000    0.0021    0.0000    0.0000
       65 W      8d0        0.0000    0.0021    0.0000    0.0000   -0.0017   -0.0000    0.0000   -0.0018   -0.0000   -0.0000
       66 W      9d0       -0.0000   -0.0013   -0.0000   -0.0000    0.0013    0.0000   -0.0000    0.0013    0.0000    0.0000
       67 W     10d0        0.0000    0.0001   -0.0000   -0.0000   -0.0009   -0.0000    0.0000   -0.0008   -0.0000   -0.0000
       68 W     11d0       -0.0000    0.0032    0.0000    0.0000   -0.0002   -0.0000    0.0000   -0.0003    0.0000    0.0000
       69 W      3d1+       0.5443   -0.0000    0.8366   -0.0027   -0.0000   -0.0001    0.0016    0.0000   -0.0002   -0.0054
       70 W      4d1+       0.0058   -0.0000    0.0076   -0.0000   -0.0000   -0.0017    0.0434    0.0000    0.0223    0.5242
       71 W      5d1+      -0.0010    0.0000   -0.0012    0.0000   -0.0000    0.0001   -0.0032   -0.0000    0.0006    0.0148
       72 W      6d1+       0.0014   -0.0000    0.0015   -0.0000    0.0000   -0.0002    0.0038    0.0000   -0.0007   -0.0163
       73 W      7d1+      -0.0017    0.0000   -0.0018    0.0000   -0.0000    0.0002   -0.0040   -0.0000    0.0007    0.0157
       74 W      8d1+       0.0018   -0.0000    0.0015   -0.0000    0.0000   -0.0001    0.0032    0.0000   -0.0005   -0.0116
       75 W      9d1+      -0.0016    0.0000   -0.0008    0.0000   -0.0000    0.0001   -0.0020   -0.0000    0.0003    0.0078
       76 W     10d1+       0.0013    0.0000   -0.0003    0.0000    0.0000   -0.0000    0.0010    0.0000   -0.0002   -0.0051
       77 W     11d1+      -0.0003   -0.0000    0.0033   -0.0000   -0.0000   -0.0000    0.0008    0.0000    0.0001    0.0021
       78 W      3d2+       0.8385    0.0000   -0.5429    0.0018    0.0000    0.0000   -0.0009   -0.0000   -0.0004   -0.0085
       79 W      4d2+       0.0085    0.0000   -0.0046    0.0000   -0.0000    0.0009   -0.0224   -0.0000    0.0360    0.8482
       80 W      5d2+      -0.0014   -0.0000    0.0007   -0.0000   -0.0000   -0.0001    0.0019    0.0000    0.0010    0.0230
       81 W      6d2+       0.0020    0.0000   -0.0009    0.0000    0.0000    0.0001   -0.0023   -0.0000   -0.0011   -0.0255
       82 W      7d2+      -0.0024   -0.0000    0.0010   -0.0000   -0.0000   -0.0001    0.0025    0.0000    0.0010    0.0247
       83 W      8d2+       0.0025    0.0000   -0.0008    0.0000    0.0000    0.0001   -0.0020   -0.0000   -0.0008   -0.0183
       84 W      9d2+      -0.0022   -0.0000    0.0003   -0.0000   -0.0000   -0.0001    0.0013    0.0000    0.0005    0.0123
       85 W     10d2+       0.0017    0.0000    0.0005   -0.0000    0.0000    0.0000   -0.0007   -0.0000   -0.0003   -0.0082
       86 W     11d2+       0.0001    0.0000   -0.0025    0.0000   -0.0000    0.0000   -0.0004   -0.0000    0.0001    0.0034
       87 W      4f3-      -0.0000   -0.0000    0.0000   -0.0000    0.0000   -0.0000   -0.0000    0.0000   -0.0000    0.0000
       88 W      5f3-       0.0000    0.0000   -0.0000    0.0000   -0.0000    0.0000    0.0000    0.0000    0.0000   -0.0000
       89 W      6f3-      -0.0000   -0.0000    0.0000   -0.0000   -0.0000    0.0000    0.0000    0.0000   -0.0000    0.0000
       90 W      7f3-       0.0000    0.0000    0.0000    0.0000    0.0000   -0.0000   -0.0000   -0.0000    0.0000    0.0000
       91 W      8f3-      -0.0000    0.0000   -0.0000   -0.0000    0.0000    0.0000    0.0000    0.0000   -0.0000    0.0000
       92 W      9f3-       0.0000   -0.0000    0.0000    0.0000   -0.0000   -0.0000    0.0000   -0.0000    0.0000   -0.0000
       93 W     10f3-      -0.0000    0.0000   -0.0000   -0.0000    0.0000   -0.0000   -0.0000    0.0000    0.0000   -0.0000
       94 W     11f3-       0.0000   -0.0000    0.0000    0.0000   -0.0000   -0.0000   -0.0000    0.0000    0.0000   -0.0000
       95 W      4f2-      -0.0001    0.0000   -0.0000   -0.0094   -0.0000   -0.0038   -0.0002   -0.0000    0.0190   -0.0008
       96 W      5f2-       0.0001   -0.0000    0.0000    0.0069    0.0000    0.0012    0.0000    0.0000   -0.0048    0.0002
       97 W      6f2-      -0.0001    0.0000   -0.0000   -0.0067   -0.0000   -0.0006   -0.0000    0.0000    0.0019   -0.0001
       98 W      7f2-       0.0001   -0.0000    0.0000    0.0062   -0.0000    0.0000    0.0000   -0.0000    0.0002   -0.0000
       99 W      8f2-      -0.0001    0.0000   -0.0000   -0.0057    0.0000    0.0004    0.0000    0.0000   -0.0009    0.0000
      100 W      9f2-       0.0000   -0.0000    0.0000    0.0045   -0.0000   -0.0006   -0.0000    0.0000    0.0010   -0.0000
      101 W     10f2-      -0.0000    0.0000   -0.0000   -0.0041    0.0000    0.0007    0.0000   -0.0000   -0.0009    0.0000
      102 W     11f2-       0.0000   -0.0000    0.0000    0.0026    0.0000   -0.0009   -0.0000    0.0000    0.0011   -0.0000
      103 W      4f1-       0.0000    0.0000   -0.0000   -0.0017    0.0000   -0.0014   -0.0001    0.0000   -0.0089    0.0004
      104 W      5f1-      -0.0000   -0.0000    0.0000    0.0012   -0.0000    0.0009    0.0000   -0.0000    0.0018   -0.0001
      105 W      6f1-       0.0000    0.0000   -0.0000   -0.0012    0.0000   -0.0006   -0.0000    0.0000   -0.0006    0.0000
      106 W      7f1-      -0.0000   -0.0000    0.0000    0.0011    0.0000    0.0002    0.0000    0.0000   -0.0002    0.0000
      107 W      8f1-       0.0000    0.0000   -0.0000   -0.0010   -0.0000    0.0002    0.0000   -0.0000    0.0005   -0.0000
      108 W      9f1-      -0.0000   -0.0000    0.0000    0.0009    0.0000   -0.0004   -0.0000    0.0000   -0.0005    0.0000
      109 W     10f1-       0.0000    0.0000   -0.0000   -0.0008    0.0000    0.0005    0.0000    0.0000    0.0004   -0.0000
      110 W     11f1-      -0.0000   -0.0000    0.0000    0.0006   -0.0000   -0.0006   -0.0000    0.0000   -0.0005    0.0000
      111 W      4f0        0.0000   -0.0040   -0.0000   -0.0000   -0.0106   -0.0000    0.0000   -0.0028   -0.0000   -0.0000
      112 W      5f0        0.0000    0.0030    0.0000    0.0000    0.0045    0.0000   -0.0000    0.0009    0.0000    0.0000
      113 W      6f0       -0.0000   -0.0029   -0.0000   -0.0000   -0.0026    0.0000   -0.0000   -0.0006   -0.0000   -0.0000
      114 W      7f0        0.0000    0.0027    0.0000    0.0000    0.0005   -0.0000    0.0000    0.0003    0.0000    0.0000
      115 W      8f0       -0.0000   -0.0025   -0.0000   -0.0000    0.0010    0.0000   -0.0000    0.0001    0.0000   -0.0000
      116 W      9f0        0.0000    0.0020    0.0000    0.0000   -0.0017   -0.0000    0.0000   -0.0005   -0.0000   -0.0000
      117 W     10f0       -0.0000   -0.0018   -0.0000   -0.0000    0.0020    0.0000   -0.0000    0.0006    0.0000    0.0000
      118 W     11f0       -0.0000    0.0009    0.0000    0.0000   -0.0026   -0.0000    0.0000   -0.0008   -0.0000   -0.0000
      119 W      4f1+       0.0017   -0.0000    0.0017   -0.0000   -0.0000    0.0001   -0.0014   -0.0000    0.0004    0.0089
      120 W      5f1+      -0.0012    0.0000   -0.0012    0.0000    0.0000   -0.0000    0.0009    0.0000   -0.0001   -0.0018
      121 W      6f1+       0.0012   -0.0000    0.0012   -0.0000    0.0000    0.0000   -0.0006   -0.0000    0.0000    0.0006
      122 W      7f1+      -0.0011    0.0000   -0.0011    0.0000   -0.0000   -0.0000    0.0002   -0.0000    0.0000    0.0002
      123 W      8f1+       0.0010   -0.0000    0.0010   -0.0000   -0.0000   -0.0000    0.0002    0.0000   -0.0000   -0.0005
      124 W      9f1+      -0.0008    0.0000   -0.0009    0.0000    0.0000    0.0000   -0.0004   -0.0000    0.0000    0.0005
      125 W     10f1+       0.0007   -0.0000    0.0008   -0.0000   -0.0000   -0.0000    0.0005    0.0000   -0.0000   -0.0004
      126 W     11f1+      -0.0006   -0.0000   -0.0006    0.0000    0.0000    0.0000   -0.0006   -0.0000    0.0000    0.0005
      127 W      4f2+       0.0042    0.0000   -0.0094    0.0000    0.0000   -0.0002    0.0038   -0.0000    0.0008    0.0190
      128 W      5f2+      -0.0030   -0.0000    0.0069   -0.0000   -0.0000    0.0000   -0.0012    0.0000   -0.0002   -0.0048
      129 W      6f2+       0.0030    0.0000   -0.0067    0.0000    0.0000   -0.0000    0.0006   -0.0000    0.0001    0.0019
      130 W      7f2+      -0.0027   -0.0000    0.0062   -0.0000   -0.0000    0.0000   -0.0000   -0.0000    0.0000    0.0002
      131 W      8f2+       0.0025    0.0000   -0.0057    0.0000    0.0000    0.0000   -0.0004    0.0000   -0.0000   -0.0009
      132 W      9f2+      -0.0020   -0.0000    0.0045   -0.0000   -0.0000   -0.0000    0.0006    0.0000    0.0000    0.0010
      133 W     10f2+       0.0018    0.0000   -0.0041    0.0000    0.0000    0.0000   -0.0007   -0.0000   -0.0000   -0.0009
      134 W     11f2+      -0.0013   -0.0000    0.0026   -0.0000   -0.0000   -0.0000    0.0009    0.0000    0.0000    0.0011
      135 W      4f3+      -0.0000    0.0034    0.0000    0.0000   -0.0070    0.0000   -0.0000    0.0042   -0.0000   -0.0000
      136 W      5f3+       0.0000   -0.0025   -0.0000   -0.0000    0.0030   -0.0000    0.0000   -0.0014    0.0000    0.0000
      137 W      6f3+      -0.0000    0.0024    0.0000    0.0000   -0.0017   -0.0000   -0.0000    0.0007   -0.0000   -0.0000
      138 W      7f3+      -0.0000   -0.0022   -0.0000   -0.0000    0.0003    0.0000   -0.0000   -0.0001   -0.0000   -0.0000
      139 W      8f3+       0.0000    0.0020    0.0000    0.0000    0.0006   -0.0000    0.0000   -0.0003    0.0000    0.0000
      140 W      9f3+      -0.0000   -0.0016   -0.0000   -0.0000   -0.0011    0.0000   -0.0000    0.0006    0.0000    0.0000
      141 W     10f3+       0.0000    0.0015    0.0000    0.0000    0.0013    0.0000   -0.0000   -0.0007   -0.0000   -0.0000
      142 W     11f3+      -0.0000   -0.0010    0.0000   -0.0000   -0.0017    0.0000   -0.0000    0.0009    0.0000    0.0000
      143 W      5g4-       0.0000    0.0000   -0.0000   -0.0005   -0.0000   -0.0016   -0.0001    0.0000    0.0003   -0.0000
      144 W      6g4-      -0.0000   -0.0000    0.0000    0.0004    0.0000    0.0012    0.0000   -0.0000    0.0000   -0.0000
      145 W      7g4-       0.0000    0.0000   -0.0000   -0.0004   -0.0000   -0.0010   -0.0000    0.0000   -0.0001    0.0000
      146 W      8g4-      -0.0000   -0.0000    0.0000    0.0002    0.0000    0.0006    0.0000   -0.0000    0.0001   -0.0000
      147 W      5g3-      -0.0000   -0.0000   -0.0000    0.0000   -0.0000   -0.0000   -0.0000    0.0000    0.0000   -0.0000
      148 W      6g3-       0.0000    0.0000    0.0000   -0.0000    0.0000   -0.0000    0.0000    0.0000    0.0000   -0.0000
      149 W      7g3-      -0.0000   -0.0000   -0.0000    0.0000   -0.0000   -0.0000   -0.0000   -0.0000    0.0000    0.0000
      150 W      8g3-       0.0000    0.0000    0.0000   -0.0000    0.0000    0.0000    0.0000    0.0000   -0.0000   -0.0000
      151 W      5g2-       0.0000   -0.0000    0.0000    0.0003    0.0000   -0.0001   -0.0000    0.0000   -0.0005    0.0000
      152 W      6g2-      -0.0000    0.0000   -0.0000   -0.0003   -0.0000   -0.0000   -0.0000    0.0000    0.0003   -0.0000
      153 W      7g2-       0.0000   -0.0000    0.0000    0.0003   -0.0000    0.0000    0.0000   -0.0000   -0.0002    0.0000
      154 W      8g2-      -0.0000    0.0000   -0.0000   -0.0002    0.0000   -0.0000   -0.0000    0.0000    0.0001   -0.0000
      155 W      5g1-      -0.0000    0.0000   -0.0000   -0.0004   -0.0000   -0.0019   -0.0001    0.0000    0.0004   -0.0000
      156 W      6g1-       0.0000   -0.0000    0.0000    0.0003    0.0000    0.0015    0.0001   -0.0000   -0.0004    0.0000
      157 W      7g1-      -0.0000    0.0000   -0.0000   -0.0002    0.0000   -0.0012   -0.0000    0.0000    0.0004   -0.0000
      158 W      8g1-       0.0000   -0.0000    0.0000    0.0001   -0.0000    0.0007    0.0000   -0.0000   -0.0004    0.0000
      159 W      5g0        0.0000   -0.0010   -0.0000   -0.0000   -0.0000   -0.0000    0.0000   -0.0030   -0.0000   -0.0000
      160 W      6g0       -0.0000    0.0008    0.0000    0.0000   -0.0000    0.0000   -0.0000    0.0023   -0.0000   -0.0000
      161 W      7g0        0.0000   -0.0007   -0.0000   -0.0000    0.0000   -0.0000    0.0000   -0.0018    0.0000    0.0000
      162 W      8g0       -0.0000    0.0004    0.0000    0.0000    0.0000    0.0000   -0.0000    0.0011    0.0000    0.0000
      163 W      5g1+      -0.0002   -0.0000    0.0004   -0.0000   -0.0000    0.0001   -0.0019   -0.0000   -0.0000   -0.0004
      164 W      6g1+       0.0002    0.0000   -0.0003    0.0000    0.0000   -0.0001    0.0015    0.0000    0.0000    0.0004
      165 W      7g1+      -0.0002   -0.0000    0.0002   -0.0000   -0.0000    0.0000   -0.0012   -0.0000   -0.0000   -0.0004
      166 W      8g1+       0.0001    0.0000   -0.0001    0.0000    0.0000   -0.0000    0.0007    0.0000    0.0000    0.0004
      167 W      5g2+      -0.0001   -0.0000    0.0003   -0.0000    0.0000   -0.0000    0.0001    0.0000   -0.0000   -0.0005
      168 W      6g2+       0.0001    0.0000   -0.0003    0.0000   -0.0000   -0.0000    0.0000    0.0000    0.0000    0.0003
      169 W      7g2+      -0.0000   -0.0000    0.0003   -0.0000   -0.0000    0.0000   -0.0000   -0.0000   -0.0000   -0.0002
      170 W      8g2+       0.0000    0.0000   -0.0002    0.0000    0.0000   -0.0000    0.0000    0.0000    0.0000    0.0001
      171 W      5g3+      -0.0000   -0.0003   -0.0000   -0.0000    0.0010   -0.0000    0.0000   -0.0016   -0.0000   -0.0000
      172 W      6g3+       0.0000    0.0002    0.0000    0.0000   -0.0008    0.0000   -0.0000    0.0013    0.0000    0.0000
      173 W      7g3+      -0.0000   -0.0002   -0.0000   -0.0000    0.0007   -0.0000    0.0000   -0.0010   -0.0000   -0.0000
      174 W      8g3+       0.0000    0.0001    0.0000    0.0000   -0.0005    0.0000   -0.0000    0.0006   -0.0000   -0.0000
      175 W      5g4+       0.0000   -0.0000    0.0005   -0.0000   -0.0000    0.0001   -0.0016   -0.0000   -0.0000   -0.0003
      176 W      6g4+      -0.0000    0.0000   -0.0004    0.0000    0.0000   -0.0000    0.0012    0.0000   -0.0000   -0.0000
      177 W      7g4+       0.0000   -0.0000    0.0004   -0.0000   -0.0000    0.0000   -0.0010   -0.0000    0.0000    0.0001
      178 W      8g4+      -0.0000    0.0000   -0.0002    0.0000    0.0000   -0.0000    0.0006    0.0000   -0.0000   -0.0001
      179 W      6h5-       0.0000   -0.0000    0.0000    0.0000    0.0000    0.0002    0.0000   -0.0000   -0.0005    0.0000
      180 W      7h5-      -0.0000    0.0000   -0.0000   -0.0000    0.0000   -0.0001   -0.0000    0.0000    0.0005   -0.0000
      181 W      6h4-      -0.0000   -0.0000    0.0000    0.0000   -0.0000    0.0001    0.0000   -0.0000    0.0002   -0.0000
      182 W      7h4-       0.0000    0.0000   -0.0000   -0.0000   -0.0000   -0.0001   -0.0000    0.0000   -0.0002    0.0000
      183 W      6h3-      -0.0000    0.0000   -0.0000    0.0000    0.0000   -0.0000   -0.0000   -0.0000   -0.0000    0.0000
      184 W      7h3-       0.0000   -0.0000    0.0000   -0.0000    0.0000   -0.0000   -0.0000    0.0000   -0.0000    0.0000
      185 W      6h2-       0.0000   -0.0000    0.0000    0.0000    0.0000    0.0002    0.0000    0.0000   -0.0003    0.0000
      186 W      7h2-      -0.0000    0.0000   -0.0000   -0.0000    0.0000   -0.0001   -0.0000   -0.0000    0.0004   -0.0000
      187 W      6h1-      -0.0000   -0.0000    0.0000    0.0001   -0.0000    0.0005    0.0000   -0.0000    0.0004   -0.0000
      188 W      7h1-       0.0000    0.0000   -0.0000   -0.0001   -0.0000   -0.0004   -0.0000    0.0000   -0.0004    0.0000
      189 W      6h0        0.0000   -0.0001   -0.0000   -0.0000   -0.0001   -0.0000    0.0000   -0.0007   -0.0000   -0.0000
      190 W      7h0       -0.0000    0.0001    0.0000    0.0000    0.0000    0.0000   -0.0000    0.0004    0.0000    0.0000
      191 W      6h1+      -0.0000    0.0000   -0.0001    0.0000    0.0000   -0.0000    0.0005    0.0000   -0.0000   -0.0004
      192 W      7h1+       0.0000   -0.0000    0.0001   -0.0000    0.0000    0.0000   -0.0004   -0.0000    0.0000    0.0004
      193 W      6h2+      -0.0000   -0.0000    0.0000   -0.0000    0.0000    0.0000   -0.0002    0.0000   -0.0000   -0.0003
      194 W      7h2+       0.0000    0.0000   -0.0000    0.0000    0.0000   -0.0000    0.0001   -0.0000    0.0000    0.0004
      195 W      6h3+      -0.0000   -0.0000   -0.0000   -0.0000   -0.0000   -0.0000    0.0000   -0.0002    0.0000    0.0000
      196 W      7h3+      -0.0000    0.0000    0.0000    0.0000    0.0001    0.0000   -0.0000    0.0001    0.0000    0.0000
      197 W      6h4+      -0.0000    0.0000   -0.0000    0.0000    0.0000   -0.0000    0.0001    0.0000   -0.0000   -0.0002
      198 W      7h4+       0.0000   -0.0000    0.0000   -0.0000   -0.0000    0.0000   -0.0001   -0.0000    0.0000    0.0002
      199 W      6h5+      -0.0000   -0.0000    0.0000   -0.0000    0.0000    0.0000   -0.0002    0.0000   -0.0000   -0.0005
      200 W      7h5+       0.0000    0.0000   -0.0000    0.0000    0.0000   -0.0000    0.0001    0.0000    0.0000    0.0005

          Orbital           21        22        23        24        25        26        27        28        29        30    
          Energy           -9.4255   -9.4255   -9.4072   -3.8950   -2.4380   -2.4379   -2.4228   -1.6191   -1.5788   -1.5344
          Occ. No.          2.0000    2.0000    2.0000    2.0000    2.0000    2.0000    2.0000    2.0000    2.0000    2.0000

        1 W      1s        -0.0000   -0.0000   -0.0000   -0.0000    0.0000   -0.0000   -0.0000   -0.0000   -0.0000    0.0000
        2 W      2s        -0.0000   -0.0000   -0.0001    0.0001   -0.0000    0.0000    0.0000   -0.0000    0.0000   -0.0000
        3 W      3s         0.0000    0.0000    0.0001    0.0023   -0.0000    0.0000    0.0002   -0.0000    0.0008   -0.0000
        4 W      4s         0.0000    0.0000    0.0074   -0.0239    0.0000   -0.0000   -0.0041   -0.0000    0.0016   -0.0000
        5 W      5s         0.0000    0.0000    0.0095    0.9969   -0.0000    0.0000    0.0436    0.0000   -0.0049    0.0000
        6 W      6s        -0.0000   -0.0000   -0.0017    0.0237   -0.0000    0.0000    0.0089    0.0000   -0.0050    0.0000
        7 W      7s         0.0000    0.0000    0.0018   -0.0170    0.0000   -0.0000   -0.0068   -0.0000    0.0034   -0.0000
        8 W      8s        -0.0000   -0.0000   -0.0035    0.0317   -0.0000    0.0000    0.0088    0.0000   -0.0039    0.0000
        9 W      9s         0.0000    0.0000    0.0031   -0.0223    0.0000   -0.0000   -0.0034   -0.0000    0.0015   -0.0000
       10 W     10s        -0.0000   -0.0000   -0.0020    0.0083   -0.0000    0.0000    0.0005    0.0000   -0.0003   -0.0000
       11 W     11s         0.0000    0.0000    0.0011   -0.0065    0.0000   -0.0000   -0.0010   -0.0000    0.0007   -0.0000
       12 W      2px       -0.0000   -0.0003    0.0000   -0.0000    0.0001   -0.0000    0.0000    0.0000    0.0000   -0.0000
       13 W      3px        0.0000    0.0004   -0.0000   -0.0000    0.0025   -0.0001    0.0000    0.0000    0.0000   -0.0000
       14 W      4px        0.0014    0.0468   -0.0000   -0.0000   -0.0256    0.0012   -0.0000    0.0000    0.0000   -0.0000
       15 W      5px        0.0005    0.0182   -0.0000    0.0000    0.9960   -0.0481    0.0003   -0.0000   -0.0000    0.0006
       16 W      6px       -0.0002   -0.0053    0.0000   -0.0000    0.0215   -0.0010    0.0000   -0.0000   -0.0000    0.0002
       17 W      7px        0.0003    0.0109   -0.0000   -0.0000   -0.0410    0.0020   -0.0000    0.0000    0.0000   -0.0002
       18 W      8px       -0.0002   -0.0070    0.0000    0.0000    0.0175   -0.0008    0.0000    0.0000    0.0000    0.0000
       19 W      9px        0.0001    0.0042   -0.0000   -0.0000   -0.0031    0.0001   -0.0000    0.0000    0.0000    0.0000
       20 W     10px       -0.0001   -0.0023    0.0000   -0.0000    0.0021   -0.0001    0.0000   -0.0000   -0.0000    0.0000
       21 W     11px        0.0000    0.0011   -0.0000   -0.0000   -0.0023    0.0001   -0.0000   -0.0000    0.0000   -0.0000
       22 W      2py        0.0003   -0.0000   -0.0000    0.0000    0.0000    0.0001   -0.0000    0.0000   -0.0000    0.0000
       23 W      3py       -0.0004    0.0000    0.0000    0.0000    0.0001    0.0025   -0.0000    0.0000   -0.0000    0.0006
       24 W      4py       -0.0468    0.0014    0.0000    0.0000   -0.0012   -0.0256    0.0000    0.0000   -0.0000    0.0009
       25 W      5py       -0.0182    0.0005    0.0000   -0.0000    0.0481    0.9960   -0.0000   -0.0000    0.0000   -0.0163
       26 W      6py        0.0053   -0.0002   -0.0000    0.0000    0.0010    0.0215   -0.0000   -0.0000    0.0000   -0.0053
       27 W      7py       -0.0109    0.0003    0.0000    0.0000   -0.0020   -0.0410    0.0000    0.0000   -0.0000    0.0060
       28 W      8py        0.0070   -0.0002   -0.0000   -0.0000    0.0008    0.0175   -0.0000    0.0000   -0.0000   -0.0009
       29 W      9py       -0.0042    0.0001    0.0000    0.0000   -0.0001   -0.0031    0.0000    0.0000   -0.0000   -0.0001
       30 W     10py        0.0023   -0.0001   -0.0000    0.0000    0.0001    0.0022   -0.0000   -0.0000    0.0000   -0.0003
       31 W     11py       -0.0011    0.0000    0.0000    0.0000   -0.0001   -0.0023    0.0000   -0.0000   -0.0000    0.0001
       32 W      2pz        0.0000    0.0000    0.0000   -0.0000    0.0000   -0.0000   -0.0001    0.0000   -0.0001   -0.0000
       33 W      3pz        0.0000    0.0000    0.0006    0.0001    0.0000   -0.0000   -0.0025    0.0000   -0.0034   -0.0000
       34 W      4pz        0.0000    0.0000    0.0110    0.0030   -0.0000    0.0000    0.0294    0.0000   -0.0050   -0.0000
       35 W      5pz        0.0000    0.0000    0.0079    0.0450    0.0003   -0.0000   -0.9960   -0.0000    0.0351    0.0000
       36 W      6pz       -0.0000   -0.0000   -0.0026   -0.0056    0.0000   -0.0000   -0.0291   -0.0000    0.0140    0.0000
       37 W      7pz        0.0000    0.0000    0.0052    0.0072   -0.0000    0.0000    0.0472    0.0000   -0.0142   -0.0000
       38 W      8pz       -0.0000   -0.0000   -0.0032   -0.0016    0.0000   -0.0000   -0.0185   -0.0000    0.0025   -0.0000
       39 W      9pz        0.0000    0.0000    0.0019   -0.0001   -0.0000    0.0000    0.0041    0.0000   -0.0010   -0.0000
       40 W     10pz       -0.0000   -0.0000   -0.0011   -0.0003    0.0000   -0.0000   -0.0031   -0.0000    0.0012    0.0000
       41 W     11pz        0.0000    0.0000    0.0006    0.0001   -0.0000    0.0000    0.0024    0.0000   -0.0013   -0.0000
       42 W      3d2-      -0.0048    0.0001    0.0000    0.0000   -0.0000   -0.0003    0.0000    0.0000    0.0000    0.0021
       43 W      4d2-       0.5230   -0.0151   -0.0000    0.0000    0.0003    0.0069   -0.0000    0.0000    0.0000    0.0084
       44 W      5d2-       0.0169   -0.0005   -0.0000    0.0000    0.0005    0.0108   -0.0000    0.0000    0.0000    0.0287
       45 W      6d2-      -0.0189    0.0005    0.0000   -0.0000   -0.0004   -0.0073    0.0000   -0.0000   -0.0000   -0.0134
       46 W      7d2-       0.0185   -0.0005   -0.0000    0.0000    0.0002    0.0038   -0.0000    0.0000    0.0000    0.0040
       47 W      8d2-      -0.0138    0.0004    0.0000    0.0000   -0.0001   -0.0014    0.0000   -0.0000    0.0000   -0.0013
       48 W      9d2-       0.0093   -0.0003   -0.0000    0.0000    0.0000    0.0008   -0.0000    0.0000    0.0000    0.0016
       49 W     10d2-      -0.0062    0.0002    0.0000   -0.0000   -0.0000   -0.0006    0.0000   -0.0000   -0.0000   -0.0009
       50 W     11d2-       0.0023   -0.0001   -0.0000   -0.0000   -0.0000   -0.0000    0.0000    0.0000    0.0000    0.0005
       51 W      3d1-      -0.0079    0.0002    0.0000   -0.0000   -0.0000   -0.0004    0.0000    0.0000    0.0000   -0.0007
       52 W      4d1-       0.8466   -0.0245   -0.0000    0.0000    0.0006    0.0114   -0.0000   -0.0000    0.0000   -0.0076
       53 W      5d1-       0.0283   -0.0008   -0.0000   -0.0000    0.0013    0.0278   -0.0000   -0.0000    0.0000   -0.0004
       54 W      6d1-      -0.0315    0.0009    0.0000    0.0000   -0.0009   -0.0180    0.0000    0.0000   -0.0000    0.0007
       55 W      7d1-       0.0307   -0.0009   -0.0000   -0.0000    0.0004    0.0083   -0.0000    0.0000   -0.0000   -0.0008
       56 W      8d1-      -0.0229    0.0007    0.0000   -0.0000   -0.0001   -0.0019    0.0000    0.0000   -0.0000    0.0006
       57 W      9d1-       0.0153   -0.0004   -0.0000    0.0000    0.0001    0.0012   -0.0000   -0.0000    0.0000   -0.0004
       58 W     10d1-      -0.0101    0.0003    0.0000    0.0000   -0.0001   -0.0011    0.0000   -0.0000   -0.0000    0.0001
       59 W     11d1-       0.0037   -0.0001   -0.0000    0.0000   -0.0000   -0.0001    0.0000    0.0000    0.0000   -0.0000
       60 W      3d0       -0.0000   -0.0000   -0.0090    0.0002    0.0000   -0.0000   -0.0001    0.0000   -0.0040   -0.0000
       61 W      4d0        0.0000    0.0002    0.9972   -0.0092   -0.0000    0.0000    0.0063    0.0000   -0.0092   -0.0000
       62 W      5d0        0.0000    0.0000    0.0321   -0.0035    0.0000   -0.0000   -0.0015   -0.0000   -0.0528   -0.0000
       63 W      6d0       -0.0000   -0.0000   -0.0360    0.0030   -0.0000    0.0000    0.0002    0.0000    0.0252    0.0000
       64 W      7d0        0.0000    0.0000    0.0355   -0.0019   -0.0000    0.0000    0.0011    0.0000   -0.0077   -0.0000
       65 W      8d0       -0.0000   -0.0000   -0.0268    0.0012    0.0000   -0.0000   -0.0017   -0.0000    0.0024   -0.0000
       66 W      9d0        0.0000    0.0000    0.0180   -0.0011   -0.0000    0.0000    0.0010    0.0000   -0.0031   -0.0000
       67 W     10d0       -0.0000   -0.0000   -0.0119    0.0009    0.0000   -0.0000   -0.0006   -0.0000    0.0019    0.0000
       68 W     11d0        0.0000    0.0000    0.0045   -0.0001   -0.0000    0.0000    0.0000    0.0000   -0.0014   -0.0000
       69 W      3d1+       0.0002    0.0079   -0.0000    0.0000   -0.0004    0.0000   -0.0000    0.0000   -0.0000    0.0000
       70 W      4d1+      -0.0245   -0.8466    0.0001   -0.0000    0.0114   -0.0006    0.0000   -0.0000   -0.0000    0.0003
       71 W      5d1+      -0.0008   -0.0283    0.0000    0.0000    0.0278   -0.0013    0.0000   -0.0000   -0.0000    0.0000
       72 W      6d1+       0.0009    0.0315   -0.0000   -0.0000   -0.0180    0.0009   -0.0000   -0.0000    0.0000   -0.0000
       73 W      7d1+      -0.0009   -0.0307    0.0000    0.0000    0.0083   -0.0004    0.0000    0.0000   -0.0000    0.0000
       74 W      8d1+       0.0007    0.0229   -0.0000    0.0000   -0.0019    0.0001   -0.0000    0.0000    0.0000   -0.0000
       75 W      9d1+      -0.0004   -0.0153    0.0000   -0.0000    0.0012   -0.0001    0.0000   -0.0000   -0.0000    0.0000
       76 W     10d1+       0.0003    0.0101   -0.0000   -0.0000   -0.0011    0.0001   -0.0000   -0.0000    0.0000   -0.0000
       77 W     11d1+      -0.0001   -0.0037    0.0000   -0.0000   -0.0001    0.0000   -0.0000    0.0000   -0.0000    0.0000
       78 W      3d2+      -0.0001   -0.0048    0.0000   -0.0000    0.0003   -0.0000    0.0000   -0.0000    0.0000    0.0001
       79 W      4d2+       0.0151    0.5230   -0.0001    0.0000   -0.0069    0.0003   -0.0000   -0.0000    0.0000    0.0003
       80 W      5d2+       0.0005    0.0169   -0.0000    0.0000   -0.0108    0.0005   -0.0000   -0.0000    0.0000    0.0011
       81 W      6d2+      -0.0005   -0.0189    0.0000   -0.0000    0.0073   -0.0004    0.0000    0.0000   -0.0000   -0.0005
       82 W      7d2+       0.0005    0.0185   -0.0000    0.0000   -0.0038    0.0002   -0.0000   -0.0000    0.0000    0.0002
       83 W      8d2+      -0.0004   -0.0138    0.0000    0.0000    0.0014   -0.0001    0.0000    0.0000    0.0000   -0.0001
       84 W      9d2+       0.0003    0.0093   -0.0000   -0.0000   -0.0008    0.0000   -0.0000   -0.0000    0.0000    0.0001
       85 W     10d2+      -0.0002   -0.0062    0.0000   -0.0000    0.0006   -0.0000    0.0000    0.0000   -0.0000   -0.0000
[...]
         1    7       3.97016259E-05  1.74904304E+00  3.56701537E+02  2.39141228E+00  3.60841992E+02
         1    9       1.36302297E-04  3.56717186E+02  1.74911431E+00  8.80381936E+02  1.23884824E+03
         1   11       3.62767488E-02  3.11012675E+07  1.15980280E+05  2.31645731E-04  3.12172478E+07
         1   13       6.85095560E-02  2.75892777E+07  1.52281939E+05  3.17899178E+07  5.95314775E+07
         1   15       3.20082396E-02  1.52277684E+05  2.75885284E+07  7.28179933E+04  2.78136241E+07
         1   17       2.65159658E-04  4.93977173E+05  1.84201306E+03  2.79228649E-03  4.95819189E+05
         2    6       1.00103738E-05  1.62018054E+01  6.04186605E-02  6.31538663E-10  1.62622241E+01
         2    8       3.97016259E-05  1.74904304E+00  3.56701537E+02  2.39141228E+00  3.60841992E+02
         2   10       1.36302297E-04  3.56717186E+02  1.74911431E+00  8.80381936E+02  1.23884824E+03
         2   12       3.62767488E-02  3.11012675E+07  1.15980280E+05  2.31645731E-04  3.12172478E+07
         2   14       6.85095560E-02  2.75892777E+07  1.52281939E+05  3.17899178E+07  5.95314775E+07
         2   16       3.20082396E-02  1.52277684E+05  2.75885284E+07  7.28179933E+04  2.78136241E+07
         2   18       2.65159658E-04  4.93977173E+05  1.84201306E+03  2.79228649E-03  4.95819189E+05
         3    5       1.00104581E-05  6.04178176E-02  1.62016802E+01  1.59673932E-11  1.62620981E+01
         3    7       1.36299363E-04  3.56702726E+02  1.74897745E+00  8.80343848E+02  1.23879555E+03
         3    9       3.97036473E-05  1.74907683E+00  3.56722456E+02  2.39147606E+00  3.60863009E+02
         3   11       3.62756743E-02  1.15976903E+05  3.11003243E+07  5.31097371E-05  3.12163012E+07
         3   13       3.20094482E-02  1.52284566E+05  2.75895340E+07  7.28181149E+04  2.78146367E+07
         3   15       6.85093248E-02  2.75892571E+07  1.52279745E+05  3.17897369E+07  5.95312737E+07
         3   17       2.65141723E-04  1.84206088E+03  4.93943356E+05  1.94245258E-05  4.95785417E+05
         4    6       1.00104581E-05  6.04178176E-02  1.62016802E+01  1.59673932E-11  1.62620981E+01
         4    8       1.36299363E-04  3.56702726E+02  1.74897745E+00  8.80343848E+02  1.23879555E+03
         4   10       3.97036473E-05  1.74907683E+00  3.56722456E+02  2.39147606E+00  3.60863009E+02
         4   12       3.62756743E-02  1.15976903E+05  3.11003243E+07  5.31097371E-05  3.12163012E+07
         4   14       3.20094482E-02  1.52284566E+05  2.75895340E+07  7.28181149E+04  2.78146367E+07
         4   16       6.85093248E-02  2.75892571E+07  1.52279745E+05  3.17897369E+07  5.95312737E+07
         4   18       2.65141723E-04  1.84206088E+03  4.93943356E+05  1.94245258E-05  4.95785417E+05
         5   11       7.41606819E-02  1.45480594E-04  3.49257489E-06  5.83923636E+07  5.83923636E+07
         5   13       3.06379811E-02  2.43662141E+07  4.22507670E+03  1.54707412E-03  2.43704391E+07
         5   15       3.06389566E-02  4.22473386E+03  2.43670069E+07  2.38644705E-05  2.43712316E+07
         5   17       4.25043299E-02  1.44505772E-04  3.00219242E-06  7.48621545E+07  7.48621545E+07
         6   12       7.41606819E-02  1.45480594E-04  3.49257489E-06  5.83923636E+07  5.83923636E+07
         6   14       3.06379811E-02  2.43662141E+07  4.22507670E+03  1.54707412E-03  2.43704391E+07
         6   16       3.06389566E-02  4.22473386E+03  2.43670069E+07  2.38644705E-05  2.43712316E+07
         6   18       4.25043299E-02  1.44505772E-04  3.00219242E-06  7.48621545E+07  7.48621545E+07
         7   11       3.30460956E-02  1.82115107E+03  2.28906596E+07  4.56311471E-06  2.28924807E+07
         7   13       3.54000984E-02  1.20899084E+04  2.47782514E+07  4.01844806E+02  2.47907431E+07
         7   15       6.71915826E-02  2.47785025E+07  1.20892887E+04  2.22638105E+07  4.70544023E+07
         7   17       1.85456834E-02  2.38710720E+03  3.00091148E+07  3.46312056E-06  3.00115019E+07
         8   12       3.30460956E-02  1.82115107E+03  2.28906596E+07  4.56311471E-06  2.28924807E+07
         8   14       3.54000984E-02  1.20899084E+04  2.47782514E+07  4.01844806E+02  2.47907431E+07
         8   16       6.71915826E-02  2.47785025E+07  1.20892887E+04  2.22638105E+07  4.70544023E+07
         8   18       1.85456834E-02  2.38710720E+03  3.00091148E+07  3.46312056E-06  3.00115019E+07
         9   11       3.30451012E-02  2.28899343E+07  1.82042577E+03  1.37706586E-03  2.28917547E+07
         9   13       6.71920873E-02  2.47789653E+07  1.20900567E+04  2.22635903E+07  4.70546457E+07
         9   15       3.54003383E-02  1.20912237E+04  2.47783960E+07  4.01856477E+02  2.47908891E+07
         9   17       1.85461306E-02  3.00098067E+07  2.38704474E+03  2.62286578E-03  3.00121937E+07
        10   12       3.30451012E-02  2.28899343E+07  1.82042577E+03  1.37706586E-03  2.28917547E+07
        10   14       6.71920873E-02  2.47789653E+07  1.20900567E+04  2.22635903E+07  4.70546457E+07
        10   16       3.54003383E-02  1.20912237E+04  2.47783960E+07  4.01856477E+02  2.47908891E+07
        10   18       1.85461306E-02  3.00098067E+07  2.38704474E+03  2.62286578E-03  3.00121937E+07
        11   17       2.52992827E-03  1.89414698E-04  1.07545296E-06  4.89329175E+05  4.89329175E+05
        12   18       2.52992827E-03  1.89414698E-04  1.07545296E-06  4.89329175E+05  4.89329175E+05
        13   17       7.44759283E-03  1.41073257E+06  2.44613359E+02  2.19371741E-05  1.41097718E+06
        14   18       7.44759283E-03  1.41073257E+06  2.44613359E+02  2.19371741E-05  1.41097718E+06
        15   17       7.44782518E-03  2.44605305E+02  1.41077463E+06  2.89774542E-07  1.41101923E+06
        16   18       7.44782518E-03  2.44605305E+02  1.41077463E+06  2.89774542E-07  1.41101923E+06
     -----------------------------------------------------------------------------------------------
--

++ Velocity transition strengths (SO states):
   ------------------------------------------
    for osc. strength at least    1.0000000000000001E-005

      From   To        Osc. strength     Einstein coefficients Ax, Ay, Az (sec-1)    Total A (sec-1)
     -----------------------------------------------------------------------------------------------
         1    5       4.01316076E-04  6.49532945E+02  2.42219429E+00  1.90271873E-08  6.51955139E+02
         1   11       4.08217155E-02  3.49979407E+07  1.30511480E+05  3.13222666E-04  3.51284522E+07
         1   13       7.50840674E-02  3.01727253E+07  1.66541485E+05  3.49053687E+07  6.52446355E+07
         1   15       3.50056786E-02  1.66536825E+05  3.01718694E+07  7.99542229E+04  3.04183605E+07
         1   17       1.09549659E-04  2.04085392E+05  7.61046092E+02  1.49147641E-03  2.04846440E+05
         2    6       4.01316076E-04  6.49532945E+02  2.42219429E+00  1.90271873E-08  6.51955139E+02
         2   12       4.08217155E-02  3.49979407E+07  1.30511480E+05  3.13222666E-04  3.51284522E+07
         2   14       7.50840674E-02  3.01727253E+07  1.66541485E+05  3.49053687E+07  6.52446355E+07
         2   16       3.50056786E-02  1.66536825E+05  3.01718694E+07  7.99542229E+04  3.04183605E+07
         2   18       1.09549659E-04  2.04085392E+05  7.61046092E+02  1.49147641E-03  2.04846440E+05
         3    5       4.01321334E-04  2.42217058E+00  6.49530967E+02  1.30378137E-10  6.51953137E+02
         3   11       4.08205732E-02  1.30507800E+05  3.49969368E+07  6.34604594E-05  3.51274446E+07
         3   13       3.50070630E-02  1.66544611E+05  3.01730233E+07  7.99544627E+04  3.04195224E+07
         3   15       7.50838484E-02  3.01727065E+07  1.66539022E+05  3.49051965E+07  6.52444420E+07
         3   17       1.09544692E-04  7.61036682E+02  2.04076019E+05  1.08281896E-05  2.04837055E+05
         4    6       4.01321334E-04  2.42217058E+00  6.49530967E+02  1.30378137E-10  6.51953137E+02
         4   12       4.08205732E-02  1.30507800E+05  3.49969368E+07  6.34604594E-05  3.51274446E+07
         4   14       3.50070630E-02  1.66544611E+05  3.01730233E+07  7.99544627E+04  3.04195224E+07
         4   16       7.50838484E-02  3.01727065E+07  1.66539022E+05  3.49051965E+07  6.52444420E+07
         4   18       1.09544692E-04  7.61036682E+02  2.04076019E+05  1.08281896E-05  2.04837055E+05
         5    7       2.35774368E-05  5.67966011E-03  7.13938712E+01  3.16689301E-10  7.13995509E+01
         5    9       2.35761447E-05  7.13917117E+01  5.67808789E-03  2.47749520E-07  7.13973900E+01
         5   11       9.13386115E-02  1.13716184E-04  2.95739653E-06  7.19181083E+07  7.19181083E+07
         5   13       3.11017067E-02  2.47350984E+07  4.28903687E+03  1.79912942E-03  2.47393875E+07
         5   15       3.11027695E-02  4.28870685E+03  2.47359610E+07  3.25041775E-05  2.47402497E+07
         5   17       2.90591591E-02  1.84299604E-04  1.96476463E-06  5.11815815E+07  5.11815815E+07
         6    8       2.35774368E-05  5.67966011E-03  7.13938712E+01  3.16689301E-10  7.13995509E+01
         6   10       2.35761447E-05  7.13917117E+01  5.67808789E-03  2.47749520E-07  7.13973900E+01
         6   12       9.13386115E-02  1.13716184E-04  2.95739653E-06  7.19181083E+07  7.19181083E+07
         6   14       3.11017067E-02  2.47350984E+07  4.28903687E+03  1.79912942E-03  2.47393875E+07
         6   16       3.11027695E-02  4.28870685E+03  2.47359610E+07  3.25041775E-05  2.47402497E+07
         6   18       2.90591591E-02  1.84299604E-04  1.96476463E-06  5.11815815E+07  5.11815815E+07
         7   11       3.71233159E-02  2.04584274E+03  2.57149937E+07  3.83875196E-06  2.57170396E+07
         7   13       3.92757907E-02  1.34135929E+04  2.74911311E+07  4.47305645E+02  2.75049920E+07
         7   15       7.46640572E-02  2.74914585E+07  1.34128944E+04  2.47827019E+07  5.22875733E+07
         7   17       1.16685891E-02  1.50193434E+03  1.88812264E+07  2.04211023E-06  1.88827284E+07
         8   12       3.71233159E-02  2.04584274E+03  2.57149937E+07  3.83875196E-06  2.57170396E+07
         8   14       3.92757907E-02  1.34135929E+04  2.74911311E+07  4.47305645E+02  2.75049920E+07
         8   16       7.46640572E-02  2.74914585E+07  1.34128944E+04  2.47827019E+07  5.22875733E+07
         8   18       1.16685891E-02  1.50193434E+03  1.88812264E+07  2.04211023E-06  1.88827284E+07
         9   11       3.71222189E-02  2.57141929E+07  2.04504641E+03  1.62502842E-03  2.57162379E+07
         9   13       7.46645908E-02  2.74919686E+07  1.34137616E+04  2.47824423E+07  5.22878247E+07
         9   15       3.92761708E-02  1.34151246E+04  2.74913713E+07  4.47324837E+02  2.75052338E+07
         9   17       1.16689383E-02  1.88817715E+07  1.50188988E+03  2.30402494E-03  1.88832734E+07
        10   12       3.71222189E-02  2.57141929E+07  2.04504641E+03  1.62502842E-03  2.57162379E+07
        10   14       7.46645908E-02  2.74919686E+07  1.34137616E+04  2.47824423E+07  5.22878247E+07
        10   16       3.92761708E-02  1.34151246E+04  2.74913713E+07  4.47324837E+02  2.75052338E+07
        10   18       1.16689383E-02  1.88817715E+07  1.50188988E+03  2.30402494E-03  1.88832734E+07
        11   13       1.08740390E-03  2.22893752E+01  3.86483637E-03  2.68675373E-08  2.22932401E+01
        11   15       1.08733694E-03  3.86491578E-03  2.22909920E+01  9.79188363E-12  2.22948569E+01
        11   17       1.19157951E-02  2.38561524E-04  2.62779170E-06  2.30471613E+06  2.30471613E+06
        12   14       1.08740390E-03  2.22893752E+01  3.86483637E-03  2.68675373E-08  2.22932401E+01
        12   16       1.08733694E-03  3.86491578E-03  2.22909920E+01  9.79188363E-12  2.22948569E+01
        12   18       1.19157951E-02  2.38561524E-04  2.62779170E-06  2.30471613E+06  2.30471613E+06
        13   17       1.87415312E-02  3.55005719E+06  6.15549183E+02  6.19660970E-06  3.55067274E+06
        14   18       1.87415312E-02  3.55005719E+06  6.15549183E+02  6.19660970E-06  3.55067274E+06
        15   17       1.87418084E-02  6.15541681E+02  3.55010475E+06  1.88066178E-06  3.55072029E+06
        16   18       1.87418084E-02  6.15541681E+02  3.55010475E+06  1.88066178E-06  3.55072029E+06
     -----------------------------------------------------------------------------------------------
--

++ Length and velocity gauge comparison (SO states):

 --------------------------------------------------
 A comparison between the dipole oscillator strengths in 
 length and velocity gauge will be performed

 All dipole oscillator differences above the tolerance of   0.10000000000000001       will be printed 

 Due to basis set deficiency these oscillator may be problematic 

 The tolerance is defined as ABS(1-O_l/O_v) 
 O_l : dipole oscillator strength in length gauge
 O_p : dipole oscillator strength in velocity gauge
 --------------------------------------------------

  Problematic transitions have been found

      From   To       Difference (%) Osc. st. (len.) Osc. st. (vel.)
     ---------------------------------------------------------------
         1    5            97.505614  1.00103738E-05  4.01316076E-04
         1    7      ---------------  3.97016259E-05 below threshold
         1    9      ---------------  1.36302297E-04 below threshold
         1   11            11.133698  3.62767488E-02  4.08217155E-02
         1   17           142.045170  2.65159658E-04  1.09549659E-04
         2    6            97.505614  1.00103738E-05  4.01316076E-04
         2    8      ---------------  3.97016259E-05 below threshold
         2   10      ---------------  1.36302297E-04 below threshold
         2   12            11.133698  3.62767488E-02  4.08217155E-02
         2   18           142.045170  2.65159658E-04  1.09549659E-04
         3    5            97.505625  1.00104581E-05  4.01321334E-04
         3    7      ---------------  1.36299363E-04 below threshold
         3    9      ---------------  3.97036473E-05 below threshold
         3   11            11.133844  3.62756743E-02  4.08205732E-02
         3   17           142.039771  2.65141723E-04  1.09544692E-04
         4    6            97.505625  1.00104581E-05  4.01321334E-04
         4    8      ---------------  1.36299363E-04 below threshold
         4   10      ---------------  3.97036473E-05 below threshold
         4   12            11.133844  3.62756743E-02  4.08205732E-02
         4   18           142.039771  2.65141723E-04  1.09544692E-04
         5    7      --------------- below threshold  2.35774368E-05
         5    9      --------------- below threshold  2.35761447E-05
         5   11            18.806865  7.41606819E-02  9.13386115E-02
         5   17            46.268272  4.25043299E-02  2.90591591E-02
         6    8      --------------- below threshold  2.35774368E-05
         6   10      --------------- below threshold  2.35761447E-05
         6   12            18.806865  7.41606819E-02  9.13386115E-02
         6   18            46.268272  4.25043299E-02  2.90591591E-02
         7   11            10.982910  3.30460956E-02  3.71233159E-02
         7   15            10.008128  6.71915826E-02  7.46640572E-02
         7   17            58.936811  1.85456834E-02  1.16685891E-02
         8   12            10.982910  3.30460956E-02  3.71233159E-02
         8   16            10.008128  6.71915826E-02  7.46640572E-02
         8   18            58.936811  1.85456834E-02  1.16685891E-02
         9   11            10.982958  3.30451012E-02  3.71222189E-02
         9   13            10.008095  6.71920873E-02  7.46645908E-02
         9   17            58.935887  1.85461306E-02  1.16689383E-02
        10   12            10.982958  3.30451012E-02  3.71222189E-02
        10   14            10.008095  6.71920873E-02  7.46645908E-02
        10   18            58.935887  1.85461306E-02  1.16689383E-02
        11   13      --------------- below threshold  1.08740390E-03
        11   15      --------------- below threshold  1.08733694E-03
        11   17            78.768280  2.52992827E-03  1.19157951E-02
        12   14      --------------- below threshold  1.08740390E-03
        12   16      --------------- below threshold  1.08733694E-03
        12   18            78.768280  2.52992827E-03  1.19157951E-02
        13   17            60.261556  7.44759283E-03  1.87415312E-02
        14   18            60.261556  7.44759283E-03  1.87415312E-02
        15   17            60.260904  7.44782518E-03  1.87418084E-02
        16   18            60.260904  7.44782518E-03  1.87418084E-02
     ---------------------------------------------------------------

 Number of problematic transitions =                    50

--

 Electric-dipole - electric-octupole not included
++ I/O STATISTICS
 
  I. General I/O information
  - - - - - - - - - - - - - - - - - - - - - - - - - - - - - - - - - - - - - - - - - - -
  Unit  Name          Flsize      Write/Read            MBytes           Write/Read
                      (MBytes)       Calls              In/Out           Time, sec.
  - - - - - - - - - - - - - - - - - - - - - - - - - - - - - - - - - - - - - - - - - - -
   1  SCRATCH           0.00 .       9/      45 .      0.0/      0.0 .       0/       0
   2  ANNI              0.00 .       0/       0 .      0.0/      0.0 .       0/       0
   3  RUNFILE          15.28 .     322/   10733 .      2.3/     77.8 .       0/       0
   4  ONEINT            6.58 .       0/   28767 .      0.0/   3777.9 .       0/       0
   5  JOBIPH            7.71 .       0/      92 .      0.0/      0.9 .       0/       0
   6  ORDINT          771.03 .       1/    6169 .      0.0/   1542.0 .       0/       0
  - - - - - - - - - - - - - - - - - - - - - - - - - - - - - - - - - - - - - - - - - - -
   *  TOTAL           800.61 .     332/   45806 .      2.3/   5398.7 .       0/       0
  - - - - - - - - - - - - - - - - - - - - - - - - - - - - - - - - - - - - - - - - - - -
 
  II. I/O Access Patterns
  - - - - - - - - - - - - - - - - - - - -
  Unit  Name               % of random
                         Write/Read calls
  - - - - - - - - - - - - - - - - - - - -
   1  SCRATCH             88.9/ 100.0
   2  ANNI                 0.0/   0.0
   3  RUNFILE             28.6/  10.8
   4  ONEINT               0.0/  13.4
   5  JOBIPH               0.0/  76.1
   6  ORDINT             100.0/   0.0
  - - - - - - - - - - - - - - - - - - - -
--
--- Stop Module: rassi at Thu Jan  9 21:03:14 2025 /rc=_RC_ALL_IS_WELL_ ---
*** files: xmldump
    saved to directory /home4/s4752295/Internship/Initial_simulations/Point_charge_model/1_electron/active_space_9_non_rel/W/varying_bond_length
--- Module rassi spent 5 seconds ---

.##################.
.# Happy landing! #.
.##################.

    Timing: Wall=151.41 User=120.36 System=26.47

###############################################################################
Hbrk Cluster
Job 14549891 for user s4752295
Finished at: Thu Jan  9 21:03:14 CET 2025

Job details:
============

Job ID                         : 14549891
Name                           : W_no_c_light
User                           : s4752295
Partition                      : regularmedium
Nodes                          : node95
Number of Nodes                : 1
Cores                          : 1
Number of Tasks                : 1
State                          : COMPLETED  
Submit                         : 2025-01-09T21:00:37
Start                          : 2025-01-09T21:00:38
End                            : 2025-01-09T21:03:14
Reserved walltime              : 15:00:00
Used walltime                  : 00:02:36
Used CPU time                  : 00:02:28 (Efficiency: 94.80%)
% User (Computation)           : 81.92%
% System (I/O)                 : 18.08%
Total memory reserved          : 25000M
Maximum memory used            : 3.06G

Acknowledgements:
=================

Please see this page for information about acknowledging Hbrk in your publications:

https://wiki.hpc.rug.nl/habrok/introduction/scientific_output

################################################################################
