   This run of MOLCAS is using the pymolcas driver

                             OPE
                             OPE          NMOL  CASOP  ENMOLC A   SO
                 OPE        NMOLC        AS  OP EN  MO LC     AS  OP
                OPENM       OL CA        SO  PE NM  OL CA     SOP EN
                OP EN      MO   LC       AS  OP ENMOL  CASO   PENMOL
                OP  EN     MO   LC       AS  OP EN     MO     LC ASO
               OP   E  NMOL  C  AS       OP  EN MO     LC     AS  OP
               OP  E   NMO   LC AS        OPEN  MO     LCASOP EN   M
               O  PEN   MO  LCA  SO
            OPE   NMO   L   CAS    OP
        OPENMOL  CASOP     ENMOL   CASOPE
     OPENMOLCA   SOPENMOLCASOPEN   MOLCASOPE
    OPENMOLCAS   OP           EN   MOL    CAS
    OPENMOLCAS       OP  ENM        O     LCA
    OPENMOLCAS    OPEN  MOLCASO     P  E  NMO
    OPENMOLCAS     OP               E  N  MOL
    OPENMOLCA   SO           PENM   O  L  CAS    OPEN    MO    LCAS
    OPENMOLCA   SOP           ENM   O  L  CAS   OP  EN  MOLC  AS   O
    OPENMOLCA   SOPE           NM      O  LCA   S      OP  EN MO
    OPENMOLC                AS         O  PEN   M      OL  CA  SOPE
    OPENMO        LCASOPE  NMOL        C  ASO   P      ENMOLC     AS
    OPE     NMO      LCA  SO     P     E   NM   OL  CA SO  PE N   MO
          OPENMOLCA            SOPE   NMO        LCAS  O    P  ENMO
     OPENMOLCASOPENMOLCASOPENMOLCASOPENMOLCA
        OPENMOLCASOPENMOLCASOPENMOLCASOPE
            OPENMOLCASOPENMOLCASOPENM
               OPENMOLCASOPENMOLCA        version: o91e1abe7de707b ?
                   OPENMOLCASO
                       OPE                tag:

 OpenMolcas is free software; you can redistribute it and/or modify it
 under the terms of the GNU Lesser General Public License version 2.1.
 OpenMolcas is distributed in the hope that it will be useful, but it
 is provided "as is" and without any express or implied warranties.
 For more details see the full text of the license in the file
 LICENSE or in <http://www.gnu.org/licenses/>.

                 Copyright (C) The OpenMolcas Authors
           For the author list and the recommended citation,
                   consult the file CONTRIBUTORS.md

           *************************************************
           * pymolcas version py2.10                       *
           *   build 3068ae8b88c9345ec6cfef6fef7f1169      *
           *   (after the EMIL interpreter by V. Veryazov) *
           *************************************************

configuration info
------------------
Host name: login1 (Linux)
C Compiler ID: GNU
C flags: -std=gnu99
Fortran Compiler ID: GNU
Fortran flags: -fno-aggressive-loop-optimizations -cpp -fdefault-integer-8 -fmax-stack-var-size=1048576
Definitions: _MOLCAS_;_I8_;_LINUX_;_MKL_
Parallel: OFF (GA=OFF)


   ------------------------------------------------------------------------------------------------------------------------------------------------------
  |
  |           Project: chromium_so_cf
  |    Submitted from: /home4/s4752295/Internship/Initial_simulations/Point_charge_model/1_electron/Madelung_charges_9_active_space/Cr/fixed_calculations
  |      Scratch area: /tmp/chromium_so_cf
  |   Save outputs to: /home4/s4752295/Internship/Initial_simulations/Point_charge_model/1_electron/Madelung_charges_9_active_space/Cr/fixed_calculations
  |            Molcas: /home4/s4752295/Internship/Molcas/recomp_try/OpenMolcas-master/build
  |
  | Scratch area is empty
  |
  |    MOLCAS_DRIVER = /home4/s4752295/Internship/Molcas/bin/pymolcas
  |    MOLCAS_NPROCS = 1
  |    MOLCAS_SOURCE = /home4/s4752295/Internship/Molcas/recomp_try/OpenMolcas-master
  | MOLCAS_STRUCTURE = 0
  |
   ------------------------------------------------------------------------------------------------------------------------------------------------------

++ ---------   Input file   ---------

&SEWARD
AMFi

CLIG
$R

Basis Set
Cr.ANO-rcc.Roos.21s15p10d6f4g2h.10s10p8d6f4g2h.
Spherical d
Cr            -1.0658140267135469e-14   -3.5527134223784897e-15 0.008753588724385739
End of Basis

Xfield

414
-4.00220108,-1.54,0.889119      -0.625931
-4.00220108,-0.0,-1.778239      -0.625931
-4.00220108,1.54,0.889119       -0.625931
-3.99534607,0.0,0.0     1.892092
2.65917969,-1.54,-0.889119      2.515516
2.65917969,0.0,1.778239 2.515516
2.65917969,1.54,-0.889119       2.515516
3.56298828,-3.08,0.0    0.004632
3.56298828,-1.54,-2.667358      0.004632
3.56298828,-1.54,2.667358       0.004632
3.56298828,1.54,-2.667358       0.004632
3.56298828,1.54,2.667358        0.004632
3.56298828,3.08,0.0     0.004632
4.12915039,-1.54,0.889119       -2.519484
4.12915039,-0.0,-1.778239       -2.519484
4.12915039,1.54,0.889119        -2.519484
-2.93310547,-0.0,-0.0   -3.142907
-4.97509766,-3.08,-1.778239     -0.625931
-4.97509766,0.0,3.556477        -0.625931
-4.97509766,3.08,-1.778239      -0.625931
-6.609375,-3.08,0.0     1.892092
-6.609375,-1.54,-2.667358       1.892092
-6.609375,-1.54,2.667358        1.892092
-6.609375,1.54,-2.667358        1.892092
-6.609375,1.54,2.667358 1.892092
-6.609375,3.08,0.0      1.892092
25.171875,-3.08,1.778239        2.515516
25.171875,-0.0,-3.556477        2.515516
25.171875,3.08,1.778239 2.515516
3.63867188,-3.08,-1.778239      -2.519484
3.63867188,0.0,3.556477 -2.519484
3.63867188,3.08,-1.778239       -2.519484
-3.23242188,-3.08,-0.0  -3.142907
-3.23242188,-1.54,-2.667358     -3.142907
-3.23242188,-1.54,2.667358      -3.142907
-3.23242188,1.54,-2.667358      -3.142907
-3.23242188,1.54,2.667358       -3.142907
-3.23242188,3.08,-0.0   -3.142907
-9.5234375,-3.08,3.556477       -0.625931
-9.5234375,3.08,3.556477        -0.625931
-9.5234375,-4.62,0.889119       -0.625931
-9.5234375,4.62,0.889119        -0.625931
-9.5234375,-1.54,-4.445597      -0.625931
-9.5234375,1.54,-4.445597       -0.625931
6.0078125,-1.54,-0.889119       4.409069
6.0078125,1.54,-0.889119        4.409069
6.0078125,0.0,1.778239  4.409069
-175.25,-0.0,-0.0       -5.030367
-175.25,0.0,0.0 5.039632
13.51757812,-3.08,-3.556477     2.515516
13.51757812,3.08,-3.556477      2.515516
13.51757812,-4.62,-0.889119     2.515516
13.51757812,4.62,-0.889119      2.515516
13.51757812,-1.54,4.445597      2.515516
13.51757812,1.54,4.445597       2.515516
19.0390625,-4.62,-2.667358      0.004632
19.0390625,-4.62,2.667358       0.004632
19.0390625,4.62,-2.667358       0.004632
19.0390625,4.62,2.667358        0.004632
19.0390625,-0.0,-5.334716       0.004632
19.0390625,0.0,5.334716 0.004632
48.078125,-3.08,3.556477        -2.519484
48.078125,3.08,3.556477 -2.519484
48.078125,-4.62,0.889119        -2.519484
48.078125,4.62,0.889119 -2.519484
48.078125,-1.54,-4.445597       -2.519484
48.078125,1.54,-4.445597        -2.519484
-145.875,-4.62,-2.667358        1.892092
-145.875,-4.62,2.667358 1.892092
-145.875,4.62,-2.667358 1.892092
-145.875,4.62,2.667358  1.892092
-145.875,-0.0,-5.334716 1.892092
-145.875,0.0,5.334716   1.892092
-117.75,-3.08,1.778239  4.409069
-117.75,-0.0,-3.556477  4.409069
-117.75,3.08,1.778239   4.409069
-89.0,-3.08,-0.0        -5.030367
-89.0,-1.54,-2.667358   -5.030367
-89.0,-1.54,2.667358    -5.030367
-89.0,1.54,-2.667358    -5.030367
-89.0,-3.08,0.0 5.039632
-89.0,3.08,-0.0 -5.030367
-89.0,1.54,2.667358     -5.030367
-89.0,-1.54,-2.667358   5.039632
-89.0,-1.54,2.667358    5.039632
-89.0,1.54,-2.667358    5.039632
-89.0,3.08,0.0  5.039632
-89.0,1.54,2.667358     5.039632
-46.625,-1.54,-0.889119 -5.660931
-46.625,0.0,1.778239    -5.660931
-46.625,1.54,-0.889119  -5.660931
0.8828125,-6.159999,0.0 0.004632
0.8828125,-3.08,-5.334716       0.004632
0.8828125,-3.08,5.334716        0.004632
0.8828125,3.08,-5.334716        0.004632
0.8828125,6.159999,0.0  0.004632
0.8828125,3.08,5.334716 0.004632
67.9375,-4.62,2.667358  -3.142907
67.9375,-4.62,-2.667358 -3.142907
67.9375,4.62,-2.667358  -3.142907
67.9375,4.62,2.667358   -3.142907
67.9375,-0.0,-5.334716  -3.142907
67.9375,0.0,5.334716    -3.142907
86.375,-6.159999,-1.778239      -0.625931
86.375,-4.62,-4.445597  -0.625931
86.375,-1.54,6.223835   -0.625931
86.375,4.62,-4.445597   -0.625931
86.375,6.159999,-1.778239       -0.625931
86.375,1.54,6.223835    -0.625931
1.19726562,-6.159999,0.0        1.892092
1.19726562,-3.08,-5.334716      1.892092
1.19726562,-3.08,5.334716       1.892092
1.19726562,3.08,-5.334716       1.892092
1.19726562,6.159999,0.0 1.892092
1.19726562,3.08,5.334716        1.892092
33.84375,-3.08,-3.556477        4.409069
33.84375,3.08,-3.556477 4.409069
33.84375,-4.62,-0.889119        4.409069
33.84375,4.62,-0.889119 4.409069
33.84375,-1.54,4.445597 4.409069
33.84375,1.54,4.445597  4.409069
162.40625,-3.08,1.778239        -5.660931
162.40625,-0.0,-3.556477        -5.660931
162.40625,3.08,1.778239 -5.660931
0.34375,-6.159999,1.778239      2.515516
0.34375,-1.54,-6.223835 2.515516
0.34375,-4.62,4.445597  2.515516
0.34375,1.54,-6.223835  2.515516
0.34375,6.159999,1.778239       2.515516
0.34375,4.62,4.445597   2.515516
-94.1875,-6.159999,-1.778239    -2.519484
-94.1875,-4.62,-4.445597        -2.519484
-94.1875,-1.54,6.223835 -2.519484
-94.1875,4.62,-4.445597 -2.519484
-94.1875,1.54,6.223835  -2.519484
-94.1875,6.159999,-1.778239     -2.519484
-22.0703125,-6.159999,-0.0      -3.142907
-22.0703125,-3.08,-5.334716     -3.142907
-22.0703125,-3.08,5.334716      -3.142907
-22.0703125,3.08,-5.334716      -3.142907
-22.0703125,3.08,5.334716       -3.142907
-22.0703125,6.159999,-0.0       -3.142907
606.5,0.0,0.0   6.927092
323.25,-6.159999,3.556477       -0.625931
323.25,6.159999,3.556477        -0.625931
323.25,-0.0,-7.112955   -0.625931
-5.421875,-4.62,2.667358        -5.030367
-5.421875,-4.62,-2.667358       -5.030367
-5.421875,-4.62,2.667358        5.039632
-5.421875,-4.62,-2.667358       5.039632
-5.421875,4.62,-2.667358        -5.030367
-5.421875,4.62,2.667358 -5.030367
-5.421875,4.62,-2.667358        5.039632
-5.421875,4.62,2.667358 5.039632
-5.421875,-0.0,-5.334716        -5.030367
-5.421875,0.0,5.334716  -5.030367
-5.421875,-0.0,-5.334716        5.039632
-5.421875,0.0,5.334716  5.039632
91.8125,-3.08,-3.556477 -5.660931
91.8125,3.08,-3.556477  -5.660931
91.8125,-4.62,-0.889119 -5.660931
91.8125,4.62,-0.889119  -5.660931
91.8125,-1.54,4.445597  -5.660931
91.8125,1.54,4.445597   -5.660931
300.5,-6.159999,-3.556477       2.515516
300.5,6.159999,-3.556477        2.515516
300.5,0.0,7.112955      2.515516
-517.25,-6.159999,3.556477      -2.519484
-517.25,6.159999,3.556477       -2.519484
-517.25,-0.0,-7.112955  -2.519484
53.5625,-3.08,0.0       6.927092
53.5625,-1.54,-2.667358 6.927092
53.5625,-1.54,2.667358  6.927092
53.5625,1.54,-2.667358  6.927092
53.5625,1.54,2.667358   6.927092
53.5625,3.08,0.0        6.927092
-55.25,-1.54,0.889119   7.550516
-55.25,0.0,-1.778239    7.550516
-55.25,1.54,0.889119    7.550516
15.53125,-1.54,-0.889119        -7.554483
15.53125,1.54,-0.889119 -7.554483
15.53125,-0.0,1.778239  -7.554483
-124.875,-7.699999,0.889119     -0.625931
-124.875,-4.62,6.223835 -0.625931
-124.875,-3.08,-7.112955        -0.625931
-124.875,3.08,-7.112955 -0.625931
-124.875,7.699999,0.889119      -0.625931
-124.875,4.62,6.223835  -0.625931
-67.4375,-6.159999,1.778239     4.409069
-67.4375,-4.62,4.445597 4.409069
-67.4375,-1.54,-6.223835        4.409069
-67.4375,1.54,-6.223835 4.409069
-67.4375,4.62,4.445597  4.409069
-67.4375,6.159999,1.778239      4.409069
49.15625,-6.159999,-0.0 -5.030367
49.15625,-3.08,-5.334716        -5.030367
49.15625,-3.08,5.334716 -5.030367
49.15625,-6.159999,0.0  5.039632
49.15625,-3.08,-5.334716        5.039632
49.15625,3.08,-5.334716 -5.030367
49.15625,3.08,5.334716  -5.030367
49.15625,6.159999,-0.0  -5.030367
49.15625,-3.08,5.334716 5.039632
49.15625,3.08,-5.334716 5.039632
49.15625,6.159999,0.0   5.039632
49.15625,3.08,5.334716  5.039632
180.75,-7.699999,-0.889119      2.515516
180.75,-4.62,-6.223835  2.515516
180.75,-3.08,7.112955   2.515516
180.75,4.62,-6.223835   2.515516
180.75,7.699999,-0.889119       2.515516
180.75,3.08,7.112955    2.515516
-23.34375,-7.699999,-2.667358   0.004632
-23.34375,-7.699999,2.667358    0.004632
-23.34375,-6.159999,-5.334716   0.004632
-23.34375,-6.159999,5.334716    0.004632
-23.34375,-1.54,-8.002074       0.004632
-23.34375,1.54,-8.002074        0.004632
-23.34375,-1.54,8.002074        0.004632
-23.34375,6.159999,-5.334716    0.004632
-23.34375,1.54,8.002074 0.004632
-23.34375,7.699999,-2.667358    0.004632
-23.34375,7.699999,2.667358     0.004632
-23.34375,6.159999,5.334716     0.004632
-143.125,-7.699999,0.889119     -2.519484
-143.125,-4.62,6.223835 -2.519484
-143.125,-3.08,-7.112955        -2.519484
-143.125,3.08,-7.112955 -2.519484
-143.125,7.699999,0.889119      -2.519484
-143.125,4.62,6.223835  -2.519484
3032.0,-0.0,-0.0        -8.177907
-116.0,-3.08,-1.778239  7.550516
-116.0,0.0,3.556477     7.550516
-116.0,3.08,-1.778239   7.550516
-603.5,-3.08,1.778239   -7.554483
-603.5,-0.0,-3.556477   -7.554483
-603.5,3.08,1.778239    -7.554483
48.90625,-7.699999,2.667358     1.892092
48.90625,-7.699999,-2.667358    1.892092
48.90625,-6.159999,-5.334716    1.892092
48.90625,-6.159999,5.334716     1.892092
48.90625,-1.54,-8.002074        1.892092
48.90625,1.54,-8.002074 1.892092
48.90625,-1.54,8.002074 1.892092
48.90625,6.159999,-5.334716     1.892092
48.90625,1.54,8.002074  1.892092
48.90625,7.699999,-2.667358     1.892092
48.90625,7.699999,2.667358      1.892092
48.90625,6.159999,5.334716      1.892092
-505.0,-6.159999,-3.556477      4.409069
-505.0,6.159999,-3.556477       4.409069
-505.0,0.0,7.112955     4.409069
25.8203125,-6.159999,1.778239   -5.660931
25.8203125,-1.54,-6.223835      -5.660931
25.8203125,-4.62,4.445597       -5.660931
25.8203125,1.54,-6.223835       -5.660931
25.8203125,4.62,4.445597        -5.660931
25.8203125,6.159999,1.778239    -5.660931
-58.1875,-6.159999,-5.334716    -3.142907
-58.1875,-7.699999,2.667358     -3.142907
-58.1875,-7.699999,-2.667358    -3.142907
-58.1875,-6.159999,5.334716     -3.142907
-58.1875,-1.54,-8.002074        -3.142907
-58.1875,1.54,-8.002074 -3.142907
-58.1875,-1.54,8.002074 -3.142907
-58.1875,7.699999,-2.667358     -3.142907
-58.1875,6.159999,-5.334716     -3.142907
-58.1875,1.54,8.002074  -3.142907
-58.1875,7.699999,2.667358      -3.142907
-58.1875,6.159999,5.334716      -3.142907
65.40625,-4.62,-2.667358        6.927092
65.40625,-4.62,2.667358 6.927092
65.40625,4.62,-2.667358 6.927092
65.40625,4.62,2.667358  6.927092
65.40625,-0.0,-5.334716 6.927092
65.40625,0.0,5.334716   6.927092
-83.25,-3.08,-0.0       -8.177907
-83.25,-1.54,2.667358   -8.177907
-83.25,-1.54,-2.667358  -8.177907
-83.25,1.54,-2.667358   -8.177907
-83.25,3.08,-0.0        -8.177907
-83.25,1.54,2.667358    -8.177907
-90.90625,-3.08,3.556477        7.550516
-90.90625,3.08,3.556477 7.550516
-90.90625,-4.62,0.889119        7.550516
-90.90625,4.62,0.889119 7.550516
-90.90625,-1.54,-4.445597       7.550516
-90.90625,1.54,-4.445597        7.550516
-45.6875,-3.08,-3.556477        -7.554483
-45.6875,3.08,-3.556477 -7.554483
-45.6875,-4.62,-0.889119        -7.554483
-45.6875,4.62,-0.889119 -7.554483
-45.6875,-1.54,4.445597 -7.554483
-45.6875,1.54,4.445597  -7.554483
-500.25,0.0,8.891193    -0.625931
-500.25,-7.699999,-4.445597     -0.625931
-500.25,7.699999,-4.445597      -0.625931
-269.75,-7.699999,-0.889119     4.409069
-269.75,-4.62,-6.223835 4.409069
-269.75,-3.08,7.112955  4.409069
-269.75,4.62,-6.223835  4.409069
-269.75,7.699999,-0.889119      4.409069
-269.75,3.08,7.112955   4.409069
310.375,-6.159999,-3.556477     -5.660931
310.375,6.159999,-3.556477      -5.660931
310.375,0.0,7.112955    -5.660931
587.0,-0.0,-8.891193    2.515516
587.0,-7.699999,4.445597        2.515516
587.0,7.699999,4.445597 2.515516
-93.875,-9.239999,-0.0  0.004632
-93.875,4.62,-8.002074  0.004632
-93.875,-4.62,8.002074  0.004632
-93.875,9.239999,-0.0   0.004632
-93.875,-4.62,-8.002074 0.004632
-93.875,4.62,8.002074   0.004632
-385.75,0.0,8.891193    -2.519484
-385.75,-7.699999,-4.445597     -2.519484
-385.75,7.699999,-4.445597      -2.519484
228.0,-6.159999,0.0     6.927092
228.0,-3.08,-5.334716   6.927092
228.0,-3.08,5.334716    6.927092
228.0,3.08,-5.334716    6.927092
228.0,6.159999,0.0      6.927092
228.0,3.08,5.334716     6.927092
211.875,-9.239999,-1.778239     -0.625931
211.875,-3.08,8.891193  -0.625931
211.875,-6.159999,-7.112955     -0.625931
211.875,6.159999,-7.112955      -0.625931
211.875,3.08,8.891193   -0.625931
211.875,9.239999,-1.778239      -0.625931
111.9375,-9.239999,0.0  1.892092
111.9375,-4.62,-8.002074        1.892092
111.9375,-4.62,8.002074 1.892092
111.9375,4.62,-8.002074 1.892092
111.9375,9.239999,0.0   1.892092
111.9375,4.62,8.002074  1.892092
-4.3203125,-7.699999,2.667358   -5.030367
-4.3203125,-7.699999,-2.667358  -5.030367
-4.3203125,-6.159999,-5.334716  -5.030367
-4.3203125,-6.159999,5.334716   -5.030367
-4.3203125,-7.699999,2.667358   5.039632
-4.3203125,1.54,-8.002074       -5.030367
-4.3203125,-1.54,-8.002074      -5.030367
-4.3203125,-7.699999,-2.667358  5.039632
-4.3203125,-6.159999,-5.334716  5.039632
-4.3203125,-1.54,8.002074       -5.030367
-4.3203125,1.54,-8.002074       5.039632
-4.3203125,-6.159999,5.334716   5.039632
-4.3203125,-1.54,-8.002074      5.039632
-4.3203125,6.159999,-5.334716   -5.030367
-4.3203125,1.54,8.002074        -5.030367
-4.3203125,7.699999,-2.667358   -5.030367
-4.3203125,7.699999,2.667358    -5.030367
-4.3203125,6.159999,5.334716    -5.030367
-4.3203125,-1.54,8.002074       5.039632
-4.3203125,6.159999,-5.334716   5.039632
-4.3203125,7.699999,-2.667358   5.039632
-4.3203125,1.54,8.002074        5.039632
-4.3203125,7.699999,2.667358    5.039632
-4.3203125,6.159999,5.334716    5.039632
-0.6875,-7.699999,-0.889119     -5.660931
-0.6875,-4.62,-6.223835 -5.660931
-0.6875,-3.08,7.112955  -5.660931
-0.6875,4.62,-6.223835  -5.660931
-0.6875,3.08,7.112955   -5.660931
-0.6875,7.699999,-0.889119      -5.660931
116.0,-1.54,0.889119    9.444068
116.0,0.0,-1.778239     9.444068
116.0,1.54,0.889119     9.444068
51.3125,-9.239999,1.778239      2.515516
51.3125,-3.08,-8.891193 2.515516
51.3125,3.08,-8.891193  2.515516
51.3125,-6.159999,7.112955      2.515516
51.3125,9.239999,1.778239       2.515516
51.3125,6.159999,7.112955       2.515516
156.875,-9.239999,-1.778239     -2.519484
156.875,-3.08,8.891193  -2.519484
156.875,-6.159999,-7.112955     -2.519484
156.875,6.159999,-7.112955      -2.519484
156.875,9.239999,-1.778239      -2.519484
156.875,3.08,8.891193   -2.519484
219.625,-9.239999,-0.0  -3.142907
219.625,-4.62,-8.002074 -3.142907
219.625,-4.62,8.002074  -3.142907
219.625,4.62,-8.002074  -3.142907
219.625,9.239999,-0.0   -3.142907
219.625,4.62,8.002074   -3.142907
8.64550781,-4.62,-2.667358      -8.177907
8.64550781,-4.62,2.667358       -8.177907
8.64550781,4.62,2.667358        -8.177907
8.64550781,4.62,-2.667358       -8.177907
8.64550781,-0.0,-5.334716       -8.177907
8.64550781,0.0,5.334716 -8.177907
251.875,-4.62,-4.445597 7.550516
251.875,-6.159999,-1.778239     7.550516
251.875,-1.54,6.223835  7.550516
251.875,4.62,-4.445597  7.550516
251.875,1.54,6.223835   7.550516
251.875,6.159999,-1.778239      7.550516
-348.0,-4.62,4.445597   -7.554483
-348.0,-6.159999,1.778239       -7.554483
-348.0,-1.54,-6.223835  -7.554483
-348.0,1.54,-6.223835   -7.554483
-348.0,6.159999,1.778239        -7.554483
-348.0,4.62,4.445597    -7.554483
71.265625,-7.699999,6.223835    -0.625931
71.265625,-9.239999,3.556477    -0.625931
71.265625,-1.54,-9.780313       -0.625931
71.265625,1.54,-9.780313        -0.625931
71.265625,9.239999,3.556477     -0.625931
71.265625,7.699999,6.223835     -0.625931
-483.75,-0.0,-8.891193  4.409069
-483.75,-7.699999,4.445597      4.409069
-483.75,7.699999,4.445597       4.409069

End of input

&SCF
Occupied
9
Iterations
   50  100
End of Input

&RASSCF
LumOrb
Symmetry
1
Spin
2
Nactel
1 0 0
CIRoot
9 9 1
inactive
9
ras2
9
End of Input

>>> COPY chromium_so_cf.JobIph $SLURM_SUBMIT_DIR/chromium_so_cf.doublet.JobIph

>>> COPY $SLURM_SUBMIT_DIR/chromium_so_cf.doublet.JobIph ./JOB002

&RASSI
NROFJobIph
1 All
SpinOrbit
End of Input

EOF

-- ----------------------------------

--- Start Module: seward at Mon Mar 31 12:24:21 2025 ---

()()()()()()()()()()()()()()()()()()()()()()()()()()()()()()()()()()()()()()()()()()()()()()()()()()

                                              &SEWARD

                                   only a single process is used
                       available to each process: 4.1 GB of memory, 1 thread?
                                            pid: 218992
()()()()()()()()()()()()()()()()()()()()()()()()()()()()()()()()()()()()()()()()()()()()()()()()()()

 The speed of LIGHT in this CALCULATION =   137.03599917700001     
               SEWARD will generate:
                  Multipole Moment integrals up to order  2
                  Kinetic Energy integrals
                  Nuclear Attraction integrals (point charge)
                  One-Electron Hamiltonian integrals
                  Velocity integrals
                  Relativistic Douglas-Kroll-Hess integrals:
                    - Parametrization         : EXP
                    - DKH order of Hamiltonian: 2
                    - DKH order of Properties : 0
                         - multipole moment operators
                         - electric potential operators
                         - contact operators
                  External field from   414 point(s) added to the one-electron Hamiltonian
                  Orbital angular momentum around (-0.0000 -0.0000  0.0088 )
                  Velocity quadrupole around (-0.0000 -0.0000  0.0088 )
                  Atomic mean-field integrals
                  Two-Electron Repulsion integrals

                   Integrals are discarded if absolute value <: 0.10E-13
                   Integral cutoff threshold is set to       <: 0.10E-15

++    Symmetry information:
      ---------------------

                    Character Table for C1 

                             E  
                    a        1  x, y, xy, Rz, z, xz, Ry, yz, Rx, I
--


++    Basis set information:
      ----------------------


      Basis set label: CR.ANO-RCC.ROOS.21S15P10D6F4G2H.10S10P8D6F4G2H......

      Electronic valence basis set:
      ------------------
      Associated Effective Charge  24.000000 au
      Associated Actual Charge     24.000000 au
      Nuclear Model: Point charge

      Shell  nPrim  nBasis  Cartesian Spherical Contaminant
         s      21      10        X                  
         p      15      10        X                  
         d      10       8                 X         
         f       6       6                 X         
         g       4       4                 X         
         h       2       2                 X         
--


++    Molecular structure info:
      -------------------------

                    ************************************************ 
                    **** Cartesian Coordinates / Bohr, Angstrom **** 
                    ************************************************ 

     Center  Label                x              y              z                     x              y              z
        1      CR              -0.000000      -0.000000       0.008754             -0.000000      -0.000000       0.004632
--


++    Operator info:
      --------------


  Net charge from external field:   -39.268449999999902     
--


            Nuclear Potential Energy              0.00000000 au

                    Nuclear-External Field Potential Energy    -219.57520635 au
                    External Field Potential Energy            1605.63690139 au 


            Total Nuclear Potential Energy           -219.57520635 au


      Basis set specifications :
      Symmetry species         a  
      Basis functions          180

 Sorry, Molden does not know how to handle
 functions with angular momentum larger than g
Note: The following floating-point exceptions are signalling: IEEE_UNDERFLOW_FLAG IEEE_DENORMAL
--- Stop Module: seward at Mon Mar 31 12:24:30 2025 /rc=_RC_ALL_IS_WELL_ ---
*** files: chromium_so_cf.GssOrb xmldump
    saved to directory /home4/s4752295/Internship/Initial_simulations/Point_charge_model/1_electron/Madelung_charges_9_active_space/Cr/fixed_calculations
--- Module seward spent 8 seconds ---

*** symbolic link created: INPORB -> chromium_so_cf.GssOrb
--- Start Module: scf at Mon Mar 31 12:24:30 2025 ---

()()()()()()()()()()()()()()()()()()()()()()()()()()()()()()()()()()()()()()()()()()()()()()()()()()

                                                &SCF

                                   only a single process is used
                       available to each process: 4.1 GB of memory, 1 thread?
                                            pid: 224093
()()()()()()()()()()()()()()()()()()()()()()()()()()()()()()()()()()()()()()()()()()()()()()()()()()

++    Input section:
      --------------

      Header of the integral files:
      
       Integrals generated by seward 4.2.0  , Mon Mar 31 12:24:22 2025


      Cartesian coordinates in Angstrom:
      -----------------------------------------------------
      No.  Label        X            Y            Z        
      -----------------------------------------------------
       1   CR        -0.00000000  -0.00000000   0.00463220
      -----------------------------------------------------
      Nuclear repulsion energy = -219.57520635
--

++    Orbital specifications:
      -----------------------

      Symmetry species               1
                                     a
      Frozen orbitals                0
      Occupied orbitals              9
      Secondary orbitals           171
      Deleted orbitals               0
      Total number of orbitals     180
      Number of basis functions    180
--

      Molecular charge                           6.000

++    Optimization specifications:
      ----------------------------

      SCF Algorithm: Conventional
      Minimized density differences are used
      Number of density matrices in core                5
      Maximum number of NDDO SCF iterations            50
      Maximum number of HF SCF iterations             100
      Threshold for SCF energy change            0.10E-08
      Threshold for density matrix               0.10E-03
      Threshold for Fock matrix                  0.15E-03
      Threshold for linear dependence            0.10E-08
      Threshold at which DIIS is turned on       0.15E+00
      Threshold at which QNR/C2DIIS is turned on 0.75E-01
      Threshold for Norm(delta) (QNR/C2DIIS)     0.20E-04
      DIIS extrapolation of the SCF procedure
      All orbitals punched on: SCFORB
--

      Detected guessorb starting orbitals                                             


++ Convergence information
                                   SCF        iterations: Energy and convergence statistics

Iter     Tot. SCF        One-elec.       Two-elec.     Energy      Max Dij or  Max Fij      DNorm      TNorm      AccCon     Time
         Energy          Energy          Energy        Change      Delta Norm                                                in Sec.

 The total and one-electron energies are shifted by a value of      1000. a.u.

   1   -94.501198724  -180.302655456   305.376663078   0.00E+00    0.25E+00*   0.50E+00*    0.60E+01   0.25E+03   None         1.
   2   -95.523093931  -192.126514818   316.178627234  -0.10E+01*   0.40E-01*   0.83E-01*    0.15E+01   0.25E+03   EDIIS        1.
   3   -95.547980868  -190.738369529   314.765595008  -0.25E-01*   0.11E-01*   0.25E-01*    0.17E+00   0.25E+03   EDIIS        1.
   4   -95.549045592  -190.948999148   314.975159903  -0.11E-02*   0.86E-03*   0.45E-02*    0.18E-01   0.25E+03   c2DIIS       1.
   5   -95.549103818  -190.924288387   314.950390916  -0.58E-04*   0.23E-03*   0.44E-03*    0.22E-02   0.25E+03   QNRc2DIIS    1.
   6   -95.549104203  -190.922081564   314.948183708  -0.38E-06*   0.87E-04*   0.78E-04     0.32E-03   0.25E+03   QNRc2DIIS    1.
   7   -95.549104236  -190.922317090   314.948419201  -0.33E-07*   0.12E-04    0.20E-04     0.59E-04   0.25E+03   QNRc2DIIS    1.
   8   -95.549104237  -190.922334254   314.948436364  -0.10E-08*   0.39E-05    0.39E-05     0.23E-04   0.25E+03   QNRc2DIIS    1.
   9   -95.549104237  -190.922327885   314.948429995  -0.71E-10    0.14E-06    0.29E-06     0.71E-02   0.25E+03   QNRc2DIIS    1.

       Convergence after  9 Macro Iterations
--

 *****************************************************************************************************************************
 *                                                                                                                           *
 *                                             SCF/KS-DFT Program, Final results                                             *
 *                                                                                                                           *
 *                                                                                                                           *
 *                                                                                                                           *
 *                                                       Final Results                                                       *
 *                                                                                                                           *
 *****************************************************************************************************************************

::    Total SCF energy                              -1095.5491042368
      One-electron energy                           -1190.9223278846
      Two-electron energy                             314.9484299947
      Nuclear repulsion energy                       -219.5752063469
      Kinetic energy (interpolated)                  1077.1661863325
      Virial theorem                                    1.0170659998
      Total spin, S(S+1)                                0.0000000000
      Total spin, S                                     0.0000000000
      Max non-diagonal density matrix element           0.0000001119
      Max non-diagonal Fock matrix element              0.0000000177


      All orbitals with orbital energies smaller than  E(LUMO)+0.5 are printed

++    Molecular orbitals:
      -------------------

      Title: SCF orbitals

      Molecular orbitals for symmetry species 1: a  

          Orbital            1         2         3         4         5         6         7         8         9        10    
          Energy         -217.2665  -21.9200  -17.5460  -17.5460  -17.5435    1.7516    3.1527    3.1528    3.2521    5.6411
          Occ. No.          2.0000    2.0000    2.0000    2.0000    2.0000    2.0000    2.0000    2.0000    2.0000    0.0000

        1 CR     1s         1.0000   -0.0001    0.0000   -0.0000   -0.0000    0.0001   -0.0000   -0.0000    0.0000   -0.0000
        2 CR     2s         0.0001    1.0000    0.0000   -0.0000   -0.0070    0.0021    0.0000   -0.0000   -0.0019    0.0003
        3 CR     3s        -0.0001   -0.0024   -0.0000    0.0000    0.0019    0.9722    0.0002   -0.0000   -0.2089    0.0360
        4 CR     4s         0.0000    0.0002    0.0000   -0.0000   -0.0002   -0.0414   -0.0001    0.0000    0.0489    0.3775
        5 CR     5s        -0.0000   -0.0006   -0.0000    0.0000    0.0005    0.0617    0.0001   -0.0000   -0.0713   -0.1989
        6 CR     6s         0.0000    0.0004    0.0000   -0.0000   -0.0004   -0.0266   -0.0000    0.0000    0.0262   -0.0740
        7 CR     7s        -0.0000   -0.0002   -0.0000    0.0000    0.0001   -0.0061   -0.0000    0.0000    0.0106    0.0886
        8 CR     8s         0.0000    0.0000    0.0000   -0.0000   -0.0000    0.0050    0.0000    0.0000   -0.0060    0.0828
        9 CR     9s        -0.0001    0.0002    0.0000   -0.0000   -0.0000    0.0014    0.0000   -0.0000   -0.0026    0.0118
       10 CR    10s         0.0001   -0.0002   -0.0000    0.0000    0.0000    0.0003    0.0000   -0.0000   -0.0003    0.0005
       11 CR     2px        0.0000    0.0070   -0.0027    0.0000    1.0000   -0.0012   -0.0000    0.0000    0.0037   -0.0011
       12 CR     3px       -0.0000    0.0013    0.0000   -0.0000   -0.0034    0.2196   -0.0017    0.0000    0.9514   -0.0721
       13 CR     4px        0.0000   -0.0003   -0.0000    0.0000    0.0006   -0.0014    0.0001   -0.0000   -0.0719    0.5111
       14 CR     5px       -0.0000    0.0005    0.0000   -0.0000   -0.0010   -0.0071   -0.0001    0.0000    0.0862   -0.2239
       15 CR     6px        0.0000   -0.0002   -0.0000    0.0000    0.0003    0.0052    0.0000   -0.0000   -0.0083   -0.1939
       16 CR     7px       -0.0000    0.0001    0.0000   -0.0000   -0.0001   -0.0034    0.0000   -0.0000   -0.0074    0.0738
       17 CR     8px        0.0000   -0.0001    0.0000   -0.0000   -0.0002   -0.0012   -0.0000    0.0000    0.0036    0.0631
       18 CR     9px       -0.0000    0.0000   -0.0000    0.0000    0.0003    0.0012   -0.0000   -0.0000    0.0009   -0.0189
       19 CR    10px        0.0000   -0.0000    0.0000   -0.0000   -0.0003    0.0006   -0.0000   -0.0000   -0.0012   -0.0250
       20 CR    11px       -0.0000    0.0001   -0.0000    0.0000    0.0002    0.0001    0.0000   -0.0000   -0.0006   -0.0052
       21 CR     2py       -0.0000   -0.0000    0.0000    1.0000   -0.0000   -0.0000    0.0000    0.0032    0.0000    0.0000
       22 CR     3py        0.0000    0.0000   -0.0000   -0.0033    0.0000   -0.0000    0.0000    0.9834   -0.0000   -0.0000
       23 CR     4py       -0.0000   -0.0000    0.0000    0.0005   -0.0000    0.0000   -0.0000   -0.0811    0.0000   -0.0000
       24 CR     5py        0.0000    0.0000   -0.0000   -0.0010    0.0000   -0.0000    0.0000    0.0886   -0.0000    0.0000
       25 CR     6py       -0.0000   -0.0000    0.0000    0.0003   -0.0000    0.0000   -0.0000   -0.0031    0.0000    0.0000
       26 CR     7py        0.0000    0.0000   -0.0000   -0.0001    0.0000   -0.0000   -0.0000   -0.0124    0.0000   -0.0000
       27 CR     8py       -0.0000   -0.0000   -0.0000   -0.0001    0.0000    0.0000    0.0000    0.0024   -0.0000    0.0000
       28 CR     9py        0.0000    0.0000    0.0000    0.0002   -0.0000   -0.0000    0.0000    0.0029   -0.0000    0.0000
       29 CR    10py       -0.0000   -0.0000   -0.0000   -0.0003    0.0000    0.0000   -0.0000   -0.0002   -0.0000    0.0000
       30 CR    11py        0.0000    0.0000    0.0000    0.0002   -0.0000    0.0000   -0.0000   -0.0004    0.0000    0.0000
       31 CR     2pz        0.0000    0.0000    1.0000   -0.0000    0.0027   -0.0000    0.0032   -0.0000    0.0000   -0.0000
       32 CR     3pz       -0.0000    0.0000   -0.0033    0.0000   -0.0000    0.0002    0.9834   -0.0000    0.0017   -0.0002
       33 CR     4pz        0.0000   -0.0000    0.0005   -0.0000    0.0000   -0.0000   -0.0811    0.0000   -0.0001    0.0006
       34 CR     5pz       -0.0000    0.0000   -0.0010    0.0000   -0.0000   -0.0000    0.0886   -0.0000    0.0002   -0.0004
       35 CR     6pz        0.0000   -0.0000    0.0003   -0.0000    0.0000    0.0000   -0.0031    0.0000   -0.0000   -0.0001
       36 CR     7pz       -0.0000    0.0000   -0.0001    0.0000   -0.0000   -0.0000   -0.0124    0.0000   -0.0000    0.0003
       37 CR     8pz        0.0000   -0.0000   -0.0001    0.0000   -0.0000   -0.0000    0.0024   -0.0000    0.0000    0.0001
       38 CR     9pz       -0.0000    0.0000    0.0002   -0.0000    0.0000    0.0000    0.0029   -0.0000    0.0000   -0.0001
       39 CR    10pz        0.0000   -0.0000   -0.0003    0.0000   -0.0000    0.0000   -0.0002    0.0000   -0.0000   -0.0001
       40 CR    11pz       -0.0000    0.0000    0.0002   -0.0000    0.0000    0.0000   -0.0004    0.0000   -0.0000   -0.0000
       41 CR     3d2-       0.0000    0.0000    0.0000    0.0007   -0.0000   -0.0000    0.0000    0.1305   -0.0000   -0.0000
       42 CR     4d2-      -0.0000   -0.0000   -0.0000   -0.0005    0.0000    0.0000   -0.0000   -0.0273    0.0000   -0.0000
       43 CR     5d2-       0.0000    0.0000    0.0000    0.0003   -0.0000    0.0000   -0.0000   -0.0171    0.0000    0.0000
       44 CR     6d2-      -0.0000   -0.0000   -0.0000   -0.0002    0.0000    0.0000    0.0000    0.0079   -0.0000    0.0000
       45 CR     7d2-       0.0000    0.0000    0.0000    0.0001   -0.0000   -0.0000    0.0000    0.0046   -0.0000   -0.0000
       46 CR     8d2-      -0.0000   -0.0000   -0.0000   -0.0001    0.0000   -0.0000   -0.0000   -0.0010   -0.0000   -0.0000
       47 CR     9d2-       0.0000    0.0000    0.0000    0.0001   -0.0000    0.0000   -0.0000   -0.0021    0.0000   -0.0000
       48 CR    10d2-      -0.0000    0.0000   -0.0000   -0.0001    0.0000   -0.0000   -0.0000   -0.0003   -0.0000    0.0000
       49 CR     3d1-      -0.0000    0.0000    0.0000    0.0000    0.0000   -0.0000   -0.0000   -0.0006   -0.0000    0.0000
       50 CR     4d1-       0.0000   -0.0000   -0.0000   -0.0000   -0.0000    0.0000   -0.0000   -0.0004    0.0000   -0.0000
       51 CR     5d1-      -0.0000    0.0000    0.0000    0.0000   -0.0000   -0.0000    0.0000    0.0001    0.0000   -0.0000
       52 CR     6d1-      -0.0000   -0.0000   -0.0000   -0.0000   -0.0000    0.0000    0.0000    0.0002    0.0000    0.0000
       53 CR     7d1-       0.0000    0.0000    0.0000    0.0000    0.0000    0.0000    0.0000    0.0001    0.0000    0.0000
       54 CR     8d1-      -0.0000   -0.0000   -0.0000   -0.0000   -0.0000   -0.0000   -0.0000   -0.0002    0.0000    0.0000
       55 CR     9d1-       0.0000    0.0000    0.0000    0.0000    0.0000   -0.0000   -0.0000   -0.0001   -0.0000    0.0000
       56 CR    10d1-       0.0000   -0.0000   -0.0000   -0.0000   -0.0000    0.0000   -0.0000   -0.0000   -0.0000    0.0000
       57 CR     3d0       -0.0000    0.0000    0.0000   -0.0000   -0.0004   -0.0056    0.0009   -0.0000   -0.0840   -0.3031
       58 CR     4d0        0.0000   -0.0000   -0.0000    0.0000    0.0003   -0.0009    0.0003   -0.0000    0.0176   -0.0538
       59 CR     5d0       -0.0000    0.0000    0.0000   -0.0000   -0.0002    0.0019   -0.0001    0.0000    0.0104    0.0057
       60 CR     6d0       -0.0000    0.0000    0.0000   -0.0000    0.0001   -0.0000   -0.0001    0.0000   -0.0045    0.0360
       61 CR     7d0        0.0000   -0.0000   -0.0000    0.0000   -0.0000   -0.0005   -0.0000    0.0000   -0.0028    0.0160
       62 CR     8d0       -0.0000    0.0000    0.0000   -0.0000    0.0000   -0.0002    0.0001   -0.0000    0.0004   -0.0268
       63 CR     9d0        0.0000   -0.0000    0.0000   -0.0000   -0.0000    0.0003    0.0001   -0.0000    0.0011   -0.0290
       64 CR    10d0       -0.0000   -0.0000   -0.0000    0.0000    0.0001    0.0001    0.0000   -0.0000    0.0002   -0.0077
       65 CR     3d1+       0.0000   -0.0000    0.0007   -0.0000    0.0000   -0.0000    0.1306   -0.0000    0.0004    0.0018
       66 CR     4d1+       0.0000    0.0000   -0.0005    0.0000   -0.0000    0.0000   -0.0273    0.0000   -0.0001    0.0001
       67 CR     5d1+      -0.0000   -0.0000    0.0003   -0.0000    0.0000    0.0000   -0.0171    0.0000   -0.0001   -0.0002
       68 CR     6d1+       0.0000    0.0000   -0.0002    0.0000   -0.0000   -0.0000    0.0079   -0.0000    0.0000   -0.0002
       69 CR     7d1+      -0.0000    0.0000    0.0001   -0.0000    0.0000    0.0000    0.0046   -0.0000    0.0000    0.0000
       70 CR     8d1+       0.0000   -0.0000   -0.0001    0.0000   -0.0000    0.0000   -0.0010    0.0000    0.0000    0.0003
       71 CR     9d1+      -0.0000    0.0000    0.0001   -0.0000    0.0000    0.0000   -0.0021    0.0000   -0.0000    0.0002
       72 CR    10d1+       0.0000   -0.0000   -0.0001    0.0000   -0.0000   -0.0000   -0.0003    0.0000   -0.0000    0.0000
       73 CR     3d2+       0.0000   -0.0000   -0.0000    0.0000    0.0007    0.0098    0.0001   -0.0000    0.1455    0.5295
       74 CR     4d2+      -0.0000    0.0000    0.0000   -0.0000   -0.0006    0.0015    0.0002   -0.0000   -0.0304    0.0932
       75 CR     5d2+       0.0000   -0.0000   -0.0000    0.0000    0.0003   -0.0033   -0.0000    0.0000   -0.0181   -0.0100
       76 CR     6d2+       0.0000   -0.0000    0.0000   -0.0000   -0.0002    0.0000   -0.0001    0.0000    0.0079   -0.0628
       77 CR     7d2+      -0.0000    0.0000   -0.0000    0.0000    0.0001    0.0008   -0.0000    0.0000    0.0048   -0.0280
       78 CR     8d2+       0.0000   -0.0000    0.0000   -0.0000   -0.0000    0.0004    0.0001   -0.0000   -0.0006    0.0466
       79 CR     9d2+      -0.0000    0.0000   -0.0000    0.0000    0.0001   -0.0004    0.0001   -0.0000   -0.0020    0.0505
       80 CR    10d2+       0.0000    0.0000    0.0000   -0.0000   -0.0001   -0.0002    0.0000   -0.0000   -0.0003    0.0135
       81 CR     4f3-      -0.0000   -0.0000   -0.0000   -0.0000    0.0000    0.0000    0.0000    0.0061   -0.0000   -0.0000
       82 CR     5f3-       0.0000    0.0000    0.0000    0.0000   -0.0000   -0.0000    0.0000    0.0045   -0.0000   -0.0000
       83 CR     6f3-      -0.0000   -0.0000   -0.0000   -0.0000    0.0000   -0.0000   -0.0000   -0.0010   -0.0000   -0.0000
       84 CR     7f3-       0.0000    0.0000    0.0000    0.0000   -0.0000   -0.0000   -0.0000   -0.0018   -0.0000    0.0000
       85 CR     8f3-      -0.0000   -0.0000   -0.0000   -0.0000   -0.0000    0.0000   -0.0000   -0.0002   -0.0000    0.0000
       86 CR     9f3-       0.0000    0.0000   -0.0000   -0.0000    0.0000   -0.0000    0.0000    0.0006   -0.0000    0.0000
       87 CR     4f2-      -0.0000   -0.0000   -0.0000   -0.0000    0.0000   -0.0000   -0.0000   -0.0014   -0.0000    0.0000
       88 CR     5f2-       0.0000    0.0000    0.0000    0.0000   -0.0000    0.0000   -0.0000   -0.0012    0.0000    0.0000
       89 CR     6f2-      -0.0000   -0.0000   -0.0000   -0.0000   -0.0000   -0.0000   -0.0000   -0.0001    0.0000    0.0000
       90 CR     7f2-       0.0000   -0.0000    0.0000    0.0000    0.0000    0.0000    0.0000    0.0004    0.0000   -0.0000
       91 CR     8f2-      -0.0000    0.0000   -0.0000   -0.0000   -0.0000    0.0000    0.0000    0.0002    0.0000   -0.0000
       92 CR     9f2-       0.0000   -0.0000   -0.0000   -0.0000    0.0000   -0.0000    0.0000    0.0000    0.0000   -0.0000
       93 CR     4f1-      -0.0000   -0.0000    0.0000    0.0000   -0.0000    0.0000   -0.0000   -0.0016   -0.0000    0.0000
       94 CR     5f1-       0.0000    0.0000   -0.0000   -0.0000    0.0000   -0.0000   -0.0000   -0.0012    0.0000    0.0000
       95 CR     6f1-      -0.0000   -0.0000    0.0000    0.0000   -0.0000    0.0000    0.0000    0.0002   -0.0000    0.0000
       96 CR     7f1-       0.0000    0.0000   -0.0000   -0.0000    0.0000    0.0000    0.0000    0.0005    0.0000    0.0000
       97 CR     8f1-      -0.0000   -0.0000    0.0000    0.0000    0.0000    0.0000    0.0000    0.0001   -0.0000   -0.0000
       98 CR     9f1-      -0.0000    0.0000    0.0000    0.0000   -0.0000   -0.0000   -0.0000   -0.0002    0.0000   -0.0000
       99 CR     4f0       -0.0000    0.0000    0.0000   -0.0000    0.0000    0.0002   -0.0039    0.0000    0.0008    0.0114
      100 CR     5f0        0.0000    0.0000   -0.0000    0.0000   -0.0000    0.0002   -0.0029    0.0000    0.0007    0.0187
      101 CR     6f0       -0.0000   -0.0000    0.0000   -0.0000    0.0000   -0.0000    0.0006   -0.0000    0.0001    0.0108
      102 CR     7f0        0.0000    0.0000   -0.0000    0.0000   -0.0000   -0.0001    0.0011   -0.0000   -0.0002   -0.0003
      103 CR     8f0       -0.0000   -0.0000    0.0000   -0.0000    0.0000   -0.0000    0.0001   -0.0000   -0.0001   -0.0034
      104 CR     9f0        0.0000   -0.0000    0.0000   -0.0000    0.0000    0.0000   -0.0004    0.0000    0.0000   -0.0031
      105 CR     4f1+       0.0000   -0.0000    0.0000   -0.0000    0.0000   -0.0011    0.0011   -0.0000   -0.0046   -0.0813
      106 CR     5f1+      -0.0000    0.0000   -0.0000    0.0000   -0.0000   -0.0004    0.0010   -0.0000   -0.0031   -0.0619
      107 CR     6f1+       0.0000   -0.0000   -0.0000    0.0000    0.0000    0.0002    0.0001   -0.0000    0.0009    0.0002
      108 CR     7f1+      -0.0000    0.0000    0.0000   -0.0000   -0.0000    0.0002   -0.0003    0.0000    0.0013    0.0271
      109 CR     8f1+       0.0000    0.0000   -0.0000    0.0000    0.0000   -0.0000   -0.0002    0.0000    0.0001    0.0164
      110 CR     9f1+      -0.0000   -0.0000    0.0000   -0.0000    0.0000   -0.0001   -0.0000    0.0000   -0.0006    0.0065
      111 CR     4f2+      -0.0000    0.0000   -0.0000    0.0000    0.0000    0.0002    0.0051   -0.0000    0.0006    0.0098
      112 CR     5f2+       0.0000    0.0000    0.0000   -0.0000   -0.0000    0.0001    0.0037   -0.0000    0.0006    0.0153
      113 CR     6f2+      -0.0000   -0.0000   -0.0000    0.0000   -0.0000   -0.0000   -0.0008    0.0000    0.0001    0.0084
      114 CR     7f2+       0.0000    0.0000    0.0000   -0.0000    0.0000   -0.0001   -0.0015    0.0000   -0.0002   -0.0007
      115 CR     8f2+      -0.0000   -0.0000   -0.0000    0.0000   -0.0000   -0.0000   -0.0002    0.0000   -0.0001   -0.0028
      116 CR     9f2+       0.0000   -0.0000   -0.0000    0.0000    0.0000    0.0000    0.0005   -0.0000    0.0000   -0.0024
      117 CR     4f3+      -0.0000    0.0000    0.0000   -0.0000   -0.0000    0.0014    0.0008   -0.0000    0.0060    0.1065
      118 CR     5f3+       0.0000   -0.0000   -0.0000    0.0000    0.0000    0.0006    0.0007   -0.0000    0.0041    0.0817
      119 CR     6f3+      -0.0000    0.0000    0.0000   -0.0000   -0.0000   -0.0003    0.0001   -0.0000   -0.0011    0.0003
      120 CR     7f3+       0.0000   -0.0000   -0.0000    0.0000    0.0000   -0.0002   -0.0003    0.0000   -0.0017   -0.0355
      121 CR     8f3+      -0.0000   -0.0000    0.0000   -0.0000   -0.0000    0.0000   -0.0001    0.0000   -0.0001   -0.0217
      122 CR     9f3+       0.0000    0.0000    0.0000   -0.0000   -0.0000    0.0001   -0.0000    0.0000    0.0008   -0.0088
      123 CR     5g4-      -0.0000   -0.0000    0.0000    0.0000   -0.0000    0.0000    0.0000    0.0014   -0.0000   -0.0000
      124 CR     6g4-       0.0000    0.0000   -0.0000   -0.0000    0.0000   -0.0000    0.0000    0.0016   -0.0000   -0.0000
      125 CR     7g4-      -0.0000   -0.0000    0.0000    0.0000   -0.0000   -0.0000    0.0000    0.0006   -0.0000   -0.0000
      126 CR     8g4-       0.0000    0.0000    0.0000    0.0000    0.0000    0.0000   -0.0000   -0.0001   -0.0000   -0.0000
      127 CR     5g3-       0.0000    0.0000   -0.0000   -0.0000    0.0000    0.0000   -0.0000   -0.0008    0.0000    0.0000
      128 CR     6g3-      -0.0000   -0.0000    0.0000    0.0000    0.0000   -0.0000   -0.0000   -0.0012    0.0000    0.0000
      129 CR     7g3-       0.0000    0.0000   -0.0000   -0.0000   -0.0000    0.0000   -0.0000   -0.0007   -0.0000    0.0000
      130 CR     8g3-      -0.0000   -0.0000    0.0000    0.0000    0.0000   -0.0000   -0.0000   -0.0001   -0.0000    0.0000
      131 CR     5g2-      -0.0000   -0.0000   -0.0000   -0.0000    0.0000   -0.0000   -0.0000   -0.0005    0.0000    0.0000
      132 CR     6g2-       0.0000    0.0000    0.0000    0.0000   -0.0000   -0.0000   -0.0000   -0.0006    0.0000    0.0000
      133 CR     7g2-      -0.0000   -0.0000   -0.0000   -0.0000    0.0000    0.0000   -0.0000   -0.0002    0.0000    0.0000
      134 CR     8g2-       0.0000    0.0000   -0.0000   -0.0000    0.0000   -0.0000    0.0000    0.0000   -0.0000    0.0000
      135 CR     5g1-      -0.0000   -0.0000    0.0000    0.0000   -0.0000    0.0000    0.0000    0.0003   -0.0000   -0.0000
      136 CR     6g1-       0.0000    0.0000    0.0000    0.0000   -0.0000   -0.0000    0.0000    0.0005   -0.0000   -0.0000
      137 CR     7g1-      -0.0000   -0.0000   -0.0000   -0.0000    0.0000    0.0000    0.0000    0.0003   -0.0000   -0.0000
      138 CR     8g1-       0.0000    0.0000   -0.0000   -0.0000    0.0000   -0.0000    0.0000    0.0000   -0.0000   -0.0000
      139 CR     5g0        0.0000   -0.0000   -0.0000    0.0000    0.0000   -0.0001   -0.0004    0.0000    0.0004    0.0030
      140 CR     6g0        0.0000    0.0000    0.0000   -0.0000   -0.0000   -0.0001   -0.0007    0.0000    0.0002    0.0039
      141 CR     7g0        0.0000   -0.0000   -0.0000    0.0000    0.0000   -0.0000   -0.0004    0.0000   -0.0001    0.0002
      142 CR     8g0        0.0000    0.0000    0.0000   -0.0000   -0.0000    0.0000   -0.0001    0.0000   -0.0002   -0.0029
      143 CR     5g1+      -0.0000    0.0000   -0.0000    0.0000    0.0000    0.0004   -0.0011    0.0000    0.0005    0.0081
      144 CR     6g1+      -0.0000    0.0000    0.0000   -0.0000    0.0000    0.0005   -0.0013    0.0000    0.0009    0.0189
      145 CR     7g1+      -0.0000    0.0000   -0.0000    0.0000   -0.0000    0.0001   -0.0005    0.0000    0.0006    0.0186
      146 CR     8g1+       0.0000   -0.0000   -0.0000    0.0000   -0.0000   -0.0001    0.0001   -0.0000    0.0001    0.0119
      147 CR     5g2+      -0.0000    0.0000    0.0000   -0.0000   -0.0000    0.0001    0.0005   -0.0000   -0.0006   -0.0047
      148 CR     6g2+      -0.0000   -0.0000    0.0000   -0.0000    0.0000    0.0001    0.0007   -0.0000   -0.0004   -0.0062
      149 CR     7g2+      -0.0000    0.0000   -0.0000    0.0000   -0.0000    0.0000    0.0004   -0.0000    0.0001   -0.0006
      150 CR     8g2+      -0.0000   -0.0000   -0.0000    0.0000    0.0000   -0.0000    0.0000   -0.0000    0.0002    0.0041
      151 CR     5g3+      -0.0000    0.0000    0.0000   -0.0000    0.0000    0.0005    0.0010   -0.0000    0.0006    0.0096
      152 CR     6g3+      -0.0000    0.0000   -0.0000    0.0000    0.0000    0.0006    0.0011   -0.0000    0.0011    0.0221
      153 CR     7g3+      -0.0000    0.0000    0.0000   -0.0000   -0.0000    0.0002    0.0004   -0.0000    0.0006    0.0216
      154 CR     8g3+       0.0000   -0.0000    0.0000   -0.0000   -0.0000   -0.0001   -0.0001    0.0000    0.0001    0.0136
      155 CR     5g4+       0.0000   -0.0000    0.0000   -0.0000    0.0000   -0.0001    0.0006   -0.0000    0.0009    0.0067
      156 CR     6g4+       0.0000    0.0000   -0.0000    0.0000   -0.0000   -0.0001    0.0009   -0.0000    0.0005    0.0093
      157 CR     7g4+       0.0000   -0.0000   -0.0000    0.0000    0.0000   -0.0000    0.0005   -0.0000   -0.0002    0.0017
      158 CR     8g4+       0.0000    0.0000   -0.0000    0.0000   -0.0000    0.0000    0.0001   -0.0000   -0.0003   -0.0050
      159 CR     6h5-      -0.0000   -0.0000   -0.0000   -0.0000   -0.0000    0.0000    0.0000    0.0001   -0.0000   -0.0000
      160 CR     7h5-       0.0000    0.0000    0.0000    0.0000    0.0000   -0.0000    0.0000    0.0003   -0.0000   -0.0000
      161 CR     6h4-      -0.0000   -0.0000    0.0000    0.0000   -0.0000   -0.0000   -0.0000   -0.0000    0.0000    0.0000
      162 CR     7h4-      -0.0000    0.0000   -0.0000   -0.0000    0.0000   -0.0000   -0.0000   -0.0002    0.0000    0.0000
      163 CR     6h3-      -0.0000   -0.0000    0.0000    0.0000   -0.0000    0.0000   -0.0000   -0.0000    0.0000   -0.0000
      164 CR     7h3-       0.0000    0.0000   -0.0000   -0.0000    0.0000   -0.0000   -0.0000   -0.0001   -0.0000   -0.0000
      165 CR     6h2-       0.0000    0.0000    0.0000    0.0000   -0.0000    0.0000    0.0000    0.0005   -0.0000   -0.0000
      166 CR     7h2-       0.0000   -0.0000   -0.0000   -0.0000    0.0000    0.0000    0.0000    0.0007   -0.0000   -0.0000
      167 CR     6h1-      -0.0000   -0.0000   -0.0000   -0.0000   -0.0000    0.0000   -0.0000   -0.0000    0.0000   -0.0000
      168 CR     7h1-       0.0000    0.0000    0.0000    0.0000    0.0000   -0.0000    0.0000    0.0000   -0.0000    0.0000
      169 CR     6h0        0.0000   -0.0000   -0.0000    0.0000   -0.0000   -0.0003    0.0001   -0.0000   -0.0004   -0.0036
      170 CR     7h0        0.0000   -0.0000    0.0000   -0.0000    0.0000   -0.0004    0.0002   -0.0000   -0.0007   -0.0074
      171 CR     6h1+       0.0000   -0.0000    0.0000   -0.0000   -0.0000   -0.0001    0.0000   -0.0000   -0.0003   -0.0013
      172 CR     7h1+       0.0000   -0.0000   -0.0000    0.0000    0.0000   -0.0002   -0.0001    0.0000   -0.0005   -0.0033
      173 CR     6h2+      -0.0000    0.0000    0.0000   -0.0000    0.0000    0.0002   -0.0001    0.0000    0.0002    0.0021
      174 CR     7h2+      -0.0000    0.0000   -0.0000    0.0000   -0.0000    0.0002   -0.0002    0.0000    0.0004    0.0043
      175 CR     6h3+      -0.0000    0.0000    0.0000   -0.0000    0.0000    0.0001    0.0004   -0.0000    0.0003    0.0013
      176 CR     7h3+      -0.0000    0.0000   -0.0000    0.0000   -0.0000    0.0002    0.0006   -0.0000    0.0005    0.0034
      177 CR     6h4+      -0.0000    0.0000   -0.0000    0.0000    0.0000    0.0004    0.0001   -0.0000    0.0006    0.0057
      178 CR     7h4+      -0.0000    0.0000    0.0000   -0.0000   -0.0000    0.0006    0.0002   -0.0000    0.0010    0.0115
      179 CR     6h5+       0.0000   -0.0000    0.0000   -0.0000   -0.0000   -0.0001    0.0003   -0.0000   -0.0004   -0.0016
      180 CR     7h5+       0.0000   -0.0000    0.0000   -0.0000    0.0000   -0.0002    0.0005   -0.0000   -0.0006   -0.0042

          Orbital           11        12        13        14        15        16    
          Energy            5.7427    5.7436    5.7942    5.7944    5.9372    5.9777
          Occ. No.          0.0000    0.0000    0.0000    0.0000    0.0000    0.0000

        1 CR     1s         0.0000    0.0000    0.0000    0.0000   -0.0000    0.0000
        2 CR     2s         0.0000    0.0000   -0.0000    0.0000   -0.0002    0.0001
        3 CR     3s        -0.0001    0.0000   -0.0001    0.0000    0.0041   -0.0053
        4 CR     4s        -0.0015    0.0000   -0.0004    0.0000    0.3163   -0.2031
        5 CR     5s         0.0007   -0.0000    0.0002    0.0000   -0.1098    0.2178
        6 CR     6s         0.0003   -0.0000    0.0000   -0.0000    0.0679    0.2329
        7 CR     7s        -0.0002   -0.0000   -0.0001   -0.0000    0.2731    0.3446
        8 CR     8s        -0.0003   -0.0000   -0.0001   -0.0000    0.2837    0.3789
        9 CR     9s        -0.0001   -0.0000   -0.0000   -0.0000    0.0620    0.0908
       10 CR    10s        -0.0000   -0.0000   -0.0000   -0.0000    0.0061    0.0097
       11 CR     2px        0.0000   -0.0000    0.0000   -0.0000    0.0011   -0.0006
       12 CR     3px        0.0001   -0.0000    0.0002   -0.0000    0.1152   -0.0656
       13 CR     4px       -0.0017    0.0000   -0.0006    0.0000    0.1885   -0.2745
       14 CR     5px        0.0004    0.0000    0.0004    0.0000   -0.0865   -0.0767
       15 CR     6px        0.0006    0.0000    0.0002    0.0000   -0.3154   -0.2673
       16 CR     7px       -0.0001    0.0000   -0.0001    0.0000   -0.1301   -0.2869
       17 CR     8px       -0.0002    0.0000   -0.0000    0.0000   -0.0936   -0.2895
       18 CR     9px       -0.0001    0.0000    0.0001    0.0000   -0.0766   -0.1480
       19 CR    10px       -0.0000    0.0000    0.0000    0.0000   -0.0397   -0.0457
       20 CR    11px       -0.0000    0.0000    0.0000    0.0000   -0.0071   -0.0060
       21 CR     2py       -0.0000   -0.0011   -0.0000   -0.0004    0.0000    0.0000
       22 CR     3py       -0.0000   -0.0850   -0.0000   -0.0339   -0.0000   -0.0000
       23 CR     4py        0.0000    0.2363    0.0000    0.0699    0.0000   -0.0000
       24 CR     5py       -0.0000   -0.1229   -0.0000   -0.0419    0.0000   -0.0000
       25 CR     6py       -0.0000   -0.0585   -0.0000   -0.0138    0.0000   -0.0000
       26 CR     7py        0.0000    0.0485    0.0000    0.0140   -0.0000    0.0000
       27 CR     8py        0.0000    0.0323    0.0000    0.0057   -0.0000    0.0000
       28 CR     9py       -0.0000   -0.0056   -0.0000   -0.0031    0.0000   -0.0000
       29 CR    10py       -0.0000   -0.0087   -0.0000   -0.0022    0.0000   -0.0000
       30 CR    11py       -0.0000   -0.0018   -0.0000   -0.0004    0.0000   -0.0000
       31 CR     2pz       -0.0011    0.0000    0.0004   -0.0000   -0.0000    0.0000
       32 CR     3pz       -0.0853    0.0000    0.0327   -0.0000   -0.0001    0.0001
       33 CR     4pz        0.2380   -0.0000   -0.0674    0.0000   -0.0003    0.0001
       34 CR     5pz       -0.1237    0.0000    0.0404   -0.0000    0.0000    0.0001
       35 CR     6pz       -0.0591    0.0000    0.0133   -0.0000    0.0008    0.0009
       36 CR     7pz        0.0490   -0.0000   -0.0135    0.0000    0.0008    0.0014
       37 CR     8pz        0.0327   -0.0000   -0.0055    0.0000    0.0008    0.0019
       38 CR     9pz       -0.0057    0.0000    0.0030   -0.0000    0.0005    0.0012
       39 CR    10pz       -0.0088    0.0000    0.0022   -0.0000    0.0002    0.0005
       40 CR    11pz       -0.0018    0.0000    0.0004   -0.0000    0.0000    0.0001
       41 CR     3d2-       0.0000    0.8454    0.0000    0.3172    0.0000    0.0000
       42 CR     4d2-      -0.0000   -0.0588   -0.0000   -0.0581    0.0000   -0.0000
       43 CR     5d2-       0.0000    0.0036   -0.0000   -0.0019    0.0000   -0.0000
       44 CR     6d2-      -0.0000   -0.0375   -0.0000   -0.0057   -0.0000   -0.0000
       45 CR     7d2-      -0.0000   -0.0205   -0.0000   -0.0004   -0.0000    0.0000
       46 CR     8d2-       0.0000    0.0241    0.0000    0.0050   -0.0000    0.0000
       47 CR     9d2-       0.0000    0.0338    0.0000    0.0050    0.0000    0.0000
       48 CR    10d2-       0.0000    0.0100    0.0000    0.0014    0.0000   -0.0000
       49 CR     3d1-      -0.0000   -0.3248    0.0000    0.8925    0.0000    0.0000
       50 CR     4d1-       0.0000    0.0560   -0.0000   -0.2700   -0.0000   -0.0000
       51 CR     5d1-      -0.0000   -0.0013   -0.0000   -0.0056    0.0000   -0.0000
       52 CR     6d1-       0.0000    0.0084    0.0000    0.0118    0.0000   -0.0000
       53 CR     7d1-       0.0000    0.0091    0.0000    0.0140    0.0000   -0.0000
       54 CR     8d1-      -0.0000   -0.0007   -0.0000   -0.0009    0.0000   -0.0000
       55 CR     9d1-      -0.0000   -0.0076   -0.0000   -0.0026   -0.0000    0.0000
       56 CR    10d1-      -0.0000   -0.0028   -0.0000   -0.0003   -0.0000    0.0000
       57 CR     3d0        0.2731   -0.0000    0.7768   -0.0000    0.3060   -0.1658
       58 CR     4d0       -0.0460    0.0000   -0.2346    0.0000   -0.1787    0.0948
       59 CR     5d0        0.0011   -0.0000   -0.0049    0.0000   -0.0245   -0.0467
       60 CR     6d0       -0.0074    0.0000    0.0101   -0.0000   -0.0080   -0.0775
       61 CR     7d0       -0.0080    0.0000    0.0121   -0.0000   -0.0286   -0.1018
       62 CR     8d0        0.0006   -0.0000   -0.0007    0.0000   -0.0464   -0.0535
       63 CR     9d0        0.0066   -0.0000   -0.0021    0.0000   -0.0325   -0.0137
       64 CR    10d0        0.0024   -0.0000   -0.0002    0.0000   -0.0083   -0.0025
       65 CR     3d1+       0.8482   -0.0000   -0.3071    0.0000    0.0001   -0.0004
       66 CR     4d1+      -0.0573    0.0000    0.0566   -0.0000   -0.0006    0.0006
       67 CR     5d1+       0.0036   -0.0000    0.0019   -0.0000   -0.0003   -0.0001
       68 CR     6d1+      -0.0380    0.0000    0.0055   -0.0000   -0.0001   -0.0006
       69 CR     7d1+      -0.0208    0.0000    0.0003   -0.0000   -0.0002   -0.0010
       70 CR     8d1+       0.0245   -0.0000   -0.0048    0.0000   -0.0002   -0.0007
       71 CR     9d1+       0.0343   -0.0000   -0.0048    0.0000   -0.0002   -0.0002
       72 CR    10d1+       0.0102   -0.0000   -0.0013    0.0000   -0.0001   -0.0000
       73 CR     3d2+       0.1554   -0.0000    0.4470   -0.0000   -0.5309    0.2879
       74 CR     4d2+      -0.0266    0.0000   -0.1353    0.0000    0.3103   -0.1639
       75 CR     5d2+       0.0006   -0.0000   -0.0028    0.0000    0.0425    0.0818
       76 CR     6d2+      -0.0042    0.0000    0.0059   -0.0000    0.0137    0.1349
       77 CR     7d2+      -0.0045    0.0000    0.0070   -0.0000    0.0493    0.1764
       78 CR     8d2+       0.0003   -0.0000   -0.0005    0.0000    0.0803    0.0919
       79 CR     9d2+       0.0037   -0.0000   -0.0013    0.0000    0.0562    0.0231
       80 CR    10d2+       0.0014   -0.0000   -0.0001    0.0000    0.0144    0.0041
       81 CR     4f3-       0.0000    0.1802    0.0000    0.0540    0.0000    0.0000
       82 CR     5f3-       0.0000    0.1463    0.0000    0.0317    0.0000    0.0000
       83 CR     6f3-       0.0000    0.0239   -0.0000   -0.0025   -0.0000    0.0000
       84 CR     7f3-      -0.0000   -0.0398   -0.0000   -0.0104   -0.0000    0.0000
       85 CR     8f3-      -0.0000   -0.0358   -0.0000   -0.0053   -0.0000    0.0000
       86 CR     9f3-      -0.0000   -0.0242   -0.0000   -0.0013   -0.0000    0.0000
       87 CR     4f2-      -0.0000   -0.0696    0.0000    0.1039    0.0000    0.0000
       88 CR     5f2-      -0.0000   -0.0692    0.0000    0.0455   -0.0000   -0.0000
       89 CR     6f2-      -0.0000   -0.0236   -0.0000   -0.0134   -0.0000   -0.0000
       90 CR     7f2-       0.0000    0.0117   -0.0000   -0.0130    0.0000   -0.0000
       91 CR     8f2-       0.0000    0.0188   -0.0000   -0.0015    0.0000   -0.0000
       92 CR     9f2-       0.0000    0.0175    0.0000    0.0047    0.0000   -0.0000
       93 CR     4f1-      -0.0000   -0.0464   -0.0000   -0.0138   -0.0000   -0.0000
       94 CR     5f1-      -0.0000   -0.0375   -0.0000   -0.0081   -0.0000   -0.0000
       95 CR     6f1-      -0.0000   -0.0060    0.0000    0.0007    0.0000   -0.0000
       96 CR     7f1-       0.0000    0.0103    0.0000    0.0027    0.0000   -0.0000
       97 CR     8f1-       0.0000    0.0092    0.0000    0.0014    0.0000   -0.0000
       98 CR     9f1-       0.0000    0.0061    0.0000    0.0003    0.0000   -0.0000
       99 CR     4f0       -0.1149    0.0000    0.0331   -0.0000    0.0075   -0.0025
      100 CR     5f0       -0.0938    0.0000    0.0193   -0.0000    0.0142    0.0030
      101 CR     6f0       -0.0156    0.0000   -0.0016    0.0000    0.0133    0.0171
      102 CR     7f0        0.0254   -0.0000   -0.0063    0.0000    0.0096    0.0280
      103 CR     8f0        0.0230   -0.0000   -0.0032    0.0000    0.0071    0.0248
      104 CR     9f0        0.0156   -0.0000   -0.0008    0.0000    0.0071    0.0231
      105 CR     4f1+       0.0541   -0.0000    0.0828   -0.0000    0.0555   -0.0267
      106 CR     5f1+       0.0540   -0.0000    0.0366   -0.0000    0.0118   -0.0019
      107 CR     6f1+       0.0184   -0.0000   -0.0104    0.0000   -0.0090    0.0073
      108 CR     7f1+      -0.0092    0.0000   -0.0104    0.0000    0.0082    0.0013
      109 CR     8f1+      -0.0147    0.0000   -0.0014    0.0000    0.0147    0.0043
      110 CR     9f1+      -0.0136    0.0000    0.0036   -0.0000    0.0164    0.0078
      111 CR     4f2+       0.1483   -0.0000   -0.0426    0.0000    0.0056   -0.0018
      112 CR     5f2+       0.1207   -0.0000   -0.0249    0.0000    0.0108    0.0029
      113 CR     6f2+       0.0198   -0.0000    0.0021   -0.0000    0.0102    0.0139
      114 CR     7f2+      -0.0329    0.0000    0.0082   -0.0000    0.0076    0.0222
      115 CR     8f2+      -0.0296    0.0000    0.0041   -0.0000    0.0057    0.0194
      116 CR     9f2+      -0.0199    0.0000    0.0010   -0.0000    0.0057    0.0180
      117 CR     4f3+       0.0417   -0.0000    0.0638   -0.0000   -0.0714    0.0343
      118 CR     5f3+       0.0420   -0.0000    0.0281   -0.0000   -0.0148    0.0023
      119 CR     6f3+       0.0145   -0.0000   -0.0080    0.0000    0.0118   -0.0092
      120 CR     7f3+      -0.0071    0.0000   -0.0080    0.0000   -0.0107   -0.0012
      121 CR     8f3+      -0.0115    0.0000   -0.0010    0.0000   -0.0191   -0.0053
      122 CR     9f3+      -0.0107    0.0000    0.0028   -0.0000   -0.0212   -0.0099
      123 CR     5g4-       0.0000    0.0272    0.0000    0.0060    0.0000    0.0000
      124 CR     6g4-       0.0000    0.0542    0.0000    0.0104    0.0000    0.0000
      125 CR     7g4-       0.0000    0.0436    0.0000    0.0063    0.0000    0.0000
      126 CR     8g4-       0.0000    0.0203    0.0000    0.0010   -0.0000    0.0000
      127 CR     5g3-      -0.0000   -0.0176    0.0000    0.0058   -0.0000   -0.0000
      128 CR     6g3-      -0.0000   -0.0385    0.0000    0.0086   -0.0000   -0.0000
      129 CR     7g3-      -0.0000   -0.0361    0.0000    0.0029   -0.0000    0.0000
      130 CR     8g3-      -0.0000   -0.0220   -0.0000   -0.0023   -0.0000    0.0000
      131 CR     5g2-      -0.0000   -0.0101   -0.0000   -0.0023   -0.0000   -0.0000
      132 CR     6g2-      -0.0000   -0.0202   -0.0000   -0.0039   -0.0000   -0.0000
      133 CR     7g2-      -0.0000   -0.0162   -0.0000   -0.0024   -0.0000   -0.0000
      134 CR     8g2-      -0.0000   -0.0075   -0.0000   -0.0004   -0.0000   -0.0000
      135 CR     5g1-       0.0000    0.0090   -0.0000   -0.0017    0.0000    0.0000
      136 CR     6g1-       0.0000    0.0192   -0.0000   -0.0025    0.0000    0.0000
      137 CR     7g1-       0.0000    0.0175   -0.0000   -0.0007    0.0000    0.0000
      138 CR     8g1-       0.0000    0.0103    0.0000    0.0009    0.0000    0.0000
      139 CR     5g0       -0.0092    0.0000   -0.0038    0.0000   -0.0030    0.0015
      140 CR     6g0       -0.0204    0.0000   -0.0057    0.0000   -0.0060    0.0032
      141 CR     7g0       -0.0193    0.0000   -0.0021    0.0000   -0.0047    0.0026
      142 CR     8g0       -0.0120    0.0000    0.0013   -0.0000   -0.0023    0.0013
      143 CR     5g1+      -0.0222    0.0000    0.0046   -0.0000    0.0052   -0.0038
      144 CR     6g1+      -0.0443    0.0000    0.0080   -0.0000    0.0119   -0.0084
      145 CR     7g1+      -0.0357    0.0000    0.0048   -0.0000    0.0115   -0.0077
      146 CR     8g1+      -0.0167    0.0000    0.0007   -0.0000    0.0073   -0.0044
      147 CR     5g2+       0.0112   -0.0000    0.0029   -0.0000    0.0043   -0.0021
      148 CR     6g2+       0.0240   -0.0000    0.0043   -0.0000    0.0087   -0.0045
      149 CR     7g2+       0.0221   -0.0000    0.0014   -0.0000    0.0068   -0.0036
      150 CR     8g2+       0.0131   -0.0000   -0.0011    0.0000    0.0033   -0.0018
      151 CR     5g3+       0.0195   -0.0000   -0.0041    0.0000    0.0060   -0.0043
      152 CR     6g3+       0.0389   -0.0000   -0.0071    0.0000    0.0136   -0.0095
      153 CR     7g3+       0.0312   -0.0000   -0.0043    0.0000    0.0130   -0.0086
      154 CR     8g3+       0.0145   -0.0000   -0.0006    0.0000    0.0081   -0.0048
      155 CR     5g4+       0.0133   -0.0000    0.0040   -0.0000   -0.0056    0.0027
      156 CR     6g4+       0.0288   -0.0000    0.0060   -0.0000   -0.0112    0.0057
      157 CR     7g4+       0.0269   -0.0000    0.0021   -0.0000   -0.0087    0.0047
      158 CR     8g4+       0.0163   -0.0000   -0.0015    0.0000   -0.0043    0.0023
      159 CR     6h5-       0.0000    0.0048    0.0000    0.0015    0.0000    0.0000
      160 CR     7h5-       0.0000    0.0083    0.0000    0.0023    0.0000    0.0000
      161 CR     6h4-      -0.0000   -0.0045    0.0000    0.0011   -0.0000   -0.0000
      162 CR     7h4-      -0.0000   -0.0087    0.0000    0.0013   -0.0000   -0.0000
      163 CR     6h3-      -0.0000   -0.0021   -0.0000   -0.0007    0.0000    0.0000
      164 CR     7h3-      -0.0000   -0.0037   -0.0000   -0.0011   -0.0000   -0.0000
      165 CR     6h2-       0.0000    0.0048   -0.0000   -0.0001    0.0000    0.0000
      166 CR     7h2-       0.0000    0.0093    0.0000    0.0002    0.0000    0.0000
      167 CR     6h1-       0.0000    0.0005    0.0000    0.0001    0.0000    0.0000
      168 CR     7h1-       0.0000    0.0008    0.0000    0.0001    0.0000    0.0000
      169 CR     6h0        0.0027   -0.0000   -0.0008    0.0000   -0.0022    0.0016
      170 CR     7h0        0.0048   -0.0000   -0.0013    0.0000   -0.0044    0.0033
      171 CR     6h1+      -0.0031    0.0000   -0.0009    0.0000   -0.0019    0.0013
      172 CR     7h1+      -0.0059    0.0000   -0.0012    0.0000   -0.0033    0.0023
      173 CR     6h2+      -0.0035    0.0000    0.0010   -0.0000    0.0013   -0.0010
      174 CR     7h2+      -0.0060    0.0000    0.0015   -0.0000    0.0026   -0.0019
      175 CR     6h3+       0.0035   -0.0000   -0.0000    0.0000    0.0020   -0.0014
      176 CR     7h3+       0.0067   -0.0000   -0.0003    0.0000    0.0035   -0.0024
      177 CR     6h4+       0.0031   -0.0000   -0.0009    0.0000    0.0034   -0.0025
      178 CR     7h4+       0.0054   -0.0000   -0.0015    0.0000    0.0068   -0.0050
      179 CR     6h5+       0.0048   -0.0000    0.0006   -0.0000   -0.0027    0.0018
      180 CR     7h5+       0.0092   -0.0000    0.0006   -0.0000   -0.0046    0.0032
--


++    Molecular charges:
      ------------------

      Mulliken charges per centre and basis function type
      ---------------------------------------------------

                CR    
      1s       2.0000
      2s       2.0000
      2px      2.0000
      2pz      2.0000
      2py      2.0000
      3s       1.9778
      3px      1.9068
      3pz      1.9343
      3py      1.9343
      4s       0.0082
      3d2+     0.0426
      3d1+     0.0341
      3d0      0.0142
      3d1-     0.0000
      3d2-     0.0341
      4px      0.0103
      4pz      0.0132
      4py      0.0132
      5s       0.0178
      4d2+     0.0019
      4d1+     0.0015
      4d0      0.0006
      4d1-     0.0000
      4d2-     0.0015
      5px      0.0150
      5pz      0.0157
      5py      0.0157
      6s       0.0028
      4f3+     0.0001
      4f2+     0.0001
      4f1+     0.0000
      4f0      0.0000
      4f1-     0.0000
      4f2-     0.0000
      4f3-     0.0001
      5d2+     0.0007
      5d1+     0.0006
      5d0      0.0002
      5d1-     0.0000
      5d2-     0.0006
      6px      0.0002
      6pz      0.0000
      6py      0.0000
      7s       0.0003
      5f3+     0.0000
      5f2+     0.0000
      5f1+     0.0000
      5f0      0.0000
      5f1-     0.0000
      5f2-     0.0000
      5f3-     0.0000
      6d2+     0.0001
      6d1+     0.0001
      6d0      0.0000
      6d1-     0.0000
      6d2-     0.0001
      7px      0.0001
      7pz      0.0003
      7py      0.0003
      5g4+     0.0000
      5g3+     0.0000
      5g2+     0.0000
      5g1+     0.0000
      5g0      0.0000
      5g1-     0.0000
      5g2-     0.0000
      5g3-     0.0000
      5g4-     0.0000
      6f3+     0.0000
      6f2+     0.0000
      6f1+     0.0000
      6f0      0.0000
      6f1-     0.0000
      6f2-     0.0000
      6f3-     0.0000
      6g4+     0.0000
      6g3+     0.0000
      6g2+     0.0000
      6g1+     0.0000
      6g0      0.0000
      6g1-     0.0000
      6g2-     0.0000
      6g3-     0.0000
      6g4-     0.0000
      6h5+     0.0000
      6h4+     0.0000
      6h3+     0.0000
      6h2+     0.0000
      6h1+     0.0000
      6h0      0.0000
      6h1-     0.0000
      6h2-     0.0000
      6h3-     0.0000
      6h4-     0.0000
      6h5-     0.0000
      7d2+     0.0000
      7d1+     0.0000
      7d0      0.0000
      7d1-     0.0000
      7d2-     0.0000
      7f3+     0.0000
      7f2+     0.0000
      7f1+     0.0000
      7f0      0.0000
      7f1-     0.0000
      7f2-     0.0000
      7f3-     0.0000
      7g4+     0.0000
      7g3+     0.0000
      7g2+     0.0000
      7g1+     0.0000
      7g0      0.0000
      7g1-     0.0000
      7g2-     0.0000
      7g3-     0.0000
      7g4-     0.0000
      7h5+     0.0000
      7h4+     0.0000
      7h3+     0.0000
      7h2+     0.0000
      7h1+     0.0000
      7h0      0.0000
      7h1-     0.0000
      7h2-     0.0000
      7h3-     0.0000
      7h4-     0.0000
      7h5-     0.0000
      8s       0.0001
      8px      0.0000
      8pz      0.0000
      8py      0.0000
      8d2+     0.0000
      8d1+     0.0000
      8d0      0.0000
      8d1-     0.0000
      8d2-     0.0000
      8f3+     0.0000
      8f2+     0.0000
      8f1+     0.0000
      8f0      0.0000
      8f1-     0.0000
      8f2-     0.0000
      8f3-     0.0000
      8g4+     0.0000
      8g3+     0.0000
      8g2+     0.0000
      8g1+     0.0000
      8g0      0.0000
      8g1-     0.0000
      8g2-     0.0000
      8g3-     0.0000
      8g4-     0.0000
      9s       0.0000
      9px      0.0000
      9pz      0.0000
      9py      0.0000
      9d2+     0.0000
      9d1+     0.0000
      9d0      0.0000
      9d1-     0.0000
      9d2-     0.0000
      9f3+     0.0000
      9f2+     0.0000
      9f1+     0.0000
      9f0      0.0000
      9f1-     0.0000
      9f2-     0.0000
      9f3-     0.0000
     10s       0.0000
     10px      0.0000
     10pz      0.0000
     10py      0.0000
     10d2+     0.0000
     10d1+     0.0000
     10d0      0.0000
     10d1-     0.0000
     10d2-     0.0000
     11px      0.0000
     11pz      0.0000
     11py      0.0000
      Total   18.0000

      N-E      6.0000

      Total electronic charge=   18.000000

      Total            charge=    6.000000
--

 Sorry, Molden does not know how to handle
 functions with angular momentum larger than g

++    Static properties:
      ------------------


      LoProp Charges per center


                   CR    
      Nuclear     24.0000
      Electronic -18.0000

      Total        6.0000
--


++    Molecular properties:
      ---------------------

      Charge (e):
                      =    6.0000
      Dipole Moment (Debye):
      Origin of the operator (Ang)=    0.0000    0.0000    0.0000
                   X= -2.2021E+00               Y= -4.4706E-14               Z=  1.3166E-01           Total=  2.2060E+00
      Center of Charge (Ang)
                     X=   -0.07641061               Y=   -0.00000000               Z=    0.00456832
      Quadrupole Moment (Debye*Ang):
      Origin of the operator (Ang)=   -0.0000   -0.0000    0.0046
                  XX= -3.6033E+00              XY= -9.7591E-15              XZ=  8.6557E-05              YY= -3.5056E+00
                  YZ=  6.5216E-15              ZZ= -3.5057E+00
      In traceless form (Debye*Ang)
                  XX= -9.7693E-02              XY= -1.4639E-14              XZ=  1.2984E-04              YY=  4.8949E-02
                  YZ=  9.7824E-15              ZZ=  4.8743E-02
--

 Sorry, Molden does not know how to handle
 functions with angular momentum larger than g
 ###############################################################################
 ###############################################################################
 ###                                                                         ###
 ###                                                                         ###
 ###    WARNING: RunFile label nBas                                          ###
 ###    was used       62 times                                              ###
 ###                                                                         ###
 ###                                                                         ###
 ###############################################################################
 ###############################################################################
Note: The following floating-point exceptions are signalling: IEEE_UNDERFLOW_FLAG IEEE_DENORMAL
--- Stop Module: scf at Mon Mar 31 12:24:38 2025 /rc=_RC_ALL_IS_WELL_ ---
*** files: chromium_so_cf.LprOrb chromium_so_cf.ScfOrb xmldump
    saved to directory /home4/s4752295/Internship/Initial_simulations/Point_charge_model/1_electron/Madelung_charges_9_active_space/Cr/fixed_calculations
--- Module scf spent 8 seconds ---

*** symbolic link created: INPORB -> chromium_so_cf.ScfOrb
--- Start Module: rasscf at Mon Mar 31 12:24:38 2025 ---

()()()()()()()()()()()()()()()()()()()()()()()()()()()()()()()()()()()()()()()()()()()()()()()()()()

                                              &RASSCF

                                   only a single process is used
                       available to each process: 4.1 GB of memory, 1 thread?
                                            pid: 224493
()()()()()()()()()()()()()()()()()()()()()()()()()()()()()()()()()()()()()()()()()()()()()()()()()()


      Header of the ONEINT file:
      --------------------------
      
      Integrals generated by seward 4.2.0  , Mon Mar 31 12:24:22 2025


      OrdInt status: non-squared


      Cartesian coordinates in Angstrom:
      -----------------------------------------------------
      No.  Label        X            Y            Z        
      -----------------------------------------------------
       1   CR        -0.00000000  -0.00000000   0.00463220
      -----------------------------------------------------
      Nuclear repulsion energy = -219.57520635

++    Wave function specifications:
      -----------------------------

      Number of closed shell electrons          18
      Number of electrons in active shells       1
      Max number of holes in RAS1 space          0
      Max nr of electrons in RAS3 space          0
      Number of inactive orbitals                9
      Number of active orbitals                  9
      Number of secondary orbitals             162
      Spin quantum number                      0.5
      State symmetry                             1
--

++    Orbital specifications:
      -----------------------

      Symmetry species                           1
                                                 a
      Frozen orbitals                            0
      Inactive orbitals                          9
      Active orbitals                            9
      RAS1 orbitals                              0
      RAS2 orbitals                              9
      RAS3 orbitals                              0
      Secondary orbitals                       162
      Deleted orbitals                           0
      Number of basis functions                180
--

++    CI expansion specifications:
      ----------------------------

      Number of CSFs                             9
      Number of determinants                     9
      Number of root(s) required                 9
      Root chosen for geometry opt.              9
      CI roots used                              1     2     3     4     5     6     7     8     9
      weights                                0.111 0.111 0.111 0.111 0.111 0.111 0.111 0.111 0.111
      highest root included in the CI            9
      max. size of the explicit Hamiltonian      9
--

++    Optimization specifications:
      ----------------------------

      RASSCF algorithm: Conventional
      Maximum number of macro iterations       200
      Maximum number of SX iterations          100
      Threshold for RASSCF energy            0.100E-07
      Threshold for max MO rotation          0.100E+00
      Threshold for max BLB element          0.100E-03
      Level shift parameter                  0.500E+00
      Make Quasi-Newton update
--

      The MO-coefficients are taken from the file:
      INPORB                                                                                                                          
      Title: SCF orbitals                                                                  

      Total molecular charge    5.00

      ************************************************************************************************************************
      *                                                                                                                      *
      *                                            Wave function control section                                             *
      *                                                                                                                      *
[...]
         5   17       2.04186420E-01  1.38829344E+09  3.20634344E-12  1.30756466E+08  1.51904990E+09
         6    8       1.04768355E-05  4.08825350E-15  5.41785410E+02  1.40885940E-16  5.41785410E+02
         6   10       1.78736088E-04  8.87329742E+03  1.80704247E-16  4.78156582E+02  9.35145400E+03
         6   12       1.07125093E-02  8.50429099E-17  1.36625989E+07  4.24279102E-14  1.36625989E+07
         6   14       3.43215944E-03  1.32779019E-15  7.72931477E+06  2.73514217E-14  7.72931477E+06
         6   16       1.72216872E-02  2.58734865E-12  1.27170593E+08  3.09727615E-12  1.27170593E+08
         6   18       2.04186420E-01  1.38829344E+09  3.20634344E-12  1.30756466E+08  1.51904990E+09
         7   11       7.10274541E-04  5.98066901E+00  2.47000279E-13  5.77781709E+05  5.77787690E+05
         7   13       2.73697958E-04  3.19180864E+02  1.84057474E-13  4.43405275E+05  4.43724456E+05
         7   15       7.75520070E-03  4.16004603E+07  1.56065574E-12  6.48286126E+06  4.80833215E+07
         7   17       1.07210179E-03  2.44241168E-11  6.70141318E+06  1.57170649E-12  6.70141318E+06
         8   12       7.10274541E-04  5.98066901E+00  2.47000279E-13  5.77781709E+05  5.77787690E+05
         8   14       2.73697958E-04  3.19180864E+02  1.84057474E-13  4.43405275E+05  4.43724456E+05
         8   16       7.75520070E-03  4.16004603E+07  1.56065574E-12  6.48286126E+06  4.80833215E+07
         8   18       1.07210179E-03  2.44241168E-11  6.70141318E+06  1.57170649E-12  6.70141318E+06
         9   11       7.63198065E-04  5.78847242E-17  6.19008164E+05  2.28109859E-13  6.19008164E+05
         9   13       2.93723323E-04  6.92566541E-15  4.75194796E+05  1.74158991E-13  4.75194796E+05
         9   15       9.71385354E-04  2.26580626E-11  6.01628625E+06  1.63798748E-12  6.01628625E+06
         9   17       8.36764478E-03  4.61941879E+07  1.87330433E-12  6.05397391E+06  5.22481618E+07
        10   12       7.63198065E-04  5.78847242E-17  6.19008164E+05  2.28109859E-13  6.19008164E+05
        10   14       2.93723323E-04  6.92566541E-15  4.75194796E+05  1.74158991E-13  4.75194796E+05
        10   16       9.71385354E-04  2.26580626E-11  6.01628625E+06  1.63798748E-12  6.01628625E+06
        10   18       8.36764478E-03  4.61941879E+07  1.87330433E-12  6.05397391E+06  5.22481618E+07
        11   13       2.22692015E-01  3.07081431E+07  3.07812799E-18  4.30872908E+02  3.07085739E+07
        11   15       6.92828191E-02  2.76605931E+01  1.77470449E-12  1.74731457E+08  1.74731485E+08
        11   17       7.04610237E-02  9.19196220E-15  1.79978808E+08  1.77246342E-12  1.79978808E+08
        12   14       2.22692015E-01  3.07081431E+07  3.07812799E-18  4.30872908E+02  3.07085739E+07
        12   16       6.92828191E-02  2.76605931E+01  1.77470449E-12  1.74731457E+08  1.74731485E+08
        12   18       7.04610237E-02  9.19196220E-15  1.79978808E+08  1.77246342E-12  1.79978808E+08
        13   15       7.31432352E-05  5.99954156E+03  2.31335914E-16  1.02285219E+05  1.08284761E+05
        13   17       3.52874911E-05  2.60870864E-14  5.31154116E+04  1.07392695E-15  5.31154116E+04
        14   16       7.31432352E-05  5.99954156E+03  2.31335914E-16  1.02285219E+05  1.08284761E+05
        14   18       3.52874911E-05  2.60870864E-14  5.31154116E+04  1.07392695E-15  5.31154116E+04
        15   17       2.06424646E-04  1.09412720E-23  2.12124996E+01  8.39681764E-19  2.12124996E+01
        16   18       2.06424646E-04  1.09412720E-23  2.12124996E+01  8.39681764E-19  2.12124996E+01
     -----------------------------------------------------------------------------------------------
--

++ Velocity transition strengths (SO states):
   ------------------------------------------
    for osc. strength at least    1.0000000000000001E-005

      From   To        Osc. strength     Einstein coefficients Ax, Ay, Az (sec-1)    Total A (sec-1)
     -----------------------------------------------------------------------------------------------
         1    3       3.38542601E-02  4.83953425E+00  2.33944738E-14  7.44455165E+06  7.44455649E+06
         1    5       3.28857345E-02  1.07747099E-18  7.36695831E+06  2.37518159E-14  7.36695831E+06
         1    7       1.81329854E-03  7.88888679E+01  3.81442202E-13  8.90237744E+05  8.90316633E+05
         1    9       1.97473873E-03  2.23269636E-16  9.73270062E+05  3.61697934E-13  9.73270062E+05
         1   11       9.56812309E-02  2.45751872E+08  8.22616855E-16  2.58936402E+01  2.45751898E+08
         1   13       9.26455803E-03  3.60998317E+07  1.81445719E-15  4.98294775E+02  3.61003300E+07
         1   15       1.94624860E-01  6.03841392E+04  1.96643434E-11  1.98135698E+09  1.98141737E+09
         1   17       1.92643983E-01  5.04967351E-16  1.97373252E+09  1.98712578E-11  1.97373252E+09
         2    4       3.38542601E-02  4.83953425E+00  2.33944738E-14  7.44455165E+06  7.44455649E+06
         2    6       3.28857345E-02  1.07747099E-18  7.36695831E+06  2.37518159E-14  7.36695831E+06
         2    8       1.81329854E-03  7.88888679E+01  3.81442202E-13  8.90237744E+05  8.90316633E+05
         2   10       1.97473873E-03  2.23269636E-16  9.73270062E+05  3.61697934E-13  9.73270062E+05
         2   12       9.56812309E-02  2.45751872E+08  8.22616855E-16  2.58936402E+01  2.45751898E+08
         2   14       9.26455803E-03  3.60998317E+07  1.81445719E-15  4.98294775E+02  3.61003300E+07
         2   16       1.94624860E-01  6.03841392E+04  1.96643434E-11  1.98135698E+09  1.98141737E+09
         2   18       1.92643983E-01  5.04967351E-16  1.97373252E+09  1.98712578E-11  1.97373252E+09
         3    5       8.58979291E-05  4.61347968E-19  1.63967912E+00  4.81763674E-20  1.63967912E+00
         3    7       1.00283552E-03  2.64905247E+03  1.53924301E-14  5.12223234E+04  5.38713759E+04
         3    9       9.07091303E-04  1.65742071E-15  4.92894282E+04  1.55956647E-14  4.92894282E+04
         3   11       4.89635925E-03  1.63141507E+03  2.03091779E-14  6.29155690E+06  6.29318831E+06
         3   13       1.92408621E-04  1.22315263E+03  7.01798983E-16  4.34614458E+05  4.35837610E+05
         3   15       1.79775508E-01  1.22160624E+09  2.90819308E-12  1.10191974E+08  1.33179822E+09
         3   17       1.62348851E-02  2.43055524E-12  1.21167495E+08  2.75507664E-12  1.21167495E+08
         4    6       8.58979291E-05  4.61347968E-19  1.63967912E+00  4.81763674E-20  1.63967912E+00
         4    8       1.00283552E-03  2.64905247E+03  1.53924301E-14  5.12223234E+04  5.38713759E+04
         4   10       9.07091303E-04  1.65742071E-15  4.92894282E+04  1.55956647E-14  4.92894282E+04
         4   12       4.89635925E-03  1.63141507E+03  2.03091779E-14  6.29155690E+06  6.29318831E+06
         4   14       1.92408621E-04  1.22315263E+03  7.01798983E-16  4.34614458E+05  4.35837610E+05
         4   16       1.79775508E-01  1.22160624E+09  2.90819308E-12  1.10191974E+08  1.33179822E+09
         4   18       1.62348851E-02  2.43055524E-12  1.21167495E+08  2.75507664E-12  1.21167495E+08
         5    7       9.42562770E-04  1.27436847E-15  4.87426317E+04  1.53949490E-14  4.87426317E+04
         5    9       9.91961543E-04  2.86129467E+03  1.51443707E-14  4.90382132E+04  5.18995079E+04
         5   11       4.80057925E-03  1.73183812E-16  6.12261935E+06  1.83384602E-14  6.12261935E+06
         5   13       1.92119281E-04  1.19645806E-15  4.32659260E+05  2.15572466E-15  4.32659260E+05
         5   15       1.56361426E-02  2.33522535E-12  1.15462813E+08  2.79432227E-12  1.15462813E+08
         5   17       1.78675340E-01  1.21053655E+09  2.87886326E-12  1.18727669E+08  1.32926422E+09
         6    8       9.42562770E-04  1.27436847E-15  4.87426317E+04  1.53949490E-14  4.87426317E+04
         6   10       9.91961543E-04  2.86129467E+03  1.51443707E-14  4.90382132E+04  5.18995079E+04
         6   12       4.80057925E-03  1.73183812E-16  6.12261935E+06  1.83384602E-14  6.12261935E+06
         6   14       1.92119281E-04  1.19645806E-15  4.32659260E+05  2.15572466E-15  4.32659260E+05
         6   16       1.56361426E-02  2.33522535E-12  1.15462813E+08  2.79432227E-12  1.15462813E+08
         6   18       1.78675340E-01  1.21053655E+09  2.87886326E-12  1.18727669E+08  1.32926422E+09
         7    9       1.29677246E-05  3.63036809E-20  2.29792900E-02  2.12836059E-23  2.29792900E-02
         7   11       5.77974258E-04  2.75709427E+01  2.00801684E-13  4.70139320E+05  4.70166891E+05
         7   13       3.00847887E-05  4.97638617E+00  2.00476478E-14  4.87692381E+04  4.87742145E+04
         7   15       7.31068202E-03  3.89046245E+07  1.56417115E-12  6.42277704E+06  4.53274016E+07
         7   17       1.06155712E-03  2.29273464E-11  6.63552443E+06  1.56308792E-12  6.63552443E+06
         8   10       1.29677246E-05  3.63036809E-20  2.29792900E-02  2.12836059E-23  2.29792900E-02
         8   12       5.77974258E-04  2.75709427E+01  2.00801684E-13  4.70139320E+05  4.70166891E+05
         8   14       3.00847887E-05  4.97638617E+00  2.00476478E-14  4.87692381E+04  4.87742145E+04
         8   16       7.31068202E-03  3.89046245E+07  1.56417115E-12  6.42277704E+06  4.53274016E+07
         8   18       1.06155712E-03  2.29273464E-11  6.63552443E+06  1.56308792E-12  6.63552443E+06
         9   11       6.13474797E-04  1.56312263E-17  4.97573626E+05  1.83391265E-13  4.97573626E+05
         9   13       3.16334024E-05  2.71139234E-17  5.11776875E+04  1.93532206E-14  5.11776875E+04
         9   15       9.66508545E-04  2.11573211E-11  5.98610249E+06  1.67677099E-12  5.98610249E+06
         9   17       7.86417309E-03  4.31128237E+07  1.88440823E-12  5.99179616E+06  4.91046199E+07
        10   12       6.13474797E-04  1.56312263E-17  4.97573626E+05  1.83391265E-13  4.97573626E+05
        10   14       3.16334024E-05  2.71139234E-17  5.11776875E+04  1.93532206E-14  5.11776875E+04
        10   16       9.66508545E-04  2.11573211E-11  5.98610249E+06  1.67677099E-12  5.98610249E+06
        10   18       7.86417309E-03  4.31128237E+07  1.88440823E-12  5.99179616E+06  4.91046199E+07
        11   13       1.17339389E-03  1.61799364E+05  1.10611995E-16  8.76517548E+00  1.61808129E+05
        11   15       8.59358435E-02  6.62150595E+02  2.16418405E-12  2.16730555E+08  2.16731217E+08
        11   17       8.61779164E-02  2.11031556E-18  2.20125280E+08  2.16869000E-12  2.20125280E+08
        12   14       1.17339389E-03  1.61799364E+05  1.10611995E-16  8.76517548E+00  1.61808129E+05
        12   16       8.59358435E-02  6.62150595E+02  2.16418405E-12  2.16730555E+08  2.16731217E+08
        12   18       8.61779164E-02  2.11031556E-18  2.20125280E+08  2.16869000E-12  2.20125280E+08
        13   15       2.07014214E-02  9.89611717E+01  3.05669384E-13  3.06473869E+07  3.06474859E+07
        13   17       2.05847907E-02  7.95729900E-18  3.09847314E+07  3.06649180E-13  3.09847314E+07
        14   16       2.07014214E-02  9.89611717E+01  3.05669384E-13  3.06473869E+07  3.06474859E+07
        14   18       2.05847907E-02  7.95729900E-18  3.09847314E+07  3.06649180E-13  3.09847314E+07
        15   17       4.02230923E-04  3.34090020E-19  4.13339838E+01  2.04444773E-19  4.13339838E+01
        16   18       4.02230923E-04  3.34090020E-19  4.13339838E+01  2.04444773E-19  4.13339838E+01
     -----------------------------------------------------------------------------------------------
--

++ Length and velocity gauge comparison (SO states):

 --------------------------------------------------
 A comparison between the dipole oscillator strengths in 
 length and velocity gauge will be performed

 All dipole oscillator differences above the tolerance of   0.10000000000000001       will be printed 

 Due to basis set deficiency these oscillator may be problematic 

 The tolerance is defined as ABS(1-O_l/O_v) 
 O_l : dipole oscillator strength in length gauge
 O_p : dipole oscillator strength in velocity gauge
 --------------------------------------------------

  Problematic transitions have been found

      From   To       Difference (%) Osc. st. (len.) Osc. st. (vel.)
     ---------------------------------------------------------------
         1    3            81.975842  6.10194516E-03  3.38542601E-02
         1    5            81.882248  5.95815582E-03  3.28857345E-02
         1    7            66.796971  6.02070043E-04  1.81329854E-03
         1    9            67.084978  6.49985679E-04  1.97473873E-03
         1   11            26.698964  7.01353331E-02  9.56812309E-02
         1   13          1799.971087  1.76023924E-01  9.26455803E-03
         1   15            11.258622  1.72712782E-01  1.94624860E-01
         1   17            11.032508  1.71390520E-01  1.92643983E-01
         2    4            81.975842  6.10194516E-03  3.38542601E-02
         2    6            81.882248  5.95815582E-03  3.28857345E-02
         2    8            66.796971  6.02070043E-04  1.81329854E-03
         2   10            67.084978  6.49985679E-04  1.97473873E-03
         2   12            26.698964  7.01353331E-02  9.56812309E-02
         2   14          1799.971087  1.76023924E-01  9.26455803E-03
         2   16            11.258622  1.72712782E-01  1.94624860E-01
         2   18            11.032508  1.71390520E-01  1.92643983E-01
         3    5      --------------- below threshold  8.58979291E-05
         3    7            82.886608  1.71619173E-04  1.00283552E-03
         3    9      --------------- below threshold  9.07091303E-04
         3   11           123.973742  1.09665590E-02  4.89635925E-03
         3   13          1727.352890  3.51598449E-03  1.92408621E-04
         3   15            14.404656  2.05671551E-01  1.79775508E-01
         4    6      --------------- below threshold  8.58979291E-05
         4    8            82.886608  1.71619173E-04  1.00283552E-03
         4   10      --------------- below threshold  9.07091303E-04
         4   12           123.973742  1.09665590E-02  4.89635925E-03
         4   14          1727.352890  3.51598449E-03  1.92408621E-04
         4   16            14.404656  2.05671551E-01  1.79775508E-01
         5    7            98.888473  1.04768355E-05  9.42562770E-04
         5    9            81.981551  1.78736088E-04  9.91961543E-04
         5   11           123.150348  1.07125093E-02  4.80057925E-03
         5   13          1686.473183  3.43215944E-03  1.92119281E-04
         5   15            10.140254  1.72216872E-02  1.56361426E-02
         5   17            14.277896  2.04186420E-01  1.78675340E-01
         6    8            98.888473  1.04768355E-05  9.42562770E-04
         6   10            81.981551  1.78736088E-04  9.91961543E-04
         6   12           123.150348  1.07125093E-02  4.80057925E-03
         6   14          1686.473183  3.43215944E-03  1.92119281E-04
         6   16            10.140254  1.72216872E-02  1.56361426E-02
         6   18            14.277896  2.04186420E-01  1.78675340E-01
         7    9      --------------- below threshold  1.29677246E-05
         7   11            22.890342  7.10274541E-04  5.77974258E-04
         7   13           809.755295  2.73697958E-04  3.00847887E-05
         8   10      --------------- below threshold  1.29677246E-05
         8   12            22.890342  7.10274541E-04  5.77974258E-04
         8   14           809.755295  2.73697958E-04  3.00847887E-05
         9   11            24.405773  7.63198065E-04  6.13474797E-04
         9   13           828.522705  2.93723323E-04  3.16334024E-05
        10   12            24.405773  7.63198065E-04  6.13474797E-04
        10   14           828.522705  2.93723323E-04  3.16334024E-05
        11   13         18878.453605  2.22692015E-01  1.17339389E-03
        11   15            19.378438  6.92828191E-02  8.59358435E-02
        11   17            18.237726  7.04610237E-02  8.61779164E-02
        12   14         18878.453605  2.22692015E-01  1.17339389E-03
        12   16            19.378438  6.92828191E-02  8.59358435E-02
        12   18            18.237726  7.04610237E-02  8.61779164E-02
        13   15            99.646675  7.31432352E-05  2.07014214E-02
        13   17            99.828575  3.52874911E-05  2.05847907E-02
        14   16            99.646675  7.31432352E-05  2.07014214E-02
        14   18            99.828575  3.52874911E-05  2.05847907E-02
        15   17            48.680066  2.06424646E-04  4.02230923E-04
        16   18            48.680066  2.06424646E-04  4.02230923E-04
     ---------------------------------------------------------------

 Number of problematic transitions =                    62

--

 Electric-dipole - electric-octupole not included
++ I/O STATISTICS
 
  I. General I/O information
  - - - - - - - - - - - - - - - - - - - - - - - - - - - - - - - - - - - - - - - - - - -
  Unit  Name          Flsize      Write/Read            MBytes           Write/Read
                      (MBytes)       Calls              In/Out           Time, sec.
  - - - - - - - - - - - - - - - - - - - - - - - - - - - - - - - - - - - - - - - - - - -
   1  SCRATCH           0.00 .       9/      45 .      0.0/      0.0 .       0/       0
   2  ANNI              0.00 .       0/       0 .      0.0/      0.0 .       0/       0
   3  RUNFILE          14.88 .     322/   10733 .      2.3/     77.8 .       0/       0
   4  ONEINT            5.58 .       0/   23543 .      0.0/   3739.9 .       0/       0
   5  JOBIPH            6.48 .       0/      92 .      0.0/      0.8 .       0/       0
   6  ORDINT          506.53 .       1/    4053 .      0.0/   1013.0 .       0/       0
  - - - - - - - - - - - - - - - - - - - - - - - - - - - - - - - - - - - - - - - - - - -
   *  TOTAL           533.47 .     332/   38466 .      2.3/   4831.6 .       0/       0
  - - - - - - - - - - - - - - - - - - - - - - - - - - - - - - - - - - - - - - - - - - -
 
  II. I/O Access Patterns
  - - - - - - - - - - - - - - - - - - - -
  Unit  Name               % of random
                         Write/Read calls
  - - - - - - - - - - - - - - - - - - - -
   1  SCRATCH             88.9/ 100.0
   2  ANNI                 0.0/   0.0
   3  RUNFILE             28.6/  10.8
   4  ONEINT               0.0/  16.4
   5  JOBIPH               0.0/  76.1
   6  ORDINT             100.0/   0.0
  - - - - - - - - - - - - - - - - - - - -
--
--- Stop Module: rassi at Mon Mar 31 12:25:15 2025 /rc=_RC_ALL_IS_WELL_ ---
*** files: xmldump
    saved to directory /home4/s4752295/Internship/Initial_simulations/Point_charge_model/1_electron/Madelung_charges_9_active_space/Cr/fixed_calculations
--- Module rassi spent 3 seconds ---

.##################.
.# Happy landing! #.
.##################.

    Timing: Wall=52.58 User=41.85 System=7.96

###############################################################################
Hbrk Cluster
Job 16049363 for user s4752295
Finished at: Mon Mar 31 12:25:19 CEST 2025

Job details:
============

Job ID                         : 16049363
Name                           : Cr_no_SO
User                           : s4752295
Partition                      : regularshort
Nodes                          : node108
Number of Nodes                : 1
Cores                          : 1
Number of Tasks                : 1
State                          : COMPLETED  
Submit                         : 2025-03-31T12:24:04
Start                          : 2025-03-31T12:24:18
End                            : 2025-03-31T12:25:15
Reserved walltime              : 01:00:00
Used walltime                  : 00:00:57
Used CPU time                  : 00:00:51 (Efficiency: 89.26%)
% User (Computation)           : 83.93%
% System (I/O)                 : 16.07%
Total memory reserved          : 25000M
Maximum memory used            : 2.03G

Acknowledgements:
=================

Please see this page for information about acknowledging Hbrk in your publications:

https://wiki.hpc.rug.nl/habrok/introduction/scientific_output

################################################################################
