   This run of MOLCAS is using the pymolcas driver

                             OPE
                             OPE          NMOL  CASOP  ENMOLC A   SO
                 OPE        NMOLC        AS  OP EN  MO LC     AS  OP
                OPENM       OL CA        SO  PE NM  OL CA     SOP EN
                OP EN      MO   LC       AS  OP ENMOL  CASO   PENMOL
                OP  EN     MO   LC       AS  OP EN     MO     LC ASO
               OP   E  NMOL  C  AS       OP  EN MO     LC     AS  OP
               OP  E   NMO   LC AS        OPEN  MO     LCASOP EN   M
               O  PEN   MO  LCA  SO
            OPE   NMO   L   CAS    OP
        OPENMOL  CASOP     ENMOL   CASOPE
     OPENMOLCA   SOPENMOLCASOPEN   MOLCASOPE
    OPENMOLCAS   OP           EN   MOL    CAS
    OPENMOLCAS       OP  ENM        O     LCA
    OPENMOLCAS    OPEN  MOLCASO     P  E  NMO
    OPENMOLCAS     OP               E  N  MOL
    OPENMOLCA   SO           PENM   O  L  CAS    OPEN    MO    LCAS
    OPENMOLCA   SOP           ENM   O  L  CAS   OP  EN  MOLC  AS   O
    OPENMOLCA   SOPE           NM      O  LCA   S      OP  EN MO
    OPENMOLC                AS         O  PEN   M      OL  CA  SOPE
    OPENMO        LCASOPE  NMOL        C  ASO   P      ENMOLC     AS
    OPE     NMO      LCA  SO     P     E   NM   OL  CA SO  PE N   MO
          OPENMOLCA            SOPE   NMO        LCAS  O    P  ENMO
     OPENMOLCASOPENMOLCASOPENMOLCASOPENMOLCA
        OPENMOLCASOPENMOLCASOPENMOLCASOPE
            OPENMOLCASOPENMOLCASOPENM
               OPENMOLCASOPENMOLCA        version: o91e1abe7de707b ?
                   OPENMOLCASO
                       OPE                tag:

 OpenMolcas is free software; you can redistribute it and/or modify it
 under the terms of the GNU Lesser General Public License version 2.1.
 OpenMolcas is distributed in the hope that it will be useful, but it
 is provided "as is" and without any express or implied warranties.
 For more details see the full text of the license in the file
 LICENSE or in <http://www.gnu.org/licenses/>.

                 Copyright (C) The OpenMolcas Authors
           For the author list and the recommended citation,
                   consult the file CONTRIBUTORS.md

           *************************************************
           * pymolcas version py2.10                       *
           *   build 3068ae8b88c9345ec6cfef6fef7f1169      *
           *   (after the EMIL interpreter by V. Veryazov) *
           *************************************************

configuration info
------------------
Host name: login1 (Linux)
C Compiler ID: GNU
C flags: -std=gnu99
Fortran Compiler ID: GNU
Fortran flags: -fno-aggressive-loop-optimizations -cpp -fdefault-integer-8 -fmax-stack-var-size=1048576
Definitions: _MOLCAS_;_I8_;_LINUX_;_MKL_
Parallel: OFF (GA=OFF)


   ------------------------------------------------------------------------------------------------------------------------------------------------------
  |
  |           Project: molybdenum_so_cf
  |    Submitted from: /home4/s4752295/Internship/Initial_simulations/Point_charge_model/1_electron/Madelung_charges_9_active_space/Mo/fixed_calculations
  |      Scratch area: /tmp/molybdenum_so_cf
  |   Save outputs to: /home4/s4752295/Internship/Initial_simulations/Point_charge_model/1_electron/Madelung_charges_9_active_space/Mo/fixed_calculations
  |            Molcas: /home4/s4752295/Internship/Molcas/recomp_try/OpenMolcas-master/build
  |
  | Scratch area is empty
  |
  |    MOLCAS_DRIVER = /home4/s4752295/Internship/Molcas/bin/pymolcas
  |    MOLCAS_NPROCS = 1
  |    MOLCAS_SOURCE = /home4/s4752295/Internship/Molcas/recomp_try/OpenMolcas-master
  | MOLCAS_STRUCTURE = 0
  |
   ------------------------------------------------------------------------------------------------------------------------------------------------------

++ ---------   Input file   ---------

&SEWARD
AMFi

CLIG
$R

Basis Set
Mo.ANO-rcc.Roos.21s18p13d6f4g2h.10s9p9d6f4g2h.
Spherical d
Mo           -1.0658140267135469e-14    -3.5527134223784897e-15 0.008753588724385739
End of Basis

Xfield

414
-4.00220108,-1.54,0.889119      -0.625931
-4.00220108,-0.0,-1.778239      -0.625931
-4.00220108,1.54,0.889119       -0.625931
-3.99534607,0.0,0.0     1.892092
2.65917969,-1.54,-0.889119      2.515516
2.65917969,0.0,1.778239 2.515516
2.65917969,1.54,-0.889119       2.515516
3.56298828,-3.08,0.0    0.004632
3.56298828,-1.54,-2.667358      0.004632
3.56298828,-1.54,2.667358       0.004632
3.56298828,1.54,-2.667358       0.004632
3.56298828,1.54,2.667358        0.004632
3.56298828,3.08,0.0     0.004632
4.12915039,-1.54,0.889119       -2.519484
4.12915039,-0.0,-1.778239       -2.519484
4.12915039,1.54,0.889119        -2.519484
-2.93310547,-0.0,-0.0   -3.142907
-4.97509766,-3.08,-1.778239     -0.625931
-4.97509766,0.0,3.556477        -0.625931
-4.97509766,3.08,-1.778239      -0.625931
-6.609375,-3.08,0.0     1.892092
-6.609375,-1.54,-2.667358       1.892092
-6.609375,-1.54,2.667358        1.892092
-6.609375,1.54,-2.667358        1.892092
-6.609375,1.54,2.667358 1.892092
-6.609375,3.08,0.0      1.892092
25.171875,-3.08,1.778239        2.515516
25.171875,-0.0,-3.556477        2.515516
25.171875,3.08,1.778239 2.515516
3.63867188,-3.08,-1.778239      -2.519484
3.63867188,0.0,3.556477 -2.519484
3.63867188,3.08,-1.778239       -2.519484
-3.23242188,-3.08,-0.0  -3.142907
-3.23242188,-1.54,-2.667358     -3.142907
-3.23242188,-1.54,2.667358      -3.142907
-3.23242188,1.54,-2.667358      -3.142907
-3.23242188,1.54,2.667358       -3.142907
-3.23242188,3.08,-0.0   -3.142907
-9.5234375,-3.08,3.556477       -0.625931
-9.5234375,3.08,3.556477        -0.625931
-9.5234375,-4.62,0.889119       -0.625931
-9.5234375,4.62,0.889119        -0.625931
-9.5234375,-1.54,-4.445597      -0.625931
-9.5234375,1.54,-4.445597       -0.625931
6.0078125,-1.54,-0.889119       4.409069
6.0078125,1.54,-0.889119        4.409069
6.0078125,0.0,1.778239  4.409069
-175.25,-0.0,-0.0       -5.030367
-175.25,0.0,0.0 5.039632
13.51757812,-3.08,-3.556477     2.515516
13.51757812,3.08,-3.556477      2.515516
13.51757812,-4.62,-0.889119     2.515516
13.51757812,4.62,-0.889119      2.515516
13.51757812,-1.54,4.445597      2.515516
13.51757812,1.54,4.445597       2.515516
19.0390625,-4.62,-2.667358      0.004632
19.0390625,-4.62,2.667358       0.004632
19.0390625,4.62,-2.667358       0.004632
19.0390625,4.62,2.667358        0.004632
19.0390625,-0.0,-5.334716       0.004632
19.0390625,0.0,5.334716 0.004632
48.078125,-3.08,3.556477        -2.519484
48.078125,3.08,3.556477 -2.519484
48.078125,-4.62,0.889119        -2.519484
48.078125,4.62,0.889119 -2.519484
48.078125,-1.54,-4.445597       -2.519484
48.078125,1.54,-4.445597        -2.519484
-145.875,-4.62,-2.667358        1.892092
-145.875,-4.62,2.667358 1.892092
-145.875,4.62,-2.667358 1.892092
-145.875,4.62,2.667358  1.892092
-145.875,-0.0,-5.334716 1.892092
-145.875,0.0,5.334716   1.892092
-117.75,-3.08,1.778239  4.409069
-117.75,-0.0,-3.556477  4.409069
-117.75,3.08,1.778239   4.409069
-89.0,-3.08,-0.0        -5.030367
-89.0,-1.54,-2.667358   -5.030367
-89.0,-1.54,2.667358    -5.030367
-89.0,1.54,-2.667358    -5.030367
-89.0,-3.08,0.0 5.039632
-89.0,3.08,-0.0 -5.030367
-89.0,1.54,2.667358     -5.030367
-89.0,-1.54,-2.667358   5.039632
-89.0,-1.54,2.667358    5.039632
-89.0,1.54,-2.667358    5.039632
-89.0,3.08,0.0  5.039632
-89.0,1.54,2.667358     5.039632
-46.625,-1.54,-0.889119 -5.660931
-46.625,0.0,1.778239    -5.660931
-46.625,1.54,-0.889119  -5.660931
0.8828125,-6.159999,0.0 0.004632
0.8828125,-3.08,-5.334716       0.004632
0.8828125,-3.08,5.334716        0.004632
0.8828125,3.08,-5.334716        0.004632
0.8828125,6.159999,0.0  0.004632
0.8828125,3.08,5.334716 0.004632
67.9375,-4.62,2.667358  -3.142907
67.9375,-4.62,-2.667358 -3.142907
67.9375,4.62,-2.667358  -3.142907
67.9375,4.62,2.667358   -3.142907
67.9375,-0.0,-5.334716  -3.142907
67.9375,0.0,5.334716    -3.142907
86.375,-6.159999,-1.778239      -0.625931
86.375,-4.62,-4.445597  -0.625931
86.375,-1.54,6.223835   -0.625931
86.375,4.62,-4.445597   -0.625931
86.375,6.159999,-1.778239       -0.625931
86.375,1.54,6.223835    -0.625931
1.19726562,-6.159999,0.0        1.892092
1.19726562,-3.08,-5.334716      1.892092
1.19726562,-3.08,5.334716       1.892092
1.19726562,3.08,-5.334716       1.892092
1.19726562,6.159999,0.0 1.892092
1.19726562,3.08,5.334716        1.892092
33.84375,-3.08,-3.556477        4.409069
33.84375,3.08,-3.556477 4.409069
33.84375,-4.62,-0.889119        4.409069
33.84375,4.62,-0.889119 4.409069
33.84375,-1.54,4.445597 4.409069
33.84375,1.54,4.445597  4.409069
162.40625,-3.08,1.778239        -5.660931
162.40625,-0.0,-3.556477        -5.660931
162.40625,3.08,1.778239 -5.660931
0.34375,-6.159999,1.778239      2.515516
0.34375,-1.54,-6.223835 2.515516
0.34375,-4.62,4.445597  2.515516
0.34375,1.54,-6.223835  2.515516
0.34375,6.159999,1.778239       2.515516
0.34375,4.62,4.445597   2.515516
-94.1875,-6.159999,-1.778239    -2.519484
-94.1875,-4.62,-4.445597        -2.519484
-94.1875,-1.54,6.223835 -2.519484
-94.1875,4.62,-4.445597 -2.519484
-94.1875,1.54,6.223835  -2.519484
-94.1875,6.159999,-1.778239     -2.519484
-22.0703125,-6.159999,-0.0      -3.142907
-22.0703125,-3.08,-5.334716     -3.142907
-22.0703125,-3.08,5.334716      -3.142907
-22.0703125,3.08,-5.334716      -3.142907
-22.0703125,3.08,5.334716       -3.142907
-22.0703125,6.159999,-0.0       -3.142907
606.5,0.0,0.0   6.927092
323.25,-6.159999,3.556477       -0.625931
323.25,6.159999,3.556477        -0.625931
323.25,-0.0,-7.112955   -0.625931
-5.421875,-4.62,2.667358        -5.030367
-5.421875,-4.62,-2.667358       -5.030367
-5.421875,-4.62,2.667358        5.039632
-5.421875,-4.62,-2.667358       5.039632
-5.421875,4.62,-2.667358        -5.030367
-5.421875,4.62,2.667358 -5.030367
-5.421875,4.62,-2.667358        5.039632
-5.421875,4.62,2.667358 5.039632
-5.421875,-0.0,-5.334716        -5.030367
-5.421875,0.0,5.334716  -5.030367
-5.421875,-0.0,-5.334716        5.039632
-5.421875,0.0,5.334716  5.039632
91.8125,-3.08,-3.556477 -5.660931
91.8125,3.08,-3.556477  -5.660931
91.8125,-4.62,-0.889119 -5.660931
91.8125,4.62,-0.889119  -5.660931
91.8125,-1.54,4.445597  -5.660931
91.8125,1.54,4.445597   -5.660931
300.5,-6.159999,-3.556477       2.515516
300.5,6.159999,-3.556477        2.515516
300.5,0.0,7.112955      2.515516
-517.25,-6.159999,3.556477      -2.519484
-517.25,6.159999,3.556477       -2.519484
-517.25,-0.0,-7.112955  -2.519484
53.5625,-3.08,0.0       6.927092
53.5625,-1.54,-2.667358 6.927092
53.5625,-1.54,2.667358  6.927092
53.5625,1.54,-2.667358  6.927092
53.5625,1.54,2.667358   6.927092
53.5625,3.08,0.0        6.927092
-55.25,-1.54,0.889119   7.550516
-55.25,0.0,-1.778239    7.550516
-55.25,1.54,0.889119    7.550516
15.53125,-1.54,-0.889119        -7.554483
15.53125,1.54,-0.889119 -7.554483
15.53125,-0.0,1.778239  -7.554483
-124.875,-7.699999,0.889119     -0.625931
-124.875,-4.62,6.223835 -0.625931
-124.875,-3.08,-7.112955        -0.625931
-124.875,3.08,-7.112955 -0.625931
-124.875,7.699999,0.889119      -0.625931
-124.875,4.62,6.223835  -0.625931
-67.4375,-6.159999,1.778239     4.409069
-67.4375,-4.62,4.445597 4.409069
-67.4375,-1.54,-6.223835        4.409069
-67.4375,1.54,-6.223835 4.409069
-67.4375,4.62,4.445597  4.409069
-67.4375,6.159999,1.778239      4.409069
49.15625,-6.159999,-0.0 -5.030367
49.15625,-3.08,-5.334716        -5.030367
49.15625,-3.08,5.334716 -5.030367
49.15625,-6.159999,0.0  5.039632
49.15625,-3.08,-5.334716        5.039632
49.15625,3.08,-5.334716 -5.030367
49.15625,3.08,5.334716  -5.030367
49.15625,6.159999,-0.0  -5.030367
49.15625,-3.08,5.334716 5.039632
49.15625,3.08,-5.334716 5.039632
49.15625,6.159999,0.0   5.039632
49.15625,3.08,5.334716  5.039632
180.75,-7.699999,-0.889119      2.515516
180.75,-4.62,-6.223835  2.515516
180.75,-3.08,7.112955   2.515516
180.75,4.62,-6.223835   2.515516
180.75,7.699999,-0.889119       2.515516
180.75,3.08,7.112955    2.515516
-23.34375,-7.699999,-2.667358   0.004632
-23.34375,-7.699999,2.667358    0.004632
-23.34375,-6.159999,-5.334716   0.004632
-23.34375,-6.159999,5.334716    0.004632
-23.34375,-1.54,-8.002074       0.004632
-23.34375,1.54,-8.002074        0.004632
-23.34375,-1.54,8.002074        0.004632
-23.34375,6.159999,-5.334716    0.004632
-23.34375,1.54,8.002074 0.004632
-23.34375,7.699999,-2.667358    0.004632
-23.34375,7.699999,2.667358     0.004632
-23.34375,6.159999,5.334716     0.004632
-143.125,-7.699999,0.889119     -2.519484
-143.125,-4.62,6.223835 -2.519484
-143.125,-3.08,-7.112955        -2.519484
-143.125,3.08,-7.112955 -2.519484
-143.125,7.699999,0.889119      -2.519484
-143.125,4.62,6.223835  -2.519484
3032.0,-0.0,-0.0        -8.177907
-116.0,-3.08,-1.778239  7.550516
-116.0,0.0,3.556477     7.550516
-116.0,3.08,-1.778239   7.550516
-603.5,-3.08,1.778239   -7.554483
-603.5,-0.0,-3.556477   -7.554483
-603.5,3.08,1.778239    -7.554483
48.90625,-7.699999,2.667358     1.892092
48.90625,-7.699999,-2.667358    1.892092
48.90625,-6.159999,-5.334716    1.892092
48.90625,-6.159999,5.334716     1.892092
48.90625,-1.54,-8.002074        1.892092
48.90625,1.54,-8.002074 1.892092
48.90625,-1.54,8.002074 1.892092
48.90625,6.159999,-5.334716     1.892092
48.90625,1.54,8.002074  1.892092
48.90625,7.699999,-2.667358     1.892092
48.90625,7.699999,2.667358      1.892092
48.90625,6.159999,5.334716      1.892092
-505.0,-6.159999,-3.556477      4.409069
-505.0,6.159999,-3.556477       4.409069
-505.0,0.0,7.112955     4.409069
25.8203125,-6.159999,1.778239   -5.660931
25.8203125,-1.54,-6.223835      -5.660931
25.8203125,-4.62,4.445597       -5.660931
25.8203125,1.54,-6.223835       -5.660931
25.8203125,4.62,4.445597        -5.660931
25.8203125,6.159999,1.778239    -5.660931
-58.1875,-6.159999,-5.334716    -3.142907
-58.1875,-7.699999,2.667358     -3.142907
-58.1875,-7.699999,-2.667358    -3.142907
-58.1875,-6.159999,5.334716     -3.142907
-58.1875,-1.54,-8.002074        -3.142907
-58.1875,1.54,-8.002074 -3.142907
-58.1875,-1.54,8.002074 -3.142907
-58.1875,7.699999,-2.667358     -3.142907
-58.1875,6.159999,-5.334716     -3.142907
-58.1875,1.54,8.002074  -3.142907
-58.1875,7.699999,2.667358      -3.142907
-58.1875,6.159999,5.334716      -3.142907
65.40625,-4.62,-2.667358        6.927092
65.40625,-4.62,2.667358 6.927092
65.40625,4.62,-2.667358 6.927092
65.40625,4.62,2.667358  6.927092
65.40625,-0.0,-5.334716 6.927092
65.40625,0.0,5.334716   6.927092
-83.25,-3.08,-0.0       -8.177907
-83.25,-1.54,2.667358   -8.177907
-83.25,-1.54,-2.667358  -8.177907
-83.25,1.54,-2.667358   -8.177907
-83.25,3.08,-0.0        -8.177907
-83.25,1.54,2.667358    -8.177907
-90.90625,-3.08,3.556477        7.550516
-90.90625,3.08,3.556477 7.550516
-90.90625,-4.62,0.889119        7.550516
-90.90625,4.62,0.889119 7.550516
-90.90625,-1.54,-4.445597       7.550516
-90.90625,1.54,-4.445597        7.550516
-45.6875,-3.08,-3.556477        -7.554483
-45.6875,3.08,-3.556477 -7.554483
-45.6875,-4.62,-0.889119        -7.554483
-45.6875,4.62,-0.889119 -7.554483
-45.6875,-1.54,4.445597 -7.554483
-45.6875,1.54,4.445597  -7.554483
-500.25,0.0,8.891193    -0.625931
-500.25,-7.699999,-4.445597     -0.625931
-500.25,7.699999,-4.445597      -0.625931
-269.75,-7.699999,-0.889119     4.409069
-269.75,-4.62,-6.223835 4.409069
-269.75,-3.08,7.112955  4.409069
-269.75,4.62,-6.223835  4.409069
-269.75,7.699999,-0.889119      4.409069
-269.75,3.08,7.112955   4.409069
310.375,-6.159999,-3.556477     -5.660931
310.375,6.159999,-3.556477      -5.660931
310.375,0.0,7.112955    -5.660931
587.0,-0.0,-8.891193    2.515516
587.0,-7.699999,4.445597        2.515516
587.0,7.699999,4.445597 2.515516
-93.875,-9.239999,-0.0  0.004632
-93.875,4.62,-8.002074  0.004632
-93.875,-4.62,8.002074  0.004632
-93.875,9.239999,-0.0   0.004632
-93.875,-4.62,-8.002074 0.004632
-93.875,4.62,8.002074   0.004632
-385.75,0.0,8.891193    -2.519484
-385.75,-7.699999,-4.445597     -2.519484
-385.75,7.699999,-4.445597      -2.519484
228.0,-6.159999,0.0     6.927092
228.0,-3.08,-5.334716   6.927092
228.0,-3.08,5.334716    6.927092
228.0,3.08,-5.334716    6.927092
228.0,6.159999,0.0      6.927092
228.0,3.08,5.334716     6.927092
211.875,-9.239999,-1.778239     -0.625931
211.875,-3.08,8.891193  -0.625931
211.875,-6.159999,-7.112955     -0.625931
211.875,6.159999,-7.112955      -0.625931
211.875,3.08,8.891193   -0.625931
211.875,9.239999,-1.778239      -0.625931
111.9375,-9.239999,0.0  1.892092
111.9375,-4.62,-8.002074        1.892092
111.9375,-4.62,8.002074 1.892092
111.9375,4.62,-8.002074 1.892092
111.9375,9.239999,0.0   1.892092
111.9375,4.62,8.002074  1.892092
-4.3203125,-7.699999,2.667358   -5.030367
-4.3203125,-7.699999,-2.667358  -5.030367
-4.3203125,-6.159999,-5.334716  -5.030367
-4.3203125,-6.159999,5.334716   -5.030367
-4.3203125,-7.699999,2.667358   5.039632
-4.3203125,1.54,-8.002074       -5.030367
-4.3203125,-1.54,-8.002074      -5.030367
-4.3203125,-7.699999,-2.667358  5.039632
-4.3203125,-6.159999,-5.334716  5.039632
-4.3203125,-1.54,8.002074       -5.030367
-4.3203125,1.54,-8.002074       5.039632
-4.3203125,-6.159999,5.334716   5.039632
-4.3203125,-1.54,-8.002074      5.039632
-4.3203125,6.159999,-5.334716   -5.030367
-4.3203125,1.54,8.002074        -5.030367
-4.3203125,7.699999,-2.667358   -5.030367
-4.3203125,7.699999,2.667358    -5.030367
-4.3203125,6.159999,5.334716    -5.030367
-4.3203125,-1.54,8.002074       5.039632
-4.3203125,6.159999,-5.334716   5.039632
-4.3203125,7.699999,-2.667358   5.039632
-4.3203125,1.54,8.002074        5.039632
-4.3203125,7.699999,2.667358    5.039632
-4.3203125,6.159999,5.334716    5.039632
-0.6875,-7.699999,-0.889119     -5.660931
-0.6875,-4.62,-6.223835 -5.660931
-0.6875,-3.08,7.112955  -5.660931
-0.6875,4.62,-6.223835  -5.660931
-0.6875,3.08,7.112955   -5.660931
-0.6875,7.699999,-0.889119      -5.660931
116.0,-1.54,0.889119    9.444068
116.0,0.0,-1.778239     9.444068
116.0,1.54,0.889119     9.444068
51.3125,-9.239999,1.778239      2.515516
51.3125,-3.08,-8.891193 2.515516
51.3125,3.08,-8.891193  2.515516
51.3125,-6.159999,7.112955      2.515516
51.3125,9.239999,1.778239       2.515516
51.3125,6.159999,7.112955       2.515516
156.875,-9.239999,-1.778239     -2.519484
156.875,-3.08,8.891193  -2.519484
156.875,-6.159999,-7.112955     -2.519484
156.875,6.159999,-7.112955      -2.519484
156.875,9.239999,-1.778239      -2.519484
156.875,3.08,8.891193   -2.519484
219.625,-9.239999,-0.0  -3.142907
219.625,-4.62,-8.002074 -3.142907
219.625,-4.62,8.002074  -3.142907
219.625,4.62,-8.002074  -3.142907
219.625,9.239999,-0.0   -3.142907
219.625,4.62,8.002074   -3.142907
8.64550781,-4.62,-2.667358      -8.177907
8.64550781,-4.62,2.667358       -8.177907
8.64550781,4.62,2.667358        -8.177907
8.64550781,4.62,-2.667358       -8.177907
8.64550781,-0.0,-5.334716       -8.177907
8.64550781,0.0,5.334716 -8.177907
251.875,-4.62,-4.445597 7.550516
251.875,-6.159999,-1.778239     7.550516
251.875,-1.54,6.223835  7.550516
251.875,4.62,-4.445597  7.550516
251.875,1.54,6.223835   7.550516
251.875,6.159999,-1.778239      7.550516
-348.0,-4.62,4.445597   -7.554483
-348.0,-6.159999,1.778239       -7.554483
-348.0,-1.54,-6.223835  -7.554483
-348.0,1.54,-6.223835   -7.554483
-348.0,6.159999,1.778239        -7.554483
-348.0,4.62,4.445597    -7.554483
71.265625,-7.699999,6.223835    -0.625931
71.265625,-9.239999,3.556477    -0.625931
71.265625,-1.54,-9.780313       -0.625931
71.265625,1.54,-9.780313        -0.625931
71.265625,9.239999,3.556477     -0.625931
71.265625,7.699999,6.223835     -0.625931
-483.75,-0.0,-8.891193  4.409069
-483.75,-7.699999,4.445597      4.409069
-483.75,7.699999,4.445597       4.409069

End of input

&SCF
Occupied
18
Iterations
   50  100
End of Input

&RASSCF
LumOrb
Symmetry
1
Spin
2
Nactel
1 0 0
CIRoot
9 9 1
inactive
18
ras2
9
End of Input

>>> COPY molybdenum_so_cf.JobIph $SLURM_SUBMIT_DIR/molybdenum_so_cf.doublet.JobIph

>>> COPY $SLURM_SUBMIT_DIR/molybdenum_so_cf.doublet.JobIph ./JOB002

&RASSI
NROFJobIph
1 All
SpinOrbit
End of Input

EOF

-- ----------------------------------

--- Start Module: seward at Mon Mar 31 12:42:29 2025 ---

()()()()()()()()()()()()()()()()()()()()()()()()()()()()()()()()()()()()()()()()()()()()()()()()()()

                                              &SEWARD

                                   only a single process is used
                       available to each process: 4.1 GB of memory, 1 thread?
                                            pid: 3840716
()()()()()()()()()()()()()()()()()()()()()()()()()()()()()()()()()()()()()()()()()()()()()()()()()()

 The speed of LIGHT in this CALCULATION =   137.03599917700001     
               SEWARD will generate:
                  Multipole Moment integrals up to order  2
                  Kinetic Energy integrals
                  Nuclear Attraction integrals (point charge)
                  One-Electron Hamiltonian integrals
                  Velocity integrals
                  Relativistic Douglas-Kroll-Hess integrals:
                    - Parametrization         : EXP
                    - DKH order of Hamiltonian: 2
                    - DKH order of Properties : 0
                         - multipole moment operators
                         - electric potential operators
                         - contact operators
                  External field from   414 point(s) added to the one-electron Hamiltonian
                  Orbital angular momentum around (-0.0000 -0.0000  0.0088 )
                  Velocity quadrupole around (-0.0000 -0.0000  0.0088 )
                  Atomic mean-field integrals
                  Two-Electron Repulsion integrals

                   Integrals are discarded if absolute value <: 0.10E-13
                   Integral cutoff threshold is set to       <: 0.10E-15

++    Symmetry information:
      ---------------------

                    Character Table for C1 

                             E  
                    a        1  x, y, xy, Rz, z, xz, Ry, yz, Rx, I
--


++    Basis set information:
      ----------------------


      Basis set label: MO.ANO-RCC.ROOS.21S18P13D6F4G2H.10S9P9D6F4G2H......

      Electronic valence basis set:
      ------------------
      Associated Effective Charge  42.000000 au
      Associated Actual Charge     42.000000 au
      Nuclear Model: Point charge

      Shell  nPrim  nBasis  Cartesian Spherical Contaminant
         s      21      10        X                  
         p      18       9        X                  
         d      13       9                 X         
         f       6       6                 X         
         g       4       4                 X         
         h       2       2                 X         
--


++    Molecular structure info:
      -------------------------

                    ************************************************ 
                    **** Cartesian Coordinates / Bohr, Angstrom **** 
                    ************************************************ 

     Center  Label                x              y              z                     x              y              z
        1      MO              -0.000000      -0.000000       0.008754             -0.000000      -0.000000       0.004632
--


++    Operator info:
      --------------


  Net charge from external field:   -39.268449999999902     
--


            Nuclear Potential Energy              0.00000000 au

                    Nuclear-External Field Potential Energy    -384.25661111 au
                    External Field Potential Energy            1605.63690139 au 


            Total Nuclear Potential Energy           -384.25661111 au


      Basis set specifications :
      Symmetry species         a  
      Basis functions          182

 Sorry, Molden does not know how to handle
 functions with angular momentum larger than g
Note: The following floating-point exceptions are signalling: IEEE_UNDERFLOW_FLAG IEEE_DENORMAL
--- Stop Module: seward at Mon Mar 31 12:42:40 2025 /rc=_RC_ALL_IS_WELL_ ---
*** files: molybdenum_so_cf.GssOrb xmldump
    saved to directory /home4/s4752295/Internship/Initial_simulations/Point_charge_model/1_electron/Madelung_charges_9_active_space/Mo/fixed_calculations
--- Module seward spent 11 seconds ---

*** symbolic link created: INPORB -> molybdenum_so_cf.GssOrb
--- Start Module: scf at Mon Mar 31 12:42:40 2025 ---

()()()()()()()()()()()()()()()()()()()()()()()()()()()()()()()()()()()()()()()()()()()()()()()()()()

                                                &SCF

                                   only a single process is used
                       available to each process: 4.1 GB of memory, 1 thread?
                                            pid: 3841285
()()()()()()()()()()()()()()()()()()()()()()()()()()()()()()()()()()()()()()()()()()()()()()()()()()

++    Input section:
      --------------

      Header of the integral files:
      
       Integrals generated by seward 4.2.0  , Mon Mar 31 12:42:29 2025


      Cartesian coordinates in Angstrom:
      -----------------------------------------------------
      No.  Label        X            Y            Z        
      -----------------------------------------------------
       1   MO        -0.00000000  -0.00000000   0.00463220
      -----------------------------------------------------
      Nuclear repulsion energy = -384.25661111
--

++    Orbital specifications:
      -----------------------

      Symmetry species               1
                                     a
      Frozen orbitals                0
      Occupied orbitals             18
      Secondary orbitals           164
      Deleted orbitals               0
      Total number of orbitals     182
      Number of basis functions    182
--

      Molecular charge                           6.000

++    Optimization specifications:
      ----------------------------

      SCF Algorithm: Conventional
      Minimized density differences are used
      Number of density matrices in core                5
      Maximum number of NDDO SCF iterations            50
      Maximum number of HF SCF iterations             100
      Threshold for SCF energy change            0.10E-08
      Threshold for density matrix               0.10E-03
      Threshold for Fock matrix                  0.15E-03
      Threshold for linear dependence            0.10E-08
      Threshold at which DIIS is turned on       0.15E+00
      Threshold at which QNR/C2DIIS is turned on 0.75E-01
      Threshold for Norm(delta) (QNR/C2DIIS)     0.20E-04
      DIIS extrapolation of the SCF procedure
      All orbitals punched on: SCFORB
--

      Detected guessorb starting orbitals                                             


++ Convergence information
                                   SCF        iterations: Energy and convergence statistics

Iter     Tot. SCF        One-elec.       Two-elec.     Energy      Max Dij or  Max Fij      DNorm      TNorm      AccCon     Time
         Energy          Energy          Energy        Change      Delta Norm                                                in Sec.

 The total and one-electron energies are shifted by a value of      4000. a.u.

   1   -92.703216364 -1114.471054546  1406.024449289   0.00E+00    0.37E+00*   0.53E+00*    0.85E+01   0.55E+03   None         1.
   2   -93.896413188 -1125.906332525  1416.266530444  -0.12E+01*   0.10E+00*   0.14E+00*    0.20E+01   0.55E+03   EDIIS        1.
   3   -93.959832277 -1123.860283701  1414.157062531  -0.63E-01*   0.30E-01*   0.59E-01*    0.32E+00   0.55E+03   EDIIS        1.
   4   -93.966186432 -1124.472826904  1414.763251579  -0.64E-02*   0.27E-02*   0.14E-01*    0.31E-01   0.55E+03   c2DIIS       1.
   5   -93.966953137 -1124.316178560  1414.605836530  -0.77E-03*   0.48E-03*   0.56E-03*    0.25E-02   0.55E+03   QNRc2DIIS    1.
   6   -93.966954467 -1124.314378434  1414.604035074  -0.13E-05*   0.17E-03*   0.15E-03     0.36E-03   0.55E+03   QNRc2DIIS    1.
   7   -93.966954560 -1124.313642740  1414.603299287  -0.93E-07*   0.17E-04    0.19E-04     0.45E-04   0.55E+03   QNRc2DIIS    1.
   8   -93.966954561 -1124.313613669  1414.603270215  -0.13E-08*   0.45E-05    0.67E-05     0.14E-03   0.55E+03   QNRc2DIIS    1.
   9   -93.966954561 -1124.313647476  1414.603304022  -0.12E-09    0.45E-06    0.51E-06     0.21E-02   0.55E+03   QNRc2DIIS    1.

       Convergence after  9 Macro Iterations
--

 *****************************************************************************************************************************
 *                                                                                                                           *
 *                                             SCF/KS-DFT Program, Final results                                             *
 *                                                                                                                           *
 *                                                                                                                           *
 *                                                                                                                           *
 *                                                       Final Results                                                       *
 *                                                                                                                           *
 *****************************************************************************************************************************

::    Total SCF energy                              -4093.9669545611
      One-electron energy                           -5124.3136474761
      Two-electron energy                            1414.6033040220
      Nuclear repulsion energy                       -384.2566111071
      Kinetic energy (interpolated)                  4466.9053811379
      Virial theorem                                    0.9165107844
      Total spin, S(S+1)                                0.0000000000
      Total spin, S                                     0.0000000000
      Max non-diagonal density matrix element           0.0000006942
      Max non-diagonal Fock matrix element              0.0000001985


      All orbitals with orbital energies smaller than  E(LUMO)+0.5 are printed

++    Molecular orbitals:
      -------------------

      Title: SCF orbitals

      Molecular orbitals for symmetry species 1: a  

          Orbital            1         2         3         4         5         6         7         8         9        10    
          Energy         -732.9619 -101.3989  -89.8537  -89.8523  -89.8523  -13.6427   -9.7424   -9.7424   -9.7353   -3.3797
          Occ. No.          2.0000    2.0000    2.0000    2.0000    2.0000    2.0000    2.0000    2.0000    2.0000    2.0000

        1 MO     1s         1.0000   -0.0000   -0.0000    0.0000    0.0000    0.0000   -0.0000   -0.0000    0.0000   -0.0000
        2 MO     2s         0.0000    1.0000   -0.0001    0.0000    0.0000    0.0002    0.0000    0.0000   -0.0001   -0.0000
        3 MO     3s        -0.0000   -0.0002    0.0001   -0.0000   -0.0000    0.9999    0.0000    0.0000   -0.0103    0.0005
        4 MO     4s         0.0000    0.0000   -0.0001    0.0000    0.0000   -0.0022   -0.0000   -0.0000    0.0035   -0.0006
        5 MO     5s        -0.0000   -0.0000    0.0000   -0.0000   -0.0000    0.0003    0.0000    0.0000   -0.0004    0.0001
        6 MO     6s         0.0000    0.0000   -0.0000    0.0000    0.0000   -0.0003   -0.0000   -0.0000    0.0005   -0.0001
        7 MO     7s        -0.0000   -0.0000    0.0000   -0.0000   -0.0000    0.0008    0.0000    0.0000   -0.0010   -0.0000
        8 MO     8s         0.0000    0.0000   -0.0000    0.0000    0.0000   -0.0005   -0.0000   -0.0000    0.0004    0.0002
        9 MO     9s        -0.0000   -0.0000    0.0000   -0.0000   -0.0000    0.0005    0.0000   -0.0000   -0.0002   -0.0002
       10 MO    10s         0.0000    0.0000   -0.0000    0.0000    0.0000   -0.0003   -0.0000   -0.0000    0.0001    0.0001
       11 MO     2px        0.0000    0.0001    1.0000   -0.0011   -0.0000   -0.0001   -0.0000   -0.0000    0.0001   -0.0000
       12 MO     3px       -0.0000    0.0001   -0.0001    0.0000    0.0000    0.0104   -0.0023   -0.0000    0.9999   -0.0072
       13 MO     4px        0.0000   -0.0000    0.0001   -0.0000   -0.0000    0.0020    0.0000    0.0000   -0.0029    0.0046
       14 MO     5px       -0.0000    0.0000   -0.0000    0.0000    0.0000   -0.0004   -0.0000   -0.0000    0.0006   -0.0007
       15 MO     6px        0.0000   -0.0000    0.0000   -0.0000   -0.0000    0.0008    0.0000    0.0000   -0.0011    0.0009
       16 MO     7px       -0.0000    0.0000   -0.0000    0.0000    0.0000   -0.0005   -0.0000   -0.0000    0.0006   -0.0002
       17 MO     8px        0.0000   -0.0000    0.0000   -0.0000   -0.0000    0.0004    0.0000    0.0000   -0.0004   -0.0001
       18 MO     9px       -0.0000    0.0000   -0.0000    0.0000    0.0000   -0.0002   -0.0000   -0.0000    0.0003    0.0001
       19 MO    10px        0.0000   -0.0000    0.0000   -0.0000   -0.0000    0.0001    0.0000   -0.0000   -0.0002    0.0000
       20 MO     2py        0.0000    0.0000    0.0000    0.0000    1.0000    0.0000    0.0000    0.0002    0.0000   -0.0000
       21 MO     3py        0.0000   -0.0000   -0.0000   -0.0000   -0.0002    0.0000    0.0000    1.0000    0.0000    0.0000
       22 MO     4py        0.0000    0.0000    0.0000    0.0000    0.0001   -0.0000   -0.0000   -0.0025   -0.0000   -0.0000
       23 MO     5py       -0.0000   -0.0000   -0.0000   -0.0000   -0.0000    0.0000    0.0000    0.0005    0.0000    0.0000
       24 MO     6py        0.0000    0.0000    0.0000    0.0000    0.0000   -0.0000   -0.0000   -0.0010   -0.0000   -0.0000
       25 MO     7py        0.0000   -0.0000   -0.0000   -0.0000   -0.0000    0.0000    0.0000    0.0006    0.0000    0.0000
       26 MO     8py       -0.0000    0.0000    0.0000    0.0000    0.0000   -0.0000   -0.0000   -0.0006   -0.0000   -0.0000
       27 MO     9py        0.0000   -0.0000   -0.0000   -0.0000   -0.0000    0.0000    0.0000    0.0004    0.0000    0.0000
       28 MO    10py       -0.0000    0.0000    0.0000    0.0000    0.0000   -0.0000   -0.0000   -0.0002   -0.0000   -0.0000
       29 MO     2pz        0.0000   -0.0000    0.0011    1.0000   -0.0000   -0.0000    0.0002   -0.0000    0.0000    0.0000
       30 MO     3pz       -0.0000    0.0000   -0.0000   -0.0002    0.0000    0.0000    1.0000   -0.0000    0.0023    0.0000
       31 MO     4pz        0.0000   -0.0000    0.0000    0.0001   -0.0000    0.0000   -0.0025    0.0000   -0.0000   -0.0000
       32 MO     5pz       -0.0000    0.0000   -0.0000   -0.0000    0.0000   -0.0000    0.0005   -0.0000    0.0000    0.0000
       33 MO     6pz        0.0000   -0.0000    0.0000    0.0000   -0.0000    0.0000   -0.0010    0.0000   -0.0000   -0.0000
       34 MO     7pz       -0.0000    0.0000   -0.0000   -0.0000    0.0000   -0.0000    0.0006   -0.0000    0.0000    0.0000
       35 MO     8pz        0.0000   -0.0000    0.0000    0.0000   -0.0000    0.0000   -0.0006    0.0000   -0.0000   -0.0000
       36 MO     9pz       -0.0000    0.0000   -0.0000   -0.0000    0.0000   -0.0000    0.0004   -0.0000    0.0000   -0.0000
       37 MO    10pz        0.0000    0.0000    0.0000    0.0000   -0.0000    0.0000   -0.0002    0.0000   -0.0000   -0.0000
       38 MO     3d2-       0.0000    0.0000    0.0000    0.0000    0.0000   -0.0000    0.0000    0.0060    0.0000   -0.0000
       39 MO     4d2-       0.0000   -0.0000    0.0000    0.0000    0.0000    0.0000    0.0000    0.0010    0.0000    0.0000
       40 MO     5d2-      -0.0000    0.0000   -0.0000   -0.0000   -0.0000   -0.0000   -0.0000   -0.0009   -0.0000   -0.0000
       41 MO     6d2-      -0.0000   -0.0000    0.0000    0.0000    0.0000   -0.0000    0.0000    0.0006    0.0000    0.0000
       42 MO     7d2-       0.0000    0.0000   -0.0000   -0.0000   -0.0000    0.0000   -0.0000   -0.0004   -0.0000   -0.0000
       43 MO     8d2-       0.0000   -0.0000    0.0000    0.0000    0.0000   -0.0000    0.0000    0.0003    0.0000    0.0000
       44 MO     9d2-      -0.0000    0.0000   -0.0000   -0.0000   -0.0000   -0.0000   -0.0000   -0.0002   -0.0000   -0.0000
       45 MO    10d2-       0.0000   -0.0000    0.0000    0.0000    0.0000   -0.0000    0.0000    0.0001    0.0000    0.0000
       46 MO    11d2-      -0.0000    0.0000   -0.0000   -0.0000   -0.0000    0.0000    0.0000    0.0000    0.0000   -0.0000
       47 MO     3d1-       0.0000   -0.0000    0.0000    0.0000    0.0000   -0.0000    0.0000    0.0000   -0.0000    0.0000
       48 MO     4d1-      -0.0000    0.0000    0.0000    0.0000    0.0000    0.0000    0.0000    0.0000    0.0000   -0.0000
       49 MO     5d1-       0.0000   -0.0000   -0.0000   -0.0000   -0.0000   -0.0000   -0.0000   -0.0000    0.0000    0.0000
       50 MO     6d1-      -0.0000    0.0000    0.0000    0.0000    0.0000    0.0000    0.0000    0.0000    0.0000   -0.0000
       51 MO     7d1-       0.0000   -0.0000   -0.0000   -0.0000   -0.0000   -0.0000   -0.0000   -0.0000   -0.0000    0.0000
       52 MO     8d1-      -0.0000    0.0000   -0.0000   -0.0000   -0.0000    0.0000    0.0000    0.0000   -0.0000   -0.0000
       53 MO     9d1-       0.0000   -0.0000    0.0000    0.0000    0.0000    0.0000   -0.0000   -0.0000   -0.0000    0.0000
       54 MO    10d1-      -0.0000    0.0000   -0.0000   -0.0000   -0.0000   -0.0000    0.0000    0.0000    0.0000   -0.0000
       55 MO    11d1-       0.0000   -0.0000    0.0000    0.0000    0.0000    0.0000   -0.0000   -0.0000   -0.0000    0.0000
       56 MO     3d0       -0.0000   -0.0000   -0.0000   -0.0000    0.0000    0.0002    0.0000    0.0000   -0.0036   -0.5056
       57 MO     4d0        0.0000    0.0000    0.0000   -0.0000   -0.0000    0.0000    0.0000    0.0000   -0.0006    0.0018
       58 MO     5d0       -0.0000   -0.0000    0.0000    0.0000   -0.0000   -0.0000    0.0000   -0.0000    0.0005   -0.0014
       59 MO     6d0        0.0000    0.0000   -0.0000   -0.0000    0.0000    0.0000   -0.0000    0.0000   -0.0004    0.0007
       60 MO     7d0       -0.0000   -0.0000    0.0000   -0.0000   -0.0000   -0.0000    0.0000   -0.0000    0.0002   -0.0004
       61 MO     8d0        0.0000    0.0000   -0.0000    0.0000    0.0000   -0.0000   -0.0000    0.0000   -0.0002    0.0003
       62 MO     9d0       -0.0000   -0.0000    0.0000   -0.0000   -0.0000    0.0000    0.0000   -0.0000    0.0001   -0.0002
       63 MO    10d0       -0.0000    0.0000   -0.0000    0.0000    0.0000   -0.0000   -0.0000    0.0000   -0.0001    0.0002
       64 MO    11d0        0.0000   -0.0000    0.0000   -0.0000   -0.0000    0.0000    0.0000    0.0000   -0.0000   -0.0000
       65 MO     3d1+       0.0000    0.0000   -0.0000    0.0000   -0.0000   -0.0000    0.0060   -0.0000    0.0000   -0.0028
       66 MO     4d1+      -0.0000   -0.0000    0.0000    0.0000   -0.0000   -0.0000    0.0010   -0.0000    0.0000    0.0000
       67 MO     5d1+       0.0000    0.0000   -0.0000   -0.0000    0.0000    0.0000   -0.0009    0.0000   -0.0000   -0.0000
       68 MO     6d1+      -0.0000   -0.0000    0.0000    0.0000   -0.0000   -0.0000    0.0006   -0.0000    0.0000    0.0000
       69 MO     7d1+       0.0000    0.0000   -0.0000   -0.0000    0.0000    0.0000   -0.0004    0.0000   -0.0000   -0.0000
       70 MO     8d1+      -0.0000   -0.0000    0.0000    0.0000   -0.0000   -0.0000    0.0003   -0.0000    0.0000    0.0000
       71 MO     9d1+       0.0000    0.0000   -0.0000   -0.0000    0.0000   -0.0000   -0.0002    0.0000   -0.0000   -0.0000
       72 MO    10d1+       0.0000   -0.0000    0.0000    0.0000   -0.0000    0.0000    0.0001   -0.0000    0.0000    0.0000
       73 MO    11d1+      -0.0000    0.0000   -0.0000   -0.0000    0.0000   -0.0000    0.0000   -0.0000    0.0000   -0.0000
       74 MO     3d2+       0.0000    0.0000    0.0000   -0.0000   -0.0000   -0.0004   -0.0000   -0.0000    0.0063    0.8627
       75 MO     4d2+      -0.0000   -0.0000   -0.0000   -0.0000    0.0000   -0.0000   -0.0000   -0.0000    0.0010   -0.0031
       76 MO     5d2+       0.0000    0.0000   -0.0000    0.0000    0.0000    0.0001    0.0000    0.0000   -0.0009    0.0024
       77 MO     6d2+      -0.0000   -0.0000    0.0000   -0.0000   -0.0000   -0.0001   -0.0000   -0.0000    0.0006   -0.0013
       78 MO     7d2+       0.0000    0.0000   -0.0000    0.0000    0.0000    0.0000    0.0000    0.0000   -0.0004    0.0007
       79 MO     8d2+      -0.0000   -0.0000    0.0000    0.0000   -0.0000    0.0000   -0.0000   -0.0000    0.0003   -0.0005
       80 MO     9d2+       0.0000    0.0000   -0.0000   -0.0000    0.0000   -0.0000    0.0000    0.0000   -0.0002    0.0003
       81 MO    10d2+       0.0000   -0.0000    0.0000    0.0000   -0.0000    0.0001   -0.0000   -0.0000    0.0001   -0.0004
       82 MO    11d2+      -0.0000    0.0000   -0.0000   -0.0000    0.0000   -0.0000   -0.0000   -0.0000    0.0000    0.0001
       83 MO     4f3-       0.0000    0.0000    0.0000    0.0000    0.0000    0.0000   -0.0000   -0.0002   -0.0000   -0.0000
       84 MO     5f3-       0.0000    0.0000    0.0000    0.0000    0.0000    0.0000   -0.0000   -0.0002   -0.0000   -0.0000
       85 MO     6f3-      -0.0000   -0.0000   -0.0000   -0.0000   -0.0000   -0.0000    0.0000    0.0001    0.0000    0.0000
       86 MO     7f3-       0.0000    0.0000    0.0000    0.0000    0.0000    0.0000   -0.0000   -0.0000   -0.0000   -0.0000
       87 MO     8f3-       0.0000   -0.0000    0.0000    0.0000    0.0000    0.0000   -0.0000   -0.0000   -0.0000   -0.0000
       88 MO     9f3-      -0.0000    0.0000   -0.0000   -0.0000   -0.0000   -0.0000   -0.0000   -0.0000   -0.0000    0.0000
       89 MO     4f2-      -0.0000   -0.0000    0.0000    0.0000    0.0000   -0.0000   -0.0000   -0.0000   -0.0000    0.0000
       90 MO     5f2-       0.0000   -0.0000    0.0000    0.0000    0.0000   -0.0000   -0.0000   -0.0000   -0.0000    0.0000
       91 MO     6f2-      -0.0000    0.0000   -0.0000   -0.0000   -0.0000    0.0000    0.0000    0.0000   -0.0000   -0.0000
       92 MO     7f2-       0.0000   -0.0000    0.0000    0.0000    0.0000   -0.0000    0.0000    0.0000    0.0000    0.0000
       93 MO     8f2-       0.0000   -0.0000    0.0000   -0.0000   -0.0000   -0.0000    0.0000    0.0000    0.0000    0.0000
       94 MO     9f2-       0.0000    0.0000    0.0000    0.0000    0.0000    0.0000   -0.0000   -0.0000   -0.0000   -0.0000
       95 MO     4f1-      -0.0000    0.0000   -0.0000   -0.0000   -0.0000    0.0000    0.0000    0.0000    0.0000    0.0000
       96 MO     5f1-       0.0000    0.0000   -0.0000   -0.0000   -0.0000    0.0000    0.0000    0.0000    0.0000    0.0000
       97 MO     6f1-      -0.0000   -0.0000    0.0000    0.0000    0.0000   -0.0000   -0.0000   -0.0000   -0.0000   -0.0000
       98 MO     7f1-       0.0000    0.0000   -0.0000   -0.0000   -0.0000    0.0000    0.0000    0.0000    0.0000    0.0000
       99 MO     8f1-       0.0000   -0.0000   -0.0000   -0.0000   -0.0000    0.0000    0.0000    0.0000    0.0000    0.0000
      100 MO     9f1-       0.0000    0.0000    0.0000    0.0000    0.0000   -0.0000    0.0000    0.0000   -0.0000   -0.0000
      101 MO     4f0        0.0000   -0.0000   -0.0000   -0.0000    0.0000    0.0000    0.0001   -0.0000    0.0000    0.0000
      102 MO     5f0        0.0000   -0.0000    0.0000   -0.0000    0.0000   -0.0000    0.0001   -0.0000    0.0000    0.0000
      103 MO     6f0       -0.0000    0.0000   -0.0000    0.0000   -0.0000    0.0000   -0.0001    0.0000   -0.0000   -0.0000
      104 MO     7f0       -0.0000   -0.0000   -0.0000   -0.0000    0.0000   -0.0000    0.0000   -0.0000    0.0000    0.0000
      105 MO     8f0        0.0000    0.0000   -0.0000   -0.0000    0.0000   -0.0000    0.0000   -0.0000    0.0000    0.0000
      106 MO     9f0        0.0000    0.0000    0.0000    0.0000   -0.0000    0.0000    0.0000   -0.0000    0.0000   -0.0000
      107 MO     4f1+      -0.0000    0.0000   -0.0000   -0.0000    0.0000   -0.0000    0.0000   -0.0000    0.0002   -0.0022
      108 MO     5f1+      -0.0000    0.0000   -0.0000    0.0000    0.0000   -0.0000    0.0000   -0.0000    0.0001   -0.0016
      109 MO     6f1+       0.0000   -0.0000    0.0000    0.0000   -0.0000    0.0000    0.0000    0.0000   -0.0001    0.0009
      110 MO     7f1+      -0.0000    0.0000   -0.0000    0.0000    0.0000   -0.0000   -0.0000   -0.0000    0.0000   -0.0005
      111 MO     8f1+       0.0000    0.0000   -0.0000    0.0000    0.0000   -0.0000   -0.0000    0.0000    0.0000   -0.0002
      112 MO     9f1+      -0.0000    0.0000    0.0000   -0.0000   -0.0000    0.0000    0.0000   -0.0000   -0.0000    0.0009
      113 MO     4f2+       0.0000   -0.0000   -0.0000    0.0000   -0.0000    0.0000   -0.0001    0.0000    0.0000    0.0000
      114 MO     5f2+       0.0000   -0.0000    0.0000    0.0000   -0.0000   -0.0000   -0.0001    0.0000    0.0000   -0.0000
      115 MO     6f2+      -0.0000    0.0000   -0.0000   -0.0000    0.0000    0.0000    0.0001   -0.0000    0.0000    0.0000
      116 MO     7f2+      -0.0000   -0.0000   -0.0000    0.0000   -0.0000   -0.0000   -0.0000    0.0000   -0.0000    0.0000
      117 MO     8f2+       0.0000    0.0000   -0.0000    0.0000   -0.0000   -0.0000   -0.0000    0.0000   -0.0000    0.0000
      118 MO     9f2+       0.0000   -0.0000   -0.0000   -0.0000    0.0000    0.0000   -0.0000    0.0000    0.0000   -0.0000
      119 MO     4f3+       0.0000   -0.0000    0.0000   -0.0000    0.0000    0.0000    0.0000   -0.0000   -0.0002    0.0029
      120 MO     5f3+       0.0000   -0.0000    0.0000   -0.0000   -0.0000    0.0000    0.0000    0.0000   -0.0002    0.0021
      121 MO     6f3+      -0.0000    0.0000   -0.0000    0.0000    0.0000   -0.0000   -0.0000   -0.0000    0.0001   -0.0011
      122 MO     7f3+       0.0000   -0.0000    0.0000   -0.0000   -0.0000    0.0000   -0.0000    0.0000   -0.0000    0.0006
      123 MO     8f3+      -0.0000   -0.0000    0.0000   -0.0000   -0.0000    0.0000   -0.0000    0.0000   -0.0000    0.0003
      124 MO     9f3+       0.0000   -0.0000   -0.0000   -0.0000    0.0000   -0.0000    0.0000   -0.0000    0.0000   -0.0011
      125 MO     5g4-       0.0000    0.0000    0.0000    0.0000    0.0000   -0.0000    0.0000    0.0000    0.0000    0.0000
      126 MO     6g4-       0.0000   -0.0000   -0.0000   -0.0000   -0.0000   -0.0000   -0.0000   -0.0000   -0.0000   -0.0000
      127 MO     7g4-      -0.0000    0.0000    0.0000    0.0000    0.0000    0.0000    0.0000    0.0000    0.0000    0.0000
      128 MO     8g4-       0.0000   -0.0000   -0.0000   -0.0000   -0.0000   -0.0000   -0.0000   -0.0000   -0.0000   -0.0000
      129 MO     5g3-      -0.0000    0.0000    0.0000    0.0000    0.0000    0.0000   -0.0000   -0.0000   -0.0000   -0.0000
      130 MO     6g3-      -0.0000   -0.0000    0.0000    0.0000    0.0000   -0.0000    0.0000    0.0000    0.0000    0.0000
      131 MO     7g3-       0.0000    0.0000   -0.0000   -0.0000   -0.0000    0.0000   -0.0000   -0.0000   -0.0000   -0.0000
      132 MO     8g3-      -0.0000   -0.0000    0.0000    0.0000    0.0000   -0.0000    0.0000    0.0000    0.0000    0.0000
      133 MO     5g2-      -0.0000   -0.0000   -0.0000   -0.0000   -0.0000   -0.0000   -0.0000   -0.0000   -0.0000   -0.0000
      134 MO     6g2-      -0.0000    0.0000    0.0000    0.0000    0.0000    0.0000    0.0000    0.0000    0.0000    0.0000
      135 MO     7g2-      -0.0000   -0.0000   -0.0000   -0.0000   -0.0000   -0.0000   -0.0000   -0.0000   -0.0000   -0.0000
      136 MO     8g2-       0.0000    0.0000    0.0000    0.0000    0.0000    0.0000    0.0000    0.0000    0.0000    0.0000
      137 MO     5g1-       0.0000   -0.0000   -0.0000   -0.0000   -0.0000    0.0000    0.0000    0.0000    0.0000   -0.0000
      138 MO     6g1-      -0.0000    0.0000    0.0000    0.0000    0.0000   -0.0000    0.0000    0.0000    0.0000   -0.0000
      139 MO     7g1-       0.0000   -0.0000   -0.0000   -0.0000   -0.0000   -0.0000   -0.0000   -0.0000   -0.0000    0.0000
      140 MO     8g1-      -0.0000    0.0000    0.0000    0.0000    0.0000    0.0000    0.0000    0.0000    0.0000    0.0000
      141 MO     5g0       -0.0000   -0.0000    0.0000    0.0000    0.0000   -0.0000   -0.0000    0.0000    0.0000   -0.0001
      142 MO     6g0       -0.0000    0.0000   -0.0000    0.0000   -0.0000    0.0000    0.0000   -0.0000   -0.0000    0.0001
      143 MO     7g0        0.0000   -0.0000    0.0000   -0.0000    0.0000   -0.0000   -0.0000    0.0000    0.0000   -0.0000
      144 MO     8g0       -0.0000    0.0000   -0.0000    0.0000   -0.0000    0.0000    0.0000   -0.0000   -0.0000    0.0000
      145 MO     5g1+       0.0000   -0.0000   -0.0000   -0.0000    0.0000    0.0000   -0.0000    0.0000    0.0000    0.0000
      146 MO     6g1+       0.0000   -0.0000   -0.0000    0.0000   -0.0000   -0.0000    0.0000   -0.0000    0.0000    0.0000
      147 MO     7g1+       0.0000    0.0000   -0.0000   -0.0000    0.0000    0.0000   -0.0000    0.0000   -0.0000   -0.0000
      148 MO     8g1+      -0.0000    0.0000    0.0000    0.0000   -0.0000   -0.0000    0.0000   -0.0000    0.0000   -0.0000
      149 MO     5g2+      -0.0000    0.0000   -0.0000   -0.0000    0.0000    0.0000    0.0000   -0.0000   -0.0000    0.0002
      150 MO     6g2+       0.0000   -0.0000    0.0000    0.0000    0.0000   -0.0000    0.0000   -0.0000    0.0000   -0.0001
      151 MO     7g2+      -0.0000    0.0000   -0.0000   -0.0000    0.0000    0.0000   -0.0000    0.0000   -0.0000    0.0001
      152 MO     8g2+       0.0000   -0.0000    0.0000    0.0000   -0.0000   -0.0000    0.0000   -0.0000    0.0000   -0.0000
      153 MO     5g3+       0.0000   -0.0000   -0.0000    0.0000   -0.0000    0.0000    0.0000   -0.0000    0.0000    0.0000
      154 MO     6g3+       0.0000   -0.0000   -0.0000   -0.0000    0.0000   -0.0000   -0.0000    0.0000    0.0000    0.0000
      155 MO     7g3+       0.0000    0.0000   -0.0000    0.0000   -0.0000    0.0000    0.0000   -0.0000   -0.0000   -0.0000
      156 MO     8g3+      -0.0000    0.0000    0.0000   -0.0000    0.0000   -0.0000   -0.0000    0.0000    0.0000   -0.0000
      157 MO     5g4+       0.0000   -0.0000   -0.0000   -0.0000    0.0000   -0.0000    0.0000   -0.0000    0.0000   -0.0002
      158 MO     6g4+      -0.0000    0.0000   -0.0000   -0.0000    0.0000    0.0000   -0.0000   -0.0000   -0.0000    0.0002
      159 MO     7g4+       0.0000   -0.0000    0.0000   -0.0000    0.0000   -0.0000    0.0000    0.0000    0.0000   -0.0001
      160 MO     8g4+      -0.0000    0.0000   -0.0000    0.0000   -0.0000    0.0000    0.0000    0.0000   -0.0000    0.0000
      161 MO     6h5-      -0.0000   -0.0000   -0.0000   -0.0000   -0.0000   -0.0000   -0.0000   -0.0000    0.0000   -0.0000
      162 MO     7h5-       0.0000    0.0000    0.0000    0.0000    0.0000    0.0000    0.0000    0.0000   -0.0000    0.0000
      163 MO     6h4-      -0.0000   -0.0000    0.0000    0.0000    0.0000    0.0000    0.0000    0.0000    0.0000    0.0000
      164 MO     7h4-      -0.0000    0.0000    0.0000    0.0000    0.0000    0.0000   -0.0000   -0.0000   -0.0000    0.0000
      165 MO     6h3-      -0.0000   -0.0000   -0.0000    0.0000    0.0000   -0.0000    0.0000    0.0000    0.0000   -0.0000
      166 MO     7h3-       0.0000    0.0000    0.0000    0.0000   -0.0000    0.0000   -0.0000   -0.0000   -0.0000    0.0000
      167 MO     6h2-       0.0000   -0.0000   -0.0000   -0.0000   -0.0000    0.0000    0.0000    0.0000    0.0000   -0.0000
      168 MO     7h2-       0.0000   -0.0000   -0.0000   -0.0000   -0.0000   -0.0000   -0.0000   -0.0000   -0.0000   -0.0000
      169 MO     6h1-      -0.0000   -0.0000   -0.0000   -0.0000   -0.0000   -0.0000   -0.0000   -0.0000    0.0000   -0.0000
      170 MO     7h1-       0.0000    0.0000    0.0000    0.0000    0.0000    0.0000    0.0000    0.0000   -0.0000    0.0000
      171 MO     6h0       -0.0000    0.0000    0.0000   -0.0000    0.0000   -0.0000   -0.0000    0.0000   -0.0000   -0.0000
      172 MO     7h0       -0.0000    0.0000    0.0000   -0.0000   -0.0000   -0.0000    0.0000   -0.0000    0.0000   -0.0000
      173 MO     6h1+      -0.0000    0.0000    0.0000   -0.0000    0.0000   -0.0000    0.0000   -0.0000   -0.0000    0.0000
      174 MO     7h1+      -0.0000    0.0000    0.0000    0.0000   -0.0000   -0.0000   -0.0000    0.0000    0.0000   -0.0000
      175 MO     6h2+       0.0000   -0.0000   -0.0000    0.0000   -0.0000    0.0000    0.0000   -0.0000    0.0000    0.0000
      176 MO     7h2+       0.0000   -0.0000   -0.0000   -0.0000    0.0000    0.0000   -0.0000    0.0000   -0.0000    0.0000
      177 MO     6h3+       0.0000   -0.0000   -0.0000   -0.0000    0.0000    0.0000    0.0000   -0.0000    0.0000   -0.0000
      178 MO     7h3+       0.0000   -0.0000   -0.0000    0.0000    0.0000    0.0000   -0.0000    0.0000   -0.0000    0.0000
      179 MO     6h4+       0.0000   -0.0000   -0.0000   -0.0000    0.0000    0.0000   -0.0000    0.0000    0.0000    0.0000
      180 MO     7h4+       0.0000   -0.0000   -0.0000    0.0000    0.0000    0.0000    0.0000   -0.0000   -0.0000    0.0000
      181 MO     6h5+      -0.0000    0.0000    0.0000   -0.0000    0.0000   -0.0000    0.0000   -0.0000   -0.0000    0.0001
      182 MO     7h5+      -0.0000    0.0000    0.0000   -0.0000    0.0000   -0.0000    0.0000   -0.0000    0.0000   -0.0000

          Orbital           11        12        13        14        15        16        17        18        19        20    
          Energy           -3.3792   -3.3792   -3.3784   -3.3784    3.0506    4.3088    4.3089    4.4550    5.9848    6.1095
          Occ. No.          2.0000    2.0000    2.0000    2.0000    2.0000    2.0000    2.0000    2.0000    0.0000    0.0000

        1 MO     1s        -0.0000    0.0000   -0.0000   -0.0000   -0.0000    0.0000    0.0000   -0.0000    0.0000   -0.0000
        2 MO     2s        -0.0000   -0.0000   -0.0000   -0.0000   -0.0000   -0.0000   -0.0000    0.0001   -0.0000   -0.0000
        3 MO     3s         0.0000    0.0000    0.0000    0.0000    0.0016    0.0000   -0.0000   -0.0025    0.0006    0.0000
        4 MO     4s        -0.0000   -0.0000   -0.0000   -0.0000    0.9552    0.0002   -0.0000   -0.2770    0.0464   -0.0000
        5 MO     5s         0.0000    0.0000    0.0000    0.0000   -0.0187   -0.0001    0.0000    0.0983    0.4259   -0.0029
        6 MO     6s        -0.0000   -0.0000   -0.0000   -0.0000    0.0170    0.0001   -0.0000   -0.0834   -0.2318    0.0010
        7 MO     7s         0.0000    0.0000   -0.0000   -0.0000   -0.0246   -0.0001    0.0000    0.0918    0.0817   -0.0003
        8 MO     8s         0.0000    0.0000    0.0000    0.0000    0.0012   -0.0000    0.0000    0.0176    0.1573   -0.0007
        9 MO     9s        -0.0000   -0.0000   -0.0000   -0.0000    0.0026   -0.0000    0.0000   -0.0046    0.0786   -0.0005
       10 MO    10s         0.0000    0.0000    0.0000    0.0000    0.0003   -0.0000   -0.0000   -0.0014    0.0089   -0.0001
       11 MO     2px       -0.0000   -0.0000   -0.0000   -0.0000    0.0000    0.0000   -0.0000   -0.0001    0.0000    0.0000
       12 MO     3px       -0.0000   -0.0000   -0.0000   -0.0000   -0.0026   -0.0000    0.0000    0.0034   -0.0011   -0.0000
       13 MO     4px        0.0000    0.0000    0.0000    0.0000    0.2916   -0.0015    0.0000    0.9014   -0.1715   -0.0002
       14 MO     5px       -0.0000   -0.0000   -0.0000   -0.0000    0.0047    0.0000    0.0000   -0.0107    0.5334   -0.0025
       15 MO     6px        0.0000    0.0000    0.0000    0.0000   -0.0165   -0.0001   -0.0000    0.0230   -0.3479    0.0010
       16 MO     7px       -0.0000   -0.0000   -0.0000   -0.0000    0.0089    0.0000   -0.0000   -0.0207   -0.1920    0.0013
       17 MO     8px       -0.0000    0.0000   -0.0000   -0.0000   -0.0003    0.0000   -0.0000    0.0075    0.0584    0.0004
       18 MO     9px        0.0000    0.0000    0.0000    0.0000   -0.0001    0.0000   -0.0000    0.0081    0.0706    0.0000
       19 MO    10px        0.0000    0.0000    0.0000    0.0000    0.0001   -0.0000    0.0000    0.0016    0.0141   -0.0000
       20 MO     2py        0.0000   -0.0000    0.0000   -0.0000    0.0000   -0.0000   -0.0001    0.0000    0.0000    0.0000
       21 MO     3py        0.0000   -0.0060    0.0000   -0.0005   -0.0000    0.0000    0.0023    0.0000    0.0000   -0.0000
       22 MO     4py       -0.0000    0.0037   -0.0000    0.0003   -0.0000    0.0000    0.9735   -0.0000    0.0000    0.0000
       23 MO     5py        0.0000   -0.0006    0.0000   -0.0001    0.0000   -0.0000   -0.0505    0.0000   -0.0000   -0.0000
       24 MO     6py       -0.0000    0.0008   -0.0000    0.0001   -0.0000    0.0000    0.0521    0.0000    0.0000    0.0000
       25 MO     7py        0.0000   -0.0002    0.0000   -0.0000    0.0000   -0.0000   -0.0046   -0.0000    0.0000   -0.0000
       26 MO     8py        0.0000   -0.0000   -0.0000    0.0000   -0.0000   -0.0000   -0.0043    0.0000   -0.0000   -0.0000
       27 MO     9py       -0.0000    0.0000   -0.0000    0.0000    0.0000   -0.0000   -0.0001   -0.0000   -0.0000   -0.0000
       28 MO    10py       -0.0000    0.0000   -0.0000    0.0000   -0.0000    0.0000    0.0003    0.0000    0.0000    0.0000
       29 MO     2pz       -0.0000   -0.0000    0.0000    0.0000    0.0000   -0.0001    0.0000   -0.0000    0.0000    0.0000
       30 MO     3pz       -0.0060   -0.0000    0.0004    0.0000   -0.0000    0.0023   -0.0000    0.0000   -0.0000   -0.0011
       31 MO     4pz        0.0038    0.0000   -0.0003   -0.0000    0.0002    0.9735   -0.0000    0.0014   -0.0005   -0.1266
       32 MO     5pz       -0.0006   -0.0000    0.0000    0.0000   -0.0000   -0.0504    0.0000   -0.0001    0.0005    0.3260
       33 MO     6pz        0.0008    0.0000   -0.0001   -0.0000   -0.0000    0.0520   -0.0000    0.0000   -0.0006   -0.2078
       34 MO     7pz       -0.0002   -0.0000    0.0000    0.0000    0.0000   -0.0047    0.0000   -0.0000    0.0000   -0.0974
       35 MO     8pz       -0.0000   -0.0000   -0.0000   -0.0000   -0.0000   -0.0042    0.0000    0.0000    0.0003    0.0345
       36 MO     9pz        0.0000    0.0000   -0.0000    0.0000   -0.0000   -0.0001   -0.0000    0.0000    0.0002    0.0376
       37 MO    10pz        0.0000    0.0000   -0.0000   -0.0000    0.0000    0.0003   -0.0000    0.0000    0.0000    0.0073
       38 MO     3d2-      -0.0000    0.9963   -0.0000    0.0855    0.0000   -0.0000   -0.0030    0.0000   -0.0000    0.0000
       39 MO     4d2-       0.0000   -0.0033    0.0000   -0.0003   -0.0000    0.0000    0.2056   -0.0000   -0.0000   -0.0000
       40 MO     5d2-      -0.0000    0.0025   -0.0000    0.0002    0.0000   -0.0000   -0.0542    0.0000   -0.0000   -0.0000
       41 MO     6d2-       0.0000   -0.0013    0.0000   -0.0001   -0.0000   -0.0000   -0.0170    0.0000    0.0000    0.0000
       42 MO     7d2-      -0.0000    0.0007   -0.0000    0.0001    0.0000    0.0000    0.0124   -0.0000    0.0000    0.0000
       43 MO     8d2-       0.0000   -0.0005    0.0000   -0.0000    0.0000    0.0000    0.0006    0.0000   -0.0000   -0.0000
       44 MO     9d2-      -0.0000    0.0004   -0.0000    0.0000    0.0000   -0.0000   -0.0028    0.0000   -0.0000   -0.0000
       45 MO    10d2-       0.0000   -0.0005    0.0000   -0.0000    0.0000   -0.0000   -0.0023    0.0000   -0.0000   -0.0000
       46 MO    11d2-      -0.0000    0.0001   -0.0000    0.0000   -0.0000   -0.0000   -0.0000    0.0000    0.0000    0.0000
       47 MO     3d1-       0.0000   -0.0855   -0.0000    0.9963    0.0000   -0.0000   -0.0000    0.0000   -0.0000   -0.0000
       48 MO     4d1-      -0.0000    0.0002    0.0000   -0.0027    0.0000   -0.0000   -0.0045    0.0000    0.0000   -0.0000
       49 MO     5d1-       0.0000   -0.0001   -0.0000    0.0019   -0.0000   -0.0000   -0.0011   -0.0000    0.0000   -0.0000
       50 MO     6d1-      -0.0000    0.0001    0.0000   -0.0009   -0.0000    0.0000    0.0015    0.0000   -0.0000   -0.0000
       51 MO     7d1-       0.0000   -0.0000   -0.0000    0.0005    0.0000    0.0000    0.0003    0.0000   -0.0000   -0.0000
       52 MO     8d1-      -0.0000    0.0000    0.0000   -0.0004    0.0000   -0.0000   -0.0010    0.0000    0.0000   -0.0000
       53 MO     9d1-       0.0000   -0.0000   -0.0000    0.0004   -0.0000   -0.0000   -0.0005   -0.0000    0.0000   -0.0000
       54 MO    10d1-      -0.0000    0.0000    0.0000   -0.0005   -0.0000    0.0000    0.0001    0.0000    0.0000   -0.0000
       55 MO    11d1-       0.0000   -0.0000   -0.0000    0.0001    0.0000    0.0000    0.0000   -0.0000    0.0000   -0.0000
       56 MO     3d0        0.0612    0.0000    0.8606    0.0000    0.0004   -0.0000    0.0000    0.0016   -0.0009    0.0003
       57 MO     4d0       -0.0001   -0.0000   -0.0023   -0.0000   -0.0133    0.0043   -0.0000   -0.1386   -0.1907    0.1979
       58 MO     5d0        0.0001    0.0000    0.0016    0.0000   -0.0005    0.0008   -0.0000    0.0345   -0.0837    0.0163
       59 MO     6d0       -0.0001   -0.0000   -0.0008   -0.0000    0.0042   -0.0013    0.0000    0.0120    0.0615   -0.0279
       60 MO     7d0        0.0000    0.0000    0.0004    0.0000   -0.0012   -0.0003    0.0000   -0.0069    0.0374   -0.0180
       61 MO     8d0       -0.0000   -0.0000   -0.0004   -0.0000   -0.0008    0.0008   -0.0000   -0.0013   -0.0287    0.0205
       62 MO     9d0        0.0000    0.0000    0.0003    0.0000    0.0005    0.0004   -0.0000    0.0019   -0.0217    0.0272
       63 MO    10d0       -0.0000   -0.0000   -0.0004   -0.0000    0.0006   -0.0001    0.0000    0.0019    0.0010    0.0069
       64 MO    11d0        0.0000    0.0000    0.0001    0.0000    0.0000   -0.0000    0.0000    0.0001    0.0010    0.0004
       65 MO     3d1+       0.9973    0.0000   -0.0726   -0.0000    0.0000   -0.0030    0.0000   -0.0000    0.0000    0.0019
       66 MO     4d1+      -0.0033   -0.0000    0.0003    0.0000   -0.0000    0.2060   -0.0000    0.0007    0.0015    0.6667
       67 MO     5d1+       0.0025    0.0000   -0.0002   -0.0000    0.0000   -0.0541    0.0000   -0.0002    0.0001    0.1345
       68 MO     6d1+      -0.0013   -0.0000    0.0001    0.0000   -0.0000   -0.0171    0.0000   -0.0001   -0.0006   -0.0989
       69 MO     7d1+       0.0007    0.0000   -0.0000   -0.0000    0.0000    0.0123   -0.0000    0.0000    0.0001   -0.0466
       70 MO     8d1+      -0.0005   -0.0000    0.0000    0.0000    0.0000    0.0007   -0.0000    0.0000    0.0003    0.0780
       71 MO     9d1+       0.0004    0.0000   -0.0000   -0.0000   -0.0000   -0.0028    0.0000   -0.0000   -0.0001    0.0629
       72 MO    10d1+      -0.0005   -0.0000    0.0000    0.0000   -0.0000   -0.0024    0.0000   -0.0000   -0.0002    0.0048
       73 MO    11d1+       0.0001    0.0000   -0.0000   -0.0000   -0.0000   -0.0000    0.0000   -0.0000   -0.0000   -0.0011
       74 MO     3d2+       0.0391    0.0000    0.5041    0.0000   -0.0006    0.0000    0.0000   -0.0029    0.0016    0.0002
       75 MO     4d2+      -0.0001   -0.0000   -0.0014   -0.0000    0.0231    0.0020    0.0000    0.2406    0.3346    0.1141
       76 MO     5d2+       0.0001    0.0000    0.0010    0.0000    0.0008    0.0006   -0.0000   -0.0597    0.1454    0.0089
       77 MO     6d2+      -0.0000   -0.0000   -0.0005   -0.0000   -0.0073   -0.0008   -0.0000   -0.0210   -0.1076   -0.0161
       78 MO     7d2+       0.0000    0.0000    0.0003    0.0000    0.0021   -0.0002    0.0000    0.0120   -0.0653   -0.0101
       79 MO     8d2+      -0.0000   -0.0000   -0.0002   -0.0000    0.0014    0.0005   -0.0000    0.0023    0.0501    0.0117
       80 MO     9d2+       0.0000    0.0000    0.0002    0.0000   -0.0009    0.0002   -0.0000   -0.0033    0.0380    0.0153
       81 MO    10d2+      -0.0000   -0.0000   -0.0002   -0.0000   -0.0011   -0.0001   -0.0000   -0.0033   -0.0017    0.0038
       82 MO    11d2+       0.0000    0.0000    0.0000    0.0000   -0.0001   -0.0000    0.0000   -0.0002   -0.0017    0.0002
       83 MO     4f3-      -0.0000    0.0033   -0.0000    0.0003   -0.0000    0.0000    0.0249   -0.0000   -0.0000   -0.0000
       84 MO     5f3-      -0.0000    0.0024   -0.0000    0.0002   -0.0000   -0.0000   -0.0139    0.0000    0.0000    0.0000
       85 MO     6f3-       0.0000   -0.0013    0.0000   -0.0001    0.0000    0.0000    0.0038   -0.0000   -0.0000   -0.0000
       86 MO     7f3-      -0.0000    0.0007   -0.0000    0.0001    0.0000    0.0000    0.0058   -0.0000   -0.0000   -0.0000
       87 MO     8f3-      -0.0000    0.0004   -0.0000    0.0000   -0.0000    0.0000    0.0008   -0.0000    0.0000    0.0000
       88 MO     9f3-       0.0000   -0.0013    0.0000   -0.0001   -0.0000    0.0000    0.0009   -0.0000    0.0000    0.0000
       89 MO     4f2-       0.0000   -0.0002   -0.0000    0.0025    0.0000   -0.0000   -0.0076    0.0000    0.0000   -0.0000
       90 MO     5f2-       0.0000   -0.0002   -0.0000    0.0019    0.0000    0.0000    0.0054   -0.0000   -0.0000   -0.0000
       91 MO     6f2-      -0.0000    0.0001    0.0000   -0.0010    0.0000    0.0000    0.0000    0.0000   -0.0000   -0.0000
       92 MO     7f2-       0.0000   -0.0000   -0.0000    0.0006    0.0000   -0.0000   -0.0019    0.0000    0.0000    0.0000
       93 MO     8f2-       0.0000   -0.0000   -0.0000    0.0003    0.0000    0.0000    0.0005    0.0000   -0.0000   -0.0000
       94 MO     9f2-      -0.0000    0.0001    0.0000   -0.0010   -0.0000   -0.0000   -0.0002    0.0000   -0.0000   -0.0000
       95 MO     4f1-       0.0000   -0.0008    0.0000   -0.0001   -0.0000   -0.0000   -0.0064    0.0000    0.0000    0.0000
       96 MO     5f1-       0.0000   -0.0006    0.0000   -0.0001   -0.0000    0.0000    0.0036   -0.0000   -0.0000   -0.0000
       97 MO     6f1-      -0.0000    0.0003   -0.0000    0.0000   -0.0000   -0.0000   -0.0010    0.0000    0.0000   -0.0000
       98 MO     7f1-       0.0000   -0.0002    0.0000   -0.0000   -0.0000   -0.0000   -0.0015    0.0000    0.0000    0.0000
       99 MO     8f1-       0.0000   -0.0001    0.0000   -0.0000    0.0000   -0.0000   -0.0002    0.0000   -0.0000   -0.0000
      100 MO     9f1-      -0.0000    0.0003   -0.0000    0.0000   -0.0000   -0.0000   -0.0002    0.0000   -0.0000   -0.0000
      101 MO     4f0       -0.0021   -0.0000    0.0001    0.0000    0.0010   -0.0160    0.0000    0.0044    0.0245   -0.2155
      102 MO     5f0       -0.0015   -0.0000    0.0001    0.0000   -0.0007    0.0090   -0.0000   -0.0034   -0.0263    0.1436
      103 MO     6f0        0.0008    0.0000   -0.0001   -0.0000    0.0001   -0.0024    0.0000   -0.0005   -0.0051    0.0130
      104 MO     7f0       -0.0005   -0.0000    0.0000    0.0000    0.0003   -0.0037    0.0000    0.0007    0.0150   -0.0457
      105 MO     8f0       -0.0002   -0.0000    0.0000    0.0000   -0.0000   -0.0005    0.0000    0.0001   -0.0259    0.0303
      106 MO     9f0        0.0008    0.0000   -0.0001   -0.0000    0.0000   -0.0006    0.0000    0.0001   -0.0020   -0.0011
      107 MO     4f1+       0.0002    0.0000    0.0020    0.0000   -0.0028    0.0059   -0.0000   -0.0196   -0.0904    0.1210
      108 MO     5f1+       0.0001    0.0000    0.0015    0.0000    0.0011   -0.0043    0.0000    0.0090    0.0468   -0.1009
      109 MO     6f1+      -0.0000   -0.0000   -0.0008   -0.0000   -0.0006   -0.0000   -0.0000   -0.0036   -0.0110   -0.0252
      110 MO     7f1+       0.0000    0.0000    0.0005    0.0000   -0.0005    0.0015   -0.0000   -0.0039   -0.0268    0.0223
      111 MO     8f1+       0.0000    0.0000    0.0002    0.0000   -0.0002   -0.0003    0.0000   -0.0013    0.0090   -0.0272
      112 MO     9f1+      -0.0001   -0.0000   -0.0008   -0.0000   -0.0001    0.0002   -0.0000   -0.0007   -0.0014   -0.0006
      113 MO     4f2+       0.0027    0.0000   -0.0002   -0.0000    0.0008    0.0205   -0.0000    0.0036    0.0206    0.2778
      114 MO     5f2+       0.0019    0.0000   -0.0001   -0.0000   -0.0006   -0.0115    0.0000   -0.0028   -0.0213   -0.1846
      115 MO     6f2+      -0.0010   -0.0000    0.0001    0.0000    0.0001    0.0031   -0.0000   -0.0003   -0.0036   -0.0164
      116 MO     7f2+       0.0006    0.0000   -0.0000   -0.0000    0.0002    0.0048   -0.0000    0.0006    0.0121    0.0588
      117 MO     8f2+       0.0003    0.0000   -0.0000   -0.0000   -0.0000    0.0006   -0.0000    0.0001   -0.0199   -0.0383
      118 MO     9f2+      -0.0010   -0.0000    0.0001    0.0000    0.0000    0.0007   -0.0000    0.0001   -0.0015    0.0015
      119 MO     4f3+       0.0001    0.0000    0.0016    0.0000    0.0037    0.0046   -0.0000    0.0256    0.1197    0.0946
      120 MO     5f3+       0.0001    0.0000    0.0012    0.0000   -0.0014   -0.0033    0.0000   -0.0119   -0.0629   -0.0792
      121 MO     6f3+      -0.0000   -0.0000   -0.0006   -0.0000    0.0008   -0.0000    0.0000    0.0046    0.0140   -0.0200
      122 MO     7f3+       0.0000    0.0000    0.0004    0.0000    0.0007    0.0012   -0.0000    0.0051    0.0353    0.0172
      123 MO     8f3+       0.0000    0.0000    0.0002    0.0000    0.0003   -0.0003    0.0000    0.0017   -0.0120   -0.0210
      124 MO     9f3+      -0.0000   -0.0000   -0.0006   -0.0000    0.0001    0.0001   -0.0000    0.0009    0.0018   -0.0004
      125 MO     5g4-       0.0000   -0.0002    0.0000   -0.0000   -0.0000    0.0000    0.0063   -0.0000   -0.0000   -0.0000
      126 MO     6g4-      -0.0000    0.0002   -0.0000    0.0000   -0.0000    0.0000    0.0063   -0.0000   -0.0000   -0.0000
      127 MO     7g4-       0.0000   -0.0001    0.0000   -0.0000   -0.0000    0.0000    0.0007   -0.0000   -0.0000   -0.0000
      128 MO     8g4-      -0.0000    0.0000   -0.0000    0.0000   -0.0000   -0.0000   -0.0010    0.0000    0.0000    0.0000
      129 MO     5g3-       0.0000   -0.0000    0.0000   -0.0001    0.0000   -0.0000   -0.0051    0.0000    0.0000    0.0000
      130 MO     6g3-       0.0000   -0.0000   -0.0000    0.0001   -0.0000   -0.0000   -0.0061    0.0000    0.0000    0.0000
      131 MO     7g3-      -0.0000    0.0000    0.0000   -0.0001   -0.0000   -0.0000   -0.0017    0.0000    0.0000    0.0000
      132 MO     8g3-      -0.0000    0.0000   -0.0000    0.0000    0.0000    0.0000    0.0004   -0.0000    0.0000    0.0000
      133 MO     5g2-      -0.0000    0.0001   -0.0000    0.0000    0.0000   -0.0000   -0.0023    0.0000    0.0000    0.0000
      134 MO     6g2-       0.0000   -0.0001    0.0000   -0.0000    0.0000   -0.0000   -0.0023    0.0000    0.0000    0.0000
      135 MO     7g2-      -0.0000    0.0000   -0.0000    0.0000   -0.0000   -0.0000   -0.0003    0.0000    0.0000    0.0000
      136 MO     8g2-       0.0000   -0.0000    0.0000   -0.0000    0.0000    0.0000    0.0004   -0.0000   -0.0000   -0.0000
      137 MO     5g1-      -0.0000    0.0000   -0.0000    0.0001   -0.0000    0.0000    0.0023   -0.0000   -0.0000   -0.0000
      138 MO     6g1-      -0.0000    0.0000    0.0000   -0.0000   -0.0000    0.0000    0.0027   -0.0000   -0.0000   -0.0000
      139 MO     7g1-       0.0000   -0.0000   -0.0000    0.0000   -0.0000    0.0000    0.0005   -0.0000   -0.0000   -0.0000
      140 MO     8g1-       0.0000   -0.0000    0.0000   -0.0000    0.0000   -0.0000   -0.0004    0.0000    0.0000   -0.0000
      141 MO     5g0        0.0000   -0.0000    0.0001    0.0000   -0.0003   -0.0028    0.0000    0.0007    0.0015   -0.0361
      142 MO     6g0       -0.0000   -0.0000   -0.0001   -0.0000   -0.0003   -0.0034    0.0000   -0.0003   -0.0019   -0.0537
      143 MO     7g0        0.0000    0.0000    0.0000    0.0000   -0.0001   -0.0010    0.0000   -0.0007   -0.0052   -0.0278
      144 MO     8g0        0.0000    0.0000   -0.0000   -0.0000    0.0000    0.0001   -0.0000   -0.0003   -0.0029   -0.0054
      145 MO     5g1+       0.0002    0.0000   -0.0000   -0.0000    0.0019   -0.0052    0.0000    0.0036    0.0227   -0.0739
      146 MO     6g1+      -0.0002   -0.0000    0.0000    0.0000    0.0016   -0.0052    0.0000    0.0048    0.0356   -0.0967
      147 MO     7g1+       0.0001    0.0000   -0.0000   -0.0000    0.0000   -0.0006    0.0000    0.0015    0.0188   -0.0357
      148 MO     8g1+      -0.0000   -0.0000    0.0000    0.0000   -0.0003    0.0008   -0.0000   -0.0003    0.0036   -0.0001
      149 MO     5g2+       0.0000    0.0000   -0.0001   -0.0000    0.0005    0.0030   -0.0000   -0.0011   -0.0028    0.0422
      150 MO     6g2+       0.0000    0.0000    0.0001    0.0000    0.0004    0.0036   -0.0000    0.0003    0.0021    0.0611
      151 MO     7g2+      -0.0000   -0.0000   -0.0000   -0.0000    0.0001    0.0008   -0.0000    0.0011    0.0073    0.0293
      152 MO     8g2+      -0.0000   -0.0000    0.0000    0.0000   -0.0000   -0.0004    0.0000    0.0005    0.0043    0.0045
      153 MO     5g3+      -0.0001   -0.0000    0.0000    0.0000    0.0022    0.0046   -0.0000    0.0043    0.0267    0.0648
      154 MO     6g3+       0.0001    0.0000   -0.0000   -0.0000    0.0019    0.0045   -0.0000    0.0057    0.0415    0.0845
      155 MO     7g3+      -0.0001   -0.0000    0.0000    0.0000    0.0000    0.0005   -0.0000    0.0016    0.0215    0.0308
      156 MO     8g3+       0.0000    0.0000   -0.0000   -0.0000   -0.0004   -0.0007    0.0000   -0.0003    0.0039   -0.0002
      157 MO     5g4+       0.0000    0.0000   -0.0001   -0.0000   -0.0005    0.0038   -0.0000    0.0017    0.0051    0.0509
      158 MO     6g4+       0.0000    0.0000    0.0001    0.0000   -0.0005    0.0045   -0.0000   -0.0002   -0.0009    0.0746
      159 MO     7g4+      -0.0000   -0.0000   -0.0000   -0.0000   -0.0001    0.0011   -0.0000   -0.0014   -0.0092    0.0370
      160 MO     8g4+      -0.0000   -0.0000    0.0000    0.0000    0.0000   -0.0003    0.0000   -0.0007   -0.0059    0.0064
      161 MO     6h5-      -0.0000    0.0001   -0.0000    0.0000    0.0000    0.0000    0.0012    0.0000    0.0000   -0.0000
      162 MO     7h5-       0.0000   -0.0000    0.0000   -0.0000   -0.0000    0.0000    0.0016   -0.0000   -0.0000   -0.0000
      163 MO     6h4-       0.0000   -0.0000   -0.0000    0.0000    0.0000   -0.0000   -0.0012    0.0000    0.0000    0.0000
      164 MO     7h4-       0.0000   -0.0000    0.0000   -0.0000    0.0000   -0.0000   -0.0019    0.0000    0.0000    0.0000
      165 MO     6h3-       0.0000   -0.0000    0.0000   -0.0000    0.0000   -0.0000   -0.0005    0.0000    0.0000   -0.0000
      166 MO     7h3-      -0.0000    0.0000   -0.0000    0.0000   -0.0000   -0.0000   -0.0007    0.0000    0.0000   -0.0000
      167 MO     6h2-      -0.0000    0.0000    0.0000   -0.0000   -0.0000    0.0000    0.0026   -0.0000   -0.0000   -0.0000
      168 MO     7h2-      -0.0000    0.0000   -0.0000    0.0000    0.0000    0.0000    0.0029   -0.0000   -0.0000   -0.0000
      169 MO     6h1-      -0.0000    0.0000    0.0000   -0.0000    0.0000    0.0000    0.0000    0.0000    0.0000    0.0000
      170 MO     7h1-       0.0000   -0.0000   -0.0000    0.0000   -0.0000    0.0000    0.0001   -0.0000   -0.0000    0.0000
      171 MO     6h0        0.0000    0.0000   -0.0000   -0.0000   -0.0013    0.0007   -0.0000   -0.0025   -0.0112    0.0098
      172 MO     7h0       -0.0000   -0.0000    0.0000    0.0000   -0.0013    0.0010   -0.0000   -0.0030   -0.0148    0.0118
      173 MO     6h1+      -0.0000   -0.0000   -0.0000   -0.0000   -0.0006   -0.0006    0.0000   -0.0018   -0.0060   -0.0142
      174 MO     7h1+      -0.0000   -0.0000    0.0000    0.0000   -0.0007   -0.0011    0.0000   -0.0020   -0.0084   -0.0178
      175 MO     6h2+      -0.0000   -0.0000    0.0000    0.0000    0.0007   -0.0008    0.0000    0.0015    0.0065   -0.0120
      176 MO     7h2+       0.0000    0.0000    0.0000    0.0000    0.0007   -0.0011    0.0000    0.0017    0.0085   -0.0142
      177 MO     6h3+       0.0000    0.0000    0.0000    0.0000    0.0006    0.0021   -0.0000    0.0018    0.0061    0.0144
      178 MO     7h3+       0.0000    0.0000   -0.0000   -0.0000    0.0007    0.0022   -0.0000    0.0020    0.0087    0.0183
      179 MO     6h4+       0.0000    0.0000   -0.0000   -0.0000    0.0020    0.0008   -0.0000    0.0039    0.0174    0.0110
      180 MO     7h4+      -0.0000   -0.0000    0.0000    0.0000    0.0020    0.0011   -0.0000    0.0047    0.0230    0.0131
      181 MO     6h5+       0.0000    0.0000    0.0000    0.0000   -0.0008    0.0020   -0.0000   -0.0024   -0.0077    0.0207
      182 MO     7h5+       0.0000    0.0000   -0.0000   -0.0000   -0.0009    0.0024   -0.0000   -0.0026   -0.0110    0.0262

          Orbital           21        22        23        24        25        26        27    
          Energy            6.1120    6.1411    6.3601    6.3623    6.4052    6.4052    6.4505
          Occ. No.          0.0000    0.0000    0.0000    0.0000    0.0000    0.0000    0.0000

        1 MO     1s        -0.0000    0.0000    0.0000   -0.0000    0.0000   -0.0000   -0.0000
        2 MO     2s        -0.0000   -0.0000   -0.0000    0.0000   -0.0000    0.0000    0.0000
        3 MO     3s        -0.0000    0.0001   -0.0000   -0.0000    0.0000   -0.0000   -0.0002
        4 MO     4s        -0.0000    0.0031   -0.0000   -0.0001    0.0000   -0.0001   -0.0060
        5 MO     5s         0.0000   -0.2945    0.0000    0.0023    0.0000   -0.0017    0.1465
        6 MO     6s         0.0000   -0.4405   -0.0000    0.0058    0.0000   -0.0001    0.1248
        7 MO     7s         0.0000   -0.0740    0.0000    0.0016    0.0000   -0.0003    0.0624
        8 MO     8s         0.0000    0.0092    0.0000    0.0010    0.0000   -0.0003    0.0878
        9 MO     9s        -0.0000    0.0286    0.0000    0.0004    0.0000   -0.0002    0.0589
       10 MO    10s        -0.0000    0.0059    0.0000    0.0000    0.0000   -0.0000    0.0096
       11 MO     2px        0.0000    0.0000   -0.0000   -0.0000    0.0000   -0.0000   -0.0000
       12 MO     3px       -0.0000   -0.0001   -0.0000    0.0000   -0.0000    0.0000    0.0005
       13 MO     4px       -0.0000   -0.0186    0.0000    0.0003   -0.0000    0.0001    0.0476
       14 MO     5px        0.0000   -0.0005    0.0000   -0.0011    0.0000   -0.0008   -0.1883
       15 MO     6px       -0.0000   -0.0440   -0.0000   -0.0001   -0.0000    0.0009   -0.2221
       16 MO     7px       -0.0000   -0.0060   -0.0000   -0.0009   -0.0000    0.0008   -0.4154
       17 MO     8px       -0.0000    0.0210   -0.0000   -0.0009   -0.0000    0.0003   -0.3127
       18 MO     9px       -0.0000    0.0147   -0.0000   -0.0005   -0.0000    0.0001   -0.1618
       19 MO    10px       -0.0000    0.0026   -0.0000   -0.0001   -0.0000    0.0000   -0.0273
       20 MO     2py        0.0000   -0.0000    0.0000   -0.0000    0.0000    0.0000   -0.0000
       21 MO     3py       -0.0011   -0.0000   -0.0001   -0.0000   -0.0004   -0.0000    0.0000
       22 MO     4py       -0.1259   -0.0000   -0.0028    0.0000   -0.0417   -0.0000    0.0000
       23 MO     5py        0.3263    0.0000    0.3602    0.0000    0.0324    0.0000    0.0000
       24 MO     6py       -0.2069   -0.0000    0.2683    0.0000   -0.1383   -0.0000   -0.0000
       25 MO     7py       -0.0971   -0.0000    0.3042    0.0000   -0.1149   -0.0000   -0.0000
       26 MO     8py        0.0341    0.0000    0.1571    0.0000   -0.0483   -0.0000   -0.0000
       27 MO     9py        0.0372    0.0000    0.0649    0.0000   -0.0196   -0.0000   -0.0000
       28 MO    10py        0.0073    0.0000    0.0097    0.0000   -0.0031   -0.0000   -0.0000
       29 MO     2pz       -0.0000   -0.0000   -0.0000   -0.0000    0.0000   -0.0000    0.0000
       30 MO     3pz       -0.0000    0.0000   -0.0000    0.0001   -0.0000    0.0004   -0.0000
       31 MO     4pz       -0.0000   -0.0000   -0.0000    0.0031   -0.0000    0.0407   -0.0002
[...]
         7    9       1.60513830E+00  5.27315562E-16  2.45553961E+09  1.57929934E-10  2.45553961E+09
         7   11       1.53541007E+00  1.55796502E+03  1.59718137E-10  2.39583441E+09  2.39583597E+09
         7   13       2.07711551E-01  1.69416895E-15  4.31573525E+08  2.44277699E-15  4.31573525E+08
         7   15       2.16756320E-01  6.86152261E+02  1.66616026E-13  4.50587587E+08  4.50588273E+08
         7   17       4.26275377E-03  1.30836083E+07  1.51751870E-13  1.74760017E+03  1.30853559E+07
         8   10       1.60513830E+00  5.27315562E-16  2.45553961E+09  1.57929934E-10  2.45553961E+09
         8   12       1.53541007E+00  1.55796502E+03  1.59718137E-10  2.39583441E+09  2.39583597E+09
         8   14       2.07711551E-01  1.69416895E-15  4.31573525E+08  2.44277699E-15  4.31573525E+08
         8   16       2.16756320E-01  6.86152261E+02  1.66616026E-13  4.50587587E+08  4.50588273E+08
         8   18       4.26275377E-03  1.30836083E+07  1.51751870E-13  1.74760017E+03  1.30853559E+07
         9   11       9.45117560E-03  1.13079406E-21  1.43090382E+03  3.97374865E-16  1.43090382E+03
         9   13       1.64193963E-02  3.16360571E+03  3.99768740E-14  6.84111391E+05  6.87274996E+05
         9   15       1.76681062E-02  2.12785346E-16  7.42112526E+05  6.08734317E-14  7.42112526E+05
         9   17       1.38306684E-02  8.71501914E-15  3.67114627E+06  2.03058997E-13  3.67114627E+06
        10   12       9.45117560E-03  1.13079406E-21  1.43090382E+03  3.97374865E-16  1.43090382E+03
        10   14       1.64193963E-02  3.16360571E+03  3.99768740E-14  6.84111391E+05  6.87274996E+05
        10   16       1.76681062E-02  2.12785346E-16  7.42112526E+05  6.08734317E-14  7.42112526E+05
        10   18       1.38306684E-02  8.71501914E-15  3.67114627E+06  2.03058997E-13  3.67114627E+06
        11   13       1.48308086E-02  1.63537667E-16  5.48356457E+05  3.74816488E-14  5.48356457E+05
        11   15       1.74697739E-02  2.77615038E+03  4.58544976E-14  6.45541915E+05  6.48318065E+05
        11   17       1.39723510E-02  1.51751911E+03  2.69181353E-13  3.53220175E+06  3.53371927E+06
        12   14       1.48308086E-02  1.63537667E-16  5.48356457E+05  3.74816488E-14  5.48356457E+05
        12   16       1.74697739E-02  2.77615038E+03  4.58544976E-14  6.45541915E+05  6.48318065E+05
        12   18       1.39723510E-02  1.51751911E+03  2.69181353E-13  3.53220175E+06  3.53371927E+06
        13   17       1.66208391E-03  1.49484770E-16  1.60358546E+05  7.36331249E-17  1.60358546E+05
        14   18       1.66208391E-03  1.49484770E-16  1.60358546E+05  7.36331249E-17  1.60358546E+05
        15   17       1.81419608E-03  1.09650021E+02  2.35500360E-16  1.74524728E+05  1.74634378E+05
        16   18       1.81419608E-03  1.09650021E+02  2.35500360E-16  1.74524728E+05  1.74634378E+05
     -----------------------------------------------------------------------------------------------
--

++ Velocity transition strengths (SO states):
   ------------------------------------------
    for osc. strength at least    1.0000000000000001E-005

      From   To        Osc. strength     Einstein coefficients Ax, Ay, Az (sec-1)    Total A (sec-1)
     -----------------------------------------------------------------------------------------------
         1    3       9.65016602E-02  4.61430060E-02  2.63343849E-14  4.86952684E+07  4.86952684E+07
         1    5       9.54544155E-02  3.84668252E-17  5.01476771E+07  2.75861130E-14  5.01476771E+07
         1    7       2.17875475E-04  1.89584442E+05  3.15157903E-14  2.82415796E+02  1.89866858E+05
         1    9       1.22358303E-03  1.33875525E-15  5.76367297E+06  3.57440089E-13  5.76367297E+06
         1   11       1.20010620E-03  4.14871335E+02  4.16362956E-13  5.71695064E+06  5.71736551E+06
         1   13       1.86011137E-03  5.61390176E-17  1.04918131E+07  1.03455482E-18  1.04918131E+07
         1   15       1.69927610E-03  2.89364692E+03  3.50748942E-15  9.58460727E+06  9.58750091E+06
         1   17       9.74935195E-03  7.03151526E+07  2.39454452E-16  4.31954395E+00  7.03151569E+07
         2    4       9.65016602E-02  4.61430060E-02  2.63343849E-14  4.86952684E+07  4.86952684E+07
         2    6       9.54544155E-02  3.84668252E-17  5.01476771E+07  2.75861130E-14  5.01476771E+07
         2    8       2.17875475E-04  1.89584442E+05  3.15157903E-14  2.82415796E+02  1.89866858E+05
         2   10       1.22358303E-03  1.33875525E-15  5.76367297E+06  3.57440089E-13  5.76367297E+06
         2   12       1.20010620E-03  4.14871335E+02  4.16362956E-13  5.71695064E+06  5.71736551E+06
         2   14       1.86011137E-03  5.61390176E-17  1.04918131E+07  1.03455482E-18  1.04918131E+07
         2   16       1.69927610E-03  2.89364692E+03  3.50748942E-15  9.58460727E+06  9.58750091E+06
         2   18       9.74935195E-03  7.03151526E+07  2.39454452E-16  4.31954395E+00  7.03151569E+07
         3    5       4.23870636E-04  3.66099812E-19  8.86214341E+01  5.22108208E-17  8.86214341E+01
         3    7       7.11912245E-03  5.19408329E+00  2.02324829E-16  3.54520904E+05  3.54526099E+05
         3    9       2.03202380E-03  7.41838923E-15  4.33152088E+06  3.60923064E-13  4.33152088E+06
         3   11       2.33411628E-03  1.30393788E+05  3.51910789E-13  4.92929274E+06  5.05968653E+06
         3   13       6.68524509E-03  2.92912753E-16  1.85241302E+07  1.63776480E-14  1.85241302E+07
         3   15       6.86671975E-03  7.62949699E+05  1.34086148E-14  1.82721477E+07  1.90350974E+07
         3   17       6.68500420E-03  3.06658254E+03  1.22963558E-14  2.60783020E+07  2.60813686E+07
         4    6       4.23870636E-04  3.66099812E-19  8.86214341E+01  5.22108208E-17  8.86214341E+01
         4    8       7.11912245E-03  5.19408329E+00  2.02324829E-16  3.54520904E+05  3.54526099E+05
         4   10       2.03202380E-03  7.41838923E-15  4.33152088E+06  3.60923064E-13  4.33152088E+06
         4   12       2.33411628E-03  1.30393788E+05  3.51910789E-13  4.92929274E+06  5.05968653E+06
         4   14       6.68524509E-03  2.92912753E-16  1.85241302E+07  1.63776480E-14  1.85241302E+07
         4   16       6.86671975E-03  7.62949699E+05  1.34086148E-14  1.82721477E+07  1.90350974E+07
         4   18       6.68500420E-03  3.06658254E+03  1.22963558E-14  2.60783020E+07  2.60813686E+07
         5    7       7.70459472E-03  1.03962507E-18  3.35571553E+05  3.00400456E-16  3.35571553E+05
         5    9       2.12911732E-03  1.24808524E+05  4.05619828E-13  4.32422932E+06  4.44903784E+06
         5   11       2.16225691E-03  7.12907818E-15  4.59553323E+06  2.95840502E-13  4.59553323E+06
         5   13       6.98120963E-03  7.89391579E+05  4.47352460E-14  1.82202204E+07  1.90096120E+07
         5   15       6.67041505E-03  2.89203544E-16  1.81711471E+07  2.81888228E-15  1.81711471E+07
         5   17       6.70059333E-03  3.44874469E-16  2.57608444E+07  1.50219558E-14  2.57608444E+07
         6    8       7.70459472E-03  1.03962507E-18  3.35571553E+05  3.00400456E-16  3.35571553E+05
         6   10       2.12911732E-03  1.24808524E+05  4.05619828E-13  4.32422932E+06  4.44903784E+06
         6   12       2.16225691E-03  7.12907818E-15  4.59553323E+06  2.95840502E-13  4.59553323E+06
         6   14       6.98120963E-03  7.89391579E+05  4.47352460E-14  1.82202204E+07  1.90096120E+07
         6   16       6.67041505E-03  2.89203544E-16  1.81711471E+07  2.81888228E-15  1.81711471E+07
         6   18       6.70059333E-03  3.44874469E-16  2.57608444E+07  1.50219558E-14  2.57608444E+07
         7    9       3.75707733E-03  6.44225916E-17  5.74759463E+06  3.11748753E-13  5.74759463E+06
         7   11       3.65698860E-03  2.73689957E+01  4.41523497E-13  5.70631485E+06  5.70634222E+06
         7   13       3.85105892E-03  2.86820301E-16  8.00158125E+06  3.39860462E-15  8.00158125E+06
         7   15       3.51048983E-03  3.48253393E+01  7.70572973E-15  7.29751966E+06  7.29755448E+06
         7   17       1.53362715E-05  4.41676469E+04  7.20703481E-15  2.91019968E+03  4.70778466E+04
         8   10       3.75707733E-03  6.44225916E-17  5.74759463E+06  3.11748753E-13  5.74759463E+06
         8   12       3.65698860E-03  2.73689957E+01  4.41523497E-13  5.70631485E+06  5.70634222E+06
         8   14       3.85105892E-03  2.86820301E-16  8.00158125E+06  3.39860462E-15  8.00158125E+06
         8   16       3.51048983E-03  3.48253393E+01  7.70572973E-15  7.29751966E+06  7.29755448E+06
         8   18       1.53362715E-05  4.41676469E+04  7.20703481E-15  2.91019968E+03  4.70778466E+04
         9   11       2.41135653E-05  1.12737570E-20  3.65079586E+00  1.92462955E-18  3.65079586E+00
         9   13       2.66921434E-02  2.41817036E+04  6.75945476E-14  1.09308876E+06  1.11727046E+06
         9   15       2.64546553E-02  1.51070983E-15  1.11117734E+06  7.55491902E-14  1.11117734E+06
         9   17       1.13487741E-02  4.36579831E-18  3.01237464E+06  1.89181468E-13  3.01237464E+06
        10   12       2.41135653E-05  1.12737570E-20  3.65079586E+00  1.92462955E-18  3.65079586E+00
        10   14       2.66921434E-02  2.41817036E+04  6.75945476E-14  1.09308876E+06  1.11727046E+06
        10   16       2.64546553E-02  1.51070983E-15  1.11117734E+06  7.55491902E-14  1.11117734E+06
        10   18       1.13487741E-02  4.36579831E-18  3.01237464E+06  1.89181468E-13  3.01237464E+06
        11   13       2.65151624E-02  1.36338013E-15  9.80378846E+05  6.79321363E-14  9.80378846E+05
        11   15       2.73456221E-02  2.25252166E+04  7.05115761E-14  9.92297444E+05  1.01482266E+06
        11   17       1.12010835E-02  3.48117554E+01  1.89453296E-13  2.83281861E+06  2.83285342E+06
        12   14       2.65151624E-02  1.36338013E-15  9.80378846E+05  6.79321363E-14  9.80378846E+05
        12   16       2.73456221E-02  2.25252166E+04  7.05115761E-14  9.92297444E+05  1.01482266E+06
        12   18       1.12010835E-02  3.48117554E+01  1.89453296E-13  2.83281861E+06  2.83285342E+06
        13   15       4.02551743E-05  6.42450171E-21  5.07695055E-03  3.07956895E-19  5.07695055E-03
        13   17       6.32070679E-03  4.41883561E-18  6.09826539E+05  8.21683980E-17  6.09826539E+05
        14   16       4.02551743E-05  6.42450171E-21  5.07695055E-03  3.07956895E-19  5.07695055E-03
        14   18       6.32070679E-03  4.41883561E-18  6.09826539E+05  8.21683980E-17  6.09826539E+05
        15   17       6.40203986E-03  1.07376403E+01  6.25069921E-17  6.16251279E+05  6.16262017E+05
        16   18       6.40203986E-03  1.07376403E+01  6.25069921E-17  6.16251279E+05  6.16262017E+05
     -----------------------------------------------------------------------------------------------
--

++ Length and velocity gauge comparison (SO states):

 --------------------------------------------------
 A comparison between the dipole oscillator strengths in 
 length and velocity gauge will be performed

 All dipole oscillator differences above the tolerance of   0.10000000000000001       will be printed 

 Due to basis set deficiency these oscillator may be problematic 

 The tolerance is defined as ABS(1-O_l/O_v) 
 O_l : dipole oscillator strength in length gauge
 O_p : dipole oscillator strength in velocity gauge
 --------------------------------------------------

  Problematic transitions have been found

      From   To       Difference (%) Osc. st. (len.) Osc. st. (vel.)
     ---------------------------------------------------------------
         1    3            53.804855  4.45790817E-02  9.65016602E-02
         1    5            53.264338  4.46112529E-02  9.54544155E-02
         1    7            49.146728  1.10796808E-04  2.17875475E-04
         1    9          1031.778074  1.38482444E-02  1.22358303E-03
         1   11          1037.626998  1.36527321E-02  1.20010620E-03
         1   13            83.615785  3.04764643E-04  1.86011137E-03
         1   15            87.096207  2.19271075E-04  1.69927610E-03
         1   17            96.232611  3.67295984E-04  9.74935195E-03
         2    4            53.804855  4.45790817E-02  9.65016602E-02
         2    6            53.264338  4.46112529E-02  9.54544155E-02
         2    8            49.146728  1.10796808E-04  2.17875475E-04
         2   10          1031.778074  1.38482444E-02  1.22358303E-03
         2   12          1037.626998  1.36527321E-02  1.20010620E-03
         2   14            83.615785  3.04764643E-04  1.86011137E-03
         2   16            87.096207  2.19271075E-04  1.69927610E-03
         2   18            96.232611  3.67295984E-04  9.74935195E-03
         3    5            31.311082  2.91152155E-04  4.23870636E-04
         3    7            99.252597  5.32085493E-05  7.11912245E-03
         3    9            28.034883  1.46234831E-03  2.03202380E-03
         3   11            16.310085  1.95341994E-03  2.33411628E-03
         3   13            45.535179  3.64110680E-03  6.68524509E-03
         3   15            40.277819  4.10095478E-03  6.86671975E-03
         3   17            97.555317  1.63427179E-04  6.68500420E-03
         4    6            31.311082  2.91152155E-04  4.23870636E-04
         4    8            99.252597  5.32085493E-05  7.11912245E-03
         4   10            28.034883  1.46234831E-03  2.03202380E-03
         4   12            16.310085  1.95341994E-03  2.33411628E-03
         4   14            45.535179  3.64110680E-03  6.68524509E-03
         4   16            40.277819  4.10095478E-03  6.86671975E-03
         4   18            97.555317  1.63427179E-04  6.68500420E-03
         5    7            99.230087  5.93186813E-05  7.70459472E-03
         5    9            14.753003  1.81500858E-03  2.12911732E-03
         5   11            23.976582  1.64382161E-03  2.16225691E-03
         5   13            40.362593  4.16341237E-03  6.98120963E-03
         5   15            45.809841  3.61470850E-03  6.67041505E-03
         5   17            97.737602  1.51594098E-04  6.70059333E-03
         6    8            99.230087  5.93186813E-05  7.70459472E-03
         6   10            14.753003  1.81500858E-03  2.12911732E-03
         6   12            23.976582  1.64382161E-03  2.16225691E-03
         6   14            40.362593  4.16341237E-03  6.98120963E-03
         6   16            45.809841  3.61470850E-03  6.67041505E-03
         6   18            97.737602  1.51594098E-04  6.70059333E-03
         7    9         42623.057323  1.60513830E+00  3.75707733E-03
         7   11         41885.639899  1.53541007E+00  3.65698860E-03
         7   13          5293.621739  2.07711551E-01  3.85105892E-03
         7   15          6074.532044  2.16756320E-01  3.51048983E-03
         7   17         27695.241955  4.26275377E-03  1.53362715E-05
         8   10         42623.057323  1.60513830E+00  3.75707733E-03
         8   12         41885.639899  1.53541007E+00  3.65698860E-03
         8   14          5293.621739  2.07711551E-01  3.85105892E-03
         8   16          6074.532044  2.16756320E-01  3.51048983E-03
         8   18         27695.241955  4.26275377E-03  1.53362715E-05
         9   11         39094.434729  9.45117560E-03  2.41135653E-05
         9   13            38.486033  1.64193963E-02  2.66921434E-02
         9   15            33.213622  1.76681062E-02  2.64546553E-02
         9   17            21.869272  1.38306684E-02  1.13487741E-02
        10   12         39094.434729  9.45117560E-03  2.41135653E-05
        10   14            38.486033  1.64193963E-02  2.66921434E-02
        10   16            33.213622  1.76681062E-02  2.64546553E-02
        10   18            21.869272  1.38306684E-02  1.13487741E-02
        11   13            44.066687  1.48308086E-02  2.65151624E-02
        11   15            36.114915  1.74697739E-02  2.73456221E-02
        11   17            24.741066  1.39723510E-02  1.12010835E-02
        12   14            44.066687  1.48308086E-02  2.65151624E-02
        12   16            36.114915  1.74697739E-02  2.73456221E-02
        12   18            24.741066  1.39723510E-02  1.12010835E-02
        13   15      --------------- below threshold  4.02551743E-05
        13   17            73.704145  1.66208391E-03  6.32070679E-03
        14   16      --------------- below threshold  4.02551743E-05
        14   18            73.704145  1.66208391E-03  6.32070679E-03
        15   17            71.662218  1.81419608E-03  6.40203986E-03
        16   18            71.662218  1.81419608E-03  6.40203986E-03
     ---------------------------------------------------------------

 Number of problematic transitions =                    72

--

 Electric-dipole - electric-octupole not included
++ I/O STATISTICS
 
  I. General I/O information
  - - - - - - - - - - - - - - - - - - - - - - - - - - - - - - - - - - - - - - - - - - -
  Unit  Name          Flsize      Write/Read            MBytes           Write/Read
                      (MBytes)       Calls              In/Out           Time, sec.
  - - - - - - - - - - - - - - - - - - - - - - - - - - - - - - - - - - - - - - - - - - -
   1  SCRATCH           0.00 .       9/      45 .      0.0/      0.0 .       0/       0
   2  ANNI              0.00 .       0/       0 .      0.0/      0.0 .       0/       0
   3  RUNFILE          14.92 .     322/   10733 .      2.3/     77.8 .       0/       0
   4  ONEINT            5.68 .       0/   24849 .      0.0/   3743.6 .       0/       0
   5  JOBIPH            6.59 .       0/      92 .      0.0/      0.8 .       0/       0
   6  ORDINT          529.03 .       1/    4233 .      0.0/   1058.0 .       0/       0
  - - - - - - - - - - - - - - - - - - - - - - - - - - - - - - - - - - - - - - - - - - -
   *  TOTAL           556.23 .     332/   39952 .      2.3/   4880.2 .       0/       0
  - - - - - - - - - - - - - - - - - - - - - - - - - - - - - - - - - - - - - - - - - - -
 
  II. I/O Access Patterns
  - - - - - - - - - - - - - - - - - - - -
  Unit  Name               % of random
                         Write/Read calls
  - - - - - - - - - - - - - - - - - - - -
   1  SCRATCH             88.9/ 100.0
   2  ANNI                 0.0/   0.0
   3  RUNFILE             28.6/  10.8
   4  ONEINT               0.0/  15.5
   5  JOBIPH               0.0/  76.1
   6  ORDINT             100.0/   0.0
  - - - - - - - - - - - - - - - - - - - -
--
--- Stop Module: rassi at Mon Mar 31 12:43:37 2025 /rc=_RC_ALL_IS_WELL_ ---
*** files: xmldump
    saved to directory /home4/s4752295/Internship/Initial_simulations/Point_charge_model/1_electron/Madelung_charges_9_active_space/Mo/fixed_calculations
--- Module rassi spent 3 seconds ---

.##################.
.# Happy landing! #.
.##################.

    Timing: Wall=67.86 User=54.22 System=11.63

###############################################################################
Hbrk Cluster
Job 16049508 for user s4752295
Finished at: Mon Mar 31 12:43:41 CEST 2025

Job details:
============

Job ID                         : 16049508
Name                           : Mo_no_SO
User                           : s4752295
Partition                      : regularshort
Nodes                          : node112
Number of Nodes                : 1
Cores                          : 1
Number of Tasks                : 1
State                          : COMPLETED  
Submit                         : 2025-03-31T12:40:47
Start                          : 2025-03-31T12:42:24
End                            : 2025-03-31T12:43:37
Reserved walltime              : 01:00:00
Used walltime                  : 00:01:13
Used CPU time                  : 00:01:07 (Efficiency: 91.85%)
% User (Computation)           : 82.28%
% System (I/O)                 : 17.72%
Total memory reserved          : 25000M
Maximum memory used            : 2.12G

Acknowledgements:
=================

Please see this page for information about acknowledging Hbrk in your publications:

https://wiki.hpc.rug.nl/habrok/introduction/scientific_output

################################################################################
