   This run of MOLCAS is using the pymolcas driver

                             OPE
                             OPE          NMOL  CASOP  ENMOLC A   SO
                 OPE        NMOLC        AS  OP EN  MO LC     AS  OP
                OPENM       OL CA        SO  PE NM  OL CA     SOP EN
                OP EN      MO   LC       AS  OP ENMOL  CASO   PENMOL
                OP  EN     MO   LC       AS  OP EN     MO     LC ASO
               OP   E  NMOL  C  AS       OP  EN MO     LC     AS  OP
               OP  E   NMO   LC AS        OPEN  MO     LCASOP EN   M
               O  PEN   MO  LCA  SO
            OPE   NMO   L   CAS    OP
        OPENMOL  CASOP     ENMOL   CASOPE
     OPENMOLCA   SOPENMOLCASOPEN   MOLCASOPE
    OPENMOLCAS   OP           EN   MOL    CAS
    OPENMOLCAS       OP  ENM        O     LCA
    OPENMOLCAS    OPEN  MOLCASO     P  E  NMO
    OPENMOLCAS     OP               E  N  MOL
    OPENMOLCA   SO           PENM   O  L  CAS    OPEN    MO    LCAS
    OPENMOLCA   SOP           ENM   O  L  CAS   OP  EN  MOLC  AS   O
    OPENMOLCA   SOPE           NM      O  LCA   S      OP  EN MO
    OPENMOLC                AS         O  PEN   M      OL  CA  SOPE
    OPENMO        LCASOPE  NMOL        C  ASO   P      ENMOLC     AS
    OPE     NMO      LCA  SO     P     E   NM   OL  CA SO  PE N   MO
          OPENMOLCA            SOPE   NMO        LCAS  O    P  ENMO
     OPENMOLCASOPENMOLCASOPENMOLCASOPENMOLCA
        OPENMOLCASOPENMOLCASOPENMOLCASOPE
            OPENMOLCASOPENMOLCASOPENM
               OPENMOLCASOPENMOLCA        version: o91e1abe7de707b ?
                   OPENMOLCASO
                       OPE                tag:

 OpenMolcas is free software; you can redistribute it and/or modify it
 under the terms of the GNU Lesser General Public License version 2.1.
 OpenMolcas is distributed in the hope that it will be useful, but it
 is provided "as is" and without any express or implied warranties.
 For more details see the full text of the license in the file
 LICENSE or in <http://www.gnu.org/licenses/>.

                 Copyright (C) The OpenMolcas Authors
           For the author list and the recommended citation,
                   consult the file CONTRIBUTORS.md

           *************************************************
           * pymolcas version py2.10                       *
           *   build 3068ae8b88c9345ec6cfef6fef7f1169      *
           *   (after the EMIL interpreter by V. Veryazov) *
           *************************************************

configuration info
------------------
Host name: login1 (Linux)
C Compiler ID: GNU
C flags: -std=gnu99
Fortran Compiler ID: GNU
Fortran flags: -fno-aggressive-loop-optimizations -cpp -fdefault-integer-8 -fmax-stack-var-size=1048576
Definitions: _MOLCAS_;_I8_;_LINUX_;_MKL_
Parallel: OFF (GA=OFF)


   ------------------------------------------------------------------------------------------------------------------------------------------------------
  |
  |           Project: niobium_so_cf
  |    Submitted from: /home4/s4752295/Internship/Initial_simulations/Point_charge_model/1_electron/Madelung_charges_9_active_space/Nb/fixed_calculations
  |      Scratch area: /tmp/niobium_so_cf
  |   Save outputs to: /home4/s4752295/Internship/Initial_simulations/Point_charge_model/1_electron/Madelung_charges_9_active_space/Nb/fixed_calculations
  |            Molcas: /home4/s4752295/Internship/Molcas/recomp_try/OpenMolcas-master/build
  |
  | Scratch area is empty
  |
  |    MOLCAS_DRIVER = /home4/s4752295/Internship/Molcas/bin/pymolcas
  |    MOLCAS_NPROCS = 1
  |    MOLCAS_SOURCE = /home4/s4752295/Internship/Molcas/recomp_try/OpenMolcas-master
  | MOLCAS_STRUCTURE = 0
  |
   ------------------------------------------------------------------------------------------------------------------------------------------------------

++ ---------   Input file   ---------

&SEWARD
AMFi

CLIG
$R

Basis Set
Nb.ANO-rcc.Roos.21s18p13d6f4g2h.10s9p8d5f4g2h.
Spherical d
Nb            -1.0658140267135469e-14   -3.5527134223784897e-15 0.008753588724385739
End of Basis

Xfield

414
-4.00220108,-1.54,0.889119      -0.625931
-4.00220108,-0.0,-1.778239      -0.625931
-4.00220108,1.54,0.889119       -0.625931
-3.99534607,0.0,0.0     1.892092
2.65917969,-1.54,-0.889119      2.515516
2.65917969,0.0,1.778239 2.515516
2.65917969,1.54,-0.889119       2.515516
3.56298828,-3.08,0.0    0.004632
3.56298828,-1.54,-2.667358      0.004632
3.56298828,-1.54,2.667358       0.004632
3.56298828,1.54,-2.667358       0.004632
3.56298828,1.54,2.667358        0.004632
3.56298828,3.08,0.0     0.004632
4.12915039,-1.54,0.889119       -2.519484
4.12915039,-0.0,-1.778239       -2.519484
4.12915039,1.54,0.889119        -2.519484
-2.93310547,-0.0,-0.0   -3.142907
-4.97509766,-3.08,-1.778239     -0.625931
-4.97509766,0.0,3.556477        -0.625931
-4.97509766,3.08,-1.778239      -0.625931
-6.609375,-3.08,0.0     1.892092
-6.609375,-1.54,-2.667358       1.892092
-6.609375,-1.54,2.667358        1.892092
-6.609375,1.54,-2.667358        1.892092
-6.609375,1.54,2.667358 1.892092
-6.609375,3.08,0.0      1.892092
25.171875,-3.08,1.778239        2.515516
25.171875,-0.0,-3.556477        2.515516
25.171875,3.08,1.778239 2.515516
3.63867188,-3.08,-1.778239      -2.519484
3.63867188,0.0,3.556477 -2.519484
3.63867188,3.08,-1.778239       -2.519484
-3.23242188,-3.08,-0.0  -3.142907
-3.23242188,-1.54,-2.667358     -3.142907
-3.23242188,-1.54,2.667358      -3.142907
-3.23242188,1.54,-2.667358      -3.142907
-3.23242188,1.54,2.667358       -3.142907
-3.23242188,3.08,-0.0   -3.142907
-9.5234375,-3.08,3.556477       -0.625931
-9.5234375,3.08,3.556477        -0.625931
-9.5234375,-4.62,0.889119       -0.625931
-9.5234375,4.62,0.889119        -0.625931
-9.5234375,-1.54,-4.445597      -0.625931
-9.5234375,1.54,-4.445597       -0.625931
6.0078125,-1.54,-0.889119       4.409069
6.0078125,1.54,-0.889119        4.409069
6.0078125,0.0,1.778239  4.409069
-175.25,-0.0,-0.0       -5.030367
-175.25,0.0,0.0 5.039632
13.51757812,-3.08,-3.556477     2.515516
13.51757812,3.08,-3.556477      2.515516
13.51757812,-4.62,-0.889119     2.515516
13.51757812,4.62,-0.889119      2.515516
13.51757812,-1.54,4.445597      2.515516
13.51757812,1.54,4.445597       2.515516
19.0390625,-4.62,-2.667358      0.004632
19.0390625,-4.62,2.667358       0.004632
19.0390625,4.62,-2.667358       0.004632
19.0390625,4.62,2.667358        0.004632
19.0390625,-0.0,-5.334716       0.004632
19.0390625,0.0,5.334716 0.004632
48.078125,-3.08,3.556477        -2.519484
48.078125,3.08,3.556477 -2.519484
48.078125,-4.62,0.889119        -2.519484
48.078125,4.62,0.889119 -2.519484
48.078125,-1.54,-4.445597       -2.519484
48.078125,1.54,-4.445597        -2.519484
-145.875,-4.62,-2.667358        1.892092
-145.875,-4.62,2.667358 1.892092
-145.875,4.62,-2.667358 1.892092
-145.875,4.62,2.667358  1.892092
-145.875,-0.0,-5.334716 1.892092
-145.875,0.0,5.334716   1.892092
-117.75,-3.08,1.778239  4.409069
-117.75,-0.0,-3.556477  4.409069
-117.75,3.08,1.778239   4.409069
-89.0,-3.08,-0.0        -5.030367
-89.0,-1.54,-2.667358   -5.030367
-89.0,-1.54,2.667358    -5.030367
-89.0,1.54,-2.667358    -5.030367
-89.0,-3.08,0.0 5.039632
-89.0,3.08,-0.0 -5.030367
-89.0,1.54,2.667358     -5.030367
-89.0,-1.54,-2.667358   5.039632
-89.0,-1.54,2.667358    5.039632
-89.0,1.54,-2.667358    5.039632
-89.0,3.08,0.0  5.039632
-89.0,1.54,2.667358     5.039632
-46.625,-1.54,-0.889119 -5.660931
-46.625,0.0,1.778239    -5.660931
-46.625,1.54,-0.889119  -5.660931
0.8828125,-6.159999,0.0 0.004632
0.8828125,-3.08,-5.334716       0.004632
0.8828125,-3.08,5.334716        0.004632
0.8828125,3.08,-5.334716        0.004632
0.8828125,6.159999,0.0  0.004632
0.8828125,3.08,5.334716 0.004632
67.9375,-4.62,2.667358  -3.142907
67.9375,-4.62,-2.667358 -3.142907
67.9375,4.62,-2.667358  -3.142907
67.9375,4.62,2.667358   -3.142907
67.9375,-0.0,-5.334716  -3.142907
67.9375,0.0,5.334716    -3.142907
86.375,-6.159999,-1.778239      -0.625931
86.375,-4.62,-4.445597  -0.625931
86.375,-1.54,6.223835   -0.625931
86.375,4.62,-4.445597   -0.625931
86.375,6.159999,-1.778239       -0.625931
86.375,1.54,6.223835    -0.625931
1.19726562,-6.159999,0.0        1.892092
1.19726562,-3.08,-5.334716      1.892092
1.19726562,-3.08,5.334716       1.892092
1.19726562,3.08,-5.334716       1.892092
1.19726562,6.159999,0.0 1.892092
1.19726562,3.08,5.334716        1.892092
33.84375,-3.08,-3.556477        4.409069
33.84375,3.08,-3.556477 4.409069
33.84375,-4.62,-0.889119        4.409069
33.84375,4.62,-0.889119 4.409069
33.84375,-1.54,4.445597 4.409069
33.84375,1.54,4.445597  4.409069
162.40625,-3.08,1.778239        -5.660931
162.40625,-0.0,-3.556477        -5.660931
162.40625,3.08,1.778239 -5.660931
0.34375,-6.159999,1.778239      2.515516
0.34375,-1.54,-6.223835 2.515516
0.34375,-4.62,4.445597  2.515516
0.34375,1.54,-6.223835  2.515516
0.34375,6.159999,1.778239       2.515516
0.34375,4.62,4.445597   2.515516
-94.1875,-6.159999,-1.778239    -2.519484
-94.1875,-4.62,-4.445597        -2.519484
-94.1875,-1.54,6.223835 -2.519484
-94.1875,4.62,-4.445597 -2.519484
-94.1875,1.54,6.223835  -2.519484
-94.1875,6.159999,-1.778239     -2.519484
-22.0703125,-6.159999,-0.0      -3.142907
-22.0703125,-3.08,-5.334716     -3.142907
-22.0703125,-3.08,5.334716      -3.142907
-22.0703125,3.08,-5.334716      -3.142907
-22.0703125,3.08,5.334716       -3.142907
-22.0703125,6.159999,-0.0       -3.142907
606.5,0.0,0.0   6.927092
323.25,-6.159999,3.556477       -0.625931
323.25,6.159999,3.556477        -0.625931
323.25,-0.0,-7.112955   -0.625931
-5.421875,-4.62,2.667358        -5.030367
-5.421875,-4.62,-2.667358       -5.030367
-5.421875,-4.62,2.667358        5.039632
-5.421875,-4.62,-2.667358       5.039632
-5.421875,4.62,-2.667358        -5.030367
-5.421875,4.62,2.667358 -5.030367
-5.421875,4.62,-2.667358        5.039632
-5.421875,4.62,2.667358 5.039632
-5.421875,-0.0,-5.334716        -5.030367
-5.421875,0.0,5.334716  -5.030367
-5.421875,-0.0,-5.334716        5.039632
-5.421875,0.0,5.334716  5.039632
91.8125,-3.08,-3.556477 -5.660931
91.8125,3.08,-3.556477  -5.660931
91.8125,-4.62,-0.889119 -5.660931
91.8125,4.62,-0.889119  -5.660931
91.8125,-1.54,4.445597  -5.660931
91.8125,1.54,4.445597   -5.660931
300.5,-6.159999,-3.556477       2.515516
300.5,6.159999,-3.556477        2.515516
300.5,0.0,7.112955      2.515516
-517.25,-6.159999,3.556477      -2.519484
-517.25,6.159999,3.556477       -2.519484
-517.25,-0.0,-7.112955  -2.519484
53.5625,-3.08,0.0       6.927092
53.5625,-1.54,-2.667358 6.927092
53.5625,-1.54,2.667358  6.927092
53.5625,1.54,-2.667358  6.927092
53.5625,1.54,2.667358   6.927092
53.5625,3.08,0.0        6.927092
-55.25,-1.54,0.889119   7.550516
-55.25,0.0,-1.778239    7.550516
-55.25,1.54,0.889119    7.550516
15.53125,-1.54,-0.889119        -7.554483
15.53125,1.54,-0.889119 -7.554483
15.53125,-0.0,1.778239  -7.554483
-124.875,-7.699999,0.889119     -0.625931
-124.875,-4.62,6.223835 -0.625931
-124.875,-3.08,-7.112955        -0.625931
-124.875,3.08,-7.112955 -0.625931
-124.875,7.699999,0.889119      -0.625931
-124.875,4.62,6.223835  -0.625931
-67.4375,-6.159999,1.778239     4.409069
-67.4375,-4.62,4.445597 4.409069
-67.4375,-1.54,-6.223835        4.409069
-67.4375,1.54,-6.223835 4.409069
-67.4375,4.62,4.445597  4.409069
-67.4375,6.159999,1.778239      4.409069
49.15625,-6.159999,-0.0 -5.030367
49.15625,-3.08,-5.334716        -5.030367
49.15625,-3.08,5.334716 -5.030367
49.15625,-6.159999,0.0  5.039632
49.15625,-3.08,-5.334716        5.039632
49.15625,3.08,-5.334716 -5.030367
49.15625,3.08,5.334716  -5.030367
49.15625,6.159999,-0.0  -5.030367
49.15625,-3.08,5.334716 5.039632
49.15625,3.08,-5.334716 5.039632
49.15625,6.159999,0.0   5.039632
49.15625,3.08,5.334716  5.039632
180.75,-7.699999,-0.889119      2.515516
180.75,-4.62,-6.223835  2.515516
180.75,-3.08,7.112955   2.515516
180.75,4.62,-6.223835   2.515516
180.75,7.699999,-0.889119       2.515516
180.75,3.08,7.112955    2.515516
-23.34375,-7.699999,-2.667358   0.004632
-23.34375,-7.699999,2.667358    0.004632
-23.34375,-6.159999,-5.334716   0.004632
-23.34375,-6.159999,5.334716    0.004632
-23.34375,-1.54,-8.002074       0.004632
-23.34375,1.54,-8.002074        0.004632
-23.34375,-1.54,8.002074        0.004632
-23.34375,6.159999,-5.334716    0.004632
-23.34375,1.54,8.002074 0.004632
-23.34375,7.699999,-2.667358    0.004632
-23.34375,7.699999,2.667358     0.004632
-23.34375,6.159999,5.334716     0.004632
-143.125,-7.699999,0.889119     -2.519484
-143.125,-4.62,6.223835 -2.519484
-143.125,-3.08,-7.112955        -2.519484
-143.125,3.08,-7.112955 -2.519484
-143.125,7.699999,0.889119      -2.519484
-143.125,4.62,6.223835  -2.519484
3032.0,-0.0,-0.0        -8.177907
-116.0,-3.08,-1.778239  7.550516
-116.0,0.0,3.556477     7.550516
-116.0,3.08,-1.778239   7.550516
-603.5,-3.08,1.778239   -7.554483
-603.5,-0.0,-3.556477   -7.554483
-603.5,3.08,1.778239    -7.554483
48.90625,-7.699999,2.667358     1.892092
48.90625,-7.699999,-2.667358    1.892092
48.90625,-6.159999,-5.334716    1.892092
48.90625,-6.159999,5.334716     1.892092
48.90625,-1.54,-8.002074        1.892092
48.90625,1.54,-8.002074 1.892092
48.90625,-1.54,8.002074 1.892092
48.90625,6.159999,-5.334716     1.892092
48.90625,1.54,8.002074  1.892092
48.90625,7.699999,-2.667358     1.892092
48.90625,7.699999,2.667358      1.892092
48.90625,6.159999,5.334716      1.892092
-505.0,-6.159999,-3.556477      4.409069
-505.0,6.159999,-3.556477       4.409069
-505.0,0.0,7.112955     4.409069
25.8203125,-6.159999,1.778239   -5.660931
25.8203125,-1.54,-6.223835      -5.660931
25.8203125,-4.62,4.445597       -5.660931
25.8203125,1.54,-6.223835       -5.660931
25.8203125,4.62,4.445597        -5.660931
25.8203125,6.159999,1.778239    -5.660931
-58.1875,-6.159999,-5.334716    -3.142907
-58.1875,-7.699999,2.667358     -3.142907
-58.1875,-7.699999,-2.667358    -3.142907
-58.1875,-6.159999,5.334716     -3.142907
-58.1875,-1.54,-8.002074        -3.142907
-58.1875,1.54,-8.002074 -3.142907
-58.1875,-1.54,8.002074 -3.142907
-58.1875,7.699999,-2.667358     -3.142907
-58.1875,6.159999,-5.334716     -3.142907
-58.1875,1.54,8.002074  -3.142907
-58.1875,7.699999,2.667358      -3.142907
-58.1875,6.159999,5.334716      -3.142907
65.40625,-4.62,-2.667358        6.927092
65.40625,-4.62,2.667358 6.927092
65.40625,4.62,-2.667358 6.927092
65.40625,4.62,2.667358  6.927092
65.40625,-0.0,-5.334716 6.927092
65.40625,0.0,5.334716   6.927092
-83.25,-3.08,-0.0       -8.177907
-83.25,-1.54,2.667358   -8.177907
-83.25,-1.54,-2.667358  -8.177907
-83.25,1.54,-2.667358   -8.177907
-83.25,3.08,-0.0        -8.177907
-83.25,1.54,2.667358    -8.177907
-90.90625,-3.08,3.556477        7.550516
-90.90625,3.08,3.556477 7.550516
-90.90625,-4.62,0.889119        7.550516
-90.90625,4.62,0.889119 7.550516
-90.90625,-1.54,-4.445597       7.550516
-90.90625,1.54,-4.445597        7.550516
-45.6875,-3.08,-3.556477        -7.554483
-45.6875,3.08,-3.556477 -7.554483
-45.6875,-4.62,-0.889119        -7.554483
-45.6875,4.62,-0.889119 -7.554483
-45.6875,-1.54,4.445597 -7.554483
-45.6875,1.54,4.445597  -7.554483
-500.25,0.0,8.891193    -0.625931
-500.25,-7.699999,-4.445597     -0.625931
-500.25,7.699999,-4.445597      -0.625931
-269.75,-7.699999,-0.889119     4.409069
-269.75,-4.62,-6.223835 4.409069
-269.75,-3.08,7.112955  4.409069
-269.75,4.62,-6.223835  4.409069
-269.75,7.699999,-0.889119      4.409069
-269.75,3.08,7.112955   4.409069
310.375,-6.159999,-3.556477     -5.660931
310.375,6.159999,-3.556477      -5.660931
310.375,0.0,7.112955    -5.660931
587.0,-0.0,-8.891193    2.515516
587.0,-7.699999,4.445597        2.515516
587.0,7.699999,4.445597 2.515516
-93.875,-9.239999,-0.0  0.004632
-93.875,4.62,-8.002074  0.004632
-93.875,-4.62,8.002074  0.004632
-93.875,9.239999,-0.0   0.004632
-93.875,-4.62,-8.002074 0.004632
-93.875,4.62,8.002074   0.004632
-385.75,0.0,8.891193    -2.519484
-385.75,-7.699999,-4.445597     -2.519484
-385.75,7.699999,-4.445597      -2.519484
228.0,-6.159999,0.0     6.927092
228.0,-3.08,-5.334716   6.927092
228.0,-3.08,5.334716    6.927092
228.0,3.08,-5.334716    6.927092
228.0,6.159999,0.0      6.927092
228.0,3.08,5.334716     6.927092
211.875,-9.239999,-1.778239     -0.625931
211.875,-3.08,8.891193  -0.625931
211.875,-6.159999,-7.112955     -0.625931
211.875,6.159999,-7.112955      -0.625931
211.875,3.08,8.891193   -0.625931
211.875,9.239999,-1.778239      -0.625931
111.9375,-9.239999,0.0  1.892092
111.9375,-4.62,-8.002074        1.892092
111.9375,-4.62,8.002074 1.892092
111.9375,4.62,-8.002074 1.892092
111.9375,9.239999,0.0   1.892092
111.9375,4.62,8.002074  1.892092
-4.3203125,-7.699999,2.667358   -5.030367
-4.3203125,-7.699999,-2.667358  -5.030367
-4.3203125,-6.159999,-5.334716  -5.030367
-4.3203125,-6.159999,5.334716   -5.030367
-4.3203125,-7.699999,2.667358   5.039632
-4.3203125,1.54,-8.002074       -5.030367
-4.3203125,-1.54,-8.002074      -5.030367
-4.3203125,-7.699999,-2.667358  5.039632
-4.3203125,-6.159999,-5.334716  5.039632
-4.3203125,-1.54,8.002074       -5.030367
-4.3203125,1.54,-8.002074       5.039632
-4.3203125,-6.159999,5.334716   5.039632
-4.3203125,-1.54,-8.002074      5.039632
-4.3203125,6.159999,-5.334716   -5.030367
-4.3203125,1.54,8.002074        -5.030367
-4.3203125,7.699999,-2.667358   -5.030367
-4.3203125,7.699999,2.667358    -5.030367
-4.3203125,6.159999,5.334716    -5.030367
-4.3203125,-1.54,8.002074       5.039632
-4.3203125,6.159999,-5.334716   5.039632
-4.3203125,7.699999,-2.667358   5.039632
-4.3203125,1.54,8.002074        5.039632
-4.3203125,7.699999,2.667358    5.039632
-4.3203125,6.159999,5.334716    5.039632
-0.6875,-7.699999,-0.889119     -5.660931
-0.6875,-4.62,-6.223835 -5.660931
-0.6875,-3.08,7.112955  -5.660931
-0.6875,4.62,-6.223835  -5.660931
-0.6875,3.08,7.112955   -5.660931
-0.6875,7.699999,-0.889119      -5.660931
116.0,-1.54,0.889119    9.444068
116.0,0.0,-1.778239     9.444068
116.0,1.54,0.889119     9.444068
51.3125,-9.239999,1.778239      2.515516
51.3125,-3.08,-8.891193 2.515516
51.3125,3.08,-8.891193  2.515516
51.3125,-6.159999,7.112955      2.515516
51.3125,9.239999,1.778239       2.515516
51.3125,6.159999,7.112955       2.515516
156.875,-9.239999,-1.778239     -2.519484
156.875,-3.08,8.891193  -2.519484
156.875,-6.159999,-7.112955     -2.519484
156.875,6.159999,-7.112955      -2.519484
156.875,9.239999,-1.778239      -2.519484
156.875,3.08,8.891193   -2.519484
219.625,-9.239999,-0.0  -3.142907
219.625,-4.62,-8.002074 -3.142907
219.625,-4.62,8.002074  -3.142907
219.625,4.62,-8.002074  -3.142907
219.625,9.239999,-0.0   -3.142907
219.625,4.62,8.002074   -3.142907
8.64550781,-4.62,-2.667358      -8.177907
8.64550781,-4.62,2.667358       -8.177907
8.64550781,4.62,2.667358        -8.177907
8.64550781,4.62,-2.667358       -8.177907
8.64550781,-0.0,-5.334716       -8.177907
8.64550781,0.0,5.334716 -8.177907
251.875,-4.62,-4.445597 7.550516
251.875,-6.159999,-1.778239     7.550516
251.875,-1.54,6.223835  7.550516
251.875,4.62,-4.445597  7.550516
251.875,1.54,6.223835   7.550516
251.875,6.159999,-1.778239      7.550516
-348.0,-4.62,4.445597   -7.554483
-348.0,-6.159999,1.778239       -7.554483
-348.0,-1.54,-6.223835  -7.554483
-348.0,1.54,-6.223835   -7.554483
-348.0,6.159999,1.778239        -7.554483
-348.0,4.62,4.445597    -7.554483
71.265625,-7.699999,6.223835    -0.625931
71.265625,-9.239999,3.556477    -0.625931
71.265625,-1.54,-9.780313       -0.625931
71.265625,1.54,-9.780313        -0.625931
71.265625,9.239999,3.556477     -0.625931
71.265625,7.699999,6.223835     -0.625931
-483.75,-0.0,-8.891193  4.409069
-483.75,-7.699999,4.445597      4.409069
-483.75,7.699999,4.445597       4.409069

End of input

&SCF
Occupied
18
Iterations
   50  100
End of Input

&RASSCF
LumOrb
Symmetry
1
Spin
2
Nactel
1 0 0
CIRoot
9 9 1
inactive
18
ras2
9
Alter
4
1 19 24
1 20 25
1 21 26
1 22 27
End of Input

>>> COPY niobium_so_cf.JobIph $SLURM_SUBMIT_DIR/niobium_so_cf.doublet.JobIph

>>> COPY $SLURM_SUBMIT_DIR/niobium_so_cf.doublet.JobIph ./JOB002

&RASSI
NROFJobIph
1 All
SpinOrbit
End of Input

EOF

-- ----------------------------------

--- Start Module: seward at Mon Mar 31 12:42:28 2025 ---

()()()()()()()()()()()()()()()()()()()()()()()()()()()()()()()()()()()()()()()()()()()()()()()()()()

                                              &SEWARD

                                   only a single process is used
                       available to each process: 4.1 GB of memory, 1 thread?
                                            pid: 3840563
()()()()()()()()()()()()()()()()()()()()()()()()()()()()()()()()()()()()()()()()()()()()()()()()()()

 The speed of LIGHT in this CALCULATION =   137.03599917700001     
               SEWARD will generate:
                  Multipole Moment integrals up to order  2
                  Kinetic Energy integrals
                  Nuclear Attraction integrals (point charge)
                  One-Electron Hamiltonian integrals
                  Velocity integrals
                  Relativistic Douglas-Kroll-Hess integrals:
                    - Parametrization         : EXP
                    - DKH order of Hamiltonian: 2
                    - DKH order of Properties : 0
                         - multipole moment operators
                         - electric potential operators
                         - contact operators
                  External field from   414 point(s) added to the one-electron Hamiltonian
                  Orbital angular momentum around (-0.0000 -0.0000  0.0088 )
                  Velocity quadrupole around (-0.0000 -0.0000  0.0088 )
                  Atomic mean-field integrals
                  Two-Electron Repulsion integrals

                   Integrals are discarded if absolute value <: 0.10E-13
                   Integral cutoff threshold is set to       <: 0.10E-15

++    Symmetry information:
      ---------------------

                    Character Table for C1 

                             E  
                    a        1  x, y, xy, Rz, z, xz, Ry, yz, Rx, I
--


++    Basis set information:
      ----------------------


      Basis set label: NB.ANO-RCC.ROOS.21S18P13D6F4G2H.10S9P8D5F4G2H......

      Electronic valence basis set:
      ------------------
      Associated Effective Charge  41.000000 au
      Associated Actual Charge     41.000000 au
      Nuclear Model: Point charge

      Shell  nPrim  nBasis  Cartesian Spherical Contaminant
         s      21      10        X                  
         p      18       9        X                  
         d      13       8                 X         
         f       6       5                 X         
         g       4       4                 X         
         h       2       2                 X         
--


++    Molecular structure info:
      -------------------------

                    ************************************************ 
                    **** Cartesian Coordinates / Bohr, Angstrom **** 
                    ************************************************ 

     Center  Label                x              y              z                     x              y              z
        1      NB              -0.000000      -0.000000       0.008754             -0.000000      -0.000000       0.004632
--


++    Operator info:
      --------------


  Net charge from external field:   -39.268449999999902     
--


            Nuclear Potential Energy              0.00000000 au

                    Nuclear-External Field Potential Energy    -375.10764418 au
                    External Field Potential Energy            1605.63690139 au 


            Total Nuclear Potential Energy           -375.10764418 au


      Basis set specifications :
      Symmetry species         a  
      Basis functions          170

 Sorry, Molden does not know how to handle
 functions with angular momentum larger than g
Note: The following floating-point exceptions are signalling: IEEE_UNDERFLOW_FLAG IEEE_DENORMAL
--- Stop Module: seward at Mon Mar 31 12:42:37 2025 /rc=_RC_ALL_IS_WELL_ ---
*** files: niobium_so_cf.GssOrb xmldump
    saved to directory /home4/s4752295/Internship/Initial_simulations/Point_charge_model/1_electron/Madelung_charges_9_active_space/Nb/fixed_calculations
--- Module seward spent 9 seconds ---

*** symbolic link created: INPORB -> niobium_so_cf.GssOrb
--- Start Module: scf at Mon Mar 31 12:42:37 2025 ---

()()()()()()()()()()()()()()()()()()()()()()()()()()()()()()()()()()()()()()()()()()()()()()()()()()

                                                &SCF

                                   only a single process is used
                       available to each process: 4.1 GB of memory, 1 thread?
                                            pid: 3841282
()()()()()()()()()()()()()()()()()()()()()()()()()()()()()()()()()()()()()()()()()()()()()()()()()()

++    Input section:
      --------------

      Header of the integral files:
      
       Integrals generated by seward 4.2.0  , Mon Mar 31 12:42:28 2025


      Cartesian coordinates in Angstrom:
      -----------------------------------------------------
      No.  Label        X            Y            Z        
      -----------------------------------------------------
       1   NB        -0.00000000  -0.00000000   0.00463220
      -----------------------------------------------------
      Nuclear repulsion energy = -375.10764418
--

++    Orbital specifications:
      -----------------------

      Symmetry species               1
                                     a
      Frozen orbitals                0
      Occupied orbitals             18
      Secondary orbitals           152
      Deleted orbitals               0
      Total number of orbitals     170
      Number of basis functions    170
--

      Molecular charge                           5.000

++    Optimization specifications:
      ----------------------------

      SCF Algorithm: Conventional
      Minimized density differences are used
      Number of density matrices in core                5
      Maximum number of NDDO SCF iterations            50
      Maximum number of HF SCF iterations             100
      Threshold for SCF energy change            0.10E-08
      Threshold for density matrix               0.10E-03
      Threshold for Fock matrix                  0.15E-03
      Threshold for linear dependence            0.10E-08
      Threshold at which DIIS is turned on       0.15E+00
      Threshold at which QNR/C2DIIS is turned on 0.75E-01
      Threshold for Norm(delta) (QNR/C2DIIS)     0.20E-04
      DIIS extrapolation of the SCF procedure
      All orbitals punched on: SCFORB
--

      Detected guessorb starting orbitals                                             


++ Convergence information
                                   SCF        iterations: Energy and convergence statistics

Iter     Tot. SCF        One-elec.       Two-elec.     Energy      Max Dij or  Max Fij      DNorm      TNorm      AccCon     Time
         Energy          Energy          Energy        Change      Delta Norm                                                in Sec.

 The total and one-electron energies are shifted by a value of      3000. a.u.

   1  -857.646907072 -1837.943698949  1355.404436053   0.00E+00    0.45E+00*   0.63E+00*    0.85E+01   0.49E+03   None         1.
   2  -859.002196804 -1840.423025961  1356.528473333  -0.14E+01*   0.12E+00*   0.11E+00*    0.24E+01   0.49E+03   EDIIS        1.
   3  -859.078216180 -1841.990792872  1358.020220868  -0.76E-01*   0.34E-01*   0.28E-01*    0.38E+00   0.49E+03   EDIIS        1.
   4  -859.083769782 -1840.950667486  1356.974541880  -0.56E-02*   0.35E-02*   0.68E-02*    0.44E-01   0.49E+03   c2DIIS       1.
   5  -859.084262190 -1841.357967557  1357.381349543  -0.49E-03*   0.92E-03*   0.11E-02*    0.62E-02   0.49E+03   QNRc2DIIS    1.
   6  -859.084266382 -1841.261975942  1357.285353736  -0.42E-05*   0.22E-03*   0.51E-03*    0.13E-02   0.49E+03   QNRc2DIIS    1.
   7  -859.084267052 -1841.289509884  1357.312887009  -0.67E-06*   0.54E-04*   0.31E-04     0.19E-03   0.49E+03   QNRc2DIIS    1.
   8  -859.084267061 -1841.290337528  1357.313714643  -0.98E-08*   0.15E-04    0.96E-05     0.28E-04   0.49E+03   QNRc2DIIS    1.
   9  -859.084267062 -1841.290286836  1357.313663950  -0.45E-09    0.19E-05    0.22E-05     0.21E-04   0.49E+03   QNRc2DIIS    1.

       Convergence after  9 Macro Iterations
--

 *****************************************************************************************************************************
 *                                                                                                                           *
 *                                             SCF/KS-DFT Program, Final results                                             *
 *                                                                                                                           *
 *                                                                                                                           *
 *                                                                                                                           *
 *                                                       Final Results                                                       *
 *                                                                                                                           *
 *****************************************************************************************************************************

::    Total SCF energy                              -3859.0842670618
      One-electron energy                           -4841.2902868356
      Two-electron energy                            1357.3136639498
      Nuclear repulsion energy                       -375.1076441760
      Kinetic energy (interpolated)                  4196.0222880458
      Virial theorem                                    0.9197006122
      Total spin, S(S+1)                                0.0000000000
      Total spin, S                                     0.0000000000
      Max non-diagonal density matrix element           0.0000019029
      Max non-diagonal Fock matrix element              0.0000004621


      All orbitals with orbital energies smaller than  E(LUMO)+0.5 are printed

++    Molecular orbitals:
      -------------------

      Title: SCF orbitals

      Molecular orbitals for symmetry species 1: a  

          Orbital            1         2         3         4         5         6         7         8         9        10    
          Energy         -694.7980  -94.3645  -83.3819  -83.3797  -83.3797  -11.4946   -7.7902   -7.7902   -7.7838   -1.7244
          Occ. No.          2.0000    2.0000    2.0000    2.0000    2.0000    2.0000    2.0000    2.0000    2.0000    2.0000

        1 NB     1s         1.0000    0.0000   -0.0000    0.0000   -0.0000   -0.0000   -0.0000   -0.0000    0.0000   -0.0000
        2 NB     2s        -0.0000    1.0000   -0.0004    0.0000   -0.0000    0.0001    0.0000    0.0000   -0.0001   -0.0000
        3 NB     3s         0.0000   -0.0001    0.0001   -0.0000    0.0000    0.9999    0.0000    0.0000   -0.0120    0.0004
        4 NB     4s        -0.0000    0.0001   -0.0001    0.0000   -0.0000   -0.0019   -0.0000   -0.0000    0.0037   -0.0007
        5 NB     5s        -0.0000   -0.0000    0.0000   -0.0000    0.0000    0.0003    0.0000   -0.0000   -0.0005    0.0001
        6 NB     6s        -0.0000    0.0000   -0.0000    0.0000   -0.0000   -0.0003   -0.0000   -0.0000    0.0005   -0.0001
        7 NB     7s         0.0000   -0.0000    0.0000   -0.0000    0.0000    0.0007    0.0000   -0.0000   -0.0010   -0.0001
        8 NB     8s        -0.0000    0.0000   -0.0000    0.0000    0.0000   -0.0004   -0.0000   -0.0000    0.0005    0.0002
        9 NB     9s         0.0000   -0.0000    0.0000   -0.0000   -0.0000    0.0004    0.0000    0.0000   -0.0003   -0.0003
       10 NB    10s        -0.0000    0.0000   -0.0000    0.0000   -0.0000   -0.0002   -0.0000    0.0000    0.0001    0.0001
       11 NB     2px        0.0000    0.0004    1.0000   -0.0014    0.0000   -0.0001   -0.0000   -0.0000    0.0001   -0.0000
       12 NB     3px       -0.0000    0.0001   -0.0001    0.0000   -0.0000    0.0120   -0.0022   -0.0000    0.9999   -0.0081
       13 NB     4px        0.0000   -0.0000    0.0000   -0.0000   -0.0000    0.0020    0.0000    0.0000   -0.0023    0.0053
       14 NB     5px       -0.0000    0.0000   -0.0000    0.0000   -0.0000   -0.0004   -0.0000   -0.0000    0.0005   -0.0007
       15 NB     6px        0.0000   -0.0000    0.0000   -0.0000    0.0000    0.0008    0.0000    0.0000   -0.0008    0.0010
       16 NB     7px       -0.0000    0.0000   -0.0000    0.0000   -0.0000   -0.0005   -0.0000   -0.0000    0.0004   -0.0003
       17 NB     8px        0.0000   -0.0000    0.0000   -0.0000   -0.0000    0.0004    0.0000    0.0000   -0.0002   -0.0000
       18 NB     9px       -0.0000    0.0000   -0.0000    0.0000    0.0000   -0.0002   -0.0000   -0.0000    0.0001    0.0000
       19 NB    10px        0.0000   -0.0000    0.0000   -0.0000   -0.0000    0.0001    0.0000    0.0000   -0.0001    0.0000
       20 NB     2py        0.0000    0.0000   -0.0000   -0.0000    1.0000    0.0000   -0.0000    0.0001    0.0000   -0.0000
       21 NB     3py       -0.0000   -0.0000    0.0000    0.0000   -0.0001    0.0000   -0.0000    1.0000    0.0000   -0.0000
       22 NB     4py        0.0000    0.0000   -0.0000   -0.0000    0.0001   -0.0000    0.0000   -0.0021   -0.0000    0.0000
       23 NB     5py       -0.0000   -0.0000    0.0000    0.0000   -0.0000    0.0000   -0.0000    0.0004    0.0000   -0.0000
       24 NB     6py        0.0000    0.0000   -0.0000   -0.0000    0.0000   -0.0000    0.0000   -0.0008   -0.0000    0.0000
       25 NB     7py       -0.0000   -0.0000    0.0000    0.0000   -0.0000    0.0000   -0.0000    0.0005    0.0000   -0.0000
       26 NB     8py        0.0000    0.0000   -0.0000   -0.0000    0.0000   -0.0000    0.0000   -0.0005   -0.0000    0.0000
       27 NB     9py       -0.0000   -0.0000    0.0000    0.0000   -0.0000    0.0000   -0.0000    0.0003    0.0000   -0.0000
       28 NB    10py        0.0000    0.0000   -0.0000   -0.0000    0.0000   -0.0000    0.0000   -0.0002   -0.0000   -0.0000
       29 NB     2pz       -0.0000   -0.0000    0.0014    1.0000    0.0000   -0.0000    0.0001    0.0000    0.0000   -0.0000
       30 NB     3pz       -0.0000    0.0000   -0.0000   -0.0001   -0.0000    0.0000    1.0000    0.0000    0.0022   -0.0000
       31 NB     4pz        0.0000   -0.0000    0.0000    0.0001    0.0000    0.0000   -0.0021   -0.0000   -0.0000    0.0000
       32 NB     5pz       -0.0000    0.0000   -0.0000   -0.0000   -0.0000   -0.0000    0.0004    0.0000    0.0000   -0.0000
       33 NB     6pz        0.0000   -0.0000    0.0000    0.0000    0.0000    0.0000   -0.0008   -0.0000   -0.0000    0.0000
       34 NB     7pz       -0.0000    0.0000   -0.0000   -0.0000   -0.0000   -0.0000    0.0005    0.0000    0.0000   -0.0000
       35 NB     8pz        0.0000   -0.0000    0.0000    0.0000    0.0000    0.0000   -0.0005   -0.0000   -0.0000   -0.0000
       36 NB     9pz       -0.0000   -0.0000   -0.0000   -0.0000   -0.0000   -0.0000    0.0003    0.0000    0.0000    0.0000
       37 NB    10pz        0.0000    0.0000    0.0000    0.0000    0.0000    0.0000   -0.0002   -0.0000   -0.0000   -0.0000
       38 NB     3d2-      -0.0000   -0.0000   -0.0000   -0.0000    0.0000   -0.0000   -0.0000    0.0068    0.0000    0.0000
       39 NB     4d2-       0.0000    0.0000    0.0000    0.0000   -0.0000    0.0000   -0.0000    0.0009    0.0000   -0.0000
       40 NB     5d2-      -0.0000   -0.0000   -0.0000   -0.0000    0.0000   -0.0000    0.0000   -0.0008   -0.0000    0.0000
       41 NB     6d2-      -0.0000   -0.0000    0.0000    0.0000   -0.0000    0.0000   -0.0000    0.0006    0.0000   -0.0000
       42 NB     7d2-       0.0000    0.0000   -0.0000   -0.0000    0.0000   -0.0000    0.0000   -0.0005   -0.0000    0.0000
       43 NB     8d2-       0.0000   -0.0000    0.0000    0.0000   -0.0000    0.0000   -0.0000    0.0004    0.0000   -0.0000
       44 NB     9d2-      -0.0000    0.0000   -0.0000    0.0000   -0.0000   -0.0000    0.0000   -0.0003   -0.0000    0.0000
       45 NB    10d2-      -0.0000    0.0000    0.0000    0.0000   -0.0000   -0.0000    0.0000   -0.0002   -0.0000    0.0000
       46 NB     3d1-       0.0000    0.0000   -0.0000   -0.0000    0.0000    0.0000   -0.0000    0.0000   -0.0000   -0.0000
       47 NB     4d1-      -0.0000   -0.0000   -0.0000   -0.0000    0.0000   -0.0000   -0.0000    0.0000    0.0000    0.0000
       48 NB     5d1-       0.0000    0.0000    0.0000    0.0000   -0.0000    0.0000    0.0000   -0.0000   -0.0000   -0.0000
       49 NB     6d1-       0.0000    0.0000   -0.0000   -0.0000    0.0000   -0.0000   -0.0000    0.0000    0.0000    0.0000
       50 NB     7d1-      -0.0000    0.0000    0.0000    0.0000   -0.0000   -0.0000    0.0000   -0.0000   -0.0000   -0.0000
       51 NB     8d1-      -0.0000   -0.0000    0.0000    0.0000   -0.0000   -0.0000   -0.0000    0.0000    0.0000    0.0000
       52 NB     9d1-       0.0000    0.0000   -0.0000   -0.0000    0.0000    0.0000    0.0000   -0.0000   -0.0000   -0.0000
       53 NB    10d1-       0.0000    0.0000   -0.0000   -0.0000    0.0000    0.0000    0.0000   -0.0000   -0.0000   -0.0000
       54 NB     3d0       -0.0000   -0.0000   -0.0000   -0.0000   -0.0000    0.0002    0.0000    0.0000   -0.0041   -0.5033
       55 NB     4d0        0.0000    0.0000    0.0000   -0.0000   -0.0000    0.0000   -0.0000    0.0000   -0.0006    0.0018
       56 NB     5d0       -0.0000   -0.0000   -0.0000    0.0000    0.0000   -0.0000    0.0000    0.0000    0.0005   -0.0014
       57 NB     6d0        0.0000    0.0000    0.0000   -0.0000   -0.0000    0.0000   -0.0000   -0.0000   -0.0004    0.0009
       58 NB     7d0       -0.0000   -0.0000   -0.0000    0.0000    0.0000   -0.0000    0.0000    0.0000    0.0003   -0.0006
       59 NB     8d0        0.0000    0.0000    0.0000    0.0000    0.0000   -0.0000   -0.0000   -0.0000   -0.0003    0.0004
       60 NB     9d0       -0.0000   -0.0000   -0.0000   -0.0000   -0.0000    0.0000    0.0000    0.0000    0.0002   -0.0002
       61 NB    10d0       -0.0000   -0.0000    0.0000   -0.0000   -0.0000    0.0001    0.0000    0.0000    0.0001   -0.0003
       62 NB     3d1+       0.0000    0.0000   -0.0000    0.0000    0.0000   -0.0000    0.0068    0.0000    0.0000    0.0012
       63 NB     4d1+      -0.0000   -0.0000   -0.0000   -0.0000   -0.0000   -0.0000    0.0009    0.0000    0.0000   -0.0000
       64 NB     5d1+       0.0000    0.0000   -0.0000    0.0000    0.0000    0.0000   -0.0008   -0.0000   -0.0000    0.0000
       65 NB     6d1+      -0.0000   -0.0000    0.0000   -0.0000   -0.0000   -0.0000    0.0006    0.0000    0.0000   -0.0000
       66 NB     7d1+       0.0000    0.0000   -0.0000    0.0000    0.0000    0.0000   -0.0005   -0.0000   -0.0000    0.0000
       67 NB     8d1+      -0.0000   -0.0000    0.0000   -0.0000   -0.0000    0.0000    0.0004    0.0000    0.0000   -0.0000
       68 NB     9d1+       0.0000    0.0000   -0.0000   -0.0000   -0.0000   -0.0000   -0.0003   -0.0000   -0.0000    0.0000
       69 NB    10d1+       0.0000    0.0000   -0.0000   -0.0000   -0.0000   -0.0000   -0.0002   -0.0000   -0.0000    0.0000
       70 NB     3d2+       0.0000    0.0000    0.0000   -0.0000   -0.0000   -0.0003   -0.0000   -0.0000    0.0070    0.8640
       71 NB     4d2+      -0.0000   -0.0000   -0.0000   -0.0000   -0.0000   -0.0000   -0.0000   -0.0000    0.0010   -0.0032
       72 NB     5d2+       0.0000    0.0000    0.0000    0.0000    0.0000    0.0001    0.0000    0.0000   -0.0009    0.0024
       73 NB     6d2+      -0.0000   -0.0000   -0.0000   -0.0000   -0.0000   -0.0001   -0.0000   -0.0000    0.0007   -0.0016
       74 NB     7d2+       0.0000    0.0000    0.0000    0.0000    0.0000    0.0000    0.0000    0.0000   -0.0005    0.0010
       75 NB     8d2+      -0.0000   -0.0000   -0.0000    0.0000    0.0000    0.0000   -0.0000   -0.0000    0.0004   -0.0006
       76 NB     9d2+       0.0000    0.0000    0.0000   -0.0000   -0.0000   -0.0001    0.0000    0.0000   -0.0003    0.0004
       77 NB    10d2+       0.0000    0.0000   -0.0000   -0.0000   -0.0000   -0.0001    0.0000    0.0000   -0.0002    0.0004
       78 NB     4f3-       0.0000    0.0000   -0.0000   -0.0000    0.0000    0.0000    0.0000   -0.0002   -0.0000    0.0000
       79 NB     5f3-      -0.0000   -0.0000   -0.0000   -0.0000    0.0000    0.0000    0.0000   -0.0002   -0.0000    0.0000
       80 NB     6f3-       0.0000    0.0000    0.0000    0.0000   -0.0000   -0.0000   -0.0000    0.0001    0.0000   -0.0000
       81 NB     7f3-       0.0000    0.0000   -0.0000   -0.0000    0.0000    0.0000    0.0000   -0.0000   -0.0000    0.0000
       82 NB     8f3-       0.0000    0.0000   -0.0000   -0.0000    0.0000    0.0000   -0.0000    0.0000    0.0000    0.0000
       83 NB     4f2-      -0.0000   -0.0000   -0.0000   -0.0000    0.0000    0.0000    0.0000   -0.0000   -0.0000   -0.0000
       84 NB     5f2-       0.0000    0.0000   -0.0000   -0.0000    0.0000    0.0000    0.0000   -0.0000   -0.0000   -0.0000
       85 NB     6f2-      -0.0000   -0.0000   -0.0000    0.0000   -0.0000   -0.0000   -0.0000    0.0000    0.0000    0.0000
       86 NB     7f2-      -0.0000    0.0000   -0.0000   -0.0000    0.0000    0.0000   -0.0000    0.0000    0.0000   -0.0000
       87 NB     8f2-      -0.0000    0.0000   -0.0000   -0.0000    0.0000   -0.0000   -0.0000    0.0000    0.0000   -0.0000
       88 NB     4f1-      -0.0000   -0.0000    0.0000    0.0000   -0.0000    0.0000   -0.0000    0.0000    0.0000   -0.0000
       89 NB     5f1-       0.0000    0.0000    0.0000    0.0000   -0.0000    0.0000   -0.0000    0.0000    0.0000   -0.0000
       90 NB     6f1-      -0.0000   -0.0000   -0.0000   -0.0000    0.0000   -0.0000    0.0000   -0.0000   -0.0000    0.0000
       91 NB     7f1-      -0.0000   -0.0000    0.0000    0.0000   -0.0000   -0.0000   -0.0000    0.0000    0.0000   -0.0000
       92 NB     8f1-      -0.0000   -0.0000    0.0000    0.0000   -0.0000   -0.0000    0.0000   -0.0000   -0.0000   -0.0000
       93 NB     4f0        0.0000   -0.0000   -0.0000   -0.0000   -0.0000    0.0000    0.0001    0.0000    0.0000    0.0000
       94 NB     5f0        0.0000   -0.0000    0.0000   -0.0000   -0.0000   -0.0000    0.0001    0.0000    0.0000    0.0000
       95 NB     6f0       -0.0000    0.0000   -0.0000    0.0000    0.0000    0.0000   -0.0001   -0.0000   -0.0000   -0.0000
       96 NB     7f0       -0.0000   -0.0000   -0.0000   -0.0000   -0.0000   -0.0000    0.0000    0.0000   -0.0000    0.0000
       97 NB     8f0        0.0000   -0.0000   -0.0000   -0.0000   -0.0000   -0.0000   -0.0000   -0.0000   -0.0000    0.0000
       98 NB     4f1+      -0.0000    0.0000   -0.0000   -0.0000   -0.0000   -0.0000    0.0000    0.0000    0.0002   -0.0024
       99 NB     5f1+       0.0000   -0.0000   -0.0000   -0.0000   -0.0000   -0.0000    0.0000    0.0000    0.0002   -0.0018
      100 NB     6f1+      -0.0000    0.0000    0.0000   -0.0000   -0.0000    0.0000   -0.0000    0.0000   -0.0001    0.0010
      101 NB     7f1+      -0.0000   -0.0000   -0.0000    0.0000   -0.0000   -0.0000   -0.0000   -0.0000    0.0000   -0.0005
      102 NB     8f1+      -0.0000   -0.0000   -0.0000    0.0000    0.0000   -0.0000   -0.0000   -0.0000   -0.0000   -0.0004
      103 NB     4f2+       0.0000   -0.0000   -0.0000    0.0000    0.0000    0.0000   -0.0002   -0.0000    0.0000    0.0000
      104 NB     5f2+       0.0000   -0.0000    0.0000    0.0000    0.0000   -0.0000   -0.0001   -0.0000    0.0000    0.0000
      105 NB     6f2+      -0.0000    0.0000   -0.0000   -0.0000   -0.0000    0.0000    0.0001    0.0000    0.0000   -0.0000
      106 NB     7f2+      -0.0000   -0.0000   -0.0000    0.0000    0.0000   -0.0000   -0.0000   -0.0000   -0.0000    0.0000
      107 NB     8f2+       0.0000   -0.0000   -0.0000    0.0000    0.0000   -0.0000    0.0000    0.0000   -0.0000    0.0000
      108 NB     4f3+       0.0000   -0.0000    0.0000   -0.0000   -0.0000    0.0000    0.0000    0.0000   -0.0002    0.0030
      109 NB     5f3+      -0.0000    0.0000    0.0000   -0.0000   -0.0000    0.0000    0.0000    0.0000   -0.0002    0.0023
      110 NB     6f3+       0.0000   -0.0000   -0.0000    0.0000    0.0000   -0.0000   -0.0000   -0.0000    0.0001   -0.0012
      111 NB     7f3+       0.0000    0.0000    0.0000   -0.0000   -0.0000    0.0000   -0.0000   -0.0000   -0.0000    0.0007
      112 NB     8f3+       0.0000    0.0000    0.0000   -0.0000   -0.0000    0.0000   -0.0000   -0.0000    0.0000    0.0005
      113 NB     5g4-       0.0000    0.0000   -0.0000   -0.0000    0.0000   -0.0000   -0.0000    0.0000    0.0000   -0.0000
      114 NB     6g4-       0.0000    0.0000    0.0000    0.0000   -0.0000    0.0000    0.0000   -0.0000   -0.0000    0.0000
      115 NB     7g4-      -0.0000    0.0000   -0.0000   -0.0000    0.0000   -0.0000   -0.0000    0.0000    0.0000   -0.0000
      116 NB     8g4-      -0.0000   -0.0000    0.0000    0.0000   -0.0000   -0.0000    0.0000   -0.0000   -0.0000   -0.0000
      117 NB     5g3-      -0.0000   -0.0000   -0.0000   -0.0000    0.0000   -0.0000    0.0000   -0.0000   -0.0000   -0.0000
      118 NB     6g3-      -0.0000   -0.0000   -0.0000   -0.0000    0.0000   -0.0000   -0.0000    0.0000    0.0000   -0.0000
      119 NB     7g3-      -0.0000   -0.0000    0.0000    0.0000   -0.0000    0.0000    0.0000   -0.0000   -0.0000    0.0000
      120 NB     8g3-       0.0000    0.0000    0.0000    0.0000   -0.0000   -0.0000   -0.0000    0.0000    0.0000    0.0000
      121 NB     5g2-      -0.0000   -0.0000    0.0000    0.0000   -0.0000   -0.0000    0.0000   -0.0000   -0.0000    0.0000
      122 NB     6g2-      -0.0000   -0.0000   -0.0000   -0.0000    0.0000    0.0000   -0.0000    0.0000    0.0000   -0.0000
      123 NB     7g2-      -0.0000    0.0000    0.0000    0.0000   -0.0000   -0.0000    0.0000   -0.0000   -0.0000    0.0000
      124 NB     8g2-       0.0000    0.0000   -0.0000   -0.0000    0.0000    0.0000   -0.0000    0.0000    0.0000    0.0000
      125 NB     5g1-       0.0000    0.0000    0.0000    0.0000   -0.0000    0.0000   -0.0000    0.0000    0.0000    0.0000
      126 NB     6g1-       0.0000    0.0000   -0.0000   -0.0000    0.0000   -0.0000   -0.0000    0.0000    0.0000    0.0000
      127 NB     7g1-       0.0000   -0.0000    0.0000    0.0000   -0.0000    0.0000    0.0000   -0.0000   -0.0000   -0.0000
      128 NB     8g1-      -0.0000    0.0000   -0.0000   -0.0000    0.0000    0.0000   -0.0000    0.0000    0.0000   -0.0000
      129 NB     5g0       -0.0000   -0.0000    0.0000    0.0000    0.0000   -0.0000   -0.0000   -0.0000    0.0000   -0.0001
      130 NB     6g0       -0.0000    0.0000   -0.0000    0.0000    0.0000    0.0000    0.0000    0.0000   -0.0000    0.0001
      131 NB     7g0        0.0000   -0.0000    0.0000   -0.0000   -0.0000   -0.0000   -0.0000   -0.0000    0.0000   -0.0000
      132 NB     8g0        0.0000    0.0000   -0.0000    0.0000    0.0000    0.0000    0.0000    0.0000   -0.0000   -0.0000
      133 NB     5g1+       0.0000   -0.0000   -0.0000   -0.0000   -0.0000    0.0000   -0.0000   -0.0000    0.0000    0.0000
      134 NB     6g1+       0.0000   -0.0000   -0.0000    0.0000    0.0000    0.0000    0.0000    0.0000    0.0000    0.0000
      135 NB     7g1+       0.0000    0.0000   -0.0000   -0.0000   -0.0000   -0.0000   -0.0000   -0.0000   -0.0000   -0.0000
      136 NB     8g1+      -0.0000    0.0000    0.0000    0.0000    0.0000   -0.0000    0.0000    0.0000    0.0000   -0.0000
      137 NB     5g2+       0.0000    0.0000   -0.0000   -0.0000   -0.0000    0.0000    0.0000    0.0000   -0.0000    0.0002
      138 NB     6g2+       0.0000   -0.0000    0.0000    0.0000    0.0000   -0.0000    0.0000    0.0000    0.0000   -0.0002
      139 NB     7g2+      -0.0000    0.0000   -0.0000   -0.0000   -0.0000    0.0000   -0.0000   -0.0000   -0.0000    0.0001
      140 NB     8g2+      -0.0000   -0.0000    0.0000    0.0000    0.0000   -0.0000    0.0000    0.0000    0.0000    0.0000
      141 NB     5g3+       0.0000   -0.0000   -0.0000    0.0000    0.0000    0.0000    0.0000    0.0000    0.0000    0.0000
      142 NB     6g3+       0.0000   -0.0000   -0.0000   -0.0000   -0.0000    0.0000   -0.0000   -0.0000    0.0000    0.0000
      143 NB     7g3+       0.0000    0.0000   -0.0000    0.0000    0.0000   -0.0000    0.0000    0.0000   -0.0000   -0.0000
      144 NB     8g3+      -0.0000    0.0000    0.0000   -0.0000   -0.0000   -0.0000   -0.0000   -0.0000    0.0000   -0.0000
      145 NB     5g4+      -0.0000   -0.0000    0.0000   -0.0000   -0.0000   -0.0000    0.0000    0.0000    0.0000   -0.0002
      146 NB     6g4+      -0.0000    0.0000   -0.0000   -0.0000   -0.0000    0.0000   -0.0000   -0.0000   -0.0000    0.0002
      147 NB     7g4+       0.0000   -0.0000    0.0000   -0.0000   -0.0000   -0.0000   -0.0000   -0.0000    0.0000   -0.0001
      148 NB     8g4+      -0.0000    0.0000   -0.0000    0.0000    0.0000    0.0000    0.0000    0.0000   -0.0000   -0.0000
      149 NB     6h5-       0.0000    0.0000    0.0000    0.0000   -0.0000    0.0000    0.0000   -0.0000   -0.0000    0.0000
      150 NB     7h5-       0.0000    0.0000   -0.0000    0.0000   -0.0000   -0.0000   -0.0000    0.0000    0.0000   -0.0000
      151 NB     6h4-      -0.0000   -0.0000   -0.0000   -0.0000    0.0000   -0.0000   -0.0000    0.0000    0.0000   -0.0000
      152 NB     7h4-      -0.0000   -0.0000   -0.0000   -0.0000    0.0000    0.0000    0.0000   -0.0000   -0.0000   -0.0000
      153 NB     6h3-      -0.0000   -0.0000    0.0000   -0.0000    0.0000   -0.0000   -0.0000    0.0000   -0.0000   -0.0000
      154 NB     7h3-      -0.0000   -0.0000   -0.0000   -0.0000    0.0000    0.0000    0.0000   -0.0000    0.0000    0.0000
      155 NB     6h2-       0.0000    0.0000    0.0000    0.0000   -0.0000    0.0000   -0.0000    0.0000    0.0000    0.0000
      156 NB     7h2-       0.0000    0.0000    0.0000   -0.0000    0.0000    0.0000    0.0000   -0.0000   -0.0000    0.0000
      157 NB     6h1-       0.0000   -0.0000   -0.0000    0.0000   -0.0000    0.0000    0.0000   -0.0000    0.0000    0.0000
      158 NB     7h1-      -0.0000    0.0000    0.0000    0.0000   -0.0000    0.0000   -0.0000    0.0000    0.0000   -0.0000
      159 NB     6h0       -0.0000    0.0000    0.0000   -0.0000   -0.0000   -0.0000   -0.0000   -0.0000   -0.0000   -0.0000
      160 NB     7h0       -0.0000    0.0000    0.0000   -0.0000   -0.0000   -0.0000    0.0000    0.0000   -0.0000   -0.0000
      161 NB     6h1+      -0.0000    0.0000    0.0000    0.0000    0.0000   -0.0000    0.0000    0.0000   -0.0000    0.0000
      162 NB     7h1+      -0.0000    0.0000    0.0000    0.0000    0.0000   -0.0000   -0.0000   -0.0000    0.0000   -0.0000
      163 NB     6h2+       0.0000   -0.0000   -0.0000    0.0000    0.0000    0.0000    0.0000    0.0000    0.0000    0.0000
      164 NB     7h2+       0.0000   -0.0000   -0.0000    0.0000    0.0000    0.0000   -0.0000   -0.0000    0.0000    0.0000
      165 NB     6h3+       0.0000   -0.0000   -0.0000   -0.0000   -0.0000    0.0000    0.0000    0.0000    0.0000   -0.0000
      166 NB     7h3+       0.0000   -0.0000   -0.0000    0.0000    0.0000    0.0000   -0.0000   -0.0000   -0.0000    0.0000
      167 NB     6h4+       0.0000   -0.0000   -0.0000   -0.0000   -0.0000    0.0000   -0.0000   -0.0000    0.0000    0.0000
      168 NB     7h4+       0.0000   -0.0000   -0.0000   -0.0000   -0.0000    0.0000    0.0000    0.0000    0.0000    0.0000
      169 NB     6h5+      -0.0000    0.0000    0.0000   -0.0000   -0.0000   -0.0000    0.0000    0.0000   -0.0000    0.0001
      170 NB     7h5+      -0.0000    0.0000    0.0000   -0.0000   -0.0000   -0.0000    0.0000    0.0000    0.0000   -0.0000

          Orbital           11        12        13        14        15        16        17        18        19        20    
          Energy           -1.7231   -1.7230   -1.7198   -1.7198    3.9543    5.1110    5.1112    5.2647    6.2873    6.4520
          Occ. No.          2.0000    2.0000    2.0000    2.0000    2.0000    2.0000    2.0000    2.0000    0.0000    0.0000

        1 NB     1s        -0.0000    0.0000    0.0000   -0.0000   -0.0000    0.0000   -0.0000   -0.0000    0.0000    0.0000
        2 NB     2s        -0.0000    0.0000    0.0000   -0.0000   -0.0000   -0.0000   -0.0000    0.0001   -0.0000   -0.0000
        3 NB     3s         0.0000   -0.0000    0.0000   -0.0000    0.0013    0.0000    0.0000   -0.0024    0.0000    0.0002
        4 NB     4s        -0.0000    0.0000    0.0000   -0.0000    0.9469    0.0002    0.0000   -0.3007    0.0043    0.0112
        5 NB     5s         0.0000   -0.0000   -0.0000    0.0000   -0.0061   -0.0001    0.0000    0.1367    0.3318    0.1658
        6 NB     6s        -0.0000    0.0000    0.0000   -0.0000    0.0049    0.0001   -0.0000   -0.1125    0.4335    0.1447
        7 NB     7s        -0.0000    0.0000    0.0000   -0.0000   -0.0117   -0.0001    0.0000    0.1023    0.1190    0.1002
        8 NB     8s         0.0000   -0.0000   -0.0000    0.0000    0.0063   -0.0000    0.0000    0.0260    0.0388    0.1205
        9 NB     9s        -0.0000    0.0000    0.0000   -0.0000    0.0017   -0.0000    0.0000   -0.0022   -0.0021    0.0467
       10 NB    10s         0.0000   -0.0000   -0.0000    0.0000    0.0001   -0.0000   -0.0000   -0.0007   -0.0012    0.0055
       11 NB     2px        0.0000    0.0000    0.0000   -0.0000    0.0001    0.0000   -0.0000   -0.0001    0.0000    0.0000
       12 NB     3px        0.0000    0.0000    0.0000   -0.0000   -0.0028   -0.0000   -0.0000    0.0029   -0.0000   -0.0002
       13 NB     4px       -0.0000   -0.0000   -0.0000    0.0000    0.3172   -0.0014   -0.0000    0.8629   -0.0141   -0.0460
       14 NB     5px        0.0000    0.0000    0.0000   -0.0000    0.0138   -0.0000    0.0000    0.0409    0.0610   -0.0966
       15 NB     6px       -0.0000   -0.0000   -0.0000    0.0000   -0.0274   -0.0000   -0.0000   -0.0232   -0.0093   -0.3102
       16 NB     7px        0.0000    0.0000    0.0000   -0.0000    0.0086    0.0000   -0.0000   -0.0318   -0.0203   -0.4422
       17 NB     8px       -0.0000    0.0000    0.0000   -0.0000    0.0027    0.0000    0.0000    0.0204   -0.0100   -0.2907
       18 NB     9px        0.0000   -0.0000   -0.0000    0.0000    0.0015   -0.0000    0.0000    0.0167   -0.0029   -0.1452
       19 NB    10px       -0.0000   -0.0000   -0.0000    0.0000    0.0002   -0.0000    0.0000    0.0028   -0.0002   -0.0233
       20 NB     2py        0.0000   -0.0000   -0.0000   -0.0000    0.0000    0.0000   -0.0001   -0.0000   -0.0000   -0.0000
       21 NB     3py        0.0000   -0.0067   -0.0001   -0.0000   -0.0000   -0.0000    0.0018    0.0000    0.0000    0.0000
       22 NB     4py       -0.0000    0.0042    0.0001    0.0000   -0.0000   -0.0000    0.9657   -0.0000   -0.0000   -0.0000
       23 NB     5py        0.0000   -0.0006   -0.0000   -0.0000    0.0000    0.0000   -0.0276    0.0000   -0.0000    0.0000
       24 NB     6py       -0.0000    0.0008    0.0000    0.0000   -0.0000   -0.0000    0.0295   -0.0000    0.0000   -0.0000
       25 NB     7py        0.0000   -0.0002   -0.0000   -0.0000   -0.0000    0.0000   -0.0070   -0.0000   -0.0000   -0.0000
       26 NB     8py        0.0000   -0.0001    0.0000    0.0000   -0.0000   -0.0000    0.0004   -0.0000   -0.0000   -0.0000
       27 NB     9py       -0.0000    0.0000   -0.0000   -0.0000    0.0000   -0.0000    0.0022   -0.0000   -0.0000   -0.0000
       28 NB    10py       -0.0000    0.0000    0.0000    0.0000   -0.0000   -0.0000    0.0006    0.0000    0.0000    0.0000
       29 NB     2pz       -0.0000   -0.0000   -0.0000    0.0000    0.0000   -0.0001   -0.0000   -0.0000    0.0000   -0.0000
       30 NB     3pz       -0.0067   -0.0000   -0.0000    0.0001   -0.0000    0.0018    0.0000    0.0000   -0.0000    0.0000
       31 NB     4pz        0.0042    0.0000    0.0000   -0.0001    0.0002    0.9656    0.0000    0.0012   -0.0000    0.0001
       32 NB     5pz       -0.0006   -0.0000   -0.0000    0.0000   -0.0000   -0.0274   -0.0000   -0.0000    0.0042   -0.0017
       33 NB     6pz        0.0008    0.0000    0.0000   -0.0000   -0.0000    0.0293    0.0000   -0.0000    0.0033   -0.0009
       34 NB     7pz       -0.0002   -0.0000   -0.0000    0.0000    0.0000   -0.0071   -0.0000   -0.0000    0.0032   -0.0010
       35 NB     8pz       -0.0001   -0.0000    0.0000   -0.0000    0.0000    0.0005    0.0000    0.0001    0.0011   -0.0005
       36 NB     9pz        0.0000    0.0000   -0.0000    0.0000   -0.0000    0.0023    0.0000    0.0000    0.0003   -0.0002
       37 NB    10pz        0.0000    0.0000    0.0000   -0.0000   -0.0000    0.0006    0.0000    0.0000    0.0000   -0.0000
       38 NB     3d2-      -0.0000    0.9998    0.0193    0.0000    0.0000    0.0000   -0.0033    0.0000    0.0000   -0.0000
       39 NB     4d2-       0.0000   -0.0033   -0.0001   -0.0000   -0.0000   -0.0000    0.2399   -0.0000   -0.0000   -0.0000
       40 NB     5d2-      -0.0000    0.0024    0.0001    0.0000    0.0000    0.0000   -0.0646    0.0000    0.0000    0.0000
       41 NB     6d2-       0.0000   -0.0016   -0.0000   -0.0000   -0.0000    0.0000   -0.0106   -0.0000    0.0000    0.0000
       42 NB     7d2-      -0.0000    0.0010    0.0000    0.0000   -0.0000   -0.0000    0.0225   -0.0000   -0.0000    0.0000
       43 NB     8d2-       0.0000   -0.0006   -0.0000   -0.0000    0.0000    0.0000   -0.0039    0.0000    0.0000    0.0000
       44 NB     9d2-      -0.0000    0.0004    0.0000    0.0000    0.0000    0.0000   -0.0047    0.0000    0.0000    0.0000
       45 NB    10d2-      -0.0000    0.0005    0.0000    0.0000    0.0000   -0.0000    0.0028    0.0000   -0.0000   -0.0000
       46 NB     3d1-       0.0000   -0.0193    0.9998    0.0000    0.0000    0.0000    0.0000    0.0000   -0.0000    0.0000
       47 NB     4d1-      -0.0000   -0.0000   -0.0025   -0.0000    0.0000    0.0000   -0.0087    0.0000    0.0000   -0.0000
       48 NB     5d1-       0.0000   -0.0000    0.0018    0.0000   -0.0000    0.0000   -0.0008   -0.0000   -0.0000   -0.0000
       49 NB     6d1-      -0.0000    0.0000   -0.0011   -0.0000   -0.0000   -0.0000    0.0032   -0.0000   -0.0000   -0.0000
       50 NB     7d1-       0.0000   -0.0000    0.0007    0.0000    0.0000    0.0000   -0.0017   -0.0000   -0.0000   -0.0000
       51 NB     8d1-      -0.0000    0.0000   -0.0005   -0.0000   -0.0000    0.0000   -0.0023    0.0000    0.0000   -0.0000
       52 NB     9d1-       0.0000   -0.0000    0.0004    0.0000    0.0000    0.0000   -0.0007    0.0000    0.0000   -0.0000
       53 NB    10d1-       0.0000   -0.0000    0.0005    0.0000   -0.0000    0.0000   -0.0002   -0.0000   -0.0000    0.0000
       54 NB     3d0        0.0176    0.0000   -0.0000    0.8639    0.0005   -0.0000    0.0000    0.0018   -0.0001   -0.0002
       55 NB     4d0        0.0000   -0.0000    0.0000   -0.0022   -0.0172    0.0079    0.0000   -0.1630    0.0349   -0.0421
       56 NB     5d0        0.0000    0.0000   -0.0000    0.0015    0.0002    0.0005    0.0000    0.0406    0.1278   -0.1052
       57 NB     6d0       -0.0000   -0.0000    0.0000   -0.0009    0.0055   -0.0027   -0.0000    0.0109    0.1686   -0.1771
       58 NB     7d0        0.0000    0.0000   -0.0000    0.0006   -0.0041    0.0015    0.0000   -0.0142    0.0400   -0.1804
       59 NB     8d0       -0.0000   -0.0000    0.0000   -0.0004   -0.0004    0.0019    0.0000    0.0007   -0.0611   -0.0834
       60 NB     9d0        0.0000    0.0000   -0.0000    0.0003    0.0010    0.0006    0.0000    0.0034   -0.0600   -0.0465
       61 NB    10d0        0.0000    0.0000   -0.0000    0.0004   -0.0008    0.0001    0.0000   -0.0022    0.0138    0.0052
       62 NB     3d1+       0.9998    0.0000    0.0000   -0.0196    0.0000   -0.0033   -0.0000   -0.0000    0.0000   -0.0000
       63 NB     4d1+      -0.0033   -0.0000   -0.0000    0.0001   -0.0000    0.2404    0.0000    0.0008    0.0004   -0.0008
       64 NB     5d1+       0.0024    0.0000    0.0000   -0.0001    0.0000   -0.0646   -0.0000   -0.0002    0.0010   -0.0008
       65 NB     6d1+      -0.0016   -0.0000   -0.0000    0.0000   -0.0000   -0.0108   -0.0000   -0.0001    0.0007   -0.0004
       66 NB     7d1+       0.0010    0.0000    0.0000   -0.0000    0.0000    0.0227    0.0000    0.0001   -0.0003   -0.0003
       67 NB     8d1+      -0.0006   -0.0000   -0.0000    0.0000    0.0000   -0.0038   -0.0000   -0.0000   -0.0006   -0.0002
       68 NB     9d1+       0.0004    0.0000    0.0000   -0.0000   -0.0000   -0.0047   -0.0000   -0.0001   -0.0005   -0.0001
       69 NB    10d1+       0.0005    0.0000    0.0000   -0.0000    0.0000    0.0028    0.0000    0.0000    0.0001    0.0000
       70 NB     3d2+       0.0088   -0.0000   -0.0000    0.5032   -0.0008    0.0000    0.0000   -0.0030    0.0001    0.0004
       71 NB     4d2+       0.0000    0.0000    0.0000   -0.0013    0.0300    0.0041    0.0000    0.2831   -0.0634    0.0740
       72 NB     5d2+       0.0000   -0.0000   -0.0000    0.0009   -0.0003    0.0004    0.0000   -0.0703   -0.2299    0.1851
       73 NB     6d2+      -0.0000    0.0000    0.0000   -0.0005   -0.0096   -0.0016   -0.0000   -0.0191   -0.3021    0.3115
       74 NB     7d2+       0.0000   -0.0000   -0.0000    0.0003    0.0071    0.0009    0.0000    0.0247   -0.0722    0.3155
       75 NB     8d2+      -0.0000    0.0000    0.0000   -0.0003    0.0006    0.0011    0.0000   -0.0011    0.1083    0.1449
       76 NB     9d2+       0.0000    0.0000   -0.0000    0.0002   -0.0018    0.0003    0.0000   -0.0058    0.1064    0.0805
       77 NB    10d2+       0.0000   -0.0000   -0.0000    0.0002    0.0013    0.0001    0.0000    0.0038   -0.0244   -0.0090
       78 NB     4f3-      -0.0000    0.0035    0.0000    0.0000   -0.0000   -0.0000    0.0397   -0.0000   -0.0000   -0.0000
       79 NB     5f3-      -0.0000    0.0026    0.0000    0.0000   -0.0000    0.0000   -0.0171    0.0000    0.0000   -0.0000
       80 NB     6f3-       0.0000   -0.0014   -0.0000   -0.0000   -0.0000   -0.0000    0.0123   -0.0000   -0.0000   -0.0000
       81 NB     7f3-      -0.0000    0.0008    0.0000    0.0000   -0.0000   -0.0000    0.0094   -0.0000   -0.0000   -0.0000
       82 NB     8f3-      -0.0000    0.0006    0.0000    0.0000    0.0000   -0.0000    0.0032    0.0000    0.0000    0.0000
       83 NB     4f2-       0.0000   -0.0001    0.0027    0.0000    0.0000    0.0000   -0.0144    0.0000    0.0000   -0.0000
       84 NB     5f2-       0.0000   -0.0000    0.0020    0.0000    0.0000   -0.0000    0.0083    0.0000   -0.0000    0.0000
       85 NB     6f2-      -0.0000    0.0000   -0.0011   -0.0000    0.0000    0.0000   -0.0031    0.0000    0.0000   -0.0000
       86 NB     7f2-       0.0000   -0.0000    0.0006    0.0000   -0.0000    0.0000   -0.0043   -0.0000    0.0000   -0.0000
       87 NB     8f2-       0.0000   -0.0000    0.0005    0.0000   -0.0000   -0.0000    0.0000   -0.0000    0.0000    0.0000
       88 NB     4f1-       0.0000   -0.0009   -0.0000   -0.0000   -0.0000    0.0000   -0.0102    0.0000    0.0000    0.0000
       89 NB     5f1-       0.0000   -0.0007   -0.0000   -0.0000   -0.0000   -0.0000    0.0044   -0.0000   -0.0000    0.0000
       90 NB     6f1-      -0.0000    0.0004    0.0000    0.0000    0.0000    0.0000   -0.0032    0.0000    0.0000    0.0000
       91 NB     7f1-       0.0000   -0.0002   -0.0000   -0.0000    0.0000    0.0000   -0.0024    0.0000    0.0000    0.0000
       92 NB     8f1-       0.0000   -0.0002   -0.0000   -0.0000    0.0000    0.0000   -0.0008   -0.0000   -0.0000   -0.0000
       93 NB     4f0       -0.0022   -0.0000   -0.0000    0.0000    0.0018   -0.0255   -0.0000    0.0085   -0.0574    0.0109
       94 NB     5f0       -0.0016   -0.0000   -0.0000    0.0000   -0.0010    0.0110    0.0000   -0.0061    0.1487   -0.0169
       95 NB     6f0        0.0009    0.0000    0.0000   -0.0000    0.0006   -0.0079   -0.0000    0.0005    0.2572   -0.0225
       96 NB     7f0       -0.0005   -0.0000   -0.0000    0.0000    0.0006   -0.0060   -0.0000    0.0020    0.2736   -0.0259
       97 NB     8f0       -0.0004   -0.0000   -0.0000    0.0000    0.0001   -0.0021   -0.0000   -0.0002   -0.2878    0.0337
       98 NB     4f1+       0.0001    0.0000   -0.0000    0.0021   -0.0035    0.0112    0.0000   -0.0299    0.0141    0.0070
       99 NB     5f1+       0.0000    0.0000   -0.0000    0.0016    0.0011   -0.0065   -0.0000    0.0094   -0.0432   -0.0456
      100 NB     6f1+      -0.0000   -0.0000    0.0000   -0.0008   -0.0014    0.0024    0.0000   -0.0096   -0.0752   -0.1117
      101 NB     7f1+       0.0000    0.0000   -0.0000    0.0005   -0.0007    0.0033    0.0000   -0.0054   -0.0731   -0.1379
      102 NB     8f1+       0.0000    0.0000   -0.0000    0.0004   -0.0006   -0.0000    0.0000   -0.0034    0.0628    0.1631
      103 NB     4f2+       0.0028    0.0000    0.0000   -0.0000    0.0015    0.0328    0.0000    0.0070   -0.0451    0.0083
      104 NB     5f2+       0.0021    0.0000    0.0000   -0.0000   -0.0008   -0.0141   -0.0000   -0.0049    0.1168   -0.0135
      105 NB     6f2+      -0.0011   -0.0000   -0.0000    0.0000    0.0005    0.0102    0.0000    0.0006    0.2016   -0.0188
      106 NB     7f2+       0.0007    0.0000    0.0000   -0.0000    0.0004    0.0078    0.0000    0.0017    0.2140   -0.0217
      107 NB     8f2+       0.0005    0.0000    0.0000   -0.0000    0.0001    0.0027    0.0000   -0.0001   -0.2246    0.0280
      108 NB     4f3+       0.0001    0.0000   -0.0000    0.0017    0.0047    0.0088    0.0000    0.0392   -0.0184   -0.0088
      109 NB     5f3+       0.0000   -0.0000   -0.0000    0.0012   -0.0015   -0.0051   -0.0000   -0.0125    0.0566    0.0586
      110 NB     6f3+       0.0000    0.0000    0.0000   -0.0007    0.0019    0.0019    0.0000    0.0126    0.0983    0.1439
      111 NB     7f3+       0.0000   -0.0000   -0.0000    0.0004    0.0009    0.0026    0.0000    0.0071    0.0953    0.1778
      112 NB     8f3+       0.0000    0.0000   -0.0000    0.0003    0.0008   -0.0000   -0.0000    0.0044   -0.0815   -0.2103
      113 NB     5g4-       0.0000   -0.0002    0.0000    0.0000   -0.0000   -0.0000    0.0109   -0.0000   -0.0000   -0.0000
      114 NB     6g4-      -0.0000    0.0002   -0.0000   -0.0000   -0.0000   -0.0000    0.0101   -0.0000   -0.0000   -0.0000
      115 NB     7g4-       0.0000   -0.0001    0.0000    0.0000    0.0000    0.0000   -0.0005   -0.0000   -0.0000   -0.0000
      116 NB     8g4-       0.0000   -0.0000    0.0000    0.0000   -0.0000    0.0000   -0.0023   -0.0000    0.0000   -0.0000
      117 NB     5g3-       0.0000   -0.0000   -0.0001   -0.0000    0.0000    0.0000   -0.0100   -0.0000    0.0000   -0.0000
      118 NB     6g3-       0.0000   -0.0000    0.0001    0.0000    0.0000    0.0000   -0.0110   -0.0000    0.0000   -0.0000
      119 NB     7g3-      -0.0000    0.0000   -0.0001   -0.0000   -0.0000    0.0000   -0.0014   -0.0000    0.0000   -0.0000
      120 NB     8g3-      -0.0000    0.0000   -0.0000   -0.0000   -0.0000   -0.0000    0.0013   -0.0000    0.0000   -0.0000
      121 NB     5g2-      -0.0000    0.0001   -0.0000   -0.0000    0.0000    0.0000   -0.0040    0.0000    0.0000   -0.0000
      122 NB     6g2-       0.0000   -0.0001    0.0000    0.0000   -0.0000    0.0000   -0.0037    0.0000    0.0000   -0.0000
      123 NB     7g2-      -0.0000    0.0000   -0.0000   -0.0000   -0.0000   -0.0000    0.0002    0.0000   -0.0000   -0.0000
      124 NB     8g2-      -0.0000    0.0000   -0.0000   -0.0000    0.0000   -0.0000    0.0009   -0.0000   -0.0000    0.0000
      125 NB     5g1-      -0.0000    0.0000    0.0001    0.0000    0.0000   -0.0000    0.0045   -0.0000   -0.0000   -0.0000
      126 NB     6g1-      -0.0000    0.0000   -0.0001   -0.0000   -0.0000   -0.0000    0.0048   -0.0000   -0.0000   -0.0000
      127 NB     7g1-       0.0000   -0.0000    0.0000    0.0000    0.0000   -0.0000    0.0000   -0.0000    0.0000    0.0000
      128 NB     8g1-       0.0000   -0.0000    0.0000    0.0000    0.0000    0.0000   -0.0009   -0.0000    0.0000    0.0000
      129 NB     5g0       -0.0000   -0.0000   -0.0000    0.0001   -0.0006   -0.0056   -0.0000    0.0001    0.0012   -0.0015
      130 NB     6g0       -0.0000   -0.0000    0.0000   -0.0001   -0.0006   -0.0062   -0.0000   -0.0014    0.0041   -0.0033
      131 NB     7g0        0.0000    0.0000   -0.0000    0.0000   -0.0000   -0.0010   -0.0000   -0.0012    0.0058   -0.0033
      132 NB     8g0        0.0000    0.0000   -0.0000    0.0000    0.0001    0.0006    0.0000   -0.0004    0.0030   -0.0015
      133 NB     5g1+       0.0002    0.0000    0.0000   -0.0000    0.0032   -0.0089   -0.0000    0.0075   -0.0036    0.0062
      134 NB     6g1+      -0.0002   -0.0000    0.0000   -0.0000    0.0026   -0.0084   -0.0000    0.0091   -0.0129    0.0081
      135 NB     7g1+       0.0001    0.0000   -0.0000    0.0000   -0.0004    0.0004    0.0000    0.0015   -0.0183    0.0021
      136 NB     8g1+       0.0000    0.0000   -0.0000    0.0000   -0.0006    0.0019    0.0000   -0.0010   -0.0093   -0.0005
      137 NB     5g2+       0.0000    0.0000    0.0000   -0.0001    0.0009    0.0059    0.0000   -0.0004   -0.0021    0.0022
      138 NB     6g2+       0.0000    0.0000   -0.0000    0.0001    0.0008    0.0063    0.0000    0.0019   -0.0070    0.0050
      139 NB     7g2+      -0.0000   -0.0000    0.0000   -0.0000    0.0000    0.0003    0.0000    0.0018   -0.0096    0.0052
      140 NB     8g2+      -0.0000   -0.0000    0.0000   -0.0000   -0.0001   -0.0011   -0.0000    0.0006   -0.0049    0.0023
      141 NB     5g3+      -0.0001   -0.0000    0.0000   -0.0000    0.0037    0.0079    0.0000    0.0088   -0.0043    0.0069
      142 NB     6g3+       0.0002    0.0000   -0.0000    0.0000    0.0030    0.0073    0.0000    0.0106   -0.0152    0.0091
      143 NB     7g3+      -0.0001   -0.0000    0.0000   -0.0000   -0.0004   -0.0004   -0.0000    0.0016   -0.0214    0.0023
      144 NB     8g3+      -0.0000   -0.0000    0.0000   -0.0000   -0.0008   -0.0017   -0.0000   -0.0012   -0.0109   -0.0005
      145 NB     5g4+       0.0000    0.0000    0.0000   -0.0001   -0.0010    0.0074    0.0000    0.0009    0.0028   -0.0028
      146 NB     6g4+       0.0000    0.0000   -0.0000    0.0001   -0.0009    0.0080    0.0000   -0.0021    0.0095   -0.0065
      147 NB     7g4+      -0.0000   -0.0000    0.0000   -0.0001   -0.0001    0.0008    0.0000   -0.0024    0.0128   -0.0069
      148 NB     8g4+      -0.0000   -0.0000    0.0000   -0.0000    0.0001   -0.0011   -0.0000   -0.0009    0.0066   -0.0032
      149 NB     6h5-      -0.0000    0.0001    0.0000    0.0000   -0.0000   -0.0000    0.0022   -0.0000   -0.0000    0.0000
      150 NB     7h5-       0.0000   -0.0000    0.0000    0.0000    0.0000   -0.0000    0.0029    0.0000   -0.0000    0.0000
      151 NB     6h4-       0.0000   -0.0000    0.0001    0.0000    0.0000    0.0000   -0.0027   -0.0000    0.0000   -0.0000
      152 NB     7h4-       0.0000   -0.0000   -0.0000   -0.0000    0.0000    0.0000   -0.0039   -0.0000    0.0000   -0.0000
      153 NB     6h3-       0.0000   -0.0000   -0.0000   -0.0000   -0.0000    0.0000   -0.0010   -0.0000   -0.0000    0.0000
      154 NB     7h3-      -0.0000    0.0000    0.0000    0.0000    0.0000    0.0000   -0.0014    0.0000    0.0000    0.0000
      155 NB     6h2-      -0.0000    0.0000   -0.0000   -0.0000   -0.0000   -0.0000    0.0045   -0.0000   -0.0000   -0.0000
      156 NB     7h2-      -0.0000    0.0000    0.0000    0.0000   -0.0000   -0.0000    0.0052   -0.0000   -0.0000    0.0000
      157 NB     6h1-      -0.0000    0.0000   -0.0000   -0.0000    0.0000   -0.0000    0.0001    0.0000   -0.0000   -0.0000
      158 NB     7h1-       0.0000   -0.0000    0.0000    0.0000    0.0000   -0.0000    0.0001    0.0000    0.0000   -0.0000
      159 NB     6h0        0.0000    0.0000    0.0000   -0.0000   -0.0020    0.0013    0.0000   -0.0046   -0.0006   -0.0029
      160 NB     7h0       -0.0000   -0.0000   -0.0000    0.0000   -0.0022    0.0018    0.0000   -0.0057   -0.0008   -0.0039
      161 NB     6h1+      -0.0000   -0.0000    0.0000   -0.0000   -0.0010   -0.0016   -0.0000   -0.0031   -0.0002   -0.0015
      162 NB     7h1+      -0.0000   -0.0000   -0.0000    0.0000   -0.0012   -0.0024   -0.0000   -0.0038   -0.0003   -0.0022
      163 NB     6h2+      -0.0001   -0.0000   -0.0000    0.0000    0.0012   -0.0015   -0.0000    0.0026    0.0004    0.0017
      164 NB     7h2+       0.0000    0.0000   -0.0000    0.0000    0.0013   -0.0020   -0.0000    0.0033    0.0004    0.0023
      165 NB     6h3+       0.0000    0.0000   -0.0000    0.0000    0.0011    0.0034    0.0000    0.0033    0.0002    0.0016
      166 NB     7h3+       0.0000    0.0000    0.0000   -0.0000    0.0013    0.0039    0.0000    0.0039    0.0002    0.0023
      167 NB     6h4+       0.0001    0.0000    0.0000   -0.0000    0.0032    0.0015    0.0000    0.0071    0.0010    0.0044
      168 NB     7h4+      -0.0000   -0.0000   -0.0000    0.0000    0.0034    0.0020    0.0000    0.0088    0.0012    0.0060
      169 NB     6h5+       0.0000    0.0000   -0.0000    0.0000   -0.0014    0.0037    0.0000   -0.0042   -0.0003   -0.0021
      170 NB     7h5+       0.0000    0.0000    0.0000   -0.0000   -0.0016    0.0046    0.0000   -0.0050   -0.0003   -0.0030

          Orbital           21        22        23        24        25        26        27    
          Energy            6.4911    6.4927    6.4959    6.5742    6.5763    6.6927    6.6944
          Occ. No.          0.0000    0.0000    0.0000    0.0000    0.0000    0.0000    0.0000

        1 NB     1s         0.0000    0.0000    0.0000    0.0000    0.0000    0.0000    0.0000
        2 NB     2s         0.0000   -0.0000   -0.0000   -0.0000    0.0000    0.0000    0.0000
        3 NB     3s        -0.0000    0.0000    0.0008    0.0000    0.0000   -0.0000   -0.0000
        4 NB     4s        -0.0000    0.0030    0.0559    0.0001    0.0000   -0.0000    0.0000
        5 NB     5s        -0.0000    0.0213    0.3615   -0.0020    0.0000   -0.0000    0.0020
        6 NB     6s         0.0000   -0.0146   -0.3387    0.0007   -0.0000   -0.0000   -0.0052
        7 NB     7s        -0.0000    0.0030    0.0336   -0.0002   -0.0000   -0.0000   -0.0037
        8 NB     8s        -0.0000    0.0081    0.1429   -0.0006    0.0000   -0.0000   -0.0033
        9 NB     9s        -0.0000    0.0029    0.0536   -0.0003    0.0000   -0.0000   -0.0010
       10 NB    10s        -0.0000    0.0003    0.0049   -0.0000    0.0000   -0.0000   -0.0001
       11 NB     2px       -0.0000    0.0000    0.0000    0.0000    0.0000    0.0000   -0.0000
       12 NB     3px        0.0000   -0.0001   -0.0010   -0.0000    0.0000   -0.0000    0.0000
       13 NB     4px        0.0000   -0.0135   -0.2511   -0.0006   -0.0000    0.0000    0.0002
       14 NB     5px       -0.0000    0.0315    0.5701   -0.0021    0.0000   -0.0000    0.0020
       15 NB     6px        0.0000   -0.0147   -0.2933   -0.0001   -0.0000    0.0000    0.0005
       16 NB     7px        0.0000   -0.0030   -0.0873    0.0002   -0.0000   -0.0000    0.0004
       17 NB     8px       -0.0000    0.0092    0.1476   -0.0002    0.0000   -0.0000    0.0002
       18 NB     9px       -0.0000    0.0071    0.1183   -0.0003    0.0000   -0.0000    0.0001
       19 NB    10px       -0.0000    0.0013    0.0214   -0.0001    0.0000   -0.0000    0.0000
       20 NB     2py       -0.0000   -0.0000   -0.0000   -0.0000    0.0000    0.0000    0.0000
       21 NB     3py        0.0000    0.0000    0.0000   -0.0000   -0.0009   -0.0002    0.0000
       22 NB     4py        0.0057    0.0000    0.0000   -0.0000   -0.1541   -0.0387    0.0000
       23 NB     5py        0.2827    0.0000   -0.0000    0.0000    0.3697   -0.2536    0.0000
       24 NB     6py        0.2700    0.0000    0.0000   -0.0000   -0.1814   -0.2193    0.0000
       25 NB     7py        0.3215    0.0000    0.0000   -0.0000   -0.0973   -0.0825    0.0000
       26 NB     8py        0.1697    0.0000    0.0000    0.0000    0.0231    0.0755   -0.0000
       27 NB     9py        0.0723    0.0000    0.0000    0.0000    0.0291    0.0680   -0.0000
       28 NB    10py        0.0105    0.0000    0.0000    0.0000    0.0055    0.0129   -0.0000
       29 NB     2pz        0.0000    0.0000    0.0000    0.0000    0.0000   -0.0000   -0.0000
       30 NB     3pz       -0.0000   -0.0000   -0.0000   -0.0009    0.0000    0.0000    0.0002
       31 NB     4pz        0.0000   -0.0062   -0.0002   -0.1557    0.0000    0.0000    0.0375
       32 NB     5pz        0.0000   -0.2775    0.0146    0.3683   -0.0000    0.0000    0.2578
       33 NB     6pz        0.0000   -0.2677    0.0140   -0.1831    0.0000    0.0000    0.2200
       34 NB     7pz        0.0000   -0.3197    0.0175   -0.0963    0.0000    0.0000    0.0860
       35 NB     8pz        0.0000   -0.1693    0.0096    0.0253   -0.0000   -0.0000   -0.0719
       36 NB     9pz        0.0000   -0.0724    0.0041    0.0306   -0.0000   -0.0000   -0.0659
       37 NB    10pz        0.0000   -0.0105    0.0006    0.0058   -0.0000   -0.0000   -0.0126
       38 NB     3d2-       0.0001    0.0000   -0.0000    0.0000    0.0015    0.0002   -0.0000
       39 NB     4d2-       0.0099   -0.0000   -0.0000    0.0000    0.5830    0.0699   -0.0000
       40 NB     5d2-       0.0522    0.0000   -0.0000    0.0000    0.1741   -0.1517    0.0000
       41 NB     6d2-       0.0377    0.0000    0.0000   -0.0000   -0.0818   -0.2139    0.0000
       42 NB     7d2-      -0.0326   -0.0000   -0.0000    0.0000    0.1027   -0.0685    0.0000
       43 NB     8d2-      -0.0541   -0.0000   -0.0000    0.0000    0.1426    0.0130   -0.0000
       44 NB     9d2-      -0.0436   -0.0000   -0.0000    0.0000    0.0714    0.0045   -0.0000
       45 NB    10d2-       0.0086    0.0000    0.0000   -0.0000   -0.0039    0.0015   -0.0000
       46 NB     3d1-       0.0000    0.0000    0.0000   -0.0000   -0.0002   -0.0001    0.0000
       47 NB     4d1-       0.1073    0.0000    0.0000   -0.0000   -0.2023   -0.1899    0.0000
       48 NB     5d1-       0.3312    0.0000    0.0000    0.0000    0.0084   -0.1687    0.0000
       49 NB     6d1-       0.5544    0.0000    0.0000    0.0000    0.0486    0.1372   -0.0000
       50 NB     7d1-       0.4076    0.0000    0.0000   -0.0000   -0.0691    0.5060   -0.0000
       51 NB     8d1-       0.1046    0.0000    0.0000   -0.0000   -0.0995    0.4190   -0.0000
       52 NB     9d1-       0.0396    0.0000    0.0000   -0.0000   -0.0697    0.3029   -0.0000
       53 NB    10d1-       0.0001   -0.0000   -0.0000    0.0000    0.0112   -0.0529    0.0000
       54 NB     3d0        0.0000   -0.0000   -0.0010    0.0001   -0.0000   -0.0000   -0.0001
       55 NB     4d0       -0.0000    0.0848   -0.1521    0.1716   -0.0000   -0.0000   -0.1614
       56 NB     5d0       -0.0000    0.2833   -0.0816   -0.0077    0.0000   -0.0000   -0.1481
       57 NB     6d0       -0.0000    0.4893    0.0814   -0.0451    0.0000    0.0000    0.1126
       58 NB     7d0       -0.0000    0.3598    0.0043    0.0537   -0.0000    0.0000    0.4339
       59 NB     8d0       -0.0000    0.0923   -0.0326    0.0817   -0.0000    0.0000    0.3630
       60 NB     9d0       -0.0000    0.0360   -0.0065    0.0574   -0.0000    0.0000    0.2631
       61 NB    10d0        0.0000   -0.0004   -0.0035   -0.0093    0.0000   -0.0000   -0.0461
       62 NB     3d1+       0.0000   -0.0001    0.0000    0.0015   -0.0000   -0.0000   -0.0002
       63 NB     4d1+       0.0000   -0.0078    0.0009    0.5849   -0.0000   -0.0000   -0.0647
[...]
         7   11       1.33168264E-03  1.00991901E-14  2.60030214E+05  1.70727298E-13  2.60030214E+05
         7   13       2.24081374E-03  2.00351992E+05  3.86474009E-13  2.61166701E+05  4.61518693E+05
         7   15       7.89629109E-02  7.14982359E+07  3.03850097E-12  3.12132771E+07  1.02711513E+08
         7   17       2.57072248E-02  6.77875058E-13  3.40212085E+07  5.16530891E-12  3.40212085E+07
         8   10       8.61221713E-03  8.04517915E-21  6.77729470E+02  1.46662971E-16  6.77729470E+02
         8   12       1.33168264E-03  1.00991901E-14  2.60030214E+05  1.70727298E-13  2.60030214E+05
         8   14       2.24081374E-03  2.00351992E+05  3.86474009E-13  2.61166701E+05  4.61518693E+05
         8   16       7.89629109E-02  7.14982359E+07  3.03850097E-12  3.12132771E+07  1.02711513E+08
         8   18       2.57072248E-02  6.77875058E-13  3.40212085E+07  5.16530891E-12  3.40212085E+07
         9   11       1.65882053E-03  1.46632685E+05  5.71698231E-15  1.64401415E+05  3.11034101E+05
         9   13       1.92742426E-03  1.41154085E-14  3.81605359E+05  1.05664112E-14  3.81605359E+05
         9   15       2.15642026E-02  7.57165096E-13  2.76151247E+07  4.39438071E-12  2.76151247E+07
         9   17       8.72772441E-02  7.20329834E+07  3.98221322E-12  4.16961478E+07  1.13729131E+08
        10   12       1.65882053E-03  1.46632685E+05  5.71698231E-15  1.64401415E+05  3.11034101E+05
        10   14       1.92742426E-03  1.41154085E-14  3.81605359E+05  1.05664112E-14  3.81605359E+05
        10   16       2.15642026E-02  7.57165096E-13  2.76151247E+07  4.39438071E-12  2.76151247E+07
        10   18       8.72772441E-02  7.20329834E+07  3.98221322E-12  4.16961478E+07  1.13729131E+08
        11   13       2.87610214E-04  4.72521335E-23  4.10108838E+01  3.17767366E-19  4.10108838E+01
        11   15       6.34729318E-03  1.44029017E-13  3.09792072E+06  1.86333259E-14  3.09792072E+06
        11   17       1.71485471E-02  5.48034450E+06  1.81341079E-14  3.12795528E+06  8.60829978E+06
        12   14       2.87610214E-04  4.72521335E-23  4.10108838E+01  3.17767366E-19  4.10108838E+01
        12   16       6.34729318E-03  1.44029017E-13  3.09792072E+06  1.86333259E-14  3.09792072E+06
        12   18       1.71485471E-02  5.48034450E+06  1.81341079E-14  3.12795528E+06  8.60829978E+06
        13   15       1.83816145E-02  5.52149143E+06  2.24560428E-14  3.14594487E+06  8.66743631E+06
        13   17       6.65304401E-03  1.52483859E-13  3.22809645E+06  2.15043011E-14  3.22809645E+06
        14   16       1.83816145E-02  5.52149143E+06  2.24560428E-14  3.14594487E+06  8.66743631E+06
        14   18       6.65304401E-03  1.52483859E-13  3.22809645E+06  2.15043011E-14  3.22809645E+06
        15   17       9.27861567E-04  1.66789222E-22  9.07316395E+01  5.27858968E-18  9.07316395E+01
        16   18       9.27861567E-04  1.66789222E-22  9.07316395E+01  5.27858968E-18  9.07316395E+01
     -----------------------------------------------------------------------------------------------
--

++ Velocity transition strengths (SO states):
   ------------------------------------------
    for osc. strength at least    1.0000000000000001E-005

      From   To        Osc. strength     Einstein coefficients Ax, Ay, Az (sec-1)    Total A (sec-1)
     -----------------------------------------------------------------------------------------------
         1    3       5.60953325E-05  4.85880604E+04  3.35884418E-19  3.86581053E+02  4.89746414E+04
         1    5       2.06549550E-04  2.71048209E+05  1.49840676E-15  1.86043564E+02  2.71234252E+05
         1    7       6.83599398E-05  1.05117852E-14  9.13328547E+04  4.44552498E-15  9.13328547E+04
         1    9       6.23661969E-05  9.30721431E+02  6.67805127E-15  8.36780309E+04  8.46087524E+04
         1   11       4.31344292E-04  6.97825299E+01  3.69434206E-15  1.10109279E+06  1.10116257E+06
         1   13       5.00762777E-04  6.73502588E-17  1.29755819E+06  1.85365688E-15  1.29755819E+06
         1   15       2.65890321E-02  1.01418459E-17  1.40214653E+08  2.01113385E-12  1.40214653E+08
         1   17       2.56617950E-02  1.47902412E+02  2.04330383E-12  1.36492790E+08  1.36492938E+08
         2    4       5.60953325E-05  4.85880604E+04  3.35884418E-19  3.86581053E+02  4.89746414E+04
         2    6       2.06549550E-04  2.71048209E+05  1.49840676E-15  1.86043564E+02  2.71234252E+05
         2    8       6.83599398E-05  1.05117852E-14  9.13328547E+04  4.44552498E-15  9.13328547E+04
         2   10       6.23661969E-05  9.30721431E+02  6.67805127E-15  8.36780309E+04  8.46087524E+04
         2   12       4.31344292E-04  6.97825299E+01  3.69434206E-15  1.10109279E+06  1.10116257E+06
         2   14       5.00762777E-04  6.73502588E-17  1.29755819E+06  1.85365688E-15  1.29755819E+06
         2   16       2.65890321E-02  1.01418459E-17  1.40214653E+08  2.01113385E-12  1.40214653E+08
         2   18       2.56617950E-02  1.47902412E+02  2.04330383E-12  1.36492790E+08  1.36492938E+08
         3    5       3.79424564E-02  1.69702802E+06  2.41304229E-14  1.15657058E+03  1.69818459E+06
         3    7       1.48458977E-02  6.72841458E-14  7.28389834E+05  3.41023571E-14  7.28389834E+05
         3    9       1.41419130E-02  4.71191235E+03  3.87516219E-14  7.45827075E+05  7.50538988E+05
         3   11       7.10666628E-04  1.46410158E+01  5.89684687E-16  3.12740589E+05  3.12755230E+05
         3   13       7.17040238E-04  2.60878581E-16  3.27022750E+05  4.56219179E-16  3.27022750E+05
         4    6       3.79424564E-02  1.69702802E+06  2.41304229E-14  1.15657058E+03  1.69818459E+06
         4    8       1.48458977E-02  6.72841458E-14  7.28389834E+05  3.41023571E-14  7.28389834E+05
         4   10       1.41419130E-02  4.71191235E+03  3.87516219E-14  7.45827075E+05  7.50538988E+05
         4   12       7.10666628E-04  1.46410158E+01  5.89684687E-16  3.12740589E+05  3.12755230E+05
         4   14       7.17040238E-04  2.60878581E-16  3.27022750E+05  4.56219179E-16  3.27022750E+05
         5    7       2.09082377E-03  1.38944492E-21  2.06764034E+02  1.23733377E-17  2.06764034E+02
         5    9       1.75725693E-03  8.41668802E-01  9.20395949E-18  6.21259942E+02  6.22101610E+02
         5   11       1.38660927E-01  2.98411367E+02  1.23959096E-13  2.83076903E+07  2.83079887E+07
         5   13       1.41755036E-01  1.07724138E-14  3.04895297E+07  6.91950855E-15  3.04895297E+07
         5   15       9.53321714E-03  4.06083668E-14  1.26176247E+07  2.19659777E-12  1.26176247E+07
         5   17       6.82937080E-03  3.44638467E+03  5.27402744E-13  9.19157698E+06  9.19502337E+06
         6    8       2.09082377E-03  1.38944492E-21  2.06764034E+02  1.23733377E-17  2.06764034E+02
         6   10       1.75725693E-03  8.41668802E-01  9.20395949E-18  6.21259942E+02  6.22101610E+02
         6   12       1.38660927E-01  2.98411367E+02  1.23959096E-13  2.83076903E+07  2.83079887E+07
         6   14       1.41755036E-01  1.07724138E-14  3.04895297E+07  6.91950855E-15  3.04895297E+07
         6   16       9.53321714E-03  4.06083668E-14  1.26176247E+07  2.19659777E-12  1.26176247E+07
         6   18       6.82937080E-03  3.44638467E+03  5.27402744E-13  9.19157698E+06  9.19502337E+06
         7    9       3.18466461E-04  8.07393481E-21  2.50614740E+01  5.55169805E-18  2.50614740E+01
         7   11       2.52153361E-03  1.91676558E-14  4.92367467E+05  1.32038719E-12  4.92367467E+05
         7   13       4.06479979E-03  2.94066466E+05  8.64714536E-13  5.43123871E+05  8.37190337E+05
         7   15       2.97814692E-02  1.17067307E+06  2.04662910E-12  3.75678987E+07  3.87385718E+07
         7   17       2.98404082E-02  1.05073651E-14  3.94912436E+07  7.47621088E-12  3.94912436E+07
         8   10       3.18466461E-04  8.07393481E-21  2.50614740E+01  5.55169805E-18  2.50614740E+01
         8   12       2.52153361E-03  1.91676558E-14  4.92367467E+05  1.32038719E-12  4.92367467E+05
         8   14       4.06479979E-03  2.94066466E+05  8.64714536E-13  5.43123871E+05  8.37190337E+05
         8   16       2.97814692E-02  1.17067307E+06  2.04662910E-12  3.75678987E+07  3.87385718E+07
         8   18       2.98404082E-02  1.05073651E-14  3.94912436E+07  7.47621088E-12  3.94912436E+07
         9   11       6.43359503E-03  2.71055356E+05  1.81322260E-14  9.35268272E+05  1.20632363E+06
         9   13       1.01310092E-03  2.06744990E-14  2.00581727E+05  1.57634963E-14  2.00581727E+05
         9   15       2.67554490E-02  1.29779877E-14  3.42631557E+07  4.56231773E-12  3.42631557E+07
         9   17       3.14374020E-02  1.17596957E+06  4.51783112E-12  3.97895866E+07  4.09655562E+07
        10   12       6.43359503E-03  2.71055356E+05  1.81322260E-14  9.35268272E+05  1.20632363E+06
        10   14       1.01310092E-03  2.06744990E-14  2.00581727E+05  1.57634963E-14  2.00581727E+05
        10   16       2.67554490E-02  1.29779877E-14  3.42631557E+07  4.56231773E-12  3.42631557E+07
        10   18       3.14374020E-02  1.17596957E+06  4.51783112E-12  3.97895866E+07  4.09655562E+07
        11   13       7.80891773E-04  7.92540284E-20  1.11349220E+02  2.11581565E-17  1.11349220E+02
        11   15       1.91051449E-04  7.77210344E-15  9.32467250E+04  4.37726098E-16  9.32467250E+04
        11   17       7.35865826E-04  2.98220380E+05  3.66818701E-16  7.11739258E+04  3.69394305E+05
        12   14       7.80891773E-04  7.92540284E-20  1.11349220E+02  2.11581565E-17  1.11349220E+02
        12   16       1.91051449E-04  7.77210344E-15  9.32467250E+04  4.37726098E-16  9.32467250E+04
        12   18       7.35865826E-04  2.98220380E+05  3.66818701E-16  7.11739258E+04  3.69394305E+05
        13   15       8.03607852E-04  2.96308182E+05  1.10408239E-15  8.26163187E+04  3.78924501E+05
        13   17       1.80887331E-04  7.44982612E-15  8.77679120E+04  2.71212599E-16  8.77679120E+04
        14   16       8.03607852E-04  2.96308182E+05  1.10408239E-15  8.26163187E+04  3.78924501E+05
        14   18       1.80887331E-04  7.44982612E-15  8.77679120E+04  2.71212599E-16  8.77679120E+04
     -----------------------------------------------------------------------------------------------
--

++ Length and velocity gauge comparison (SO states):

 --------------------------------------------------
 A comparison between the dipole oscillator strengths in 
 length and velocity gauge will be performed

 All dipole oscillator differences above the tolerance of   0.10000000000000001       will be printed 

 Due to basis set deficiency these oscillator may be problematic 

 The tolerance is defined as ABS(1-O_l/O_v) 
 O_l : dipole oscillator strength in length gauge
 O_p : dipole oscillator strength in velocity gauge
 --------------------------------------------------

  Problematic transitions have been found

      From   To       Difference (%) Osc. st. (len.) Osc. st. (vel.)
     ---------------------------------------------------------------
         1    3           595.627875  3.90214770E-04  5.60953325E-05
         1    5          2937.726673  6.27441076E-03  2.06549550E-04
         1    7       2434719.596467  1.66444121E+00  6.83599398E-05
         1    9       2567797.369103  1.60149993E+00  6.23661969E-05
         1   11          6289.179831  2.75593625E-02  4.31344292E-04
         1   13          5462.768034  2.78562717E-02  5.00762777E-04
         1   15          1751.859694  4.92391569E-01  2.65890321E-02
         1   17          1885.809250  5.09594298E-01  2.56617950E-02
         2    4           595.627875  3.90214770E-04  5.60953325E-05
         2    6          2937.726673  6.27441076E-03  2.06549550E-04
         2    8       2434719.596467  1.66444121E+00  6.83599398E-05
         2   10       2567797.369103  1.60149993E+00  6.23661969E-05
         2   12          6289.179831  2.75593625E-02  4.31344292E-04
         2   14          5462.768034  2.78562717E-02  5.00762777E-04
         2   16          1751.859694  4.92391569E-01  2.65890321E-02
         2   18          1885.809250  5.09594298E-01  2.56617950E-02
         3    5           115.318635  8.16971794E-02  3.79424564E-02
         3    7            59.247364  6.05009465E-03  1.48458977E-02
         3    9            59.974306  5.66039881E-03  1.41419130E-02
         3   11            29.034804  9.17007287E-04  7.10666628E-04
         3   13            44.872092  1.03879119E-03  7.17040238E-04
         3   15      ---------------  6.02382019E-02 below threshold
         3   17      ---------------  6.08024696E-02 below threshold
         4    6           115.318635  8.16971794E-02  3.79424564E-02
         4    8            59.247364  6.05009465E-03  1.48458977E-02
         4   10            59.974306  5.66039881E-03  1.41419130E-02
         4   12            29.034804  9.17007287E-04  7.10666628E-04
         4   14            44.872092  1.03879119E-03  7.17040238E-04
         4   16      ---------------  6.02382019E-02 below threshold
         4   18      ---------------  6.08024696E-02 below threshold
         5    7            95.270824  9.88787376E-05  2.09082377E-03
         5    9      --------------- below threshold  1.75725693E-03
         5   11            74.101747  3.59107571E-02  1.38660927E-01
         5   13            75.387764  3.48890847E-02  1.41755036E-01
         5   15            92.062371  7.56711383E-04  9.53321714E-03
         5   17            96.686581  2.26285645E-04  6.82937080E-03
         6    8            95.270824  9.88787376E-05  2.09082377E-03
         6   10      --------------- below threshold  1.75725693E-03
         6   12            74.101747  3.59107571E-02  1.38660927E-01
         6   14            75.387764  3.48890847E-02  1.41755036E-01
         6   16            92.062371  7.56711383E-04  9.53321714E-03
         6   18            96.686581  2.26285645E-04  6.82937080E-03
         7    9          2604.277590  8.61221713E-03  3.18466461E-04
         7   11            47.187591  1.33168264E-03  2.52153361E-03
         7   13            44.872716  2.24081374E-03  4.06479979E-03
         7   15           165.141087  7.89629109E-02  2.97814692E-02
         7   17            13.850961  2.57072248E-02  2.98404082E-02
         8   10          2604.277590  8.61221713E-03  3.18466461E-04
         8   12            47.187591  1.33168264E-03  2.52153361E-03
         8   14            44.872716  2.24081374E-03  4.06479979E-03
         8   16           165.141087  7.89629109E-02  2.97814692E-02
         8   18            13.850961  2.57072248E-02  2.98404082E-02
         9   11            74.216274  1.65882053E-03  6.43359503E-03
         9   13            90.249976  1.92742426E-03  1.01310092E-03
         9   15            19.402576  2.15642026E-02  2.67554490E-02
         9   17           177.622318  8.72772441E-02  3.14374020E-02
        10   12            74.216274  1.65882053E-03  6.43359503E-03
        10   14            90.249976  1.92742426E-03  1.01310092E-03
        10   16            19.402576  2.15642026E-02  2.67554490E-02
        10   18           177.622318  8.72772441E-02  3.14374020E-02
        11   13            63.169004  2.87610214E-04  7.80891773E-04
        11   15          3222.295230  6.34729318E-03  1.91051449E-04
        11   17          2230.390475  1.71485471E-02  7.35865826E-04
        12   14            63.169004  2.87610214E-04  7.80891773E-04
        12   16          3222.295230  6.34729318E-03  1.91051449E-04
        12   18          2230.390475  1.71485471E-02  7.35865826E-04
        13   15          2187.386121  1.83816145E-02  8.03607852E-04
        13   17          3578.004405  6.65304401E-03  1.80887331E-04
        14   16          2187.386121  1.83816145E-02  8.03607852E-04
        14   18          3578.004405  6.65304401E-03  1.80887331E-04
        15   17      ---------------  9.27861567E-04 below threshold
        16   18      ---------------  9.27861567E-04 below threshold
     ---------------------------------------------------------------

 Number of problematic transitions =                    72

--

 Electric-dipole - electric-octupole not included
++ Total transition strengths for the second-order expansion of the wave vector (SO states):
   -----------------------------------------------------------------------------------------
    for osc. strength at least    1.0000000000000001E-005

      From   To        Osc. strength
     -------------------------------
         1    7       1.01166525E-05
         1    9       1.02103818E-05
         2    8       1.01166525E-05
         2   10       1.02103818E-05
     -------------------------------
--

++ I/O STATISTICS
 
  I. General I/O information
  - - - - - - - - - - - - - - - - - - - - - - - - - - - - - - - - - - - - - - - - - - -
  Unit  Name          Flsize      Write/Read            MBytes           Write/Read
                      (MBytes)       Calls              In/Out           Time, sec.
  - - - - - - - - - - - - - - - - - - - - - - - - - - - - - - - - - - - - - - - - - - -
   1  SCRATCH           0.00 .       9/      45 .      0.0/      0.0 .       0/       0
   2  ANNI              0.00 .       0/       0 .      0.0/      0.0 .       0/       0
   3  RUNFILE          14.69 .     322/   10733 .      2.3/     77.8 .       0/       0
   4  ONEINT            5.14 .       0/   22237 .      0.0/   3722.5 .       0/       0
   5  JOBIPH            5.92 .       0/      92 .      0.0/      0.7 .       0/       0
   6  ORDINT          403.03 .       1/    3225 .      0.0/    806.0 .       0/       0
  - - - - - - - - - - - - - - - - - - - - - - - - - - - - - - - - - - - - - - - - - - -
   *  TOTAL           428.78 .     332/   36332 .      2.3/   4607.0 .       0/       0
  - - - - - - - - - - - - - - - - - - - - - - - - - - - - - - - - - - - - - - - - - - -
 
  II. I/O Access Patterns
  - - - - - - - - - - - - - - - - - - - -
  Unit  Name               % of random
                         Write/Read calls
  - - - - - - - - - - - - - - - - - - - -
   1  SCRATCH             88.9/ 100.0
   2  ANNI                 0.0/   0.0
   3  RUNFILE             28.6/  10.8
   4  ONEINT               0.0/  17.4
   5  JOBIPH               0.0/  76.1
   6  ORDINT             100.0/   0.1
  - - - - - - - - - - - - - - - - - - - -
--
--- Stop Module: rassi at Mon Mar 31 12:43:11 2025 /rc=_RC_ALL_IS_WELL_ ---
*** files: xmldump
    saved to directory /home4/s4752295/Internship/Initial_simulations/Point_charge_model/1_electron/Madelung_charges_9_active_space/Nb/fixed_calculations
--- Module rassi spent 2 seconds ---

.##################.
.# Happy landing! #.
.##################.

    Timing: Wall=42.67 User=33.13 System=7.95

###############################################################################
Hbrk Cluster
Job 16049509 for user s4752295
Finished at: Mon Mar 31 12:43:15 CEST 2025

Job details:
============

Job ID                         : 16049509
Name                           : Nb_no_SO
User                           : s4752295
Partition                      : regularshort
Nodes                          : node112
Number of Nodes                : 1
Cores                          : 1
Number of Tasks                : 1
State                          : COMPLETED  
Submit                         : 2025-03-31T12:40:58
Start                          : 2025-03-31T12:42:24
End                            : 2025-03-31T12:43:11
Reserved walltime              : 01:00:00
Used walltime                  : 00:00:47
Used CPU time                  : 00:00:42 (Efficiency: 89.82%)
% User (Computation)           : 80.68%
% System (I/O)                 : 19.32%
Total memory reserved          : 25000M
Maximum memory used            : 1.62G

Acknowledgements:
=================

Please see this page for information about acknowledging Hbrk in your publications:

https://wiki.hpc.rug.nl/habrok/introduction/scientific_output

################################################################################
