   This run of MOLCAS is using the pymolcas driver

                             OPE
                             OPE          NMOL  CASOP  ENMOLC A   SO
                 OPE        NMOLC        AS  OP EN  MO LC     AS  OP
                OPENM       OL CA        SO  PE NM  OL CA     SOP EN
                OP EN      MO   LC       AS  OP ENMOL  CASO   PENMOL
                OP  EN     MO   LC       AS  OP EN     MO     LC ASO
               OP   E  NMOL  C  AS       OP  EN MO     LC     AS  OP
               OP  E   NMO   LC AS        OPEN  MO     LCASOP EN   M
               O  PEN   MO  LCA  SO
            OPE   NMO   L   CAS    OP
        OPENMOL  CASOP     ENMOL   CASOPE
     OPENMOLCA   SOPENMOLCASOPEN   MOLCASOPE
    OPENMOLCAS   OP           EN   MOL    CAS
    OPENMOLCAS       OP  ENM        O     LCA
    OPENMOLCAS    OPEN  MOLCASO     P  E  NMO
    OPENMOLCAS     OP               E  N  MOL
    OPENMOLCA   SO           PENM   O  L  CAS    OPEN    MO    LCAS
    OPENMOLCA   SOP           ENM   O  L  CAS   OP  EN  MOLC  AS   O
    OPENMOLCA   SOPE           NM      O  LCA   S      OP  EN MO
    OPENMOLC                AS         O  PEN   M      OL  CA  SOPE
    OPENMO        LCASOPE  NMOL        C  ASO   P      ENMOLC     AS
    OPE     NMO      LCA  SO     P     E   NM   OL  CA SO  PE N   MO
          OPENMOLCA            SOPE   NMO        LCAS  O    P  ENMO
     OPENMOLCASOPENMOLCASOPENMOLCASOPENMOLCA
        OPENMOLCASOPENMOLCASOPENMOLCASOPE
            OPENMOLCASOPENMOLCASOPENM
               OPENMOLCASOPENMOLCA        version: o91e1abe7de707b ?
                   OPENMOLCASO
                       OPE                tag:

 OpenMolcas is free software; you can redistribute it and/or modify it
 under the terms of the GNU Lesser General Public License version 2.1.
 OpenMolcas is distributed in the hope that it will be useful, but it
 is provided "as is" and without any express or implied warranties.
 For more details see the full text of the license in the file
 LICENSE or in <http://www.gnu.org/licenses/>.

                 Copyright (C) The OpenMolcas Authors
           For the author list and the recommended citation,
                   consult the file CONTRIBUTORS.md

           *************************************************
           * pymolcas version py2.10                       *
           *   build 3068ae8b88c9345ec6cfef6fef7f1169      *
           *   (after the EMIL interpreter by V. Veryazov) *
           *************************************************

configuration info
------------------
Host name: login1 (Linux)
C Compiler ID: GNU
C flags: -std=gnu99
Fortran Compiler ID: GNU
Fortran flags: -fno-aggressive-loop-optimizations -cpp -fdefault-integer-8 -fmax-stack-var-size=1048576
Definitions: _MOLCAS_;_I8_;_LINUX_;_MKL_
Parallel: OFF (GA=OFF)


   ------------------------------------------------------------------------------------------------------------------------------------------------------
  |
  |           Project: rhenium_so_cf
  |    Submitted from: /home4/s4752295/Internship/Initial_simulations/Point_charge_model/1_electron/Madelung_charges_9_active_space/Re/fixed_calculations
  |      Scratch area: /tmp/rhenium_so_cf
  |   Save outputs to: /home4/s4752295/Internship/Initial_simulations/Point_charge_model/1_electron/Madelung_charges_9_active_space/Re/fixed_calculations
  |            Molcas: /home4/s4752295/Internship/Molcas/recomp_try/OpenMolcas-master/build
  |
  | Scratch area is empty
  |
  |    MOLCAS_DRIVER = /home4/s4752295/Internship/Molcas/bin/pymolcas
  |    MOLCAS_NPROCS = 1
  |    MOLCAS_SOURCE = /home4/s4752295/Internship/Molcas/recomp_try/OpenMolcas-master
  | MOLCAS_STRUCTURE = 0
  |
   ------------------------------------------------------------------------------------------------------------------------------------------------------

++ ---------   Input file   ---------

&SEWARD
AMFi

CLIG
$R

Basis Set
Re.ano-rcc.Roos.24s21p15d11f4g2h.11s10p9d8f4g2h.
Spherical d
Re            -1.0658140267135469e-14   -3.5527134223784897e-15 0.008753588724385739
End of Basis

Xfield

414
-4.00220108,-1.54,0.889119      -0.625931
-4.00220108,-0.0,-1.778239      -0.625931
-4.00220108,1.54,0.889119       -0.625931
-3.99534607,0.0,0.0     1.892092
2.65917969,-1.54,-0.889119      2.515516
2.65917969,0.0,1.778239 2.515516
2.65917969,1.54,-0.889119       2.515516
3.56298828,-3.08,0.0    0.004632
3.56298828,-1.54,-2.667358      0.004632
3.56298828,-1.54,2.667358       0.004632
3.56298828,1.54,-2.667358       0.004632
3.56298828,1.54,2.667358        0.004632
3.56298828,3.08,0.0     0.004632
4.12915039,-1.54,0.889119       -2.519484
4.12915039,-0.0,-1.778239       -2.519484
4.12915039,1.54,0.889119        -2.519484
-2.93310547,-0.0,-0.0   -3.142907
-4.97509766,-3.08,-1.778239     -0.625931
-4.97509766,0.0,3.556477        -0.625931
-4.97509766,3.08,-1.778239      -0.625931
-6.609375,-3.08,0.0     1.892092
-6.609375,-1.54,-2.667358       1.892092
-6.609375,-1.54,2.667358        1.892092
-6.609375,1.54,-2.667358        1.892092
-6.609375,1.54,2.667358 1.892092
-6.609375,3.08,0.0      1.892092
25.171875,-3.08,1.778239        2.515516
25.171875,-0.0,-3.556477        2.515516
25.171875,3.08,1.778239 2.515516
3.63867188,-3.08,-1.778239      -2.519484
3.63867188,0.0,3.556477 -2.519484
3.63867188,3.08,-1.778239       -2.519484
-3.23242188,-3.08,-0.0  -3.142907
-3.23242188,-1.54,-2.667358     -3.142907
-3.23242188,-1.54,2.667358      -3.142907
-3.23242188,1.54,-2.667358      -3.142907
-3.23242188,1.54,2.667358       -3.142907
-3.23242188,3.08,-0.0   -3.142907
-9.5234375,-3.08,3.556477       -0.625931
-9.5234375,3.08,3.556477        -0.625931
-9.5234375,-4.62,0.889119       -0.625931
-9.5234375,4.62,0.889119        -0.625931
-9.5234375,-1.54,-4.445597      -0.625931
-9.5234375,1.54,-4.445597       -0.625931
6.0078125,-1.54,-0.889119       4.409069
6.0078125,1.54,-0.889119        4.409069
6.0078125,0.0,1.778239  4.409069
-175.25,-0.0,-0.0       -5.030367
-175.25,0.0,0.0 5.039632
13.51757812,-3.08,-3.556477     2.515516
13.51757812,3.08,-3.556477      2.515516
13.51757812,-4.62,-0.889119     2.515516
13.51757812,4.62,-0.889119      2.515516
13.51757812,-1.54,4.445597      2.515516
13.51757812,1.54,4.445597       2.515516
19.0390625,-4.62,-2.667358      0.004632
19.0390625,-4.62,2.667358       0.004632
19.0390625,4.62,-2.667358       0.004632
19.0390625,4.62,2.667358        0.004632
19.0390625,-0.0,-5.334716       0.004632
19.0390625,0.0,5.334716 0.004632
48.078125,-3.08,3.556477        -2.519484
48.078125,3.08,3.556477 -2.519484
48.078125,-4.62,0.889119        -2.519484
48.078125,4.62,0.889119 -2.519484
48.078125,-1.54,-4.445597       -2.519484
48.078125,1.54,-4.445597        -2.519484
-145.875,-4.62,-2.667358        1.892092
-145.875,-4.62,2.667358 1.892092
-145.875,4.62,-2.667358 1.892092
-145.875,4.62,2.667358  1.892092
-145.875,-0.0,-5.334716 1.892092
-145.875,0.0,5.334716   1.892092
-117.75,-3.08,1.778239  4.409069
-117.75,-0.0,-3.556477  4.409069
-117.75,3.08,1.778239   4.409069
-89.0,-3.08,-0.0        -5.030367
-89.0,-1.54,-2.667358   -5.030367
-89.0,-1.54,2.667358    -5.030367
-89.0,1.54,-2.667358    -5.030367
-89.0,-3.08,0.0 5.039632
-89.0,3.08,-0.0 -5.030367
-89.0,1.54,2.667358     -5.030367
-89.0,-1.54,-2.667358   5.039632
-89.0,-1.54,2.667358    5.039632
-89.0,1.54,-2.667358    5.039632
-89.0,3.08,0.0  5.039632
-89.0,1.54,2.667358     5.039632
-46.625,-1.54,-0.889119 -5.660931
-46.625,0.0,1.778239    -5.660931
-46.625,1.54,-0.889119  -5.660931
0.8828125,-6.159999,0.0 0.004632
0.8828125,-3.08,-5.334716       0.004632
0.8828125,-3.08,5.334716        0.004632
0.8828125,3.08,-5.334716        0.004632
0.8828125,6.159999,0.0  0.004632
0.8828125,3.08,5.334716 0.004632
67.9375,-4.62,2.667358  -3.142907
67.9375,-4.62,-2.667358 -3.142907
67.9375,4.62,-2.667358  -3.142907
67.9375,4.62,2.667358   -3.142907
67.9375,-0.0,-5.334716  -3.142907
67.9375,0.0,5.334716    -3.142907
86.375,-6.159999,-1.778239      -0.625931
86.375,-4.62,-4.445597  -0.625931
86.375,-1.54,6.223835   -0.625931
86.375,4.62,-4.445597   -0.625931
86.375,6.159999,-1.778239       -0.625931
86.375,1.54,6.223835    -0.625931
1.19726562,-6.159999,0.0        1.892092
1.19726562,-3.08,-5.334716      1.892092
1.19726562,-3.08,5.334716       1.892092
1.19726562,3.08,-5.334716       1.892092
1.19726562,6.159999,0.0 1.892092
1.19726562,3.08,5.334716        1.892092
33.84375,-3.08,-3.556477        4.409069
33.84375,3.08,-3.556477 4.409069
33.84375,-4.62,-0.889119        4.409069
33.84375,4.62,-0.889119 4.409069
33.84375,-1.54,4.445597 4.409069
33.84375,1.54,4.445597  4.409069
162.40625,-3.08,1.778239        -5.660931
162.40625,-0.0,-3.556477        -5.660931
162.40625,3.08,1.778239 -5.660931
0.34375,-6.159999,1.778239      2.515516
0.34375,-1.54,-6.223835 2.515516
0.34375,-4.62,4.445597  2.515516
0.34375,1.54,-6.223835  2.515516
0.34375,6.159999,1.778239       2.515516
0.34375,4.62,4.445597   2.515516
-94.1875,-6.159999,-1.778239    -2.519484
-94.1875,-4.62,-4.445597        -2.519484
-94.1875,-1.54,6.223835 -2.519484
-94.1875,4.62,-4.445597 -2.519484
-94.1875,1.54,6.223835  -2.519484
-94.1875,6.159999,-1.778239     -2.519484
-22.0703125,-6.159999,-0.0      -3.142907
-22.0703125,-3.08,-5.334716     -3.142907
-22.0703125,-3.08,5.334716      -3.142907
-22.0703125,3.08,-5.334716      -3.142907
-22.0703125,3.08,5.334716       -3.142907
-22.0703125,6.159999,-0.0       -3.142907
606.5,0.0,0.0   6.927092
323.25,-6.159999,3.556477       -0.625931
323.25,6.159999,3.556477        -0.625931
323.25,-0.0,-7.112955   -0.625931
-5.421875,-4.62,2.667358        -5.030367
-5.421875,-4.62,-2.667358       -5.030367
-5.421875,-4.62,2.667358        5.039632
-5.421875,-4.62,-2.667358       5.039632
-5.421875,4.62,-2.667358        -5.030367
-5.421875,4.62,2.667358 -5.030367
-5.421875,4.62,-2.667358        5.039632
-5.421875,4.62,2.667358 5.039632
-5.421875,-0.0,-5.334716        -5.030367
-5.421875,0.0,5.334716  -5.030367
-5.421875,-0.0,-5.334716        5.039632
-5.421875,0.0,5.334716  5.039632
91.8125,-3.08,-3.556477 -5.660931
91.8125,3.08,-3.556477  -5.660931
91.8125,-4.62,-0.889119 -5.660931
91.8125,4.62,-0.889119  -5.660931
91.8125,-1.54,4.445597  -5.660931
91.8125,1.54,4.445597   -5.660931
300.5,-6.159999,-3.556477       2.515516
300.5,6.159999,-3.556477        2.515516
300.5,0.0,7.112955      2.515516
-517.25,-6.159999,3.556477      -2.519484
-517.25,6.159999,3.556477       -2.519484
-517.25,-0.0,-7.112955  -2.519484
53.5625,-3.08,0.0       6.927092
53.5625,-1.54,-2.667358 6.927092
53.5625,-1.54,2.667358  6.927092
53.5625,1.54,-2.667358  6.927092
53.5625,1.54,2.667358   6.927092
53.5625,3.08,0.0        6.927092
-55.25,-1.54,0.889119   7.550516
-55.25,0.0,-1.778239    7.550516
-55.25,1.54,0.889119    7.550516
15.53125,-1.54,-0.889119        -7.554483
15.53125,1.54,-0.889119 -7.554483
15.53125,-0.0,1.778239  -7.554483
-124.875,-7.699999,0.889119     -0.625931
-124.875,-4.62,6.223835 -0.625931
-124.875,-3.08,-7.112955        -0.625931
-124.875,3.08,-7.112955 -0.625931
-124.875,7.699999,0.889119      -0.625931
-124.875,4.62,6.223835  -0.625931
-67.4375,-6.159999,1.778239     4.409069
-67.4375,-4.62,4.445597 4.409069
-67.4375,-1.54,-6.223835        4.409069
-67.4375,1.54,-6.223835 4.409069
-67.4375,4.62,4.445597  4.409069
-67.4375,6.159999,1.778239      4.409069
49.15625,-6.159999,-0.0 -5.030367
49.15625,-3.08,-5.334716        -5.030367
49.15625,-3.08,5.334716 -5.030367
49.15625,-6.159999,0.0  5.039632
49.15625,-3.08,-5.334716        5.039632
49.15625,3.08,-5.334716 -5.030367
49.15625,3.08,5.334716  -5.030367
49.15625,6.159999,-0.0  -5.030367
49.15625,-3.08,5.334716 5.039632
49.15625,3.08,-5.334716 5.039632
49.15625,6.159999,0.0   5.039632
49.15625,3.08,5.334716  5.039632
180.75,-7.699999,-0.889119      2.515516
180.75,-4.62,-6.223835  2.515516
180.75,-3.08,7.112955   2.515516
180.75,4.62,-6.223835   2.515516
180.75,7.699999,-0.889119       2.515516
180.75,3.08,7.112955    2.515516
-23.34375,-7.699999,-2.667358   0.004632
-23.34375,-7.699999,2.667358    0.004632
-23.34375,-6.159999,-5.334716   0.004632
-23.34375,-6.159999,5.334716    0.004632
-23.34375,-1.54,-8.002074       0.004632
-23.34375,1.54,-8.002074        0.004632
-23.34375,-1.54,8.002074        0.004632
-23.34375,6.159999,-5.334716    0.004632
-23.34375,1.54,8.002074 0.004632
-23.34375,7.699999,-2.667358    0.004632
-23.34375,7.699999,2.667358     0.004632
-23.34375,6.159999,5.334716     0.004632
-143.125,-7.699999,0.889119     -2.519484
-143.125,-4.62,6.223835 -2.519484
-143.125,-3.08,-7.112955        -2.519484
-143.125,3.08,-7.112955 -2.519484
-143.125,7.699999,0.889119      -2.519484
-143.125,4.62,6.223835  -2.519484
3032.0,-0.0,-0.0        -8.177907
-116.0,-3.08,-1.778239  7.550516
-116.0,0.0,3.556477     7.550516
-116.0,3.08,-1.778239   7.550516
-603.5,-3.08,1.778239   -7.554483
-603.5,-0.0,-3.556477   -7.554483
-603.5,3.08,1.778239    -7.554483
48.90625,-7.699999,2.667358     1.892092
48.90625,-7.699999,-2.667358    1.892092
48.90625,-6.159999,-5.334716    1.892092
48.90625,-6.159999,5.334716     1.892092
48.90625,-1.54,-8.002074        1.892092
48.90625,1.54,-8.002074 1.892092
48.90625,-1.54,8.002074 1.892092
48.90625,6.159999,-5.334716     1.892092
48.90625,1.54,8.002074  1.892092
48.90625,7.699999,-2.667358     1.892092
48.90625,7.699999,2.667358      1.892092
48.90625,6.159999,5.334716      1.892092
-505.0,-6.159999,-3.556477      4.409069
-505.0,6.159999,-3.556477       4.409069
-505.0,0.0,7.112955     4.409069
25.8203125,-6.159999,1.778239   -5.660931
25.8203125,-1.54,-6.223835      -5.660931
25.8203125,-4.62,4.445597       -5.660931
25.8203125,1.54,-6.223835       -5.660931
25.8203125,4.62,4.445597        -5.660931
25.8203125,6.159999,1.778239    -5.660931
-58.1875,-6.159999,-5.334716    -3.142907
-58.1875,-7.699999,2.667358     -3.142907
-58.1875,-7.699999,-2.667358    -3.142907
-58.1875,-6.159999,5.334716     -3.142907
-58.1875,-1.54,-8.002074        -3.142907
-58.1875,1.54,-8.002074 -3.142907
-58.1875,-1.54,8.002074 -3.142907
-58.1875,7.699999,-2.667358     -3.142907
-58.1875,6.159999,-5.334716     -3.142907
-58.1875,1.54,8.002074  -3.142907
-58.1875,7.699999,2.667358      -3.142907
-58.1875,6.159999,5.334716      -3.142907
65.40625,-4.62,-2.667358        6.927092
65.40625,-4.62,2.667358 6.927092
65.40625,4.62,-2.667358 6.927092
65.40625,4.62,2.667358  6.927092
65.40625,-0.0,-5.334716 6.927092
65.40625,0.0,5.334716   6.927092
-83.25,-3.08,-0.0       -8.177907
-83.25,-1.54,2.667358   -8.177907
-83.25,-1.54,-2.667358  -8.177907
-83.25,1.54,-2.667358   -8.177907
-83.25,3.08,-0.0        -8.177907
-83.25,1.54,2.667358    -8.177907
-90.90625,-3.08,3.556477        7.550516
-90.90625,3.08,3.556477 7.550516
-90.90625,-4.62,0.889119        7.550516
-90.90625,4.62,0.889119 7.550516
-90.90625,-1.54,-4.445597       7.550516
-90.90625,1.54,-4.445597        7.550516
-45.6875,-3.08,-3.556477        -7.554483
-45.6875,3.08,-3.556477 -7.554483
-45.6875,-4.62,-0.889119        -7.554483
-45.6875,4.62,-0.889119 -7.554483
-45.6875,-1.54,4.445597 -7.554483
-45.6875,1.54,4.445597  -7.554483
-500.25,0.0,8.891193    -0.625931
-500.25,-7.699999,-4.445597     -0.625931
-500.25,7.699999,-4.445597      -0.625931
-269.75,-7.699999,-0.889119     4.409069
-269.75,-4.62,-6.223835 4.409069
-269.75,-3.08,7.112955  4.409069
-269.75,4.62,-6.223835  4.409069
-269.75,7.699999,-0.889119      4.409069
-269.75,3.08,7.112955   4.409069
310.375,-6.159999,-3.556477     -5.660931
310.375,6.159999,-3.556477      -5.660931
310.375,0.0,7.112955    -5.660931
587.0,-0.0,-8.891193    2.515516
587.0,-7.699999,4.445597        2.515516
587.0,7.699999,4.445597 2.515516
-93.875,-9.239999,-0.0  0.004632
-93.875,4.62,-8.002074  0.004632
-93.875,-4.62,8.002074  0.004632
-93.875,9.239999,-0.0   0.004632
-93.875,-4.62,-8.002074 0.004632
-93.875,4.62,8.002074   0.004632
-385.75,0.0,8.891193    -2.519484
-385.75,-7.699999,-4.445597     -2.519484
-385.75,7.699999,-4.445597      -2.519484
228.0,-6.159999,0.0     6.927092
228.0,-3.08,-5.334716   6.927092
228.0,-3.08,5.334716    6.927092
228.0,3.08,-5.334716    6.927092
228.0,6.159999,0.0      6.927092
228.0,3.08,5.334716     6.927092
211.875,-9.239999,-1.778239     -0.625931
211.875,-3.08,8.891193  -0.625931
211.875,-6.159999,-7.112955     -0.625931
211.875,6.159999,-7.112955      -0.625931
211.875,3.08,8.891193   -0.625931
211.875,9.239999,-1.778239      -0.625931
111.9375,-9.239999,0.0  1.892092
111.9375,-4.62,-8.002074        1.892092
111.9375,-4.62,8.002074 1.892092
111.9375,4.62,-8.002074 1.892092
111.9375,9.239999,0.0   1.892092
111.9375,4.62,8.002074  1.892092
-4.3203125,-7.699999,2.667358   -5.030367
-4.3203125,-7.699999,-2.667358  -5.030367
-4.3203125,-6.159999,-5.334716  -5.030367
-4.3203125,-6.159999,5.334716   -5.030367
-4.3203125,-7.699999,2.667358   5.039632
-4.3203125,1.54,-8.002074       -5.030367
-4.3203125,-1.54,-8.002074      -5.030367
-4.3203125,-7.699999,-2.667358  5.039632
-4.3203125,-6.159999,-5.334716  5.039632
-4.3203125,-1.54,8.002074       -5.030367
-4.3203125,1.54,-8.002074       5.039632
-4.3203125,-6.159999,5.334716   5.039632
-4.3203125,-1.54,-8.002074      5.039632
-4.3203125,6.159999,-5.334716   -5.030367
-4.3203125,1.54,8.002074        -5.030367
-4.3203125,7.699999,-2.667358   -5.030367
-4.3203125,7.699999,2.667358    -5.030367
-4.3203125,6.159999,5.334716    -5.030367
-4.3203125,-1.54,8.002074       5.039632
-4.3203125,6.159999,-5.334716   5.039632
-4.3203125,7.699999,-2.667358   5.039632
-4.3203125,1.54,8.002074        5.039632
-4.3203125,7.699999,2.667358    5.039632
-4.3203125,6.159999,5.334716    5.039632
-0.6875,-7.699999,-0.889119     -5.660931
-0.6875,-4.62,-6.223835 -5.660931
-0.6875,-3.08,7.112955  -5.660931
-0.6875,4.62,-6.223835  -5.660931
-0.6875,3.08,7.112955   -5.660931
-0.6875,7.699999,-0.889119      -5.660931
116.0,-1.54,0.889119    9.444068
116.0,0.0,-1.778239     9.444068
116.0,1.54,0.889119     9.444068
51.3125,-9.239999,1.778239      2.515516
51.3125,-3.08,-8.891193 2.515516
51.3125,3.08,-8.891193  2.515516
51.3125,-6.159999,7.112955      2.515516
51.3125,9.239999,1.778239       2.515516
51.3125,6.159999,7.112955       2.515516
156.875,-9.239999,-1.778239     -2.519484
156.875,-3.08,8.891193  -2.519484
156.875,-6.159999,-7.112955     -2.519484
156.875,6.159999,-7.112955      -2.519484
156.875,9.239999,-1.778239      -2.519484
156.875,3.08,8.891193   -2.519484
219.625,-9.239999,-0.0  -3.142907
219.625,-4.62,-8.002074 -3.142907
219.625,-4.62,8.002074  -3.142907
219.625,4.62,-8.002074  -3.142907
219.625,9.239999,-0.0   -3.142907
219.625,4.62,8.002074   -3.142907
8.64550781,-4.62,-2.667358      -8.177907
8.64550781,-4.62,2.667358       -8.177907
8.64550781,4.62,2.667358        -8.177907
8.64550781,4.62,-2.667358       -8.177907
8.64550781,-0.0,-5.334716       -8.177907
8.64550781,0.0,5.334716 -8.177907
251.875,-4.62,-4.445597 7.550516
251.875,-6.159999,-1.778239     7.550516
251.875,-1.54,6.223835  7.550516
251.875,4.62,-4.445597  7.550516
251.875,1.54,6.223835   7.550516
251.875,6.159999,-1.778239      7.550516
-348.0,-4.62,4.445597   -7.554483
-348.0,-6.159999,1.778239       -7.554483
-348.0,-1.54,-6.223835  -7.554483
-348.0,1.54,-6.223835   -7.554483
-348.0,6.159999,1.778239        -7.554483
-348.0,4.62,4.445597    -7.554483
71.265625,-7.699999,6.223835    -0.625931
71.265625,-9.239999,3.556477    -0.625931
71.265625,-1.54,-9.780313       -0.625931
71.265625,1.54,-9.780313        -0.625931
71.265625,9.239999,3.556477     -0.625931
71.265625,7.699999,6.223835     -0.625931
-483.75,-0.0,-8.891193  4.409069
-483.75,-7.699999,4.445597      4.409069
-483.75,7.699999,4.445597       4.409069

End of input

&SCF
Occupied
34
Iterations
   50  100
End of Input

&RASSCF
LumOrb
Symmetry
1
Spin
2
Nactel
1 0 0
CIRoot
9 9 1
inactive
34
ras2
9
End of Input

>>> COPY rhenium_so_cf.JobIph $SLURM_SUBMIT_DIR/rhenium_so_cf.doublet.JobIph

>>> COPY $SLURM_SUBMIT_DIR/rhenium_so_cf.doublet.JobIph ./JOB002

&RASSI
NROFJobIph
1 All
SpinOrbit
End of Input

EOF

-- ----------------------------------

--- Start Module: seward at Mon Mar 31 12:42:28 2025 ---

()()()()()()()()()()()()()()()()()()()()()()()()()()()()()()()()()()()()()()()()()()()()()()()()()()

                                              &SEWARD

                                   only a single process is used
                       available to each process: 4.1 GB of memory, 1 thread?
                                            pid: 3840567
()()()()()()()()()()()()()()()()()()()()()()()()()()()()()()()()()()()()()()()()()()()()()()()()()()

 The speed of LIGHT in this CALCULATION =   137.03599917700001     
               SEWARD will generate:
                  Multipole Moment integrals up to order  2
                  Kinetic Energy integrals
                  Nuclear Attraction integrals (point charge)
                  One-Electron Hamiltonian integrals
                  Velocity integrals
                  Relativistic Douglas-Kroll-Hess integrals:
                    - Parametrization         : EXP
                    - DKH order of Hamiltonian: 2
                    - DKH order of Properties : 0
                         - multipole moment operators
                         - electric potential operators
                         - contact operators
                  External field from   414 point(s) added to the one-electron Hamiltonian
                  Orbital angular momentum around (-0.0000 -0.0000  0.0088 )
                  Velocity quadrupole around (-0.0000 -0.0000  0.0088 )
                  Atomic mean-field integrals
                  Two-Electron Repulsion integrals

                   Integrals are discarded if absolute value <: 0.10E-13
                   Integral cutoff threshold is set to       <: 0.10E-15

++    Symmetry information:
      ---------------------

                    Character Table for C1 

                             E  
                    a        1  x, y, xy, Rz, z, xz, Ry, yz, Rx, I
--


++    Basis set information:
      ----------------------


      Basis set label: RE.ANO-RCC.ROOS.24S21P15D11F4G2H.11S10P9D8F4G2H......

      Electronic valence basis set:
      ------------------
      Associated Effective Charge  75.000000 au
      Associated Actual Charge     75.000000 au
      Nuclear Model: Point charge

      Shell  nPrim  nBasis  Cartesian Spherical Contaminant
         s      24      11        X                  
         p      21      10        X                  
         d      15       9                 X         
         f      11       8                 X         
         g       4       4                 X         
         h       2       2                 X         
--


++    Molecular structure info:
      -------------------------

                    ************************************************ 
                    **** Cartesian Coordinates / Bohr, Angstrom **** 
                    ************************************************ 

     Center  Label                x              y              z                     x              y              z
        1      RE              -0.000000      -0.000000       0.008754             -0.000000      -0.000000       0.004632
--


++    Operator info:
      --------------


  Net charge from external field:   -39.268449999999902     
--


            Nuclear Potential Energy              0.00000000 au

                    Nuclear-External Field Potential Energy    -686.17251983 au
                    External Field Potential Energy            1605.63690139 au 


            Total Nuclear Potential Energy           -686.17251983 au


      Basis set specifications :
      Symmetry species         a  
      Basis functions          200

 Sorry, Molden does not know how to handle
 functions with angular momentum larger than g
Note: The following floating-point exceptions are signalling: IEEE_UNDERFLOW_FLAG IEEE_DENORMAL
--- Stop Module: seward at Mon Mar 31 12:42:49 2025 /rc=_RC_ALL_IS_WELL_ ---
*** files: rhenium_so_cf.GssOrb xmldump
    saved to directory /home4/s4752295/Internship/Initial_simulations/Point_charge_model/1_electron/Madelung_charges_9_active_space/Re/fixed_calculations
--- Module seward spent 20 seconds ---

*** symbolic link created: INPORB -> rhenium_so_cf.GssOrb
--- Start Module: scf at Mon Mar 31 12:42:49 2025 ---

()()()()()()()()()()()()()()()()()()()()()()()()()()()()()()()()()()()()()()()()()()()()()()()()()()

                                                &SCF

                                   only a single process is used
                       available to each process: 4.1 GB of memory, 1 thread?
                                            pid: 3841535
()()()()()()()()()()()()()()()()()()()()()()()()()()()()()()()()()()()()()()()()()()()()()()()()()()

++    Input section:
      --------------

      Header of the integral files:
      
       Integrals generated by seward 4.2.0  , Mon Mar 31 12:42:28 2025


      Cartesian coordinates in Angstrom:
      -----------------------------------------------------
      No.  Label        X            Y            Z        
      -----------------------------------------------------
       1   RE        -0.00000000  -0.00000000   0.00463220
      -----------------------------------------------------
      Nuclear repulsion energy = -686.17251983
--

++    Orbital specifications:
      -----------------------

      Symmetry species               1
                                     a
      Frozen orbitals                0
      Occupied orbitals             34
      Secondary orbitals           166
      Deleted orbitals               0
      Total number of orbitals     200
      Number of basis functions    200
--

      Molecular charge                           7.000

++    Optimization specifications:
      ----------------------------

      SCF Algorithm: Conventional
      Minimized density differences are used
      Number of density matrices in core                5
      Maximum number of NDDO SCF iterations            50
      Maximum number of HF SCF iterations             100
      Threshold for SCF energy change            0.10E-08
      Threshold for density matrix               0.10E-03
      Threshold for Fock matrix                  0.15E-03
      Threshold for linear dependence            0.10E-08
      Threshold at which DIIS is turned on       0.15E+00
      Threshold at which QNR/C2DIIS is turned on 0.75E-01
      Threshold for Norm(delta) (QNR/C2DIIS)     0.20E-04
      DIIS extrapolation of the SCF procedure
      All orbitals punched on: SCFORB
--

      Detected guessorb starting orbitals                                             


++ Convergence information
                                   SCF        iterations: Energy and convergence statistics

Iter     Tot. SCF        One-elec.       Two-elec.     Energy      Max Dij or  Max Fij      DNorm      TNorm      AccCon     Time
         Energy          Energy          Energy        Change      Delta Norm                                                in Sec.

 The total and one-electron energies are shifted by a value of     16000. a.u.

   1  -729.798043054 -5976.755790520  5933.130267300   0.00E+00    0.30E+00*   0.44E+00*    0.12E+02   0.16E+04   None         1.
   2  -730.853647069 -6013.305090188  5968.623962952  -0.11E+01*   0.11E+00*   0.23E+00*    0.18E+01   0.16E+04   EDIIS        1.
   3  -730.948319023 -5988.349732763  5943.573933574  -0.95E-01*   0.37E-01*   0.97E-01*    0.37E+00   0.16E+04   EDIIS        1.
   4  -730.974344087 -6009.895790144  5965.093965891  -0.26E-01*   0.88E-02*   0.37E-01*    0.88E-01   0.16E+04   c2DIIS       1.
   5  -730.987897457 -5997.883475957  5953.068098335  -0.14E-01*   0.10E-01*   0.14E-01*    0.21E-01   0.16E+04   QNRc2DIIS    1.
   6  -730.987948075 -6002.501163423  5957.685735182  -0.51E-04*   0.48E-02*   0.14E-01*    0.30E-02   0.16E+04   QNRc2DIIS    1.
   7  -730.988594768 -6000.174768596  5955.358693663  -0.65E-03*   0.23E-03*   0.54E-03*    0.23E-03   0.16E+04   QNRc2DIIS    1.
   8  -730.988595504 -6000.194281671  5955.378206001  -0.74E-06*   0.30E-04*   0.24E-04     0.35E-04   0.16E+04   QNRc2DIIS    1.
   9  -730.988595508 -6000.192744094  5955.376668420  -0.44E-08*   0.24E-05    0.36E-05     0.56E-03   0.16E+04   QNRc2DIIS    1.
  10  -730.988595508 -6000.192985250  5955.376909576  -0.58E-10    0.45E-06    0.87E-06     0.78E-02   0.16E+04   QNRc2DIIS    1.

       Convergence after 10 Macro Iterations
--

 *****************************************************************************************************************************
 *                                                                                                                           *
 *                                             SCF/KS-DFT Program, Final results                                             *
 *                                                                                                                           *
 *                                                                                                                           *
 *                                                                                                                           *
 *                                                       Final Results                                                       *
 *                                                                                                                           *
 *****************************************************************************************************************************

::    Total SCF energy                             -16730.9885955083
      One-electron energy                          -22000.1929852501
      Two-electron energy                            5955.3769095759
      Nuclear repulsion energy                       -686.1725198341
      Kinetic energy (interpolated)                 23684.6267867648
      Virial theorem                                    0.7064071031
      Total spin, S(S+1)                                0.0000000000
      Total spin, S                                     0.0000000000
      Max non-diagonal density matrix element           0.0000005282
      Max non-diagonal Fock matrix element              0.0000000721


      All orbitals with orbital energies smaller than  E(LUMO)+0.5 are printed

++    Molecular orbitals:
      -------------------

      Title: SCF orbitals

      Molecular orbitals for symmetry species 1: a  

          Some orbital energies have been scaled by powers of 10, the power is written right after the orbital index


          Orbital            1 (1)     2         3         4         5         6         7         8         9        10    
          Energy         -263.7531 -458.4292 -401.0788 -401.0776 -401.0776 -104.2994  -86.9720  -86.9720  -86.9711  -66.4716
          Occ. No.          2.0000    2.0000    2.0000    2.0000    2.0000    2.0000    2.0000    2.0000    2.0000    2.0000

        1 RE     1s         1.0000   -0.0000   -0.0000    0.0000    0.0000    0.0000   -0.0000    0.0000    0.0000   -0.0000
        2 RE     2s         0.0000    1.0000   -0.0000    0.0000    0.0000    0.0000    0.0000   -0.0000   -0.0000   -0.0000
        3 RE     3s        -0.0000   -0.0000    0.0000    0.0000   -0.0000    1.0000    0.0000   -0.0000   -0.0015    0.0000
        4 RE     4s         0.0000    0.0000   -0.0000   -0.0000    0.0000   -0.0001   -0.0000    0.0000    0.0002    0.0000
        5 RE     5s        -0.0000   -0.0000    0.0000    0.0000    0.0000    0.0000    0.0000   -0.0000   -0.0001   -0.0000
        6 RE     6s         0.0000    0.0000   -0.0000   -0.0000    0.0000   -0.0000   -0.0000   -0.0000    0.0000    0.0000
        7 RE     7s        -0.0000   -0.0000    0.0000    0.0000   -0.0000    0.0000    0.0000    0.0000   -0.0000   -0.0000
        8 RE     8s         0.0000    0.0000   -0.0000   -0.0000   -0.0000   -0.0000   -0.0000    0.0000    0.0000    0.0000
        9 RE     9s        -0.0000   -0.0000    0.0000    0.0000    0.0000    0.0000    0.0000   -0.0000   -0.0001   -0.0000
       10 RE    10s         0.0000    0.0000   -0.0000   -0.0000    0.0000   -0.0000   -0.0000   -0.0000    0.0000    0.0000
       11 RE    11s        -0.0000   -0.0000    0.0000    0.0000   -0.0000    0.0000    0.0000    0.0000   -0.0001   -0.0000
       12 RE     2px        0.0000    0.0000    1.0000   -0.0003   -0.0000   -0.0000   -0.0000    0.0000    0.0000   -0.0000
       13 RE     3px       -0.0000    0.0000   -0.0000    0.0000    0.0000    0.0015   -0.0037    0.0000    1.0000   -0.0012
       14 RE     4px        0.0000   -0.0000    0.0000   -0.0000   -0.0000    0.0001    0.0000   -0.0000   -0.0001    0.0001
       15 RE     5px       -0.0000    0.0000   -0.0000    0.0000    0.0000   -0.0000   -0.0000    0.0000    0.0001    0.0000
       16 RE     6px        0.0000   -0.0000    0.0000   -0.0000   -0.0000    0.0000    0.0000   -0.0000   -0.0000   -0.0000
       17 RE     7px       -0.0000    0.0000   -0.0000    0.0000    0.0000   -0.0000   -0.0000    0.0000    0.0001   -0.0000
       18 RE     8px        0.0000   -0.0000    0.0000   -0.0000   -0.0000    0.0000    0.0000   -0.0000   -0.0000    0.0000
       19 RE     9px       -0.0000    0.0000   -0.0000    0.0000    0.0000   -0.0000   -0.0000   -0.0000    0.0000   -0.0000
       20 RE    10px        0.0000   -0.0000    0.0000   -0.0000    0.0000    0.0000    0.0000   -0.0000   -0.0000    0.0000
       21 RE    11px       -0.0000    0.0000   -0.0000    0.0000    0.0000   -0.0000   -0.0000    0.0000    0.0000   -0.0000
       22 RE     2py       -0.0000   -0.0000    0.0000   -0.0000    1.0000   -0.0000   -0.0000    0.0000   -0.0000    0.0000
       23 RE     3py        0.0000    0.0000   -0.0000    0.0000   -0.0000   -0.0000   -0.0000    1.0000   -0.0000    0.0000
       24 RE     4py       -0.0000    0.0000    0.0000   -0.0000    0.0000    0.0000    0.0000   -0.0001    0.0000   -0.0000
       25 RE     5py        0.0000    0.0000   -0.0000    0.0000   -0.0000   -0.0000   -0.0000    0.0001   -0.0000   -0.0000
       26 RE     6py       -0.0000    0.0000    0.0000   -0.0000    0.0000    0.0000    0.0000   -0.0000    0.0000    0.0000
       27 RE     7py        0.0000   -0.0000   -0.0000    0.0000   -0.0000   -0.0000   -0.0000    0.0001   -0.0000    0.0000
       28 RE     8py       -0.0000    0.0000    0.0000   -0.0000    0.0000    0.0000    0.0000   -0.0001    0.0000    0.0000
       29 RE     9py        0.0000   -0.0000   -0.0000    0.0000   -0.0000   -0.0000   -0.0000    0.0000   -0.0000    0.0000
       30 RE    10py       -0.0000   -0.0000    0.0000   -0.0000    0.0000    0.0000    0.0000   -0.0000    0.0000   -0.0000
       31 RE    11py        0.0000    0.0000   -0.0000    0.0000   -0.0000   -0.0000   -0.0000    0.0000   -0.0000   -0.0000
       32 RE     2pz        0.0000    0.0000    0.0003    1.0000    0.0000   -0.0000    0.0000    0.0000    0.0000    0.0000
       33 RE     3pz       -0.0000    0.0000   -0.0000   -0.0000   -0.0000    0.0000    1.0000    0.0000    0.0037    0.0000
       34 RE     4pz        0.0000   -0.0000    0.0000    0.0000    0.0000    0.0000   -0.0001   -0.0000   -0.0000   -0.0000
       35 RE     5pz       -0.0000    0.0000   -0.0000   -0.0000   -0.0000   -0.0000    0.0001    0.0000    0.0000   -0.0000
       36 RE     6pz        0.0000   -0.0000    0.0000    0.0000    0.0000    0.0000   -0.0000   -0.0000   -0.0000    0.0000
       37 RE     7pz       -0.0000    0.0000   -0.0000   -0.0000   -0.0000   -0.0000    0.0001    0.0000    0.0000    0.0000
       38 RE     8pz        0.0000   -0.0000    0.0000    0.0000    0.0000    0.0000   -0.0001   -0.0000   -0.0000   -0.0000
       39 RE     9pz       -0.0000    0.0000   -0.0000   -0.0000   -0.0000   -0.0000    0.0000    0.0000    0.0000    0.0000
       40 RE    10pz        0.0000   -0.0000    0.0000    0.0000    0.0000    0.0000   -0.0000   -0.0000   -0.0000   -0.0000
       41 RE    11pz       -0.0000    0.0000   -0.0000   -0.0000   -0.0000   -0.0000    0.0000    0.0000    0.0000    0.0000
       42 RE     3d2-       0.0000    0.0000    0.0000   -0.0000    0.0000    0.0000   -0.0000    0.0010   -0.0000   -0.0000
       43 RE     4d2-       0.0000    0.0000    0.0000   -0.0000    0.0000   -0.0000   -0.0000    0.0001   -0.0000    0.0000
       44 RE     5d2-       0.0000    0.0000   -0.0000    0.0000   -0.0000    0.0000    0.0000   -0.0000    0.0000   -0.0000
       45 RE     6d2-      -0.0000   -0.0000    0.0000   -0.0000    0.0000   -0.0000   -0.0000    0.0000   -0.0000    0.0000
       46 RE     7d2-       0.0000    0.0000   -0.0000    0.0000   -0.0000    0.0000    0.0000   -0.0000    0.0000   -0.0000
       47 RE     8d2-      -0.0000   -0.0000    0.0000   -0.0000    0.0000   -0.0000   -0.0000    0.0000   -0.0000    0.0000
       48 RE     9d2-       0.0000    0.0000   -0.0000    0.0000   -0.0000    0.0000    0.0000   -0.0000    0.0000   -0.0000
       49 RE    10d2-      -0.0000   -0.0000    0.0000   -0.0000    0.0000   -0.0000   -0.0000    0.0000   -0.0000    0.0000
       50 RE    11d2-       0.0000    0.0000   -0.0000    0.0000   -0.0000    0.0000    0.0000   -0.0000    0.0000   -0.0000
       51 RE     3d1-      -0.0000   -0.0000    0.0000   -0.0000    0.0000    0.0000   -0.0000    0.0000    0.0000    0.0000
       52 RE     4d1-       0.0000    0.0000   -0.0000    0.0000   -0.0000   -0.0000   -0.0000    0.0000   -0.0000   -0.0000
       53 RE     5d1-      -0.0000   -0.0000   -0.0000    0.0000   -0.0000    0.0000    0.0000   -0.0000   -0.0000    0.0000
       54 RE     6d1-       0.0000    0.0000   -0.0000   -0.0000    0.0000   -0.0000   -0.0000    0.0000   -0.0000   -0.0000
       55 RE     7d1-      -0.0000   -0.0000    0.0000    0.0000   -0.0000    0.0000    0.0000   -0.0000    0.0000    0.0000
       56 RE     8d1-       0.0000   -0.0000   -0.0000   -0.0000    0.0000   -0.0000   -0.0000    0.0000    0.0000   -0.0000
       57 RE     9d1-      -0.0000   -0.0000    0.0000    0.0000   -0.0000    0.0000    0.0000   -0.0000    0.0000    0.0000
       58 RE    10d1-       0.0000    0.0000   -0.0000    0.0000   -0.0000   -0.0000   -0.0000    0.0000   -0.0000   -0.0000
       59 RE    11d1-      -0.0000   -0.0000    0.0000   -0.0000    0.0000   -0.0000    0.0000   -0.0000   -0.0000    0.0000
       60 RE     3d0       -0.0000   -0.0000   -0.0000   -0.0000   -0.0000    0.0000    0.0000   -0.0000   -0.0006   -0.5026
       61 RE     4d0        0.0000    0.0000   -0.0000    0.0000    0.0000   -0.0000    0.0000   -0.0000   -0.0001    0.0001
       62 RE     5d0       -0.0000   -0.0000    0.0000    0.0000    0.0000    0.0000   -0.0000    0.0000    0.0000   -0.0000
       63 RE     6d0        0.0000    0.0000   -0.0000   -0.0000   -0.0000    0.0000    0.0000   -0.0000   -0.0000    0.0000
       64 RE     7d0       -0.0000   -0.0000    0.0000    0.0000    0.0000    0.0000   -0.0000    0.0000    0.0000   -0.0000
       65 RE     8d0        0.0000    0.0000   -0.0000    0.0000    0.0000   -0.0000    0.0000   -0.0000   -0.0000    0.0000
       66 RE     9d0       -0.0000   -0.0000    0.0000   -0.0000   -0.0000    0.0000    0.0000    0.0000    0.0000   -0.0000
       67 RE    10d0        0.0000    0.0000   -0.0000    0.0000    0.0000   -0.0000    0.0000   -0.0000   -0.0000    0.0000
       68 RE    11d0       -0.0000   -0.0000    0.0000   -0.0000   -0.0000    0.0000    0.0000    0.0000    0.0000   -0.0000
       69 RE     3d1+       0.0000    0.0000    0.0000    0.0000    0.0000   -0.0000    0.0010    0.0000    0.0000   -0.0007
       70 RE     4d1+       0.0000   -0.0000    0.0000    0.0000    0.0000   -0.0000    0.0001    0.0000    0.0000    0.0000
       71 RE     5d1+       0.0000   -0.0000   -0.0000   -0.0000   -0.0000    0.0000   -0.0000   -0.0000   -0.0000   -0.0000
       72 RE     6d1+      -0.0000   -0.0000    0.0000    0.0000    0.0000   -0.0000    0.0000    0.0000    0.0000    0.0000
       73 RE     7d1+       0.0000    0.0000   -0.0000   -0.0000   -0.0000    0.0000   -0.0000   -0.0000   -0.0000   -0.0000
       74 RE     8d1+      -0.0000   -0.0000    0.0000    0.0000    0.0000   -0.0000    0.0000    0.0000    0.0000    0.0000
       75 RE     9d1+       0.0000    0.0000   -0.0000   -0.0000   -0.0000   -0.0000   -0.0000   -0.0000   -0.0000   -0.0000
       76 RE    10d1+       0.0000   -0.0000    0.0000    0.0000    0.0000    0.0000    0.0000    0.0000    0.0000    0.0000
       77 RE    11d1+      -0.0000    0.0000   -0.0000   -0.0000   -0.0000   -0.0000   -0.0000   -0.0000   -0.0000   -0.0000
       78 RE     3d2+       0.0000    0.0000    0.0000   -0.0000   -0.0000   -0.0000   -0.0000    0.0000    0.0010    0.8645
       79 RE     4d2+      -0.0000   -0.0000    0.0000    0.0000   -0.0000    0.0000   -0.0000    0.0000    0.0001   -0.0001
       80 RE     5d2+       0.0000    0.0000   -0.0000    0.0000    0.0000   -0.0000    0.0000   -0.0000   -0.0000    0.0000
       81 RE     6d2+      -0.0000   -0.0000    0.0000   -0.0000   -0.0000   -0.0000   -0.0000    0.0000    0.0000   -0.0000
       82 RE     7d2+       0.0000    0.0000   -0.0000    0.0000    0.0000   -0.0000    0.0000   -0.0000   -0.0000    0.0000
       83 RE     8d2+      -0.0000   -0.0000    0.0000   -0.0000   -0.0000    0.0000   -0.0000    0.0000    0.0000   -0.0000
       84 RE     9d2+       0.0000    0.0000   -0.0000    0.0000    0.0000   -0.0000    0.0000   -0.0000   -0.0000    0.0000
       85 RE    10d2+      -0.0000   -0.0000    0.0000    0.0000    0.0000    0.0000   -0.0000    0.0000    0.0000   -0.0000
       86 RE    11d2+       0.0000    0.0000   -0.0000   -0.0000   -0.0000   -0.0000    0.0000   -0.0000   -0.0000    0.0000
       87 RE     4f3-       0.0000    0.0000    0.0000   -0.0000    0.0000    0.0000    0.0000   -0.0000    0.0000   -0.0000
       88 RE     5f3-      -0.0000   -0.0000   -0.0000    0.0000   -0.0000    0.0000   -0.0000    0.0000   -0.0000    0.0000
       89 RE     6f3-       0.0000    0.0000    0.0000   -0.0000    0.0000   -0.0000    0.0000   -0.0000    0.0000   -0.0000
       90 RE     7f3-      -0.0000   -0.0000   -0.0000    0.0000   -0.0000    0.0000   -0.0000    0.0000   -0.0000    0.0000
       91 RE     8f3-       0.0000    0.0000    0.0000   -0.0000    0.0000   -0.0000    0.0000   -0.0000    0.0000   -0.0000
       92 RE     9f3-      -0.0000   -0.0000   -0.0000    0.0000   -0.0000    0.0000    0.0000   -0.0000    0.0000    0.0000
       93 RE    10f3-       0.0000    0.0000    0.0000   -0.0000    0.0000   -0.0000   -0.0000    0.0000   -0.0000   -0.0000
       94 RE    11f3-      -0.0000   -0.0000   -0.0000    0.0000   -0.0000    0.0000    0.0000   -0.0000    0.0000    0.0000
       95 RE     4f2-      -0.0000   -0.0000    0.0000   -0.0000    0.0000    0.0000   -0.0000    0.0000   -0.0000    0.0000
       96 RE     5f2-       0.0000   -0.0000   -0.0000    0.0000   -0.0000   -0.0000    0.0000   -0.0000    0.0000   -0.0000
       97 RE     6f2-       0.0000    0.0000    0.0000   -0.0000    0.0000    0.0000   -0.0000    0.0000   -0.0000    0.0000
       98 RE     7f2-      -0.0000   -0.0000    0.0000   -0.0000    0.0000   -0.0000    0.0000   -0.0000    0.0000   -0.0000
       99 RE     8f2-       0.0000    0.0000   -0.0000   -0.0000    0.0000   -0.0000   -0.0000    0.0000   -0.0000    0.0000
      100 RE     9f2-      -0.0000   -0.0000    0.0000    0.0000   -0.0000    0.0000    0.0000   -0.0000    0.0000   -0.0000
      101 RE    10f2-       0.0000    0.0000   -0.0000    0.0000   -0.0000   -0.0000   -0.0000    0.0000   -0.0000    0.0000
      102 RE    11f2-      -0.0000   -0.0000    0.0000   -0.0000    0.0000   -0.0000    0.0000   -0.0000   -0.0000   -0.0000
      103 RE     4f1-      -0.0000   -0.0000   -0.0000    0.0000   -0.0000    0.0000   -0.0000    0.0000   -0.0000    0.0000
      104 RE     5f1-       0.0000    0.0000    0.0000   -0.0000    0.0000   -0.0000    0.0000   -0.0000    0.0000   -0.0000
      105 RE     6f1-       0.0000   -0.0000   -0.0000    0.0000   -0.0000    0.0000   -0.0000    0.0000   -0.0000    0.0000
      106 RE     7f1-      -0.0000    0.0000    0.0000   -0.0000    0.0000   -0.0000    0.0000   -0.0000    0.0000   -0.0000
      107 RE     8f1-       0.0000   -0.0000   -0.0000    0.0000   -0.0000    0.0000   -0.0000    0.0000   -0.0000    0.0000
      108 RE     9f1-      -0.0000    0.0000    0.0000   -0.0000    0.0000   -0.0000   -0.0000    0.0000   -0.0000   -0.0000
      109 RE    10f1-       0.0000   -0.0000   -0.0000    0.0000   -0.0000    0.0000    0.0000   -0.0000    0.0000    0.0000
      110 RE    11f1-      -0.0000    0.0000    0.0000   -0.0000    0.0000   -0.0000   -0.0000    0.0000   -0.0000   -0.0000
      111 RE     4f0        0.0000   -0.0000   -0.0000   -0.0000   -0.0000   -0.0000    0.0000    0.0000   -0.0000    0.0000
      112 RE     5f0       -0.0000    0.0000    0.0000    0.0000    0.0000    0.0000   -0.0000   -0.0000    0.0000    0.0000
      113 RE     6f0       -0.0000   -0.0000   -0.0000   -0.0000   -0.0000   -0.0000    0.0000    0.0000   -0.0000    0.0000
      114 RE     7f0        0.0000    0.0000    0.0000    0.0000    0.0000    0.0000   -0.0000   -0.0000    0.0000   -0.0000
      115 RE     8f0       -0.0000   -0.0000   -0.0000   -0.0000   -0.0000   -0.0000    0.0000    0.0000   -0.0000    0.0000
      116 RE     9f0        0.0000    0.0000    0.0000    0.0000    0.0000    0.0000    0.0000    0.0000    0.0000   -0.0000
      117 RE    10f0       -0.0000    0.0000   -0.0000   -0.0000   -0.0000   -0.0000   -0.0000   -0.0000   -0.0000    0.0000
      118 RE    11f0        0.0000   -0.0000   -0.0000    0.0000    0.0000   -0.0000    0.0000    0.0000    0.0000   -0.0000
      119 RE     4f1+      -0.0000    0.0000   -0.0000   -0.0000   -0.0000   -0.0000   -0.0000   -0.0000    0.0000   -0.0002
      120 RE     5f1+       0.0000   -0.0000    0.0000    0.0000    0.0000    0.0000    0.0000    0.0000   -0.0000    0.0001
      121 RE     6f1+      -0.0000    0.0000   -0.0000   -0.0000   -0.0000   -0.0000   -0.0000   -0.0000    0.0000   -0.0001
      122 RE     7f1+      -0.0000   -0.0000    0.0000   -0.0000   -0.0000    0.0000    0.0000    0.0000   -0.0000    0.0001
      123 RE     8f1+       0.0000    0.0000   -0.0000   -0.0000   -0.0000   -0.0000   -0.0000   -0.0000    0.0000   -0.0000
      124 RE     9f1+      -0.0000    0.0000    0.0000    0.0000   -0.0000   -0.0000    0.0000    0.0000    0.0000    0.0000
      125 RE    10f1+       0.0000   -0.0000   -0.0000    0.0000    0.0000    0.0000   -0.0000   -0.0000   -0.0000   -0.0000
      126 RE    11f1+      -0.0000    0.0000    0.0000   -0.0000   -0.0000    0.0000    0.0000    0.0000    0.0000    0.0000
      127 RE     4f2+       0.0000   -0.0000   -0.0000    0.0000    0.0000   -0.0000   -0.0000   -0.0000   -0.0000    0.0000
      128 RE     5f2+      -0.0000    0.0000    0.0000   -0.0000   -0.0000    0.0000    0.0000    0.0000    0.0000    0.0000
      129 RE     6f2+      -0.0000   -0.0000   -0.0000    0.0000    0.0000   -0.0000   -0.0000   -0.0000   -0.0000    0.0000
      130 RE     7f2+       0.0000    0.0000    0.0000   -0.0000   -0.0000    0.0000    0.0000    0.0000    0.0000   -0.0000
      131 RE     8f2+      -0.0000   -0.0000   -0.0000    0.0000    0.0000   -0.0000   -0.0000   -0.0000   -0.0000    0.0000
      132 RE     9f2+       0.0000    0.0000    0.0000   -0.0000   -0.0000    0.0000   -0.0000   -0.0000    0.0000   -0.0000
      133 RE    10f2+      -0.0000    0.0000   -0.0000    0.0000    0.0000   -0.0000    0.0000    0.0000   -0.0000    0.0000
      134 RE    11f2+       0.0000   -0.0000   -0.0000   -0.0000   -0.0000   -0.0000   -0.0000   -0.0000    0.0000   -0.0000
      135 RE     4f3+       0.0000   -0.0000    0.0000   -0.0000   -0.0000    0.0000   -0.0000   -0.0000   -0.0000    0.0002
      136 RE     5f3+      -0.0000    0.0000   -0.0000    0.0000    0.0000   -0.0000    0.0000    0.0000    0.0000   -0.0001
      137 RE     6f3+       0.0000   -0.0000    0.0000   -0.0000   -0.0000    0.0000   -0.0000   -0.0000   -0.0000    0.0001
      138 RE     7f3+       0.0000    0.0000   -0.0000   -0.0000    0.0000   -0.0000    0.0000    0.0000    0.0000   -0.0001
      139 RE     8f3+      -0.0000   -0.0000    0.0000   -0.0000   -0.0000    0.0000   -0.0000   -0.0000   -0.0000    0.0001
      140 RE     9f3+       0.0000   -0.0000   -0.0000    0.0000    0.0000    0.0000    0.0000    0.0000   -0.0000   -0.0000
      141 RE    10f3+      -0.0000    0.0000    0.0000    0.0000   -0.0000   -0.0000   -0.0000   -0.0000    0.0000    0.0000
      142 RE    11f3+       0.0000   -0.0000   -0.0000   -0.0000   -0.0000   -0.0000    0.0000    0.0000   -0.0000   -0.0000
      143 RE     5g4-      -0.0000    0.0000    0.0000   -0.0000    0.0000   -0.0000   -0.0000    0.0000   -0.0000    0.0000
      144 RE     6g4-       0.0000   -0.0000   -0.0000    0.0000   -0.0000    0.0000    0.0000   -0.0000    0.0000   -0.0000
      145 RE     7g4-      -0.0000    0.0000    0.0000   -0.0000    0.0000   -0.0000   -0.0000    0.0000   -0.0000    0.0000
      146 RE     8g4-       0.0000   -0.0000   -0.0000    0.0000   -0.0000    0.0000    0.0000   -0.0000    0.0000   -0.0000
      147 RE     5g3-      -0.0000    0.0000   -0.0000    0.0000   -0.0000    0.0000   -0.0000    0.0000   -0.0000   -0.0000
      148 RE     6g3-      -0.0000   -0.0000    0.0000   -0.0000    0.0000   -0.0000    0.0000   -0.0000    0.0000    0.0000
      149 RE     7g3-       0.0000    0.0000   -0.0000    0.0000   -0.0000    0.0000   -0.0000    0.0000   -0.0000   -0.0000
      150 RE     8g3-      -0.0000   -0.0000    0.0000   -0.0000    0.0000   -0.0000    0.0000   -0.0000   -0.0000    0.0000
      151 RE     5g2-      -0.0000   -0.0000   -0.0000    0.0000   -0.0000   -0.0000    0.0000   -0.0000    0.0000   -0.0000
      152 RE     6g2-      -0.0000    0.0000    0.0000   -0.0000    0.0000    0.0000   -0.0000    0.0000    0.0000    0.0000
      153 RE     7g2-      -0.0000   -0.0000   -0.0000    0.0000   -0.0000   -0.0000    0.0000   -0.0000    0.0000   -0.0000
      154 RE     8g2-       0.0000    0.0000    0.0000   -0.0000    0.0000    0.0000   -0.0000    0.0000   -0.0000    0.0000
      155 RE     5g1-       0.0000    0.0000    0.0000   -0.0000    0.0000    0.0000    0.0000   -0.0000    0.0000    0.0000
      156 RE     6g1-      -0.0000    0.0000   -0.0000    0.0000   -0.0000   -0.0000   -0.0000    0.0000   -0.0000   -0.0000
      157 RE     7g1-       0.0000    0.0000    0.0000   -0.0000    0.0000    0.0000    0.0000   -0.0000    0.0000    0.0000
      158 RE     8g1-      -0.0000   -0.0000   -0.0000    0.0000   -0.0000   -0.0000   -0.0000    0.0000   -0.0000   -0.0000
      159 RE     5g0        0.0000   -0.0000   -0.0000   -0.0000   -0.0000   -0.0000   -0.0000    0.0000    0.0000   -0.0000
      160 RE     6g0       -0.0000    0.0000   -0.0000    0.0000    0.0000   -0.0000   -0.0000   -0.0000   -0.0000   -0.0000
      161 RE     7g0        0.0000   -0.0000   -0.0000   -0.0000   -0.0000    0.0000    0.0000    0.0000    0.0000   -0.0000
      162 RE     8g0       -0.0000    0.0000   -0.0000    0.0000    0.0000   -0.0000   -0.0000    0.0000   -0.0000    0.0000
      163 RE     5g1+       0.0000   -0.0000    0.0000   -0.0000   -0.0000    0.0000   -0.0000   -0.0000   -0.0000   -0.0000
      164 RE     6g1+      -0.0000    0.0000   -0.0000    0.0000    0.0000   -0.0000    0.0000    0.0000    0.0000    0.0000
      165 RE     7g1+       0.0000   -0.0000    0.0000   -0.0000   -0.0000    0.0000   -0.0000   -0.0000   -0.0000   -0.0000
      166 RE     8g1+      -0.0000    0.0000   -0.0000    0.0000    0.0000   -0.0000    0.0000    0.0000    0.0000    0.0000
      167 RE     5g2+      -0.0000    0.0000    0.0000    0.0000    0.0000    0.0000   -0.0000   -0.0000   -0.0000    0.0000
      168 RE     6g2+       0.0000   -0.0000    0.0000   -0.0000   -0.0000    0.0000    0.0000    0.0000    0.0000    0.0000
      169 RE     7g2+      -0.0000    0.0000    0.0000    0.0000    0.0000   -0.0000   -0.0000   -0.0000   -0.0000    0.0000
      170 RE     8g2+       0.0000   -0.0000    0.0000   -0.0000   -0.0000    0.0000    0.0000    0.0000    0.0000   -0.0000
      171 RE     5g3+       0.0000   -0.0000    0.0000    0.0000    0.0000    0.0000    0.0000    0.0000   -0.0000   -0.0000
      172 RE     6g3+      -0.0000    0.0000   -0.0000   -0.0000   -0.0000   -0.0000   -0.0000   -0.0000    0.0000    0.0000
      173 RE     7g3+       0.0000   -0.0000    0.0000    0.0000    0.0000    0.0000    0.0000    0.0000   -0.0000   -0.0000
      174 RE     8g3+      -0.0000    0.0000   -0.0000   -0.0000   -0.0000   -0.0000   -0.0000   -0.0000    0.0000    0.0000
      175 RE     5g4+       0.0000   -0.0000   -0.0000    0.0000    0.0000   -0.0000   -0.0000   -0.0000    0.0000   -0.0000
      176 RE     6g4+      -0.0000    0.0000   -0.0000   -0.0000   -0.0000   -0.0000    0.0000    0.0000   -0.0000   -0.0000
      177 RE     7g4+       0.0000   -0.0000   -0.0000    0.0000    0.0000    0.0000   -0.0000   -0.0000    0.0000   -0.0000
      178 RE     8g4+      -0.0000    0.0000   -0.0000   -0.0000   -0.0000   -0.0000    0.0000    0.0000   -0.0000    0.0000
      179 RE     6h5-       0.0000   -0.0000   -0.0000    0.0000   -0.0000    0.0000    0.0000   -0.0000    0.0000   -0.0000
      180 RE     7h5-      -0.0000    0.0000    0.0000   -0.0000    0.0000   -0.0000   -0.0000    0.0000   -0.0000    0.0000
      181 RE     6h4-       0.0000    0.0000   -0.0000    0.0000   -0.0000   -0.0000   -0.0000    0.0000   -0.0000    0.0000
      182 RE     7h4-      -0.0000   -0.0000    0.0000   -0.0000    0.0000    0.0000    0.0000   -0.0000    0.0000   -0.0000
      183 RE     6h3-       0.0000    0.0000   -0.0000   -0.0000    0.0000    0.0000   -0.0000    0.0000    0.0000   -0.0000
      184 RE     7h3-      -0.0000   -0.0000    0.0000    0.0000   -0.0000   -0.0000    0.0000   -0.0000   -0.0000    0.0000
      185 RE     6h2-       0.0000    0.0000    0.0000   -0.0000    0.0000    0.0000    0.0000   -0.0000    0.0000   -0.0000
      186 RE     7h2-       0.0000    0.0000    0.0000   -0.0000    0.0000   -0.0000    0.0000   -0.0000    0.0000   -0.0000
      187 RE     6h1-      -0.0000   -0.0000   -0.0000    0.0000   -0.0000   -0.0000    0.0000   -0.0000    0.0000   -0.0000
      188 RE     7h1-       0.0000    0.0000    0.0000   -0.0000    0.0000    0.0000   -0.0000    0.0000   -0.0000    0.0000
      189 RE     6h0        0.0000   -0.0000   -0.0000   -0.0000   -0.0000    0.0000   -0.0000   -0.0000    0.0000   -0.0000
      190 RE     7h0        0.0000   -0.0000   -0.0000    0.0000    0.0000    0.0000    0.0000    0.0000   -0.0000   -0.0000
      191 RE     6h1+       0.0000   -0.0000   -0.0000   -0.0000   -0.0000    0.0000    0.0000    0.0000   -0.0000    0.0000
      192 RE     7h1+       0.0000   -0.0000   -0.0000    0.0000    0.0000   -0.0000   -0.0000   -0.0000    0.0000   -0.0000
      193 RE     6h2+      -0.0000    0.0000    0.0000    0.0000    0.0000   -0.0000    0.0000    0.0000   -0.0000    0.0000
      194 RE     7h2+      -0.0000    0.0000    0.0000   -0.0000   -0.0000   -0.0000   -0.0000   -0.0000    0.0000    0.0000
      195 RE     6h3+      -0.0000    0.0000    0.0000   -0.0000   -0.0000   -0.0000   -0.0000    0.0000    0.0000   -0.0000
      196 RE     7h3+      -0.0000    0.0000    0.0000    0.0000    0.0000    0.0000   -0.0000   -0.0000   -0.0000    0.0000
      197 RE     6h4+      -0.0000    0.0000    0.0000   -0.0000   -0.0000   -0.0000   -0.0000   -0.0000   -0.0000    0.0000
      198 RE     7h4+      -0.0000    0.0000    0.0000    0.0000    0.0000   -0.0000    0.0000    0.0000    0.0000    0.0000
      199 RE     6h5+       0.0000   -0.0000   -0.0000    0.0000    0.0000    0.0000   -0.0000   -0.0000   -0.0000    0.0000
      200 RE     7h5+       0.0000   -0.0000   -0.0000    0.0000    0.0000   -0.0000    0.0000    0.0000    0.0000   -0.0000

          Orbital           11        12        13        14        15        16        17        18        19        20    
          Energy          -66.4712  -66.4712  -66.4702  -66.4702  -18.6680  -12.8480  -12.8480  -12.8394   -5.2318   -5.2318
          Occ. No.          2.0000    2.0000    2.0000    2.0000    2.0000    2.0000    2.0000    2.0000    2.0000    2.0000

        1 RE     1s        -0.0000   -0.0000   -0.0000    0.0000   -0.0000    0.0000    0.0000   -0.0000    0.0000    0.0000
        2 RE     2s        -0.0000   -0.0000   -0.0000    0.0000   -0.0000   -0.0000   -0.0000    0.0000    0.0000    0.0000
        3 RE     3s         0.0000    0.0000   -0.0000   -0.0000    0.0001    0.0000   -0.0000   -0.0001   -0.0000   -0.0000
        4 RE     4s         0.0000    0.0000    0.0000   -0.0000    0.9999    0.0000    0.0000   -0.0118   -0.0000   -0.0000
        5 RE     5s        -0.0000   -0.0000   -0.0000    0.0000   -0.0003   -0.0000   -0.0000    0.0028    0.0000    0.0000
        6 RE     6s         0.0000    0.0000    0.0000   -0.0000    0.0001    0.0000    0.0000   -0.0003    0.0000   -0.0000
        7 RE     7s        -0.0000   -0.0000   -0.0000    0.0000   -0.0000   -0.0000   -0.0000    0.0004    0.0000    0.0000
        8 RE     8s         0.0000    0.0000    0.0000   -0.0000    0.0001    0.0000   -0.0000   -0.0004   -0.0000   -0.0000
        9 RE     9s        -0.0000   -0.0000   -0.0000    0.0000   -0.0001   -0.0000    0.0000    0.0001    0.0000    0.0000
       10 RE    10s         0.0000    0.0000    0.0000   -0.0000    0.0001    0.0000    0.0000   -0.0000    0.0000    0.0000
       11 RE    11s        -0.0000   -0.0000   -0.0000    0.0000   -0.0001   -0.0000   -0.0000    0.0001    0.0000    0.0000
       12 RE     2px       -0.0000   -0.0000   -0.0000    0.0000    0.0000    0.0000    0.0000   -0.0000    0.0000    0.0000
       13 RE     3px       -0.0000   -0.0000   -0.0000    0.0000   -0.0002   -0.0000   -0.0000    0.0001    0.0000    0.0000
       14 RE     4px        0.0000    0.0000    0.0000   -0.0000    0.0118   -0.0029   -0.0000    0.9999    0.0000    0.0000
       15 RE     5px        0.0000    0.0000    0.0000   -0.0000    0.0009    0.0000    0.0000   -0.0012   -0.0000   -0.0000
       16 RE     6px       -0.0000    0.0000   -0.0000   -0.0000   -0.0002   -0.0000   -0.0000    0.0002    0.0000    0.0000
       17 RE     7px        0.0000   -0.0000   -0.0000    0.0000    0.0003    0.0000    0.0000   -0.0002   -0.0000   -0.0000
       18 RE     8px        0.0000    0.0000    0.0000   -0.0000   -0.0001    0.0000    0.0000   -0.0000    0.0000    0.0000
       19 RE     9px       -0.0000   -0.0000   -0.0000    0.0000    0.0001    0.0000    0.0000    0.0000   -0.0000    0.0000
       20 RE    10px        0.0000    0.0000    0.0000   -0.0000   -0.0000   -0.0000    0.0000    0.0001   -0.0000   -0.0000
       21 RE    11px       -0.0000   -0.0000   -0.0000    0.0000    0.0001    0.0000    0.0000   -0.0001   -0.0000   -0.0000
       22 RE     2py        0.0000   -0.0000    0.0000    0.0000   -0.0000    0.0000   -0.0000   -0.0000    0.0000   -0.0000
       23 RE     3py        0.0000   -0.0010    0.0000    0.0000    0.0000   -0.0000    0.0001    0.0000    0.0000   -0.0000
       24 RE     4py       -0.0000    0.0001   -0.0000   -0.0000    0.0000   -0.0000    1.0000    0.0000    0.0002   -0.0000
       25 RE     5py       -0.0000    0.0000   -0.0000   -0.0000   -0.0000    0.0000   -0.0008   -0.0000   -0.0001    0.0000
       26 RE     6py        0.0000   -0.0000    0.0000    0.0000    0.0000   -0.0000    0.0001    0.0000    0.0000   -0.0000
       27 RE     7py        0.0000   -0.0000    0.0000    0.0000   -0.0000    0.0000   -0.0001    0.0000   -0.0000    0.0000
       28 RE     8py       -0.0000    0.0000   -0.0000   -0.0000    0.0000   -0.0000    0.0000    0.0000   -0.0000    0.0000
       29 RE     9py        0.0000   -0.0000    0.0000    0.0000   -0.0000    0.0000   -0.0001   -0.0000    0.0000   -0.0000
       30 RE    10py       -0.0000    0.0000   -0.0000   -0.0000    0.0000   -0.0000    0.0001    0.0000   -0.0000    0.0000
       31 RE    11py        0.0000   -0.0000    0.0000    0.0000   -0.0000    0.0000   -0.0001   -0.0000   -0.0000    0.0000
       32 RE     2pz       -0.0000   -0.0000   -0.0000    0.0000    0.0000   -0.0000   -0.0000   -0.0000   -0.0000   -0.0000
       33 RE     3pz       -0.0010   -0.0000   -0.0000    0.0000   -0.0000    0.0001    0.0000    0.0000   -0.0000   -0.0000
       34 RE     4pz        0.0001    0.0000    0.0000   -0.0000    0.0000    1.0000    0.0000    0.0029   -0.0000   -0.0002
       35 RE     5pz        0.0000    0.0000    0.0000   -0.0000    0.0000   -0.0008   -0.0000   -0.0000    0.0000    0.0001
       36 RE     6pz       -0.0000   -0.0000   -0.0000    0.0000   -0.0000    0.0001    0.0000    0.0000   -0.0000   -0.0000
       37 RE     7pz       -0.0000   -0.0000   -0.0000    0.0000    0.0000   -0.0001   -0.0000   -0.0000    0.0000    0.0000
       38 RE     8pz        0.0000    0.0000    0.0000   -0.0000   -0.0000    0.0000    0.0000    0.0000    0.0000    0.0000
       39 RE     9pz       -0.0000   -0.0000   -0.0000    0.0000    0.0000   -0.0001   -0.0000   -0.0000   -0.0000   -0.0000
       40 RE    10pz        0.0000    0.0000    0.0000   -0.0000   -0.0000    0.0001    0.0000    0.0000    0.0000    0.0000
       41 RE    11pz       -0.0000   -0.0000   -0.0000    0.0000    0.0000   -0.0001   -0.0000   -0.0000    0.0000    0.0000
       42 RE     3d2-      -0.0000    0.9988   -0.0000   -0.0485    0.0000    0.0000   -0.0001   -0.0000   -0.0000    0.0000
       43 RE     4d2-       0.0000   -0.0001    0.0000    0.0000    0.0000   -0.0000    0.0080    0.0000   -0.0288    0.0000
       44 RE     5d2-      -0.0000    0.0000   -0.0000   -0.0000   -0.0000   -0.0000    0.0005    0.0000    0.0000   -0.0000
       45 RE     6d2-       0.0000   -0.0000    0.0000    0.0000    0.0000    0.0000   -0.0004   -0.0000   -0.0000    0.0000
       46 RE     7d2-      -0.0000    0.0000   -0.0000   -0.0000   -0.0000   -0.0000    0.0003    0.0000    0.0000   -0.0000
       47 RE     8d2-       0.0000   -0.0000    0.0000    0.0000    0.0000    0.0000   -0.0001   -0.0000    0.0000   -0.0000
       48 RE     9d2-      -0.0000    0.0000   -0.0000   -0.0000   -0.0000   -0.0000    0.0000    0.0000   -0.0000    0.0000
       49 RE    10d2-       0.0000   -0.0000    0.0000    0.0000    0.0000    0.0000   -0.0001   -0.0000   -0.0000    0.0000
       50 RE    11d2-      -0.0000    0.0000   -0.0000   -0.0000   -0.0000   -0.0000    0.0001    0.0000    0.0000   -0.0000
       51 RE     3d1-      -0.0000    0.0485    0.0000    0.9988    0.0000    0.0000   -0.0000    0.0000    0.0001   -0.0000
       52 RE     4d1-       0.0000   -0.0000   -0.0000   -0.0001    0.0000   -0.0000    0.0000    0.0000    0.9996   -0.0000
       53 RE     5d1-      -0.0000    0.0000    0.0000    0.0000   -0.0000   -0.0000    0.0000    0.0000   -0.0014    0.0000
       54 RE     6d1-       0.0000   -0.0000   -0.0000   -0.0000    0.0000    0.0000   -0.0000    0.0000    0.0005   -0.0000
       55 RE     7d1-      -0.0000    0.0000    0.0000    0.0000   -0.0000   -0.0000    0.0000   -0.0000    0.0003   -0.0000
       56 RE     8d1-       0.0000   -0.0000   -0.0000   -0.0000    0.0000    0.0000   -0.0000   -0.0000   -0.0004    0.0000
       57 RE     9d1-      -0.0000    0.0000    0.0000    0.0000   -0.0000   -0.0000    0.0000   -0.0000    0.0001   -0.0000
       58 RE    10d1-       0.0000   -0.0000   -0.0000   -0.0000    0.0000    0.0000   -0.0000    0.0000    0.0002   -0.0000
       59 RE    11d1-      -0.0000    0.0000    0.0000    0.0000   -0.0000   -0.0000    0.0000   -0.0000   -0.0000    0.0000
       60 RE     3d0       -0.0415   -0.0000    0.8635   -0.0000    0.0000    0.0000    0.0000    0.0000    0.0000    0.0001
       61 RE     4d0        0.0000    0.0000   -0.0001    0.0000    0.0002    0.0000    0.0000   -0.0048    0.0000    0.8661
       62 RE     5d0       -0.0000   -0.0000    0.0000   -0.0000    0.0000    0.0000    0.0000   -0.0003   -0.0000   -0.0012
       63 RE     6d0        0.0000    0.0000   -0.0000    0.0000   -0.0000    0.0000   -0.0000    0.0003    0.0000    0.0005
       64 RE     7d0       -0.0000   -0.0000    0.0000   -0.0000    0.0000   -0.0000   -0.0000   -0.0002    0.0000    0.0002
       65 RE     8d0        0.0000    0.0000   -0.0000    0.0000    0.0000    0.0000    0.0000    0.0000   -0.0000   -0.0004
       66 RE     9d0       -0.0000   -0.0000    0.0000   -0.0000   -0.0000   -0.0000   -0.0000   -0.0000    0.0000    0.0000
       67 RE    10d0        0.0000    0.0000   -0.0000    0.0000    0.0000    0.0000   -0.0000    0.0000    0.0000    0.0002
       68 RE    11d0       -0.0000   -0.0000    0.0000   -0.0000    0.0000    0.0000    0.0000   -0.0000   -0.0000   -0.0000
       69 RE     3d1+       0.9989    0.0000    0.0475   -0.0000   -0.0000   -0.0001   -0.0000   -0.0000    0.0000    0.0000
       70 RE     4d1+      -0.0001   -0.0000   -0.0000    0.0000   -0.0000    0.0080    0.0000    0.0000    0.0000    0.0216
       71 RE     5d1+       0.0000    0.0000    0.0000   -0.0000   -0.0000    0.0005    0.0000    0.0000   -0.0000   -0.0000
       72 RE     6d1+      -0.0000   -0.0000   -0.0000    0.0000    0.0000   -0.0004   -0.0000   -0.0000    0.0000    0.0000
       73 RE     7d1+       0.0000    0.0000    0.0000   -0.0000   -0.0000    0.0003    0.0000    0.0000   -0.0000   -0.0000
       74 RE     8d1+      -0.0000   -0.0000   -0.0000    0.0000    0.0000   -0.0001   -0.0000   -0.0000   -0.0000   -0.0000
       75 RE     9d1+       0.0000    0.0000    0.0000   -0.0000    0.0000    0.0000    0.0000   -0.0000    0.0000    0.0000
       76 RE    10d1+      -0.0000   -0.0000   -0.0000    0.0000   -0.0000   -0.0001   -0.0000   -0.0000    0.0000    0.0000
       77 RE    11d1+       0.0000    0.0000    0.0000   -0.0000   -0.0000    0.0001    0.0000    0.0000   -0.0000   -0.0000
       78 RE     3d2+      -0.0233   -0.0000    0.5021   -0.0000   -0.0000    0.0000    0.0000   -0.0001    0.0000    0.0000
       79 RE     4d2+       0.0000    0.0000   -0.0000    0.0000   -0.0003   -0.0000   -0.0000    0.0083    0.0000    0.4994
       80 RE     5d2+      -0.0000   -0.0000    0.0000   -0.0000   -0.0000   -0.0000   -0.0000    0.0006   -0.0000   -0.0007
       81 RE     6d2+       0.0000    0.0000   -0.0000    0.0000    0.0001    0.0000    0.0000   -0.0005    0.0000    0.0003
       82 RE     7d2+      -0.0000   -0.0000    0.0000   -0.0000   -0.0000   -0.0000   -0.0000    0.0003    0.0000    0.0001
       83 RE     8d2+       0.0000    0.0000   -0.0000    0.0000   -0.0000    0.0000    0.0000   -0.0001   -0.0000   -0.0002
       84 RE     9d2+      -0.0000   -0.0000    0.0000   -0.0000    0.0000   -0.0000   -0.0000    0.0000    0.0000    0.0000
       85 RE    10d2+       0.0000    0.0000   -0.0000    0.0000   -0.0000    0.0000    0.0000   -0.0001    0.0000    0.0001
       86 RE    11d2+      -0.0000   -0.0000    0.0000   -0.0000   -0.0000   -0.0000   -0.0000    0.0001   -0.0000   -0.0000
       87 RE     4f3-      -0.0000    0.0002   -0.0000   -0.0000   -0.0000    0.0000   -0.0001   -0.0000   -0.0002    0.0000
       88 RE     5f3-       0.0000   -0.0001    0.0000    0.0000    0.0000    0.0000   -0.0002   -0.0000   -0.0001    0.0000
       89 RE     6f3-      -0.0000    0.0001   -0.0000   -0.0000   -0.0000   -0.0000    0.0001    0.0000    0.0000   -0.0000
       90 RE     7f3-       0.0000   -0.0001    0.0000    0.0000    0.0000    0.0000   -0.0000   -0.0000    0.0000   -0.0000
       91 RE     8f3-      -0.0000    0.0001   -0.0000   -0.0000   -0.0000    0.0000   -0.0000   -0.0000   -0.0000    0.0000
       92 RE     9f3-       0.0000   -0.0000    0.0000    0.0000    0.0000   -0.0000    0.0000   -0.0000   -0.0000    0.0000
       93 RE    10f3-      -0.0000    0.0000   -0.0000   -0.0000   -0.0000   -0.0000    0.0000    0.0000    0.0000   -0.0000
       94 RE    11f3-       0.0000   -0.0000    0.0000    0.0000    0.0000    0.0000   -0.0000   -0.0000   -0.0000    0.0000
       95 RE     4f2-      -0.0000    0.0000    0.0000    0.0002    0.0000    0.0000   -0.0000   -0.0000    0.0061   -0.0000
       96 RE     5f2-       0.0000   -0.0000   -0.0000   -0.0001   -0.0000    0.0000   -0.0000    0.0000    0.0016   -0.0000
       97 RE     6f2-      -0.0000    0.0000    0.0000    0.0001    0.0000    0.0000   -0.0000   -0.0000   -0.0009    0.0000
       98 RE     7f2-       0.0000   -0.0000   -0.0000   -0.0001   -0.0000   -0.0000    0.0000    0.0000   -0.0000    0.0000
       99 RE     8f2-      -0.0000    0.0000    0.0000    0.0001    0.0000    0.0000   -0.0000   -0.0000    0.0001   -0.0000
      100 RE     9f2-       0.0000   -0.0000   -0.0000   -0.0000   -0.0000    0.0000   -0.0000    0.0000    0.0001   -0.0000
      101 RE    10f2-      -0.0000    0.0000    0.0000    0.0000    0.0000   -0.0000    0.0000   -0.0000   -0.0001    0.0000
      102 RE    11f2-       0.0000   -0.0000   -0.0000   -0.0000   -0.0000   -0.0000    0.0000    0.0000    0.0000   -0.0000
      103 RE     4f1-       0.0000   -0.0001    0.0000    0.0000    0.0000   -0.0000    0.0000    0.0000    0.0001   -0.0000
      104 RE     5f1-      -0.0000    0.0000   -0.0000   -0.0000   -0.0000   -0.0000    0.0000    0.0000    0.0000   -0.0000
      105 RE     6f1-       0.0000   -0.0000    0.0000    0.0000    0.0000    0.0000   -0.0000   -0.0000   -0.0000    0.0000
      106 RE     7f1-      -0.0000    0.0000   -0.0000   -0.0000   -0.0000   -0.0000    0.0000    0.0000   -0.0000    0.0000
      107 RE     8f1-       0.0000   -0.0000    0.0000    0.0000    0.0000   -0.0000    0.0000    0.0000    0.0000   -0.0000
      108 RE     9f1-      -0.0000    0.0000   -0.0000   -0.0000   -0.0000    0.0000   -0.0000    0.0000    0.0000   -0.0000
      109 RE    10f1-       0.0000   -0.0000    0.0000    0.0000    0.0000    0.0000   -0.0000   -0.0000   -0.0000    0.0000
      110 RE    11f1-      -0.0000    0.0000   -0.0000   -0.0000   -0.0000   -0.0000    0.0000    0.0000    0.0000   -0.0000
      111 RE     4f0       -0.0002   -0.0000   -0.0000    0.0000   -0.0000    0.0001    0.0000    0.0000   -0.0000   -0.0001
      112 RE     5f0        0.0001    0.0000    0.0000   -0.0000    0.0000    0.0001    0.0000    0.0000   -0.0000   -0.0000
      113 RE     6f0       -0.0001   -0.0000   -0.0000    0.0000    0.0000   -0.0001   -0.0000    0.0000    0.0000    0.0000
      114 RE     7f0        0.0001    0.0000    0.0000   -0.0000   -0.0000    0.0000    0.0000   -0.0000    0.0000    0.0000
      115 RE     8f0       -0.0000   -0.0000   -0.0000    0.0000   -0.0000    0.0000    0.0000    0.0000   -0.0000   -0.0000
      116 RE     9f0        0.0000    0.0000    0.0000   -0.0000   -0.0000   -0.0000   -0.0000    0.0000   -0.0000   -0.0000
      117 RE    10f0       -0.0000   -0.0000   -0.0000    0.0000   -0.0000   -0.0000   -0.0000   -0.0000    0.0000    0.0000
      118 RE    11f0        0.0000    0.0000    0.0000   -0.0000   -0.0000    0.0000    0.0000   -0.0000   -0.0000   -0.0000
      119 RE     4f1+      -0.0000   -0.0000    0.0002   -0.0000   -0.0000    0.0000    0.0000    0.0001    0.0000    0.0049
      120 RE     5f1+       0.0000    0.0000   -0.0001    0.0000   -0.0000    0.0000   -0.0000    0.0001    0.0000    0.0013
      121 RE     6f1+      -0.0000   -0.0000    0.0001   -0.0000    0.0000    0.0000    0.0000   -0.0001   -0.0000   -0.0007
      122 RE     7f1+       0.0000    0.0000   -0.0001    0.0000   -0.0000   -0.0000   -0.0000    0.0000   -0.0000   -0.0000
      123 RE     8f1+      -0.0000   -0.0000    0.0000   -0.0000   -0.0000    0.0000    0.0000    0.0000    0.0000    0.0001
      124 RE     9f1+       0.0000    0.0000   -0.0000    0.0000    0.0000    0.0000    0.0000   -0.0000    0.0000    0.0001
      125 RE    10f1+      -0.0000   -0.0000    0.0000   -0.0000    0.0000   -0.0000   -0.0000   -0.0000   -0.0000   -0.0001
      126 RE    11f1+       0.0000    0.0000   -0.0000    0.0000   -0.0000   -0.0000   -0.0000    0.0000    0.0000    0.0000
      127 RE     4f2+       0.0002    0.0000    0.0000   -0.0000   -0.0000   -0.0001   -0.0000    0.0000    0.0000    0.0001
      128 RE     5f2+      -0.0001   -0.0000   -0.0000    0.0000    0.0000   -0.0001   -0.0000    0.0000    0.0000    0.0001
      129 RE     6f2+       0.0001    0.0000    0.0000   -0.0000    0.0000    0.0001    0.0000    0.0000   -0.0000   -0.0000
      130 RE     7f2+      -0.0001   -0.0000   -0.0000    0.0000   -0.0000   -0.0000   -0.0000   -0.0000   -0.0000   -0.0000
      131 RE     8f2+       0.0001    0.0000    0.0000   -0.0000   -0.0000   -0.0000   -0.0000    0.0000    0.0000    0.0000
      132 RE     9f2+      -0.0000   -0.0000   -0.0000    0.0000   -0.0000    0.0000    0.0000    0.0000    0.0000    0.0000
      133 RE    10f2+       0.0000    0.0000    0.0000   -0.0000   -0.0000    0.0000    0.0000    0.0000   -0.0000   -0.0000
      134 RE    11f2+      -0.0000   -0.0000   -0.0000    0.0000   -0.0000   -0.0000   -0.0000   -0.0000    0.0000    0.0000
      135 RE     4f3+      -0.0000   -0.0000    0.0001   -0.0000    0.0000    0.0000    0.0000   -0.0001    0.0000    0.0038
      136 RE     5f3+       0.0000    0.0000   -0.0001    0.0000    0.0000    0.0000    0.0000   -0.0002    0.0000    0.0010
      137 RE     6f3+      -0.0000   -0.0000    0.0001   -0.0000   -0.0000    0.0000    0.0000    0.0001   -0.0000   -0.0005
      138 RE     7f3+       0.0000    0.0000   -0.0000    0.0000    0.0000   -0.0000   -0.0000   -0.0000   -0.0000   -0.0000
      139 RE     8f3+      -0.0000   -0.0000    0.0000   -0.0000    0.0000    0.0000    0.0000   -0.0000    0.0000    0.0000
      140 RE     9f3+       0.0000    0.0000   -0.0000    0.0000   -0.0000    0.0000    0.0000    0.0000    0.0000    0.0001
      141 RE    10f3+      -0.0000   -0.0000    0.0000   -0.0000   -0.0000   -0.0000   -0.0000    0.0000   -0.0000   -0.0001
      142 RE    11f3+       0.0000   -0.0000   -0.0000    0.0000    0.0000   -0.0000   -0.0000   -0.0000    0.0000    0.0000
      143 RE     5g4-       0.0000   -0.0000    0.0000    0.0000    0.0000   -0.0000    0.0000    0.0000    0.0000   -0.0000
      144 RE     6g4-      -0.0000    0.0000   -0.0000   -0.0000   -0.0000   -0.0000    0.0000    0.0000    0.0000   -0.0000
      145 RE     7g4-       0.0000   -0.0000    0.0000    0.0000    0.0000    0.0000   -0.0000   -0.0000   -0.0000    0.0000
      146 RE     8g4-      -0.0000    0.0000   -0.0000   -0.0000   -0.0000   -0.0000    0.0000    0.0000   -0.0000    0.0000
      147 RE     5g3-      -0.0000    0.0000   -0.0000   -0.0000    0.0000    0.0000   -0.0000   -0.0000   -0.0002    0.0000
      148 RE     6g3-       0.0000   -0.0000    0.0000    0.0000   -0.0000    0.0000   -0.0000   -0.0000   -0.0001    0.0000
      149 RE     7g3-      -0.0000    0.0000   -0.0000   -0.0000    0.0000   -0.0000    0.0000    0.0000    0.0001   -0.0000
      150 RE     8g3-       0.0000   -0.0000    0.0000    0.0000   -0.0000   -0.0000    0.0000   -0.0000   -0.0000    0.0000
      151 RE     5g2-      -0.0000    0.0000   -0.0000   -0.0000   -0.0000    0.0000   -0.0000   -0.0000   -0.0000    0.0000
      152 RE     6g2-       0.0000   -0.0000    0.0000    0.0000    0.0000    0.0000   -0.0000   -0.0000   -0.0000    0.0000
      153 RE     7g2-      -0.0000    0.0000   -0.0000   -0.0000   -0.0000   -0.0000    0.0000    0.0000    0.0000   -0.0000
      154 RE     8g2-       0.0000   -0.0000    0.0000    0.0000    0.0000    0.0000   -0.0000   -0.0000    0.0000   -0.0000
      155 RE     5g1-       0.0000   -0.0000    0.0000    0.0000    0.0000    0.0000   -0.0000   -0.0000    0.0001   -0.0000
      156 RE     6g1-      -0.0000    0.0000   -0.0000   -0.0000    0.0000   -0.0000    0.0000    0.0000    0.0000   -0.0000
      157 RE     7g1-       0.0000   -0.0000    0.0000    0.0000   -0.0000    0.0000   -0.0000   -0.0000   -0.0000    0.0000
      158 RE     8g1-      -0.0000    0.0000   -0.0000   -0.0000   -0.0000    0.0000   -0.0000   -0.0000    0.0000   -0.0000
      159 RE     5g0        0.0000    0.0000    0.0000   -0.0000   -0.0000   -0.0000   -0.0000    0.0000    0.0000    0.0001
      160 RE     6g0       -0.0000   -0.0000   -0.0000    0.0000   -0.0000   -0.0000   -0.0000    0.0000    0.0000    0.0000
      161 RE     7g0        0.0000    0.0000    0.0000   -0.0000    0.0000    0.0000    0.0000   -0.0000   -0.0000   -0.0001
      162 RE     8g0       -0.0000   -0.0000   -0.0000    0.0000   -0.0000   -0.0000   -0.0000    0.0000    0.0000    0.0000
      163 RE     5g1+       0.0000    0.0000    0.0000   -0.0000    0.0000   -0.0000   -0.0000    0.0000    0.0000    0.0000
      164 RE     6g1+      -0.0000   -0.0000   -0.0000    0.0000    0.0000   -0.0000   -0.0000    0.0000    0.0000    0.0000
      165 RE     7g1+       0.0000    0.0000    0.0000   -0.0000   -0.0000    0.0000    0.0000   -0.0000   -0.0000   -0.0000
      166 RE     8g1+      -0.0000   -0.0000   -0.0000    0.0000   -0.0000   -0.0000   -0.0000   -0.0000   -0.0000   -0.0000
      167 RE     5g2+      -0.0000   -0.0000   -0.0000    0.0000    0.0000    0.0000    0.0000   -0.0000   -0.0000   -0.0001
      168 RE     6g2+       0.0000    0.0000    0.0000   -0.0000    0.0000    0.0000    0.0000   -0.0000   -0.0000   -0.0000
      169 RE     7g2+      -0.0000   -0.0000   -0.0000    0.0000   -0.0000   -0.0000   -0.0000    0.0000    0.0000    0.0001
      170 RE     8g2+       0.0000    0.0000    0.0000   -0.0000    0.0000   -0.0000   -0.0000   -0.0000   -0.0000   -0.0000
      171 RE     5g3+      -0.0000   -0.0000   -0.0000    0.0000    0.0000    0.0000    0.0000    0.0000   -0.0000   -0.0000
      172 RE     6g3+       0.0000    0.0000    0.0000   -0.0000    0.0000    0.0000    0.0000    0.0000   -0.0000   -0.0000
      173 RE     7g3+      -0.0000   -0.0000   -0.0000    0.0000    0.0000   -0.0000   -0.0000   -0.0000    0.0000    0.0000
      174 RE     8g3+       0.0000    0.0000    0.0000   -0.0000   -0.0000    0.0000    0.0000   -0.0000    0.0000    0.0000
      175 RE     5g4+      -0.0000   -0.0000   -0.0000    0.0000   -0.0000    0.0000    0.0000    0.0000   -0.0000   -0.0002
      176 RE     6g4+       0.0000    0.0000    0.0000   -0.0000   -0.0000    0.0000    0.0000    0.0000   -0.0000   -0.0000
      177 RE     7g4+      -0.0000   -0.0000   -0.0000    0.0000    0.0000   -0.0000   -0.0000   -0.0000    0.0000    0.0001
      178 RE     8g4+       0.0000    0.0000    0.0000   -0.0000   -0.0000   -0.0000   -0.0000    0.0000   -0.0000   -0.0000
      179 RE     6h5-      -0.0000    0.0000   -0.0000   -0.0000   -0.0000    0.0000   -0.0000    0.0000    0.0000   -0.0000
      180 RE     7h5-       0.0000   -0.0000   -0.0000   -0.0000    0.0000   -0.0000    0.0000   -0.0000    0.0000   -0.0000
      181 RE     6h4-       0.0000   -0.0000    0.0000    0.0000    0.0000   -0.0000    0.0000    0.0000    0.0001   -0.0000
      182 RE     7h4-       0.0000   -0.0000   -0.0000   -0.0000   -0.0000    0.0000   -0.0000   -0.0000    0.0000   -0.0000
      183 RE     6h3-       0.0000   -0.0000   -0.0000   -0.0000   -0.0000   -0.0000    0.0000    0.0000   -0.0000    0.0000
      184 RE     7h3-      -0.0000    0.0000    0.0000    0.0000   -0.0000    0.0000   -0.0000   -0.0000   -0.0000    0.0000
      185 RE     6h2-      -0.0000    0.0000   -0.0000   -0.0000    0.0000   -0.0000    0.0000    0.0000   -0.0000    0.0000
      186 RE     7h2-      -0.0000    0.0000    0.0000    0.0000   -0.0000   -0.0000    0.0000    0.0000   -0.0000    0.0000
      187 RE     6h1-      -0.0000    0.0000   -0.0000   -0.0000   -0.0000    0.0000   -0.0000    0.0000   -0.0000    0.0000
      188 RE     7h1-       0.0000   -0.0000    0.0000    0.0000    0.0000   -0.0000    0.0000   -0.0000    0.0000   -0.0000
[...]
         5   15       5.71251225E-03  1.54605275E-12  9.55552059E+07  1.59437358E-10  9.55552059E+07
         5   17       4.06730503E-01  6.77638820E+09  1.61303157E-10  1.02998042E+09  7.80636862E+09
         6    8       5.28942642E-03  5.50949459E-09  1.00223410E+07  2.65665617E-08  1.00223410E+07
         6   10       6.17858040E-03  1.92031041E+06  2.71495565E-08  9.79401618E+06  1.17143266E+07
         6   12       4.45867442E-02  3.57081470E-15  1.77324228E+08  9.31116964E-11  1.77324228E+08
         6   14       1.28088063E-02  1.20067585E+08  1.68392596E-10  9.18254892E+07  2.11893074E+08
         6   16       5.71251225E-03  1.54605275E-12  9.55552059E+07  1.59437358E-10  9.55552059E+07
         6   18       4.06730503E-01  6.77638820E+09  1.61303157E-10  1.02998042E+09  7.80636862E+09
         7   11       1.46105885E-03  1.03275303E+01  1.65296368E-09  5.57541295E+05  5.57551623E+05
         7   13       1.48882628E-02  8.66008381E-08  1.07794392E+08  2.94300072E-07  1.07794392E+08
         7   15       1.72964824E-02  3.11301501E+07  3.31888543E-07  9.62154802E+07  1.27345630E+08
         7   17       1.08556533E-02  1.52726610E-11  9.79919778E+07  2.70580799E-07  9.79919778E+07
         8   12       1.46105885E-03  1.03275303E+01  1.65296368E-09  5.57541295E+05  5.57551623E+05
         8   14       1.48882628E-02  8.66008381E-08  1.07794392E+08  2.94300072E-07  1.07794392E+08
         8   16       1.72964824E-02  3.11301501E+07  3.31888543E-07  9.62154802E+07  1.27345630E+08
         8   18       1.08556533E-02  1.52726610E-11  9.79919778E+07  2.70580799E-07  9.79919778E+07
         9   11       1.55231051E-03  1.90476514E-14  5.91559491E+05  1.55768889E-09  5.91559491E+05
         9   13       1.91074395E-02  3.02823343E+07  2.93459641E-07  1.08016172E+08  1.38298506E+08
         9   15       1.65532959E-02  8.90552567E-08  1.21835747E+08  2.63135379E-07  1.21835747E+08
         9   17       1.06074758E-02  6.07256578E+03  2.76014670E-07  9.57185763E+07  9.57246489E+07
        10   12       1.55231051E-03  1.90476514E-14  5.91559491E+05  1.55768889E-09  5.91559491E+05
        10   14       1.91074395E-02  3.02823343E+07  2.93459641E-07  1.08016172E+08  1.38298506E+08
        10   16       1.65532959E-02  8.90552567E-08  1.21835747E+08  2.63135379E-07  1.21835747E+08
        10   18       1.06074758E-02  6.07256578E+03  2.76014670E-07  9.57185763E+07  9.57246489E+07
        11   13       4.74386893E-02  7.10581213E-15  2.03864111E+08  8.00460548E-11  2.03864111E+08
        11   15       4.63544880E-02  6.39571739E+04  8.69644804E-11  2.03513599E+08  2.03577556E+08
        11   17       6.22169400E-02  2.45781846E-16  3.54415091E+08  4.18834366E-11  3.54415091E+08
        12   14       4.74386893E-02  7.10581213E-15  2.03864111E+08  8.00460548E-11  2.03864111E+08
        12   16       4.63544880E-02  6.39571739E+04  8.69644804E-11  2.03513599E+08  2.03577556E+08
        12   18       6.22169400E-02  2.45781846E-16  3.54415091E+08  4.18834366E-11  3.54415091E+08
        13   15       1.72630053E-02  7.58205488E-21  8.83974338E+03  1.17550579E-14  8.83974338E+03
        13   17       2.38020227E-03  5.13173286E+04  2.02562342E-14  1.82911433E+05  2.34228762E+05
        14   16       1.72630053E-02  7.58205488E-21  8.83974338E+03  1.17550579E-14  8.83974338E+03
        14   18       2.38020227E-03  5.13173286E+04  2.02562342E-14  1.82911433E+05  2.34228762E+05
        15   17       1.96570825E-03  3.99391788E-14  1.66538493E+05  2.58676929E-14  1.66538493E+05
        16   18       1.96570825E-03  3.99391788E-14  1.66538493E+05  2.58676929E-14  1.66538493E+05
     -----------------------------------------------------------------------------------------------
--

++ Velocity transition strengths (SO states):
   ------------------------------------------
    for osc. strength at least    1.0000000000000001E-005

      From   To        Osc. strength     Einstein coefficients Ax, Ay, Az (sec-1)    Total A (sec-1)
     -----------------------------------------------------------------------------------------------
         1    3       9.05117254E-02  1.31813256E+02  2.80942662E-11  5.23865721E+07  5.23867039E+07
         1    5       8.90524804E-02  1.12937371E-15  5.33900014E+07  2.95231319E-11  5.33900014E+07
         1    7       1.53882596E-03  1.49717296E+03  2.10308556E-08  7.11709466E+06  7.11859183E+06
         1    9       1.62741790E-03  3.13754841E-12  7.53139150E+06  1.99033465E-08  7.53139150E+06
         1   11       1.25080413E-02  9.58729456E+07  2.78304016E-14  4.68031398E+00  9.58729503E+07
         1   15       4.97596924E-05  1.17477785E+06  1.80670529E-13  2.56407186E+03  1.17734192E+06
         1   17       1.98905671E-01  4.16238220E-13  5.28630331E+09  6.04182858E-10  5.28630331E+09
         2    4       9.05117254E-02  1.31813256E+02  2.80942662E-11  5.23865721E+07  5.23867039E+07
         2    6       8.90524804E-02  1.12937371E-15  5.33900014E+07  2.95231319E-11  5.33900014E+07
         2    8       1.53882596E-03  1.49717296E+03  2.10308556E-08  7.11709466E+06  7.11859183E+06
         2   10       1.62741790E-03  3.13754841E-12  7.53139150E+06  1.99033465E-08  7.53139150E+06
         2   12       1.25080413E-02  9.58729456E+07  2.78304016E-14  4.68031398E+00  9.58729503E+07
         2   16       4.97596924E-05  1.17477785E+06  1.80670529E-13  2.56407186E+03  1.17734192E+06
         2   18       1.98905671E-01  4.16238220E-13  5.28630331E+09  6.04182858E-10  5.28630331E+09
         3    5       3.19383995E-04  3.59997956E-19  5.83595692E+01  4.32875833E-17  5.83595692E+01
         3    7       7.74792690E-03  1.09277075E+05  3.98322826E-08  1.48612017E+07  1.49704788E+07
         3    9       7.59469939E-03  3.13569684E-10  1.46833851E+07  4.04862488E-08  1.46833851E+07
         3   11       3.15688316E-02  7.11665578E+02  7.04268039E-11  1.27258722E+08  1.27259433E+08
         3   13       1.04534218E-02  9.29761771E-13  1.74080469E+08  3.28342408E-10  1.74080469E+08
         3   15       1.58646393E-02  9.83311692E+07  3.33433463E-10  1.68800246E+08  2.67131415E+08
         3   17       4.07878274E-02  6.39852256E-09  7.87680894E+08  1.30981049E-10  7.87680894E+08
         4    6       3.19383995E-04  3.59997956E-19  5.83595692E+01  4.32875833E-17  5.83595692E+01
         4    8       7.74792690E-03  1.09277075E+05  3.98322826E-08  1.48612017E+07  1.49704788E+07
         4   10       7.59469939E-03  3.13569684E-10  1.46833851E+07  4.04862488E-08  1.46833851E+07
         4   12       3.15688316E-02  7.11665578E+02  7.04268039E-11  1.27258722E+08  1.27259433E+08
         4   14       1.04534218E-02  9.29761771E-13  1.74080469E+08  3.28342408E-10  1.74080469E+08
         4   16       1.58646393E-02  9.83311692E+07  3.33433463E-10  1.68800246E+08  2.67131415E+08
         4   18       4.07878274E-02  6.39852256E-09  7.87680894E+08  1.30981049E-10  7.87680894E+08
         5    7       7.78001807E-03  3.84692205E-10  1.47415351E+07  3.97662850E-08  1.47415351E+07
         5    9       7.80096486E-03  1.33766513E+05  3.99555510E-08  1.46565837E+07  1.47903502E+07
         5   11       3.15514549E-02  4.02996488E-17  1.25482516E+08  6.72252988E-11  1.25482516E+08
         5   13       1.63340869E-02  9.70437716E+07  3.33938693E-10  1.73168130E+08  2.70211901E+08
         5   15       1.09516832E-02  1.64988354E-12  1.83193302E+08  3.18614955E-10  1.83193302E+08
         5   17       3.25738148E-01  5.47195157E+09  1.19116173E-10  7.79954498E+08  6.25190607E+09
         6    8       7.78001807E-03  3.84692205E-10  1.47415351E+07  3.97662850E-08  1.47415351E+07
         6   10       7.80096486E-03  1.33766513E+05  3.99555510E-08  1.46565837E+07  1.47903502E+07
         6   12       3.15514549E-02  4.02996488E-17  1.25482516E+08  6.72252988E-11  1.25482516E+08
         6   14       1.63340869E-02  9.70437716E+07  3.33938693E-10  1.73168130E+08  2.70211901E+08
         6   16       1.09516832E-02  1.64988354E-12  1.83193302E+08  3.18614955E-10  1.83193302E+08
         6   18       3.25738148E-01  5.47195157E+09  1.19116173E-10  7.79954498E+08  6.25190607E+09
         7   11       3.01386067E-03  1.74208069E+01  3.37251790E-09  1.15009967E+06  1.15011709E+06
         7   13       1.09763580E-02  1.08893142E-07  7.94715931E+07  2.17550953E-07  7.94715931E+07
         7   15       1.49001833E-02  3.88267820E+07  2.44827413E-07  7.08764391E+07  1.09703221E+08
         7   17       9.24380428E-03  2.19463480E-09  8.34424046E+07  2.29044367E-07  8.34424046E+07
         8   12       3.01386067E-03  1.74208069E+01  3.37251790E-09  1.15009967E+06  1.15011709E+06
         8   14       1.09763580E-02  1.08893142E-07  7.94715931E+07  2.17550953E-07  7.94715931E+07
         8   16       1.49001833E-02  3.88267820E+07  2.44827413E-07  7.08764391E+07  1.09703221E+08
         8   18       9.24380428E-03  2.19463480E-09  8.34424046E+07  2.29044367E-07  8.34424046E+07
         9   11       3.16102580E-03  3.88690750E-14  1.20461809E+06  3.20776961E-09  1.20461809E+06
         9   13       1.62674359E-02  3.80613323E+07  2.15975407E-07  7.96818068E+07  1.17743139E+08
         9   15       1.21874736E-02  1.11001911E-07  8.97026865E+07  1.93204450E-07  8.97026865E+07
         9   17       9.06307807E-03  7.90389149E+05  2.34925747E-07  8.09974932E+07  8.17878823E+07
        10   12       3.16102580E-03  3.88690750E-14  1.20461809E+06  3.20776961E-09  1.20461809E+06
        10   14       1.62674359E-02  3.80613323E+07  2.15975407E-07  7.96818068E+07  1.17743139E+08
        10   16       1.21874736E-02  1.11001911E-07  8.97026865E+07  1.93204450E-07  8.97026865E+07
        10   18       9.06307807E-03  7.90389149E+05  2.34925747E-07  8.09974932E+07  8.17878823E+07
        11   13       3.22541028E-02  1.11402056E-16  1.38610003E+08  5.22264322E-11  1.38610003E+08
        11   15       3.18523178E-02  1.03297992E+05  6.29236813E-11  1.39784765E+08  1.39888063E+08
        11   17       6.28504874E-02  9.93373402E-16  3.58025301E+08  4.40431956E-11  3.58025301E+08
        12   14       3.22541028E-02  1.11402056E-16  1.38610003E+08  5.22264322E-11  1.38610003E+08
        12   16       3.18523178E-02  1.03297992E+05  6.29236813E-11  1.39784765E+08  1.39888063E+08
        12   18       6.28504874E-02  9.93373402E-16  3.58025301E+08  4.40431956E-11  3.58025301E+08
        13   15       1.64029992E-04  1.67679332E-18  8.39939544E+01  1.30051331E-16  8.39939544E+01
        13   17       1.46142714E-01  1.46465553E+06  1.44340503E-12  1.29168727E+07  1.43815282E+07
        14   16       1.64029992E-04  1.67679332E-18  8.39939544E+01  1.30051331E-16  8.39939544E+01
        14   18       1.46142714E-01  1.46465553E+06  1.44340503E-12  1.29168727E+07  1.43815282E+07
        15   17       1.64349480E-01  1.17511832E-12  1.39240448E+07  1.29877473E-12  1.39240448E+07
        16   18       1.64349480E-01  1.17511832E-12  1.39240448E+07  1.29877473E-12  1.39240448E+07
     -----------------------------------------------------------------------------------------------
--

++ Length and velocity gauge comparison (SO states):

 --------------------------------------------------
 A comparison between the dipole oscillator strengths in 
 length and velocity gauge will be performed

 All dipole oscillator differences above the tolerance of   0.10000000000000001       will be printed 

 Due to basis set deficiency these oscillator may be problematic 

 The tolerance is defined as ABS(1-O_l/O_v) 
 O_l : dipole oscillator strength in length gauge
 O_p : dipole oscillator strength in velocity gauge
 --------------------------------------------------

  Problematic transitions have been found

      From   To       Difference (%) Osc. st. (len.) Osc. st. (vel.)
     ---------------------------------------------------------------
         1    3            57.445402  3.85169006E-02  9.05117254E-02
         1    5            56.841130  3.84340440E-02  8.90524804E-02
         1    7            73.686185  2.67272810E-03  1.53882596E-03
         1    9            72.853745  2.81305278E-03  1.62741790E-03
         1   11            52.767063  1.91081672E-02  1.25080413E-02
         1   13      ---------------  5.92835841E-04 below threshold
         1   15          1159.026211  6.26487570E-04  4.97596924E-05
         2    4            57.445402  3.85169006E-02  9.05117254E-02
         2    6            56.841130  3.84340440E-02  8.90524804E-02
         2    8            73.686185  2.67272810E-03  1.53882596E-03
         2   10            72.853745  2.81305278E-03  1.62741790E-03
         2   12            52.767063  1.91081672E-02  1.25080413E-02
         2   14      ---------------  5.92835841E-04 below threshold
         2   16          1159.026211  6.26487570E-04  4.97596924E-05
         3    5            49.143266  1.62428268E-04  3.19383995E-04
         3    7            19.944802  6.20261819E-03  7.74792690E-03
         3    9            31.787058  5.18056791E-03  7.59469939E-03
         3   11            42.590569  4.50141765E-02  3.15688316E-02
         3   13            46.369496  5.60622276E-03  1.04534218E-02
         3   15            18.279262  1.29647004E-02  1.58646393E-02
         3   17            32.512722  5.40490603E-02  4.07878274E-02
         4    6            49.143266  1.62428268E-04  3.19383995E-04
         4    8            19.944802  6.20261819E-03  7.74792690E-03
         4   10            31.787058  5.18056791E-03  7.59469939E-03
         4   12            42.590569  4.50141765E-02  3.15688316E-02
         4   14            46.369496  5.60622276E-03  1.04534218E-02
         4   16            18.279262  1.29647004E-02  1.58646393E-02
         4   18            32.512722  5.40490603E-02  4.07878274E-02
         5    7            32.012672  5.28942642E-03  7.78001807E-03
         5    9            20.797228  6.17858040E-03  7.80096486E-03
         5   11            41.314384  4.45867442E-02  3.15514549E-02
         5   13            21.582355  1.28088063E-02  1.63340869E-02
         5   15            47.838956  5.71251225E-03  1.09516832E-02
         5   17            24.864252  4.06730503E-01  3.25738148E-01
         6    8            32.012672  5.28942642E-03  7.78001807E-03
         6   10            20.797228  6.17858040E-03  7.80096486E-03
         6   12            41.314384  4.45867442E-02  3.15514549E-02
         6   14            21.582355  1.28088063E-02  1.63340869E-02
         6   16            47.838956  5.71251225E-03  1.09516832E-02
         6   18            24.864252  4.06730503E-01  3.25738148E-01
         7   11            51.522018  1.46105885E-03  3.01386067E-03
         7   13            35.639369  1.48882628E-02  1.09763580E-02
         7   15            16.082346  1.72964824E-02  1.49001833E-02
         7   17            17.437074  1.08556533E-02  9.24380428E-03
         8   12            51.522018  1.46105885E-03  3.01386067E-03
         8   14            35.639369  1.48882628E-02  1.09763580E-02
         8   16            16.082346  1.72964824E-02  1.49001833E-02
         8   18            17.437074  1.08556533E-02  9.24380428E-03
         9   11            50.892191  1.55231051E-03  3.16102580E-03
         9   13            17.458213  1.91074395E-02  1.62674359E-02
         9   15            35.822209  1.65532959E-02  1.21874736E-02
         9   17            17.040543  1.06074758E-02  9.06307807E-03
        10   12            50.892191  1.55231051E-03  3.16102580E-03
        10   14            17.458213  1.91074395E-02  1.62674359E-02
        10   16            35.822209  1.65532959E-02  1.21874736E-02
        10   18            17.040543  1.06074758E-02  9.06307807E-03
        11   13            47.078000  4.74386893E-02  3.22541028E-02
        11   15            45.529403  4.63544880E-02  3.18523178E-02
        12   14            47.078000  4.74386893E-02  3.22541028E-02
        12   16            45.529403  4.63544880E-02  3.18523178E-02
        13   15         10424.298066  1.72630053E-02  1.64029992E-04
        13   17            98.371317  2.38020227E-03  1.46142714E-01
        14   16         10424.298066  1.72630053E-02  1.64029992E-04
        14   18            98.371317  2.38020227E-03  1.46142714E-01
        15   17            98.803946  1.96570825E-03  1.64349480E-01
        16   18            98.803946  1.96570825E-03  1.64349480E-01
     ---------------------------------------------------------------

 Number of problematic transitions =                    66

--

 Electric-dipole - electric-octupole not included
++ I/O STATISTICS
 
  I. General I/O information
  - - - - - - - - - - - - - - - - - - - - - - - - - - - - - - - - - - - - - - - - - - -
  Unit  Name          Flsize      Write/Read            MBytes           Write/Read
                      (MBytes)       Calls              In/Out           Time, sec.
  - - - - - - - - - - - - - - - - - - - - - - - - - - - - - - - - - - - - - - - - - - -
   1  SCRATCH           0.00 .       9/      45 .      0.0/      0.0 .       0/       0
   2  ANNI              0.00 .       0/       0 .      0.0/      0.0 .       0/       0
   3  RUNFILE          15.31 .     322/   10733 .      2.3/     77.8 .       0/       0
   4  ONEINT            6.58 .       0/   28767 .      0.0/   3777.9 .       0/       0
   5  JOBIPH            7.71 .       0/      92 .      0.0/      0.9 .       0/       0
   6  ORDINT          771.03 .       1/    6169 .      0.0/   1542.0 .       0/       0
  - - - - - - - - - - - - - - - - - - - - - - - - - - - - - - - - - - - - - - - - - - -
   *  TOTAL           800.63 .     332/   45806 .      2.3/   5398.7 .       0/       0
  - - - - - - - - - - - - - - - - - - - - - - - - - - - - - - - - - - - - - - - - - - -
 
  II. I/O Access Patterns
  - - - - - - - - - - - - - - - - - - - -
  Unit  Name               % of random
                         Write/Read calls
  - - - - - - - - - - - - - - - - - - - -
   1  SCRATCH             88.9/ 100.0
   2  ANNI                 0.0/   0.0
   3  RUNFILE             28.6/  10.8
   4  ONEINT               0.0/  13.4
   5  JOBIPH               0.0/  76.1
   6  ORDINT             100.0/   0.0
  - - - - - - - - - - - - - - - - - - - -
--
--- Stop Module: rassi at Mon Mar 31 12:44:05 2025 /rc=_RC_ALL_IS_WELL_ ---
*** files: xmldump
    saved to directory /home4/s4752295/Internship/Initial_simulations/Point_charge_model/1_electron/Madelung_charges_9_active_space/Re/fixed_calculations
--- Module rassi spent 3 seconds ---

.##################.
.# Happy landing! #.
.##################.

    Timing: Wall=96.91 User=80.17 System=15.07

###############################################################################
Hbrk Cluster
Job 16049511 for user s4752295
Finished at: Mon Mar 31 12:44:09 CEST 2025

Job details:
============

Job ID                         : 16049511
Name                           : Re_no_SO
User                           : s4752295
Partition                      : regularshort
Nodes                          : node112
Number of Nodes                : 1
Cores                          : 1
Number of Tasks                : 1
State                          : COMPLETED  
Submit                         : 2025-03-31T12:41:14
Start                          : 2025-03-31T12:42:24
End                            : 2025-03-31T12:44:05
Reserved walltime              : 01:00:00
Used walltime                  : 00:01:41
Used CPU time                  : 00:01:36 (Efficiency: 95.42%)
% User (Computation)           : 84.11%
% System (I/O)                 : 15.88%
Total memory reserved          : 25000M
Maximum memory used            : 3.07G

Acknowledgements:
=================

Please see this page for information about acknowledging Hbrk in your publications:

https://wiki.hpc.rug.nl/habrok/introduction/scientific_output

################################################################################
