   This run of MOLCAS is using the pymolcas driver

                             OPE
                             OPE          NMOL  CASOP  ENMOLC A   SO
                 OPE        NMOLC        AS  OP EN  MO LC     AS  OP
                OPENM       OL CA        SO  PE NM  OL CA     SOP EN
                OP EN      MO   LC       AS  OP ENMOL  CASO   PENMOL
                OP  EN     MO   LC       AS  OP EN     MO     LC ASO
               OP   E  NMOL  C  AS       OP  EN MO     LC     AS  OP
               OP  E   NMO   LC AS        OPEN  MO     LCASOP EN   M
               O  PEN   MO  LCA  SO
            OPE   NMO   L   CAS    OP
        OPENMOL  CASOP     ENMOL   CASOPE
     OPENMOLCA   SOPENMOLCASOPEN   MOLCASOPE
    OPENMOLCAS   OP           EN   MOL    CAS
    OPENMOLCAS       OP  ENM        O     LCA
    OPENMOLCAS    OPEN  MOLCASO     P  E  NMO
    OPENMOLCAS     OP               E  N  MOL
    OPENMOLCA   SO           PENM   O  L  CAS    OPEN    MO    LCAS
    OPENMOLCA   SOP           ENM   O  L  CAS   OP  EN  MOLC  AS   O
    OPENMOLCA   SOPE           NM      O  LCA   S      OP  EN MO
    OPENMOLC                AS         O  PEN   M      OL  CA  SOPE
    OPENMO        LCASOPE  NMOL        C  ASO   P      ENMOLC     AS
    OPE     NMO      LCA  SO     P     E   NM   OL  CA SO  PE N   MO
          OPENMOLCA            SOPE   NMO        LCAS  O    P  ENMO
     OPENMOLCASOPENMOLCASOPENMOLCASOPENMOLCA
        OPENMOLCASOPENMOLCASOPENMOLCASOPE
            OPENMOLCASOPENMOLCASOPENM
               OPENMOLCASOPENMOLCA        version: o91e1abe7de707b ?
                   OPENMOLCASO
                       OPE                tag:

 OpenMolcas is free software; you can redistribute it and/or modify it
 under the terms of the GNU Lesser General Public License version 2.1.
 OpenMolcas is distributed in the hope that it will be useful, but it
 is provided "as is" and without any express or implied warranties.
 For more details see the full text of the license in the file
 LICENSE or in <http://www.gnu.org/licenses/>.

                 Copyright (C) The OpenMolcas Authors
           For the author list and the recommended citation,
                   consult the file CONTRIBUTORS.md

           *************************************************
           * pymolcas version py2.10                       *
           *   build 3068ae8b88c9345ec6cfef6fef7f1169      *
           *   (after the EMIL interpreter by V. Veryazov) *
           *************************************************

configuration info
------------------
Host name: login1 (Linux)
C Compiler ID: GNU
C flags: -std=gnu99
Fortran Compiler ID: GNU
Fortran flags: -fno-aggressive-loop-optimizations -cpp -fdefault-integer-8 -fmax-stack-var-size=1048576
Definitions: _MOLCAS_;_I8_;_LINUX_;_MKL_
Parallel: OFF (GA=OFF)


   ------------------------------------------------------------------------------------------------------------------------------------------------------
  |
  |           Project: tantalum_so_cf
  |    Submitted from: /home4/s4752295/Internship/Initial_simulations/Point_charge_model/1_electron/Madelung_charges_9_active_space/Ta/fixed_calculations
  |      Scratch area: /tmp/tantalum_so_cf
  |   Save outputs to: /home4/s4752295/Internship/Initial_simulations/Point_charge_model/1_electron/Madelung_charges_9_active_space/Ta/fixed_calculations
  |            Molcas: /home4/s4752295/Internship/Molcas/recomp_try/OpenMolcas-master/build
  |
  | Scratch area is empty
  |
  |    MOLCAS_DRIVER = /home4/s4752295/Internship/Molcas/bin/pymolcas
  |    MOLCAS_NPROCS = 1
  |    MOLCAS_SOURCE = /home4/s4752295/Internship/Molcas/recomp_try/OpenMolcas-master
  | MOLCAS_STRUCTURE = 0
  |
   ------------------------------------------------------------------------------------------------------------------------------------------------------

++ ---------   Input file   ---------

&SEWARD
AMFi

CLIG
$R

Basis Set
Ta.ANO-rcc.Roos.24s21p15d11f4g2h.11s10p9d8f4g2h.
Spherical d
Ta            -1.0658140267135469e-14   -3.5527134223784897e-15 0.008753588724385739
End of Basis

Xfield

414
-4.00220108,-1.54,0.889119      -0.625931
-4.00220108,-0.0,-1.778239      -0.625931
-4.00220108,1.54,0.889119       -0.625931
-3.99534607,0.0,0.0     1.892092
2.65917969,-1.54,-0.889119      2.515516
2.65917969,0.0,1.778239 2.515516
2.65917969,1.54,-0.889119       2.515516
3.56298828,-3.08,0.0    0.004632
3.56298828,-1.54,-2.667358      0.004632
3.56298828,-1.54,2.667358       0.004632
3.56298828,1.54,-2.667358       0.004632
3.56298828,1.54,2.667358        0.004632
3.56298828,3.08,0.0     0.004632
4.12915039,-1.54,0.889119       -2.519484
4.12915039,-0.0,-1.778239       -2.519484
4.12915039,1.54,0.889119        -2.519484
-2.93310547,-0.0,-0.0   -3.142907
-4.97509766,-3.08,-1.778239     -0.625931
-4.97509766,0.0,3.556477        -0.625931
-4.97509766,3.08,-1.778239      -0.625931
-6.609375,-3.08,0.0     1.892092
-6.609375,-1.54,-2.667358       1.892092
-6.609375,-1.54,2.667358        1.892092
-6.609375,1.54,-2.667358        1.892092
-6.609375,1.54,2.667358 1.892092
-6.609375,3.08,0.0      1.892092
25.171875,-3.08,1.778239        2.515516
25.171875,-0.0,-3.556477        2.515516
25.171875,3.08,1.778239 2.515516
3.63867188,-3.08,-1.778239      -2.519484
3.63867188,0.0,3.556477 -2.519484
3.63867188,3.08,-1.778239       -2.519484
-3.23242188,-3.08,-0.0  -3.142907
-3.23242188,-1.54,-2.667358     -3.142907
-3.23242188,-1.54,2.667358      -3.142907
-3.23242188,1.54,-2.667358      -3.142907
-3.23242188,1.54,2.667358       -3.142907
-3.23242188,3.08,-0.0   -3.142907
-9.5234375,-3.08,3.556477       -0.625931
-9.5234375,3.08,3.556477        -0.625931
-9.5234375,-4.62,0.889119       -0.625931
-9.5234375,4.62,0.889119        -0.625931
-9.5234375,-1.54,-4.445597      -0.625931
-9.5234375,1.54,-4.445597       -0.625931
6.0078125,-1.54,-0.889119       4.409069
6.0078125,1.54,-0.889119        4.409069
6.0078125,0.0,1.778239  4.409069
-175.25,-0.0,-0.0       -5.030367
-175.25,0.0,0.0 5.039632
13.51757812,-3.08,-3.556477     2.515516
13.51757812,3.08,-3.556477      2.515516
13.51757812,-4.62,-0.889119     2.515516
13.51757812,4.62,-0.889119      2.515516
13.51757812,-1.54,4.445597      2.515516
13.51757812,1.54,4.445597       2.515516
19.0390625,-4.62,-2.667358      0.004632
19.0390625,-4.62,2.667358       0.004632
19.0390625,4.62,-2.667358       0.004632
19.0390625,4.62,2.667358        0.004632
19.0390625,-0.0,-5.334716       0.004632
19.0390625,0.0,5.334716 0.004632
48.078125,-3.08,3.556477        -2.519484
48.078125,3.08,3.556477 -2.519484
48.078125,-4.62,0.889119        -2.519484
48.078125,4.62,0.889119 -2.519484
48.078125,-1.54,-4.445597       -2.519484
48.078125,1.54,-4.445597        -2.519484
-145.875,-4.62,-2.667358        1.892092
-145.875,-4.62,2.667358 1.892092
-145.875,4.62,-2.667358 1.892092
-145.875,4.62,2.667358  1.892092
-145.875,-0.0,-5.334716 1.892092
-145.875,0.0,5.334716   1.892092
-117.75,-3.08,1.778239  4.409069
-117.75,-0.0,-3.556477  4.409069
-117.75,3.08,1.778239   4.409069
-89.0,-3.08,-0.0        -5.030367
-89.0,-1.54,-2.667358   -5.030367
-89.0,-1.54,2.667358    -5.030367
-89.0,1.54,-2.667358    -5.030367
-89.0,-3.08,0.0 5.039632
-89.0,3.08,-0.0 -5.030367
-89.0,1.54,2.667358     -5.030367
-89.0,-1.54,-2.667358   5.039632
-89.0,-1.54,2.667358    5.039632
-89.0,1.54,-2.667358    5.039632
-89.0,3.08,0.0  5.039632
-89.0,1.54,2.667358     5.039632
-46.625,-1.54,-0.889119 -5.660931
-46.625,0.0,1.778239    -5.660931
-46.625,1.54,-0.889119  -5.660931
0.8828125,-6.159999,0.0 0.004632
0.8828125,-3.08,-5.334716       0.004632
0.8828125,-3.08,5.334716        0.004632
0.8828125,3.08,-5.334716        0.004632
0.8828125,6.159999,0.0  0.004632
0.8828125,3.08,5.334716 0.004632
67.9375,-4.62,2.667358  -3.142907
67.9375,-4.62,-2.667358 -3.142907
67.9375,4.62,-2.667358  -3.142907
67.9375,4.62,2.667358   -3.142907
67.9375,-0.0,-5.334716  -3.142907
67.9375,0.0,5.334716    -3.142907
86.375,-6.159999,-1.778239      -0.625931
86.375,-4.62,-4.445597  -0.625931
86.375,-1.54,6.223835   -0.625931
86.375,4.62,-4.445597   -0.625931
86.375,6.159999,-1.778239       -0.625931
86.375,1.54,6.223835    -0.625931
1.19726562,-6.159999,0.0        1.892092
1.19726562,-3.08,-5.334716      1.892092
1.19726562,-3.08,5.334716       1.892092
1.19726562,3.08,-5.334716       1.892092
1.19726562,6.159999,0.0 1.892092
1.19726562,3.08,5.334716        1.892092
33.84375,-3.08,-3.556477        4.409069
33.84375,3.08,-3.556477 4.409069
33.84375,-4.62,-0.889119        4.409069
33.84375,4.62,-0.889119 4.409069
33.84375,-1.54,4.445597 4.409069
33.84375,1.54,4.445597  4.409069
162.40625,-3.08,1.778239        -5.660931
162.40625,-0.0,-3.556477        -5.660931
162.40625,3.08,1.778239 -5.660931
0.34375,-6.159999,1.778239      2.515516
0.34375,-1.54,-6.223835 2.515516
0.34375,-4.62,4.445597  2.515516
0.34375,1.54,-6.223835  2.515516
0.34375,6.159999,1.778239       2.515516
0.34375,4.62,4.445597   2.515516
-94.1875,-6.159999,-1.778239    -2.519484
-94.1875,-4.62,-4.445597        -2.519484
-94.1875,-1.54,6.223835 -2.519484
-94.1875,4.62,-4.445597 -2.519484
-94.1875,1.54,6.223835  -2.519484
-94.1875,6.159999,-1.778239     -2.519484
-22.0703125,-6.159999,-0.0      -3.142907
-22.0703125,-3.08,-5.334716     -3.142907
-22.0703125,-3.08,5.334716      -3.142907
-22.0703125,3.08,-5.334716      -3.142907
-22.0703125,3.08,5.334716       -3.142907
-22.0703125,6.159999,-0.0       -3.142907
606.5,0.0,0.0   6.927092
323.25,-6.159999,3.556477       -0.625931
323.25,6.159999,3.556477        -0.625931
323.25,-0.0,-7.112955   -0.625931
-5.421875,-4.62,2.667358        -5.030367
-5.421875,-4.62,-2.667358       -5.030367
-5.421875,-4.62,2.667358        5.039632
-5.421875,-4.62,-2.667358       5.039632
-5.421875,4.62,-2.667358        -5.030367
-5.421875,4.62,2.667358 -5.030367
-5.421875,4.62,-2.667358        5.039632
-5.421875,4.62,2.667358 5.039632
-5.421875,-0.0,-5.334716        -5.030367
-5.421875,0.0,5.334716  -5.030367
-5.421875,-0.0,-5.334716        5.039632
-5.421875,0.0,5.334716  5.039632
91.8125,-3.08,-3.556477 -5.660931
91.8125,3.08,-3.556477  -5.660931
91.8125,-4.62,-0.889119 -5.660931
91.8125,4.62,-0.889119  -5.660931
91.8125,-1.54,4.445597  -5.660931
91.8125,1.54,4.445597   -5.660931
300.5,-6.159999,-3.556477       2.515516
300.5,6.159999,-3.556477        2.515516
300.5,0.0,7.112955      2.515516
-517.25,-6.159999,3.556477      -2.519484
-517.25,6.159999,3.556477       -2.519484
-517.25,-0.0,-7.112955  -2.519484
53.5625,-3.08,0.0       6.927092
53.5625,-1.54,-2.667358 6.927092
53.5625,-1.54,2.667358  6.927092
53.5625,1.54,-2.667358  6.927092
53.5625,1.54,2.667358   6.927092
53.5625,3.08,0.0        6.927092
-55.25,-1.54,0.889119   7.550516
-55.25,0.0,-1.778239    7.550516
-55.25,1.54,0.889119    7.550516
15.53125,-1.54,-0.889119        -7.554483
15.53125,1.54,-0.889119 -7.554483
15.53125,-0.0,1.778239  -7.554483
-124.875,-7.699999,0.889119     -0.625931
-124.875,-4.62,6.223835 -0.625931
-124.875,-3.08,-7.112955        -0.625931
-124.875,3.08,-7.112955 -0.625931
-124.875,7.699999,0.889119      -0.625931
-124.875,4.62,6.223835  -0.625931
-67.4375,-6.159999,1.778239     4.409069
-67.4375,-4.62,4.445597 4.409069
-67.4375,-1.54,-6.223835        4.409069
-67.4375,1.54,-6.223835 4.409069
-67.4375,4.62,4.445597  4.409069
-67.4375,6.159999,1.778239      4.409069
49.15625,-6.159999,-0.0 -5.030367
49.15625,-3.08,-5.334716        -5.030367
49.15625,-3.08,5.334716 -5.030367
49.15625,-6.159999,0.0  5.039632
49.15625,-3.08,-5.334716        5.039632
49.15625,3.08,-5.334716 -5.030367
49.15625,3.08,5.334716  -5.030367
49.15625,6.159999,-0.0  -5.030367
49.15625,-3.08,5.334716 5.039632
49.15625,3.08,-5.334716 5.039632
49.15625,6.159999,0.0   5.039632
49.15625,3.08,5.334716  5.039632
180.75,-7.699999,-0.889119      2.515516
180.75,-4.62,-6.223835  2.515516
180.75,-3.08,7.112955   2.515516
180.75,4.62,-6.223835   2.515516
180.75,7.699999,-0.889119       2.515516
180.75,3.08,7.112955    2.515516
-23.34375,-7.699999,-2.667358   0.004632
-23.34375,-7.699999,2.667358    0.004632
-23.34375,-6.159999,-5.334716   0.004632
-23.34375,-6.159999,5.334716    0.004632
-23.34375,-1.54,-8.002074       0.004632
-23.34375,1.54,-8.002074        0.004632
-23.34375,-1.54,8.002074        0.004632
-23.34375,6.159999,-5.334716    0.004632
-23.34375,1.54,8.002074 0.004632
-23.34375,7.699999,-2.667358    0.004632
-23.34375,7.699999,2.667358     0.004632
-23.34375,6.159999,5.334716     0.004632
-143.125,-7.699999,0.889119     -2.519484
-143.125,-4.62,6.223835 -2.519484
-143.125,-3.08,-7.112955        -2.519484
-143.125,3.08,-7.112955 -2.519484
-143.125,7.699999,0.889119      -2.519484
-143.125,4.62,6.223835  -2.519484
3032.0,-0.0,-0.0        -8.177907
-116.0,-3.08,-1.778239  7.550516
-116.0,0.0,3.556477     7.550516
-116.0,3.08,-1.778239   7.550516
-603.5,-3.08,1.778239   -7.554483
-603.5,-0.0,-3.556477   -7.554483
-603.5,3.08,1.778239    -7.554483
48.90625,-7.699999,2.667358     1.892092
48.90625,-7.699999,-2.667358    1.892092
48.90625,-6.159999,-5.334716    1.892092
48.90625,-6.159999,5.334716     1.892092
48.90625,-1.54,-8.002074        1.892092
48.90625,1.54,-8.002074 1.892092
48.90625,-1.54,8.002074 1.892092
48.90625,6.159999,-5.334716     1.892092
48.90625,1.54,8.002074  1.892092
48.90625,7.699999,-2.667358     1.892092
48.90625,7.699999,2.667358      1.892092
48.90625,6.159999,5.334716      1.892092
-505.0,-6.159999,-3.556477      4.409069
-505.0,6.159999,-3.556477       4.409069
-505.0,0.0,7.112955     4.409069
25.8203125,-6.159999,1.778239   -5.660931
25.8203125,-1.54,-6.223835      -5.660931
25.8203125,-4.62,4.445597       -5.660931
25.8203125,1.54,-6.223835       -5.660931
25.8203125,4.62,4.445597        -5.660931
25.8203125,6.159999,1.778239    -5.660931
-58.1875,-6.159999,-5.334716    -3.142907
-58.1875,-7.699999,2.667358     -3.142907
-58.1875,-7.699999,-2.667358    -3.142907
-58.1875,-6.159999,5.334716     -3.142907
-58.1875,-1.54,-8.002074        -3.142907
-58.1875,1.54,-8.002074 -3.142907
-58.1875,-1.54,8.002074 -3.142907
-58.1875,7.699999,-2.667358     -3.142907
-58.1875,6.159999,-5.334716     -3.142907
-58.1875,1.54,8.002074  -3.142907
-58.1875,7.699999,2.667358      -3.142907
-58.1875,6.159999,5.334716      -3.142907
65.40625,-4.62,-2.667358        6.927092
65.40625,-4.62,2.667358 6.927092
65.40625,4.62,-2.667358 6.927092
65.40625,4.62,2.667358  6.927092
65.40625,-0.0,-5.334716 6.927092
65.40625,0.0,5.334716   6.927092
-83.25,-3.08,-0.0       -8.177907
-83.25,-1.54,2.667358   -8.177907
-83.25,-1.54,-2.667358  -8.177907
-83.25,1.54,-2.667358   -8.177907
-83.25,3.08,-0.0        -8.177907
-83.25,1.54,2.667358    -8.177907
-90.90625,-3.08,3.556477        7.550516
-90.90625,3.08,3.556477 7.550516
-90.90625,-4.62,0.889119        7.550516
-90.90625,4.62,0.889119 7.550516
-90.90625,-1.54,-4.445597       7.550516
-90.90625,1.54,-4.445597        7.550516
-45.6875,-3.08,-3.556477        -7.554483
-45.6875,3.08,-3.556477 -7.554483
-45.6875,-4.62,-0.889119        -7.554483
-45.6875,4.62,-0.889119 -7.554483
-45.6875,-1.54,4.445597 -7.554483
-45.6875,1.54,4.445597  -7.554483
-500.25,0.0,8.891193    -0.625931
-500.25,-7.699999,-4.445597     -0.625931
-500.25,7.699999,-4.445597      -0.625931
-269.75,-7.699999,-0.889119     4.409069
-269.75,-4.62,-6.223835 4.409069
-269.75,-3.08,7.112955  4.409069
-269.75,4.62,-6.223835  4.409069
-269.75,7.699999,-0.889119      4.409069
-269.75,3.08,7.112955   4.409069
310.375,-6.159999,-3.556477     -5.660931
310.375,6.159999,-3.556477      -5.660931
310.375,0.0,7.112955    -5.660931
587.0,-0.0,-8.891193    2.515516
587.0,-7.699999,4.445597        2.515516
587.0,7.699999,4.445597 2.515516
-93.875,-9.239999,-0.0  0.004632
-93.875,4.62,-8.002074  0.004632
-93.875,-4.62,8.002074  0.004632
-93.875,9.239999,-0.0   0.004632
-93.875,-4.62,-8.002074 0.004632
-93.875,4.62,8.002074   0.004632
-385.75,0.0,8.891193    -2.519484
-385.75,-7.699999,-4.445597     -2.519484
-385.75,7.699999,-4.445597      -2.519484
228.0,-6.159999,0.0     6.927092
228.0,-3.08,-5.334716   6.927092
228.0,-3.08,5.334716    6.927092
228.0,3.08,-5.334716    6.927092
228.0,6.159999,0.0      6.927092
228.0,3.08,5.334716     6.927092
211.875,-9.239999,-1.778239     -0.625931
211.875,-3.08,8.891193  -0.625931
211.875,-6.159999,-7.112955     -0.625931
211.875,6.159999,-7.112955      -0.625931
211.875,3.08,8.891193   -0.625931
211.875,9.239999,-1.778239      -0.625931
111.9375,-9.239999,0.0  1.892092
111.9375,-4.62,-8.002074        1.892092
111.9375,-4.62,8.002074 1.892092
111.9375,4.62,-8.002074 1.892092
111.9375,9.239999,0.0   1.892092
111.9375,4.62,8.002074  1.892092
-4.3203125,-7.699999,2.667358   -5.030367
-4.3203125,-7.699999,-2.667358  -5.030367
-4.3203125,-6.159999,-5.334716  -5.030367
-4.3203125,-6.159999,5.334716   -5.030367
-4.3203125,-7.699999,2.667358   5.039632
-4.3203125,1.54,-8.002074       -5.030367
-4.3203125,-1.54,-8.002074      -5.030367
-4.3203125,-7.699999,-2.667358  5.039632
-4.3203125,-6.159999,-5.334716  5.039632
-4.3203125,-1.54,8.002074       -5.030367
-4.3203125,1.54,-8.002074       5.039632
-4.3203125,-6.159999,5.334716   5.039632
-4.3203125,-1.54,-8.002074      5.039632
-4.3203125,6.159999,-5.334716   -5.030367
-4.3203125,1.54,8.002074        -5.030367
-4.3203125,7.699999,-2.667358   -5.030367
-4.3203125,7.699999,2.667358    -5.030367
-4.3203125,6.159999,5.334716    -5.030367
-4.3203125,-1.54,8.002074       5.039632
-4.3203125,6.159999,-5.334716   5.039632
-4.3203125,7.699999,-2.667358   5.039632
-4.3203125,1.54,8.002074        5.039632
-4.3203125,7.699999,2.667358    5.039632
-4.3203125,6.159999,5.334716    5.039632
-0.6875,-7.699999,-0.889119     -5.660931
-0.6875,-4.62,-6.223835 -5.660931
-0.6875,-3.08,7.112955  -5.660931
-0.6875,4.62,-6.223835  -5.660931
-0.6875,3.08,7.112955   -5.660931
-0.6875,7.699999,-0.889119      -5.660931
116.0,-1.54,0.889119    9.444068
116.0,0.0,-1.778239     9.444068
116.0,1.54,0.889119     9.444068
51.3125,-9.239999,1.778239      2.515516
51.3125,-3.08,-8.891193 2.515516
51.3125,3.08,-8.891193  2.515516
51.3125,-6.159999,7.112955      2.515516
51.3125,9.239999,1.778239       2.515516
51.3125,6.159999,7.112955       2.515516
156.875,-9.239999,-1.778239     -2.519484
156.875,-3.08,8.891193  -2.519484
156.875,-6.159999,-7.112955     -2.519484
156.875,6.159999,-7.112955      -2.519484
156.875,9.239999,-1.778239      -2.519484
156.875,3.08,8.891193   -2.519484
219.625,-9.239999,-0.0  -3.142907
219.625,-4.62,-8.002074 -3.142907
219.625,-4.62,8.002074  -3.142907
219.625,4.62,-8.002074  -3.142907
219.625,9.239999,-0.0   -3.142907
219.625,4.62,8.002074   -3.142907
8.64550781,-4.62,-2.667358      -8.177907
8.64550781,-4.62,2.667358       -8.177907
8.64550781,4.62,2.667358        -8.177907
8.64550781,4.62,-2.667358       -8.177907
8.64550781,-0.0,-5.334716       -8.177907
8.64550781,0.0,5.334716 -8.177907
251.875,-4.62,-4.445597 7.550516
251.875,-6.159999,-1.778239     7.550516
251.875,-1.54,6.223835  7.550516
251.875,4.62,-4.445597  7.550516
251.875,1.54,6.223835   7.550516
251.875,6.159999,-1.778239      7.550516
-348.0,-4.62,4.445597   -7.554483
-348.0,-6.159999,1.778239       -7.554483
-348.0,-1.54,-6.223835  -7.554483
-348.0,1.54,-6.223835   -7.554483
-348.0,6.159999,1.778239        -7.554483
-348.0,4.62,4.445597    -7.554483
71.265625,-7.699999,6.223835    -0.625931
71.265625,-9.239999,3.556477    -0.625931
71.265625,-1.54,-9.780313       -0.625931
71.265625,1.54,-9.780313        -0.625931
71.265625,9.239999,3.556477     -0.625931
71.265625,7.699999,6.223835     -0.625931
-483.75,-0.0,-8.891193  4.409069
-483.75,-7.699999,4.445597      4.409069
-483.75,7.699999,4.445597       4.409069

End of input

&SCF
Occupied
34
Iterations
   50  100
End of Input

&RASSCF
LumOrb
Symmetry
1
Spin
2
Nactel
1 0 0
CIRoot
9 9 1
inactive
34
ras2
9
Alter
4
1 35 40
1 36 41
1 37 42
1 38 43
End of Input

>>> COPY tantalum_so_cf.JobIph $SLURM_SUBMIT_DIR/tantalum_so_cf.doublet.JobIph

>>> COPY $SLURM_SUBMIT_DIR/tantalum_so_cf.doublet.JobIph ./JOB002

&RASSI
NROFJobIph
1 All
SpinOrbit
End of Input

EOF

-- ----------------------------------

--- Start Module: seward at Mon Mar 31 12:42:28 2025 ---

()()()()()()()()()()()()()()()()()()()()()()()()()()()()()()()()()()()()()()()()()()()()()()()()()()

                                              &SEWARD

                                   only a single process is used
                       available to each process: 4.1 GB of memory, 1 thread?
                                            pid: 3840564
()()()()()()()()()()()()()()()()()()()()()()()()()()()()()()()()()()()()()()()()()()()()()()()()()()

 The speed of LIGHT in this CALCULATION =   137.03599917700001     
               SEWARD will generate:
                  Multipole Moment integrals up to order  2
                  Kinetic Energy integrals
                  Nuclear Attraction integrals (point charge)
                  One-Electron Hamiltonian integrals
                  Velocity integrals
                  Relativistic Douglas-Kroll-Hess integrals:
                    - Parametrization         : EXP
                    - DKH order of Hamiltonian: 2
                    - DKH order of Properties : 0
                         - multipole moment operators
                         - electric potential operators
                         - contact operators
                  External field from   414 point(s) added to the one-electron Hamiltonian
                  Orbital angular momentum around (-0.0000 -0.0000  0.0088 )
                  Velocity quadrupole around (-0.0000 -0.0000  0.0088 )
                  Atomic mean-field integrals
                  Two-Electron Repulsion integrals

                   Integrals are discarded if absolute value <: 0.10E-13
                   Integral cutoff threshold is set to       <: 0.10E-15

++    Symmetry information:
      ---------------------

                    Character Table for C1 

                             E  
                    a        1  x, y, xy, Rz, z, xz, Ry, yz, Rx, I
--


++    Basis set information:
      ----------------------


      Basis set label: TA.ANO-RCC.ROOS.24S21P15D11F4G2H.11S10P9D8F4G2H......

      Electronic valence basis set:
      ------------------
      Associated Effective Charge  73.000000 au
      Associated Actual Charge     73.000000 au
      Nuclear Model: Point charge

      Shell  nPrim  nBasis  Cartesian Spherical Contaminant
         s      24      11        X                  
         p      21      10        X                  
         d      15       9                 X         
         f      11       8                 X         
         g       4       4                 X         
         h       2       2                 X         
--


++    Molecular structure info:
      -------------------------

                    ************************************************ 
                    **** Cartesian Coordinates / Bohr, Angstrom **** 
                    ************************************************ 

     Center  Label                x              y              z                     x              y              z
        1      TA              -0.000000      -0.000000       0.008754             -0.000000      -0.000000       0.004632
--


++    Operator info:
      --------------


  Net charge from external field:   -39.268449999999902     
--


            Nuclear Potential Energy              0.00000000 au

                    Nuclear-External Field Potential Energy    -667.87458597 au
                    External Field Potential Energy            1605.63690139 au 


            Total Nuclear Potential Energy           -667.87458597 au


      Basis set specifications :
      Symmetry species         a  
      Basis functions          200

 Sorry, Molden does not know how to handle
 functions with angular momentum larger than g
Note: The following floating-point exceptions are signalling: IEEE_UNDERFLOW_FLAG IEEE_DENORMAL
--- Stop Module: seward at Mon Mar 31 12:42:49 2025 /rc=_RC_ALL_IS_WELL_ ---
*** files: tantalum_so_cf.GssOrb xmldump
    saved to directory /home4/s4752295/Internship/Initial_simulations/Point_charge_model/1_electron/Madelung_charges_9_active_space/Ta/fixed_calculations
--- Module seward spent 21 seconds ---

*** symbolic link created: INPORB -> tantalum_so_cf.GssOrb
--- Start Module: scf at Mon Mar 31 12:42:49 2025 ---

()()()()()()()()()()()()()()()()()()()()()()()()()()()()()()()()()()()()()()()()()()()()()()()()()()

                                                &SCF

                                   only a single process is used
                       available to each process: 4.1 GB of memory, 1 thread?
                                            pid: 3841541
()()()()()()()()()()()()()()()()()()()()()()()()()()()()()()()()()()()()()()()()()()()()()()()()()()

++    Input section:
      --------------

      Header of the integral files:
      
       Integrals generated by seward 4.2.0  , Mon Mar 31 12:42:28 2025


      Cartesian coordinates in Angstrom:
      -----------------------------------------------------
      No.  Label        X            Y            Z        
      -----------------------------------------------------
       1   TA        -0.00000000  -0.00000000   0.00463220
      -----------------------------------------------------
      Nuclear repulsion energy = -667.87458597
--

++    Orbital specifications:
      -----------------------

      Symmetry species               1
                                     a
      Frozen orbitals                0
      Occupied orbitals             34
      Secondary orbitals           166
      Deleted orbitals               0
      Total number of orbitals     200
      Number of basis functions    200
--

      Molecular charge                           5.000

++    Optimization specifications:
      ----------------------------

      SCF Algorithm: Conventional
      Minimized density differences are used
      Number of density matrices in core                5
      Maximum number of NDDO SCF iterations            50
      Maximum number of HF SCF iterations             100
      Threshold for SCF energy change            0.10E-08
      Threshold for density matrix               0.10E-03
      Threshold for Fock matrix                  0.15E-03
      Threshold for linear dependence            0.10E-08
      Threshold at which DIIS is turned on       0.15E+00
      Threshold at which QNR/C2DIIS is turned on 0.75E-01
      Threshold for Norm(delta) (QNR/C2DIIS)     0.20E-04
      DIIS extrapolation of the SCF procedure
      All orbitals punched on: SCFORB
--

      Detected guessorb starting orbitals                                             


++ Convergence information
                                   SCF        iterations: Energy and convergence statistics

Iter     Tot. SCF        One-elec.       Two-elec.     Energy      Max Dij or  Max Fij      DNorm      TNorm      AccCon     Time
         Energy          Energy          Energy        Change      Delta Norm                                                in Sec.

 The total and one-electron energies are shifted by a value of     15000. a.u.

   1  -630.962509745 -5615.837462513  5652.749538740   0.00E+00    0.42E+00*   0.73E+00*    0.12E+02   0.15E+04   None         1.
   2  -632.236598253 -5612.388343395  5648.026331113  -0.13E+01*   0.12E+00*   0.24E+00*    0.24E+01   0.15E+04   EDIIS        1.
   3  -632.387082217 -5629.136413364  5664.623917119  -0.15E+00*   0.70E-01*   0.11E+00*    0.55E+00   0.15E+04   EDIIS        1.
   4  -632.432017966 -5606.199773329  5641.642341335  -0.45E-01*   0.25E-01*   0.49E-01*    0.16E+00   0.15E+04   EDIIS        1.
   5  -632.447661378 -5628.276601998  5663.703526592  -0.16E-01*   0.60E-02*   0.26E-01*    0.61E-01   0.15E+04   c2DIIS       1.
   6  -632.457743355 -5616.338972868  5651.755815485  -0.10E-01*   0.11E-01*   0.12E-01*    0.84E-02   0.15E+04   QNRc2DIIS    1.
   7  -632.457590174 -5621.215420169  5656.632415967   0.15E-03*   0.61E-02*   0.14E-01*    0.20E-02   0.15E+04   QNRc2DIIS    1.
   8  -632.458361398 -5618.501864921  5653.918089495  -0.77E-03*   0.67E-03*   0.12E-02*    0.42E-03   0.15E+04   QNRc2DIIS    1.
   9  -632.458366115 -5618.550531198  5653.966751055  -0.47E-05*   0.21E-03*   0.12E-03     0.56E-04   0.15E+04   QNRc2DIIS    1.
  10  -632.458366202 -5618.547492898  5653.963712668  -0.87E-07*   0.90E-05    0.93E-05     0.15E-03   0.15E+04   QNRc2DIIS    1.
  11  -632.458366203 -5618.548537362  5653.964757131  -0.39E-09    0.24E-05    0.12E-05     0.32E-03   0.15E+04   QNRc2DIIS    1.

       Convergence after 11 Macro Iterations
--

 *****************************************************************************************************************************
 *                                                                                                                           *
 *                                             SCF/KS-DFT Program, Final results                                             *
 *                                                                                                                           *
 *                                                                                                                           *
 *                                                                                                                           *
 *                                                       Final Results                                                       *
 *                                                                                                                           *
 *****************************************************************************************************************************

::    Total SCF energy                             -15632.4583662028
      One-electron energy                          -20618.5485373618
      Two-electron energy                            5653.9647571309
      Nuclear repulsion energy                       -667.8745859718
      Kinetic energy (interpolated)                 21651.0736103485
      Virial theorem                                    0.7220176998
      Total spin, S(S+1)                                0.0000000000
      Total spin, S                                     0.0000000000
      Max non-diagonal density matrix element           0.0000026505
      Max non-diagonal Fock matrix element              0.0000005659


      All orbitals with orbital energies smaller than  E(LUMO)+0.5 are printed

++    Molecular orbitals:
      -------------------

      Title: SCF orbitals

      Molecular orbitals for symmetry species 1: a  

          Some orbital energies have been scaled by powers of 10, the power is written right after the orbital index


          Orbital            1 (1)     2         3         4         5         6         7         8         9        10    
          Energy         -247.9163 -425.7717 -373.6799 -373.6771 -373.6771  -94.5911  -78.7076  -78.7067  -78.7067  -59.4497
          Occ. No.          2.0000    2.0000    2.0000    2.0000    2.0000    2.0000    2.0000    2.0000    2.0000    2.0000

        1 TA     1s         1.0000    0.0000   -0.0000    0.0000    0.0000   -0.0000    0.0000    0.0000   -0.0000   -0.0000
        2 TA     2s        -0.0000    1.0000   -0.0001    0.0000    0.0000    0.0000   -0.0000   -0.0000    0.0000   -0.0000
        3 TA     3s         0.0000   -0.0000    0.0000    0.0000   -0.0000    1.0000   -0.0023   -0.0000    0.0000   -0.0000
        4 TA     4s        -0.0000    0.0000   -0.0000   -0.0000    0.0000   -0.0001    0.0002    0.0000   -0.0000    0.0001
        5 TA     5s         0.0000   -0.0000    0.0000    0.0000    0.0000    0.0000   -0.0001   -0.0000   -0.0000   -0.0001
        6 TA     6s        -0.0000    0.0000   -0.0000   -0.0000   -0.0000   -0.0000    0.0000    0.0000    0.0000    0.0000
        7 TA     7s         0.0000   -0.0000    0.0000    0.0000   -0.0000    0.0000   -0.0000   -0.0000    0.0000   -0.0000
        8 TA     8s        -0.0000    0.0000   -0.0000   -0.0000   -0.0000   -0.0000    0.0001    0.0000    0.0000    0.0000
        9 TA     9s         0.0000   -0.0000    0.0000    0.0000    0.0000    0.0000   -0.0001   -0.0000   -0.0000   -0.0000
       10 TA    10s        -0.0000    0.0000   -0.0000   -0.0000   -0.0000   -0.0000    0.0000    0.0000    0.0000    0.0000
       11 TA    11s         0.0000   -0.0000    0.0000    0.0000   -0.0000    0.0000   -0.0001   -0.0000    0.0000   -0.0000
       12 TA     2px        0.0000    0.0001    1.0000   -0.0007   -0.0000   -0.0000    0.0000    0.0000   -0.0000   -0.0000
       13 TA     3px       -0.0000    0.0000   -0.0000    0.0000    0.0000    0.0023    1.0000    0.0018   -0.0000   -0.0017
       14 TA     4px        0.0000   -0.0000    0.0000   -0.0000   -0.0000    0.0001   -0.0000   -0.0000    0.0000    0.0001
       15 TA     5px       -0.0000    0.0000   -0.0000    0.0000    0.0000   -0.0001    0.0000    0.0000    0.0000    0.0000
       16 TA     6px        0.0000   -0.0000    0.0000   -0.0000    0.0000    0.0000   -0.0000   -0.0000   -0.0000   -0.0000
       17 TA     7px       -0.0000    0.0000   -0.0000    0.0000    0.0000   -0.0001    0.0000    0.0000   -0.0000   -0.0000
       18 TA     8px        0.0000   -0.0000    0.0000   -0.0000    0.0000    0.0001   -0.0000   -0.0000    0.0000    0.0000
       19 TA     9px       -0.0000    0.0000   -0.0000    0.0000    0.0000   -0.0001    0.0000    0.0000   -0.0000   -0.0000
       20 TA    10px        0.0000   -0.0000    0.0000   -0.0000   -0.0000    0.0001   -0.0000   -0.0000    0.0000    0.0000
       21 TA    11px       -0.0000    0.0000   -0.0000    0.0000    0.0000   -0.0001    0.0000    0.0000   -0.0000   -0.0000
       22 TA     2py       -0.0000    0.0000    0.0000   -0.0000    1.0000    0.0000    0.0000   -0.0000    0.0000    0.0000
       23 TA     3py       -0.0000    0.0000   -0.0000    0.0000   -0.0000    0.0000    0.0000   -0.0000    1.0000   -0.0000
       24 TA     4py       -0.0000   -0.0000    0.0000   -0.0000    0.0000   -0.0000   -0.0000    0.0000   -0.0001    0.0000
       25 TA     5py       -0.0000    0.0000   -0.0000    0.0000   -0.0000    0.0000    0.0000   -0.0000    0.0000    0.0000
       26 TA     6py        0.0000   -0.0000    0.0000   -0.0000    0.0000   -0.0000   -0.0000    0.0000   -0.0000   -0.0000
       27 TA     7py        0.0000    0.0000   -0.0000    0.0000   -0.0000    0.0000    0.0000   -0.0000    0.0000   -0.0000
       28 TA     8py       -0.0000   -0.0000    0.0000   -0.0000    0.0000   -0.0000   -0.0000    0.0000   -0.0000   -0.0000
       29 TA     9py        0.0000    0.0000   -0.0000    0.0000   -0.0000    0.0000    0.0000   -0.0000    0.0000   -0.0000
       30 TA    10py       -0.0000   -0.0000    0.0000   -0.0000    0.0000   -0.0000   -0.0000    0.0000   -0.0000    0.0000
       31 TA    11py        0.0000    0.0000   -0.0000    0.0000   -0.0000    0.0000    0.0000   -0.0000    0.0000    0.0000
       32 TA     2pz       -0.0000    0.0000    0.0007    1.0000    0.0000   -0.0000   -0.0000    0.0000    0.0000    0.0000
       33 TA     3pz       -0.0000    0.0000   -0.0000   -0.0000   -0.0000    0.0000   -0.0018    1.0000    0.0000    0.0000
       34 TA     4pz        0.0000   -0.0000    0.0000    0.0000    0.0000    0.0000    0.0000   -0.0001   -0.0000   -0.0000
       35 TA     5pz       -0.0000    0.0000   -0.0000   -0.0000   -0.0000   -0.0000   -0.0000    0.0000    0.0000   -0.0000
       36 TA     6pz        0.0000   -0.0000    0.0000    0.0000    0.0000    0.0000    0.0000   -0.0000   -0.0000    0.0000
       37 TA     7pz       -0.0000    0.0000   -0.0000   -0.0000   -0.0000   -0.0000   -0.0000    0.0000    0.0000    0.0000
       38 TA     8pz        0.0000   -0.0000    0.0000    0.0000    0.0000    0.0000    0.0000   -0.0000   -0.0000   -0.0000
       39 TA     9pz       -0.0000    0.0000   -0.0000   -0.0000   -0.0000   -0.0000   -0.0000    0.0000    0.0000    0.0000
       40 TA    10pz        0.0000   -0.0000    0.0000    0.0000    0.0000    0.0000    0.0000   -0.0000   -0.0000   -0.0000
       41 TA    11pz       -0.0000    0.0000   -0.0000   -0.0000   -0.0000   -0.0000   -0.0000    0.0000    0.0000    0.0000
       42 TA     3d2-       0.0000   -0.0000    0.0000   -0.0000    0.0000   -0.0000    0.0000   -0.0000    0.0014    0.0000
       43 TA     4d2-      -0.0000    0.0000    0.0000   -0.0000    0.0000   -0.0000    0.0000   -0.0000    0.0001   -0.0000
       44 TA     5d2-      -0.0000    0.0000    0.0000   -0.0000    0.0000    0.0000   -0.0000    0.0000   -0.0000    0.0000
       45 TA     6d2-       0.0000    0.0000   -0.0000    0.0000   -0.0000   -0.0000    0.0000   -0.0000    0.0000   -0.0000
       46 TA     7d2-      -0.0000   -0.0000    0.0000   -0.0000    0.0000    0.0000   -0.0000    0.0000   -0.0000    0.0000
       47 TA     8d2-       0.0000    0.0000   -0.0000    0.0000   -0.0000   -0.0000    0.0000   -0.0000    0.0001   -0.0000
       48 TA     9d2-      -0.0000   -0.0000    0.0000   -0.0000    0.0000    0.0000   -0.0000    0.0000   -0.0001    0.0000
       49 TA    10d2-       0.0000    0.0000    0.0000   -0.0000    0.0000   -0.0000    0.0000   -0.0000    0.0001   -0.0000
       50 TA    11d2-      -0.0000   -0.0000   -0.0000    0.0000   -0.0000    0.0000   -0.0000    0.0000   -0.0000   -0.0000
       51 TA     3d1-      -0.0000   -0.0000    0.0000   -0.0000    0.0000   -0.0000    0.0000   -0.0000    0.0000    0.0000
       52 TA     4d1-      -0.0000   -0.0000    0.0000    0.0000   -0.0000    0.0000    0.0000   -0.0000    0.0000   -0.0000
       53 TA     5d1-      -0.0000   -0.0000   -0.0000    0.0000   -0.0000   -0.0000    0.0000    0.0000   -0.0000   -0.0000
       54 TA     6d1-       0.0000    0.0000    0.0000   -0.0000    0.0000   -0.0000   -0.0000   -0.0000    0.0000    0.0000
       55 TA     7d1-      -0.0000   -0.0000   -0.0000    0.0000   -0.0000    0.0000   -0.0000    0.0000   -0.0000    0.0000
       56 TA     8d1-       0.0000    0.0000   -0.0000   -0.0000    0.0000   -0.0000   -0.0000   -0.0000    0.0000    0.0000
       57 TA     9d1-      -0.0000   -0.0000   -0.0000   -0.0000    0.0000    0.0000   -0.0000    0.0000   -0.0000    0.0000
       58 TA    10d1-       0.0000    0.0000   -0.0000    0.0000   -0.0000    0.0000    0.0000   -0.0000    0.0000    0.0000
       59 TA    11d1-      -0.0000   -0.0000   -0.0000   -0.0000    0.0000   -0.0000   -0.0000    0.0000   -0.0000    0.0000
       60 TA     3d0       -0.0000   -0.0000   -0.0000   -0.0000    0.0000   -0.0000   -0.0008   -0.0000    0.0000   -0.5033
       61 TA     4d0        0.0000    0.0000   -0.0000    0.0000   -0.0000   -0.0000   -0.0001   -0.0000    0.0000    0.0001
       62 TA     5d0       -0.0000   -0.0000   -0.0000    0.0000    0.0000    0.0000    0.0000   -0.0000   -0.0000   -0.0000
       63 TA     6d0        0.0000    0.0000    0.0000   -0.0000   -0.0000   -0.0000   -0.0000   -0.0000    0.0000    0.0000
       64 TA     7d0       -0.0000   -0.0000   -0.0000    0.0000    0.0000    0.0000    0.0000    0.0000   -0.0000   -0.0000
       65 TA     8d0        0.0000    0.0000    0.0000   -0.0000    0.0000   -0.0000   -0.0000   -0.0000    0.0000    0.0000
       66 TA     9d0       -0.0000   -0.0000   -0.0000   -0.0000   -0.0000    0.0000    0.0000    0.0000   -0.0000   -0.0000
       67 TA    10d0        0.0000    0.0000   -0.0000    0.0000    0.0000   -0.0000   -0.0000   -0.0000    0.0000    0.0000
       68 TA    11d0       -0.0000   -0.0000    0.0000   -0.0000   -0.0000    0.0000    0.0000    0.0000   -0.0000   -0.0000
       69 TA     3d1+       0.0000    0.0000    0.0000    0.0000    0.0000   -0.0000   -0.0000    0.0014    0.0000   -0.0017
       70 TA     4d1+      -0.0000   -0.0000    0.0000    0.0000    0.0000    0.0000   -0.0000    0.0001    0.0000    0.0000
       71 TA     5d1+       0.0000    0.0000    0.0000    0.0000    0.0000    0.0000    0.0000   -0.0000   -0.0000   -0.0000
       72 TA     6d1+      -0.0000   -0.0000   -0.0000   -0.0000   -0.0000   -0.0000   -0.0000    0.0000    0.0000    0.0000
       73 TA     7d1+       0.0000    0.0000   -0.0000    0.0000    0.0000    0.0000    0.0000   -0.0000   -0.0000   -0.0000
       74 TA     8d1+      -0.0000   -0.0000    0.0000   -0.0000   -0.0000    0.0000   -0.0000    0.0001    0.0000    0.0000
       75 TA     9d1+       0.0000    0.0000   -0.0000    0.0000    0.0000   -0.0000    0.0000   -0.0001   -0.0000   -0.0000
       76 TA    10d1+      -0.0000   -0.0000    0.0000    0.0000    0.0000    0.0000   -0.0000    0.0001    0.0000    0.0000
       77 TA    11d1+       0.0000    0.0000   -0.0000   -0.0000   -0.0000   -0.0000    0.0000   -0.0000   -0.0000   -0.0000
       78 TA     3d2+       0.0000    0.0000    0.0000   -0.0000   -0.0000    0.0000    0.0014    0.0000   -0.0000    0.8641
       79 TA     4d2+      -0.0000   -0.0000    0.0000    0.0000    0.0000    0.0000    0.0001   -0.0000   -0.0000   -0.0001
       80 TA     5d2+       0.0000    0.0000    0.0000    0.0000    0.0000   -0.0000   -0.0000   -0.0000    0.0000    0.0000
       81 TA     6d2+      -0.0000   -0.0000   -0.0000   -0.0000   -0.0000    0.0000    0.0000    0.0000   -0.0000   -0.0000
       82 TA     7d2+       0.0000    0.0000    0.0000    0.0000   -0.0000   -0.0000   -0.0000   -0.0000    0.0000    0.0000
       83 TA     8d2+      -0.0000   -0.0000   -0.0000   -0.0000    0.0000    0.0000    0.0001    0.0000   -0.0000   -0.0000
       84 TA     9d2+       0.0000    0.0000    0.0000   -0.0000   -0.0000   -0.0000   -0.0001    0.0000    0.0000    0.0000
       85 TA    10d2+      -0.0000   -0.0000    0.0000    0.0000    0.0000    0.0000    0.0001   -0.0000   -0.0000   -0.0000
       86 TA    11d2+       0.0000    0.0000   -0.0000   -0.0000   -0.0000   -0.0000   -0.0001    0.0000    0.0000    0.0000
       87 TA     4f3-       0.0000    0.0000    0.0000   -0.0000    0.0000    0.0000    0.0000   -0.0000    0.0000    0.0000
       88 TA     5f3-      -0.0000    0.0000   -0.0000    0.0000   -0.0000    0.0000    0.0000   -0.0000    0.0000   -0.0000
       89 TA     6f3-      -0.0000   -0.0000    0.0000   -0.0000    0.0000   -0.0000   -0.0000    0.0000   -0.0000    0.0000
       90 TA     7f3-      -0.0000    0.0000   -0.0000    0.0000   -0.0000    0.0000   -0.0000   -0.0000    0.0000   -0.0000
       91 TA     8f3-       0.0000   -0.0000    0.0000   -0.0000    0.0000   -0.0000    0.0000   -0.0000    0.0000    0.0000
       92 TA     9f3-      -0.0000    0.0000   -0.0000    0.0000   -0.0000    0.0000   -0.0000    0.0000   -0.0000   -0.0000
       93 TA    10f3-       0.0000   -0.0000    0.0000   -0.0000    0.0000   -0.0000    0.0000   -0.0000    0.0000    0.0000
       94 TA    11f3-      -0.0000    0.0000   -0.0000    0.0000   -0.0000    0.0000   -0.0000    0.0000   -0.0000   -0.0000
       95 TA     4f2-       0.0000    0.0000    0.0000   -0.0000    0.0000    0.0000    0.0000   -0.0000    0.0000    0.0000
       96 TA     5f2-       0.0000    0.0000   -0.0000    0.0000   -0.0000   -0.0000   -0.0000    0.0000   -0.0000   -0.0000
       97 TA     6f2-      -0.0000   -0.0000    0.0000   -0.0000    0.0000    0.0000    0.0000   -0.0000    0.0000    0.0000
       98 TA     7f2-       0.0000    0.0000   -0.0000   -0.0000   -0.0000   -0.0000   -0.0000    0.0000   -0.0000   -0.0000
       99 TA     8f2-      -0.0000   -0.0000    0.0000   -0.0000    0.0000    0.0000    0.0000   -0.0000    0.0000    0.0000
      100 TA     9f2-       0.0000    0.0000   -0.0000   -0.0000    0.0000    0.0000   -0.0000    0.0000   -0.0000   -0.0000
      101 TA    10f2-      -0.0000   -0.0000   -0.0000    0.0000   -0.0000   -0.0000    0.0000   -0.0000    0.0000    0.0000
      102 TA    11f2-       0.0000    0.0000    0.0000   -0.0000    0.0000    0.0000   -0.0000    0.0000   -0.0000   -0.0000
      103 TA     4f1-       0.0000   -0.0000   -0.0000    0.0000   -0.0000   -0.0000    0.0000    0.0000   -0.0000   -0.0000
      104 TA     5f1-      -0.0000   -0.0000    0.0000   -0.0000    0.0000    0.0000   -0.0000    0.0000   -0.0000    0.0000
      105 TA     6f1-       0.0000    0.0000   -0.0000    0.0000   -0.0000   -0.0000    0.0000   -0.0000    0.0000   -0.0000
      106 TA     7f1-      -0.0000    0.0000    0.0000   -0.0000    0.0000    0.0000   -0.0000    0.0000   -0.0000    0.0000
      107 TA     8f1-       0.0000   -0.0000   -0.0000    0.0000   -0.0000   -0.0000    0.0000    0.0000   -0.0000   -0.0000
      108 TA     9f1-      -0.0000    0.0000    0.0000   -0.0000    0.0000    0.0000    0.0000   -0.0000    0.0000    0.0000
      109 TA    10f1-       0.0000    0.0000   -0.0000    0.0000   -0.0000    0.0000   -0.0000    0.0000   -0.0000   -0.0000
      110 TA    11f1-       0.0000   -0.0000    0.0000   -0.0000    0.0000   -0.0000    0.0000   -0.0000    0.0000    0.0000
      111 TA     4f0        0.0000   -0.0000   -0.0000   -0.0000   -0.0000   -0.0000   -0.0000   -0.0000   -0.0000    0.0000
      112 TA     5f0       -0.0000    0.0000    0.0000    0.0000    0.0000    0.0000    0.0000   -0.0000   -0.0000    0.0000
      113 TA     6f0       -0.0000   -0.0000   -0.0000   -0.0000   -0.0000   -0.0000   -0.0000    0.0000    0.0000    0.0000
      114 TA     7f0        0.0000    0.0000    0.0000    0.0000    0.0000    0.0000    0.0000   -0.0000   -0.0000   -0.0000
      115 TA     8f0       -0.0000   -0.0000   -0.0000   -0.0000   -0.0000   -0.0000   -0.0000   -0.0000   -0.0000    0.0000
      116 TA     9f0        0.0000    0.0000    0.0000    0.0000    0.0000    0.0000    0.0000    0.0000    0.0000   -0.0000
      117 TA    10f0       -0.0000    0.0000   -0.0000   -0.0000   -0.0000   -0.0000   -0.0000   -0.0000   -0.0000    0.0000
      118 TA    11f0        0.0000   -0.0000   -0.0000    0.0000    0.0000    0.0000    0.0000    0.0000    0.0000   -0.0000
      119 TA     4f1+       0.0000   -0.0000   -0.0000   -0.0000   -0.0000   -0.0000    0.0000   -0.0000   -0.0000   -0.0002
      120 TA     5f1+       0.0000   -0.0000    0.0000    0.0000    0.0000    0.0000   -0.0000    0.0000    0.0000    0.0001
      121 TA     6f1+       0.0000   -0.0000   -0.0000   -0.0000    0.0000   -0.0000    0.0000   -0.0000   -0.0000   -0.0001
      122 TA     7f1+       0.0000   -0.0000    0.0000   -0.0000   -0.0000    0.0000   -0.0000    0.0000    0.0000    0.0001
      123 TA     8f1+      -0.0000    0.0000   -0.0000    0.0000    0.0000   -0.0000   -0.0000   -0.0000   -0.0000   -0.0001
      124 TA     9f1+       0.0000   -0.0000    0.0000   -0.0000   -0.0000    0.0000    0.0000    0.0000    0.0000    0.0000
      125 TA    10f1+      -0.0000    0.0000   -0.0000    0.0000    0.0000   -0.0000   -0.0000   -0.0000   -0.0000   -0.0000
      126 TA    11f1+       0.0000   -0.0000    0.0000   -0.0000   -0.0000    0.0000    0.0000    0.0000    0.0000    0.0000
      127 TA     4f2+       0.0000   -0.0000   -0.0000    0.0000    0.0000   -0.0000   -0.0000    0.0000    0.0000   -0.0000
      128 TA     5f2+      -0.0000    0.0000    0.0000   -0.0000   -0.0000    0.0000    0.0000    0.0000    0.0000    0.0000
      129 TA     6f2+      -0.0000   -0.0000   -0.0000    0.0000    0.0000   -0.0000   -0.0000   -0.0000   -0.0000   -0.0000
      130 TA     7f2+       0.0000    0.0000    0.0000   -0.0000   -0.0000    0.0000    0.0000    0.0000    0.0000   -0.0000
      131 TA     8f2+      -0.0000   -0.0000   -0.0000    0.0000    0.0000   -0.0000   -0.0000    0.0000    0.0000    0.0000
      132 TA     9f2+       0.0000    0.0000    0.0000   -0.0000   -0.0000    0.0000    0.0000   -0.0000   -0.0000   -0.0000
      133 TA    10f2+      -0.0000    0.0000    0.0000    0.0000    0.0000   -0.0000   -0.0000    0.0000    0.0000    0.0000
      134 TA    11f2+       0.0000   -0.0000   -0.0000   -0.0000   -0.0000    0.0000    0.0000   -0.0000   -0.0000   -0.0000
      135 TA     4f3+      -0.0000    0.0000    0.0000   -0.0000   -0.0000    0.0000   -0.0000   -0.0000   -0.0000    0.0003
      136 TA     5f3+      -0.0000    0.0000   -0.0000    0.0000    0.0000   -0.0000    0.0000    0.0000    0.0000   -0.0002
      137 TA     6f3+      -0.0000    0.0000    0.0000   -0.0000   -0.0000    0.0000   -0.0000   -0.0000   -0.0000    0.0001
      138 TA     7f3+      -0.0000    0.0000   -0.0000   -0.0000    0.0000   -0.0000    0.0000    0.0000    0.0000   -0.0001
      139 TA     8f3+       0.0000   -0.0000    0.0000   -0.0000   -0.0000    0.0000    0.0000   -0.0000   -0.0000    0.0001
      140 TA     9f3+      -0.0000    0.0000   -0.0000   -0.0000    0.0000   -0.0000   -0.0000    0.0000    0.0000   -0.0001
      141 TA    10f3+       0.0000   -0.0000    0.0000    0.0000    0.0000    0.0000    0.0000   -0.0000   -0.0000    0.0000
      142 TA    11f3+      -0.0000    0.0000   -0.0000   -0.0000   -0.0000   -0.0000   -0.0000    0.0000    0.0000   -0.0000
      143 TA     5g4-       0.0000    0.0000    0.0000   -0.0000    0.0000   -0.0000    0.0000   -0.0000    0.0000    0.0000
      144 TA     6g4-       0.0000    0.0000   -0.0000    0.0000   -0.0000    0.0000    0.0000   -0.0000    0.0000   -0.0000
      145 TA     7g4-      -0.0000    0.0000    0.0000   -0.0000    0.0000   -0.0000   -0.0000    0.0000   -0.0000    0.0000
      146 TA     8g4-      -0.0000    0.0000   -0.0000    0.0000   -0.0000    0.0000   -0.0000    0.0000   -0.0000    0.0000
      147 TA     5g3-       0.0000    0.0000   -0.0000    0.0000   -0.0000   -0.0000    0.0000   -0.0000    0.0000    0.0000
      148 TA     6g3-       0.0000   -0.0000    0.0000   -0.0000    0.0000    0.0000   -0.0000    0.0000   -0.0000   -0.0000
      149 TA     7g3-       0.0000   -0.0000   -0.0000    0.0000   -0.0000   -0.0000    0.0000   -0.0000    0.0000   -0.0000
      150 TA     8g3-       0.0000   -0.0000    0.0000   -0.0000    0.0000    0.0000   -0.0000    0.0000   -0.0000   -0.0000
      151 TA     5g2-       0.0000   -0.0000   -0.0000    0.0000   -0.0000   -0.0000   -0.0000    0.0000   -0.0000    0.0000
      152 TA     6g2-      -0.0000    0.0000    0.0000   -0.0000    0.0000    0.0000   -0.0000    0.0000   -0.0000   -0.0000
      153 TA     7g2-       0.0000   -0.0000   -0.0000    0.0000   -0.0000   -0.0000    0.0000   -0.0000    0.0000    0.0000
      154 TA     8g2-      -0.0000    0.0000    0.0000   -0.0000    0.0000    0.0000   -0.0000   -0.0000    0.0000   -0.0000
      155 TA     5g1-      -0.0000    0.0000    0.0000   -0.0000    0.0000    0.0000   -0.0000    0.0000   -0.0000   -0.0000
      156 TA     6g1-      -0.0000   -0.0000   -0.0000    0.0000   -0.0000   -0.0000    0.0000   -0.0000    0.0000    0.0000
      157 TA     7g1-      -0.0000    0.0000    0.0000   -0.0000    0.0000    0.0000   -0.0000    0.0000   -0.0000   -0.0000
      158 TA     8g1-       0.0000   -0.0000   -0.0000    0.0000   -0.0000   -0.0000    0.0000   -0.0000    0.0000    0.0000
      159 TA     5g0        0.0000   -0.0000   -0.0000   -0.0000   -0.0000   -0.0000    0.0000    0.0000    0.0000    0.0000
      160 TA     6g0       -0.0000    0.0000    0.0000    0.0000    0.0000    0.0000   -0.0000   -0.0000   -0.0000   -0.0000
      161 TA     7g0        0.0000   -0.0000   -0.0000   -0.0000   -0.0000    0.0000    0.0000    0.0000    0.0000    0.0000
      162 TA     8g0       -0.0000    0.0000    0.0000    0.0000    0.0000   -0.0000   -0.0000   -0.0000   -0.0000   -0.0000
      163 TA     5g1+       0.0000   -0.0000    0.0000   -0.0000   -0.0000    0.0000   -0.0000   -0.0000   -0.0000   -0.0000
      164 TA     6g1+      -0.0000    0.0000   -0.0000    0.0000    0.0000   -0.0000    0.0000   -0.0000   -0.0000    0.0000
      165 TA     7g1+       0.0000   -0.0000    0.0000   -0.0000   -0.0000    0.0000   -0.0000    0.0000    0.0000   -0.0000
      166 TA     8g1+      -0.0000    0.0000   -0.0000    0.0000    0.0000   -0.0000    0.0000    0.0000    0.0000    0.0000
      167 TA     5g2+      -0.0000    0.0000    0.0000    0.0000    0.0000    0.0000   -0.0000   -0.0000   -0.0000   -0.0000
      168 TA     6g2+       0.0000   -0.0000   -0.0000   -0.0000   -0.0000   -0.0000    0.0000    0.0000    0.0000    0.0000
      169 TA     7g2+      -0.0000    0.0000    0.0000    0.0000    0.0000   -0.0000   -0.0000   -0.0000   -0.0000   -0.0000
      170 TA     8g2+       0.0000   -0.0000   -0.0000   -0.0000   -0.0000    0.0000    0.0000    0.0000    0.0000    0.0000
      171 TA     5g3+       0.0000   -0.0000    0.0000    0.0000    0.0000    0.0000   -0.0000    0.0000    0.0000   -0.0000
      172 TA     6g3+      -0.0000    0.0000   -0.0000   -0.0000   -0.0000   -0.0000    0.0000    0.0000    0.0000    0.0000
      173 TA     7g3+       0.0000   -0.0000    0.0000    0.0000    0.0000    0.0000   -0.0000   -0.0000   -0.0000   -0.0000
      174 TA     8g3+      -0.0000    0.0000   -0.0000   -0.0000   -0.0000   -0.0000    0.0000   -0.0000   -0.0000    0.0000
      175 TA     5g4+       0.0000   -0.0000   -0.0000    0.0000    0.0000   -0.0000    0.0000   -0.0000   -0.0000    0.0000
      176 TA     6g4+      -0.0000    0.0000    0.0000   -0.0000   -0.0000   -0.0000   -0.0000    0.0000    0.0000   -0.0000
      177 TA     7g4+       0.0000   -0.0000   -0.0000    0.0000    0.0000    0.0000    0.0000   -0.0000   -0.0000    0.0000
      178 TA     8g4+      -0.0000    0.0000    0.0000   -0.0000   -0.0000   -0.0000   -0.0000    0.0000    0.0000   -0.0000
      179 TA     6h5-      -0.0000   -0.0000   -0.0000    0.0000   -0.0000   -0.0000   -0.0000    0.0000   -0.0000   -0.0000
      180 TA     7h5-       0.0000    0.0000    0.0000   -0.0000    0.0000    0.0000    0.0000   -0.0000    0.0000    0.0000
      181 TA     6h4-      -0.0000   -0.0000   -0.0000    0.0000   -0.0000   -0.0000    0.0000   -0.0000    0.0000    0.0000
      182 TA     7h4-       0.0000   -0.0000   -0.0000    0.0000   -0.0000    0.0000   -0.0000    0.0000   -0.0000   -0.0000
      183 TA     6h3-      -0.0000   -0.0000   -0.0000   -0.0000    0.0000   -0.0000   -0.0000   -0.0000    0.0000   -0.0000
      184 TA     7h3-       0.0000    0.0000    0.0000    0.0000   -0.0000    0.0000    0.0000    0.0000   -0.0000    0.0000
      185 TA     6h2-      -0.0000    0.0000   -0.0000    0.0000   -0.0000    0.0000   -0.0000    0.0000   -0.0000    0.0000
      186 TA     7h2-      -0.0000    0.0000    0.0000   -0.0000    0.0000   -0.0000    0.0000   -0.0000    0.0000    0.0000
      187 TA     6h1-       0.0000   -0.0000   -0.0000   -0.0000   -0.0000   -0.0000   -0.0000    0.0000   -0.0000   -0.0000
      188 TA     7h1-      -0.0000    0.0000    0.0000    0.0000    0.0000    0.0000    0.0000   -0.0000    0.0000    0.0000
      189 TA     6h0        0.0000   -0.0000    0.0000   -0.0000    0.0000    0.0000    0.0000   -0.0000   -0.0000   -0.0000
      190 TA     7h0        0.0000   -0.0000   -0.0000    0.0000    0.0000    0.0000   -0.0000    0.0000    0.0000   -0.0000
      191 TA     6h1+       0.0000   -0.0000    0.0000   -0.0000    0.0000    0.0000    0.0000    0.0000    0.0000    0.0000
      192 TA     7h1+       0.0000   -0.0000   -0.0000   -0.0000   -0.0000   -0.0000   -0.0000   -0.0000   -0.0000   -0.0000
      193 TA     6h2+      -0.0000    0.0000   -0.0000    0.0000    0.0000   -0.0000   -0.0000    0.0000    0.0000    0.0000
      194 TA     7h2+      -0.0000    0.0000    0.0000   -0.0000   -0.0000   -0.0000    0.0000   -0.0000   -0.0000    0.0000
      195 TA     6h3+      -0.0000    0.0000   -0.0000   -0.0000   -0.0000   -0.0000   -0.0000    0.0000    0.0000   -0.0000
      196 TA     7h3+      -0.0000    0.0000    0.0000    0.0000    0.0000    0.0000    0.0000   -0.0000   -0.0000    0.0000
      197 TA     6h4+      -0.0000    0.0000   -0.0000   -0.0000   -0.0000   -0.0000   -0.0000   -0.0000   -0.0000    0.0000
      198 TA     7h4+      -0.0000    0.0000    0.0000    0.0000    0.0000   -0.0000    0.0000    0.0000    0.0000    0.0000
      199 TA     6h5+       0.0000   -0.0000    0.0000   -0.0000   -0.0000    0.0000    0.0000   -0.0000   -0.0000    0.0000
      200 TA     7h5+       0.0000   -0.0000   -0.0000    0.0000    0.0000   -0.0000   -0.0000    0.0000    0.0000   -0.0000

          Orbital           11        12        13        14        15        16        17        18        19        20    
          Energy          -59.4489  -59.4489  -59.4465  -59.4464  -15.0650   -9.7260   -9.7260   -9.7235   -2.6236   -2.6236
          Occ. No.          2.0000    2.0000    2.0000    2.0000    2.0000    2.0000    2.0000    2.0000    2.0000    2.0000

        1 TA     1s        -0.0000   -0.0000   -0.0000    0.0000    0.0000    0.0000    0.0000   -0.0000    0.0000   -0.0000
        2 TA     2s        -0.0000   -0.0000   -0.0000    0.0000   -0.0000   -0.0000   -0.0000    0.0000    0.0000   -0.0000
        3 TA     3s         0.0000    0.0000   -0.0000    0.0000    0.0001    0.0000    0.0000   -0.0001   -0.0000    0.0000
        4 TA     4s         0.0000    0.0000    0.0000   -0.0000    0.9999    0.0001    0.0000   -0.0130    0.0000   -0.0000
        5 TA     5s        -0.0000   -0.0000   -0.0000    0.0000   -0.0013   -0.0000   -0.0000    0.0027   -0.0000    0.0000
        6 TA     6s         0.0000    0.0000    0.0000   -0.0000    0.0001    0.0000   -0.0000   -0.0002    0.0000   -0.0000
        7 TA     7s        -0.0000   -0.0000   -0.0000    0.0000   -0.0001   -0.0000   -0.0000    0.0003   -0.0000    0.0000
        8 TA     8s         0.0000    0.0000    0.0000   -0.0000    0.0001    0.0000   -0.0000   -0.0003    0.0000   -0.0000
        9 TA     9s        -0.0000   -0.0000   -0.0000    0.0000   -0.0000   -0.0000    0.0000    0.0001    0.0000   -0.0000
       10 TA    10s         0.0000    0.0000    0.0000   -0.0000    0.0000    0.0000   -0.0000   -0.0000   -0.0000    0.0000
       11 TA    11s        -0.0000   -0.0000   -0.0000    0.0000   -0.0001   -0.0000   -0.0000    0.0001    0.0000   -0.0000
       12 TA     2px       -0.0000   -0.0000   -0.0000    0.0000    0.0000    0.0000    0.0000   -0.0000    0.0000    0.0000
       13 TA     3px       -0.0000   -0.0000   -0.0000    0.0000   -0.0002   -0.0000   -0.0000    0.0000   -0.0000    0.0000
       14 TA     4px        0.0000    0.0000    0.0000   -0.0000    0.0130   -0.0074   -0.0000    0.9998   -0.0000    0.0001
       15 TA     5px        0.0000    0.0000    0.0000   -0.0000    0.0007    0.0000    0.0000   -0.0011    0.0000   -0.0001
       16 TA     6px       -0.0000   -0.0000   -0.0000    0.0000   -0.0001   -0.0000   -0.0000    0.0002   -0.0000    0.0000
       17 TA     7px       -0.0000   -0.0000   -0.0000    0.0000    0.0002    0.0000    0.0000   -0.0002    0.0000   -0.0000
       18 TA     8px        0.0000    0.0000    0.0000   -0.0000   -0.0000    0.0000    0.0000   -0.0002    0.0000   -0.0000
       19 TA     9px       -0.0000   -0.0000   -0.0000    0.0000    0.0000   -0.0000   -0.0000    0.0002   -0.0000    0.0000
       20 TA    10px        0.0000    0.0000    0.0000   -0.0000   -0.0000    0.0000    0.0000   -0.0001    0.0000   -0.0000
       21 TA    11px       -0.0000   -0.0000   -0.0000    0.0000    0.0001    0.0000    0.0000   -0.0001    0.0000   -0.0000
       22 TA     2py        0.0000   -0.0000    0.0000    0.0000   -0.0000    0.0000   -0.0000    0.0000    0.0000    0.0000
       23 TA     3py        0.0000   -0.0014    0.0000    0.0001    0.0000   -0.0000    0.0001    0.0000    0.0000    0.0000
       24 TA     4py       -0.0000    0.0001   -0.0000   -0.0000    0.0000   -0.0000    1.0000    0.0000    0.0015    0.0000
       25 TA     5py       -0.0000    0.0000   -0.0000   -0.0000   -0.0000    0.0000   -0.0007   -0.0000   -0.0010   -0.0000
       26 TA     6py        0.0000   -0.0000    0.0000    0.0000   -0.0000   -0.0000    0.0001    0.0000    0.0001    0.0000
       27 TA     7py        0.0000   -0.0000    0.0000    0.0000   -0.0000    0.0000   -0.0002   -0.0000   -0.0000   -0.0000
       28 TA     8py       -0.0000    0.0000   -0.0000   -0.0000    0.0000   -0.0000    0.0000   -0.0000   -0.0001   -0.0000
       29 TA     9py        0.0000   -0.0000    0.0000    0.0000   -0.0000    0.0000   -0.0000    0.0000    0.0000    0.0000
       30 TA    10py       -0.0000    0.0000   -0.0000   -0.0000    0.0000   -0.0000    0.0001    0.0000   -0.0000   -0.0000
       31 TA    11py        0.0000   -0.0000    0.0000    0.0000   -0.0000    0.0000   -0.0000    0.0000   -0.0000   -0.0000
       32 TA     2pz       -0.0000   -0.0000   -0.0000    0.0000    0.0000   -0.0000   -0.0000   -0.0000    0.0000   -0.0000
       33 TA     3pz       -0.0014   -0.0000   -0.0001    0.0000   -0.0000    0.0001    0.0000    0.0000    0.0000   -0.0000
       34 TA     4pz        0.0001    0.0000    0.0000   -0.0000    0.0000    0.9999    0.0000    0.0074    0.0000   -0.0013
       35 TA     5pz        0.0000    0.0000    0.0000   -0.0000    0.0000   -0.0007   -0.0000   -0.0000   -0.0000    0.0008
       36 TA     6pz       -0.0000   -0.0000   -0.0000    0.0000   -0.0000    0.0001    0.0000    0.0000    0.0000   -0.0001
       37 TA     7pz       -0.0000   -0.0000   -0.0000    0.0000    0.0000   -0.0002   -0.0000   -0.0000   -0.0000    0.0000
       38 TA     8pz        0.0000    0.0000    0.0000   -0.0000    0.0000    0.0000    0.0000    0.0000   -0.0000    0.0001
       39 TA     9pz       -0.0000   -0.0000   -0.0000    0.0000   -0.0000   -0.0000   -0.0000    0.0000    0.0000   -0.0000
       40 TA    10pz        0.0000    0.0000    0.0000   -0.0000    0.0000    0.0001    0.0000    0.0000   -0.0000    0.0000
       41 TA    11pz       -0.0000   -0.0000   -0.0000    0.0000    0.0000   -0.0000   -0.0000   -0.0000   -0.0000    0.0000
       42 TA     3d2-      -0.0000    0.9974   -0.0000   -0.0722    0.0000    0.0000   -0.0000   -0.0000   -0.0000   -0.0000
       43 TA     4d2-       0.0000   -0.0001    0.0000    0.0000   -0.0000   -0.0000    0.0083    0.0000   -0.1807   -0.0000
       44 TA     5d2-      -0.0000    0.0000    0.0000    0.0000    0.0000   -0.0000    0.0004    0.0000    0.0003    0.0000
       45 TA     6d2-       0.0000   -0.0000   -0.0000   -0.0000   -0.0000    0.0000   -0.0003   -0.0000   -0.0003   -0.0000
       46 TA     7d2-      -0.0000    0.0000    0.0000    0.0000   -0.0000   -0.0000    0.0001    0.0000    0.0002    0.0000
       47 TA     8d2-       0.0000   -0.0000    0.0000    0.0000    0.0000   -0.0000    0.0001    0.0000    0.0000    0.0000
       48 TA     9d2-      -0.0000    0.0000   -0.0000   -0.0000   -0.0000    0.0000   -0.0000   -0.0000   -0.0000   -0.0000
       49 TA    10d2-       0.0000   -0.0000    0.0000    0.0000    0.0000    0.0000   -0.0001   -0.0000   -0.0000   -0.0000
       50 TA    11d2-      -0.0000    0.0000   -0.0000   -0.0000    0.0000   -0.0000    0.0001    0.0000    0.0000    0.0000
       51 TA     3d1-      -0.0000    0.0722    0.0000    0.9974   -0.0000   -0.0000   -0.0000   -0.0000    0.0001    0.0000
       52 TA     4d1-       0.0000   -0.0000   -0.0000   -0.0001   -0.0000   -0.0000    0.0000    0.0000    0.9835    0.0000
       53 TA     5d1-      -0.0000    0.0000    0.0000    0.0000    0.0000   -0.0000    0.0000   -0.0000   -0.0013   -0.0000
       54 TA     6d1-       0.0000   -0.0000   -0.0000   -0.0000   -0.0000    0.0000   -0.0000   -0.0000    0.0009    0.0000
       55 TA     7d1-      -0.0000    0.0000    0.0000    0.0000    0.0000   -0.0000    0.0000    0.0000   -0.0002   -0.0000
       56 TA     8d1-       0.0000   -0.0000   -0.0000   -0.0000   -0.0000    0.0000   -0.0000   -0.0000   -0.0001   -0.0000
       57 TA     9d1-      -0.0000    0.0000    0.0000    0.0000   -0.0000   -0.0000    0.0000    0.0000    0.0000    0.0000
       58 TA    10d1-       0.0000   -0.0000   -0.0000   -0.0000    0.0000    0.0000   -0.0000    0.0000    0.0001    0.0000
       59 TA    11d1-      -0.0000    0.0000    0.0000    0.0000   -0.0000    0.0000    0.0000    0.0000   -0.0000   -0.0000
       60 TA     3d0       -0.0609   -0.0000    0.8620   -0.0000    0.0000    0.0000   -0.0000    0.0000   -0.0000    0.0001
       61 TA     4d0        0.0000    0.0000   -0.0001    0.0000   -0.0001    0.0000    0.0000   -0.0050   -0.0000    0.8600
       62 TA     5d0       -0.0000   -0.0000    0.0000   -0.0000    0.0000   -0.0000    0.0000   -0.0003    0.0000   -0.0012
       63 TA     6d0        0.0000    0.0000   -0.0000    0.0000   -0.0001    0.0000   -0.0000    0.0002   -0.0000    0.0008
       64 TA     7d0       -0.0000   -0.0000    0.0000   -0.0000    0.0000   -0.0000    0.0000   -0.0001    0.0000   -0.0002
       65 TA     8d0        0.0000    0.0000   -0.0000    0.0000    0.0000    0.0000    0.0000   -0.0000    0.0000   -0.0001
       66 TA     9d0       -0.0000   -0.0000    0.0000   -0.0000   -0.0000   -0.0000   -0.0000    0.0000   -0.0000    0.0000
       67 TA    10d0        0.0000    0.0000   -0.0000    0.0000    0.0000    0.0000   -0.0000    0.0000   -0.0000    0.0001
       68 TA    11d0       -0.0000   -0.0000    0.0000   -0.0000    0.0000    0.0000    0.0000   -0.0001    0.0000   -0.0000
       69 TA     3d1+       0.9976    0.0000    0.0694   -0.0000   -0.0000   -0.0000   -0.0000   -0.0000   -0.0000    0.0000
       70 TA     4d1+      -0.0001   -0.0000   -0.0000    0.0000   -0.0000    0.0083    0.0000    0.0001   -0.0000    0.1575
       71 TA     5d1+       0.0000    0.0000   -0.0000    0.0000   -0.0000    0.0004    0.0000    0.0000    0.0000   -0.0003
       72 TA     6d1+      -0.0000   -0.0000    0.0000   -0.0000    0.0000   -0.0003   -0.0000   -0.0000   -0.0000    0.0003
       73 TA     7d1+       0.0000    0.0000   -0.0000    0.0000   -0.0000    0.0001    0.0000    0.0000    0.0000   -0.0002
       74 TA     8d1+      -0.0000   -0.0000   -0.0000    0.0000   -0.0000    0.0001    0.0000    0.0000    0.0000   -0.0000
       75 TA     9d1+       0.0000    0.0000    0.0000   -0.0000    0.0000   -0.0000   -0.0000   -0.0000   -0.0000    0.0000
       76 TA    10d1+      -0.0000   -0.0000   -0.0000    0.0000   -0.0000   -0.0001   -0.0000   -0.0000   -0.0000    0.0000
       77 TA    11d1+       0.0000    0.0000    0.0000   -0.0000   -0.0000    0.0001    0.0000    0.0000    0.0000   -0.0000
       78 TA     3d2+      -0.0335   -0.0000    0.5022   -0.0000   -0.0001    0.0000    0.0000   -0.0001   -0.0000    0.0000
       79 TA     4d2+       0.0000    0.0000   -0.0000    0.0000    0.0002   -0.0001   -0.0000    0.0087   -0.0000    0.4853
       80 TA     5d2+      -0.0000   -0.0000    0.0000   -0.0000   -0.0001   -0.0000   -0.0000    0.0005    0.0000   -0.0007
       81 TA     6d2+       0.0000    0.0000   -0.0000    0.0000    0.0001    0.0000    0.0000   -0.0004   -0.0000    0.0004
       82 TA     7d2+      -0.0000   -0.0000    0.0000   -0.0000   -0.0001   -0.0000   -0.0000    0.0002    0.0000   -0.0001
       83 TA     8d2+       0.0000    0.0000   -0.0000    0.0000   -0.0000    0.0000   -0.0000    0.0001    0.0000   -0.0001
       84 TA     9d2+      -0.0000   -0.0000    0.0000   -0.0000    0.0001   -0.0000    0.0000   -0.0000    0.0000   -0.0000
       85 TA    10d2+       0.0000    0.0000   -0.0000    0.0000   -0.0001    0.0000    0.0000   -0.0001   -0.0000    0.0001
       86 TA    11d2+      -0.0000   -0.0000    0.0000   -0.0000   -0.0000   -0.0000   -0.0000    0.0001    0.0000   -0.0000
       87 TA     4f3-      -0.0000    0.0003   -0.0000   -0.0000    0.0000   -0.0000    0.0003    0.0000   -0.0014   -0.0000
       88 TA     5f3-       0.0000   -0.0002    0.0000    0.0000   -0.0000    0.0000   -0.0003   -0.0000   -0.0005   -0.0000
       89 TA     6f3-      -0.0000    0.0002   -0.0000   -0.0000    0.0000   -0.0000    0.0001    0.0000    0.0001    0.0000
       90 TA     7f3-       0.0000   -0.0001    0.0000    0.0000   -0.0000   -0.0000    0.0000    0.0000    0.0000    0.0000
       91 TA     8f3-      -0.0000    0.0001   -0.0000   -0.0000    0.0000    0.0000   -0.0001   -0.0000   -0.0000   -0.0000
       92 TA     9f3-       0.0000   -0.0001    0.0000    0.0000   -0.0000   -0.0000    0.0000    0.0000   -0.0000   -0.0000
       93 TA    10f3-      -0.0000    0.0000   -0.0000   -0.0000    0.0000   -0.0000    0.0000    0.0000    0.0000    0.0000
       94 TA    11f3-       0.0000   -0.0000    0.0000    0.0000   -0.0000    0.0000   -0.0000   -0.0000   -0.0000   -0.0000
       95 TA     4f2-      -0.0000    0.0000    0.0000    0.0002    0.0000    0.0000   -0.0001   -0.0000    0.0060    0.0000
       96 TA     5f2-       0.0000   -0.0000   -0.0000   -0.0002   -0.0000   -0.0000    0.0000    0.0000    0.0016    0.0000
       97 TA     6f2-      -0.0000    0.0000    0.0000    0.0001   -0.0000    0.0000   -0.0000   -0.0000   -0.0005   -0.0000
       98 TA     7f2-       0.0000   -0.0000   -0.0000   -0.0001    0.0000   -0.0000    0.0000    0.0000   -0.0001   -0.0000
       99 TA     8f2-      -0.0000    0.0000    0.0000    0.0001   -0.0000   -0.0000    0.0000    0.0000    0.0000    0.0000
      100 TA     9f2-       0.0000   -0.0000   -0.0000   -0.0001    0.0000    0.0000   -0.0000   -0.0000    0.0002    0.0000
      101 TA    10f2-      -0.0000    0.0000    0.0000    0.0000   -0.0000   -0.0000    0.0000    0.0000   -0.0001   -0.0000
      102 TA    11f2-       0.0000   -0.0000   -0.0000   -0.0000    0.0000   -0.0000    0.0000    0.0000    0.0000    0.0000
      103 TA     4f1-       0.0000   -0.0001    0.0000    0.0000   -0.0000    0.0000   -0.0001   -0.0000    0.0004    0.0000
      104 TA     5f1-      -0.0000    0.0001   -0.0000   -0.0000    0.0000   -0.0000    0.0001    0.0000    0.0001    0.0000
      105 TA     6f1-       0.0000   -0.0000    0.0000    0.0000   -0.0000    0.0000   -0.0000   -0.0000   -0.0000   -0.0000
      106 TA     7f1-      -0.0000    0.0000   -0.0000   -0.0000    0.0000    0.0000   -0.0000   -0.0000   -0.0000   -0.0000
      107 TA     8f1-       0.0000   -0.0000    0.0000    0.0000   -0.0000   -0.0000    0.0000    0.0000    0.0000    0.0000
      108 TA     9f1-      -0.0000    0.0000   -0.0000   -0.0000    0.0000    0.0000   -0.0000   -0.0000    0.0000    0.0000
      109 TA    10f1-       0.0000   -0.0000    0.0000    0.0000    0.0000    0.0000   -0.0000   -0.0000   -0.0000   -0.0000
      110 TA    11f1-      -0.0000    0.0000   -0.0000   -0.0000   -0.0000   -0.0000    0.0000    0.0000    0.0000    0.0000
      111 TA     4f0       -0.0002   -0.0000   -0.0000    0.0000   -0.0000   -0.0002   -0.0000    0.0000    0.0000   -0.0008
      112 TA     5f0        0.0001    0.0000    0.0000   -0.0000    0.0000    0.0002    0.0000   -0.0000    0.0000   -0.0003
      113 TA     6f0       -0.0001   -0.0000   -0.0000    0.0000    0.0000   -0.0001   -0.0000    0.0000   -0.0000    0.0001
      114 TA     7f0        0.0001    0.0000    0.0000   -0.0000   -0.0000   -0.0000   -0.0000   -0.0000   -0.0000    0.0000
      115 TA     8f0       -0.0001   -0.0000   -0.0000    0.0000   -0.0000    0.0001    0.0000   -0.0000    0.0000   -0.0000
      116 TA     9f0        0.0000    0.0000    0.0000   -0.0000   -0.0000   -0.0000   -0.0000    0.0000    0.0000   -0.0000
      117 TA    10f0       -0.0000   -0.0000   -0.0000    0.0000   -0.0000   -0.0000   -0.0000   -0.0000   -0.0000    0.0000
      118 TA    11f0        0.0000    0.0000    0.0000   -0.0000   -0.0000    0.0000    0.0000   -0.0000    0.0000   -0.0000
      119 TA     4f1+      -0.0000   -0.0000    0.0002   -0.0000   -0.0000    0.0001    0.0000   -0.0002   -0.0000    0.0048
      120 TA     5f1+       0.0000    0.0000   -0.0001    0.0000   -0.0000   -0.0000   -0.0000    0.0003   -0.0000    0.0013
      121 TA     6f1+      -0.0000   -0.0000    0.0001   -0.0000    0.0000    0.0000    0.0000   -0.0001    0.0000   -0.0004
      122 TA     7f1+       0.0000    0.0000   -0.0001    0.0000   -0.0000   -0.0000   -0.0000   -0.0000    0.0000   -0.0001
      123 TA     8f1+      -0.0000   -0.0000    0.0001   -0.0000    0.0000   -0.0000   -0.0000    0.0001   -0.0000    0.0000
      124 TA     9f1+       0.0000    0.0000   -0.0000    0.0000    0.0000    0.0000    0.0000   -0.0000   -0.0000    0.0002
      125 TA    10f1+      -0.0000   -0.0000    0.0000   -0.0000   -0.0000    0.0000    0.0000   -0.0000    0.0000   -0.0001
      126 TA    11f1+       0.0000    0.0000   -0.0000    0.0000   -0.0000   -0.0000   -0.0000    0.0000   -0.0000    0.0000
      127 TA     4f2+       0.0003    0.0000    0.0000   -0.0000   -0.0000    0.0003    0.0000    0.0000   -0.0000    0.0010
      128 TA     5f2+      -0.0002   -0.0000   -0.0000    0.0000    0.0000   -0.0003   -0.0000   -0.0000   -0.0000    0.0003
      129 TA     6f2+       0.0001    0.0000    0.0000   -0.0000    0.0000    0.0001    0.0000    0.0000    0.0000   -0.0001
      130 TA     7f2+      -0.0001   -0.0000   -0.0000    0.0000   -0.0000    0.0000    0.0000   -0.0000    0.0000   -0.0000
      131 TA     8f2+       0.0001    0.0000    0.0000   -0.0000   -0.0000   -0.0001   -0.0000   -0.0000   -0.0000    0.0000
      132 TA     9f2+      -0.0001   -0.0000   -0.0000    0.0000   -0.0000    0.0000    0.0000    0.0000   -0.0000    0.0000
      133 TA    10f2+       0.0000    0.0000    0.0000   -0.0000   -0.0000    0.0000    0.0000    0.0000    0.0000   -0.0000
      134 TA    11f2+      -0.0000   -0.0000   -0.0000    0.0000   -0.0000   -0.0000   -0.0000   -0.0000   -0.0000    0.0000
      135 TA     4f3+      -0.0000   -0.0000    0.0002   -0.0000    0.0000    0.0000    0.0000    0.0003   -0.0000    0.0036
      136 TA     5f3+       0.0000    0.0000   -0.0001    0.0000    0.0000   -0.0000    0.0000   -0.0004   -0.0000    0.0009
      137 TA     6f3+      -0.0000   -0.0000    0.0001   -0.0000   -0.0000    0.0000    0.0000    0.0001    0.0000   -0.0003
      138 TA     7f3+       0.0000    0.0000   -0.0001    0.0000    0.0000   -0.0000   -0.0000    0.0000    0.0000   -0.0001
      139 TA     8f3+      -0.0000   -0.0000    0.0001   -0.0000   -0.0000    0.0000    0.0000   -0.0001   -0.0000    0.0000
      140 TA     9f3+       0.0000    0.0000   -0.0000    0.0000   -0.0000    0.0000    0.0000    0.0000   -0.0000    0.0001
      141 TA    10f3+      -0.0000   -0.0000    0.0000   -0.0000    0.0000   -0.0000   -0.0000    0.0000    0.0000   -0.0001
      142 TA    11f3+       0.0000    0.0000   -0.0000    0.0000    0.0000   -0.0000    0.0000   -0.0000   -0.0000    0.0000
      143 TA     5g4-      -0.0000    0.0000    0.0000    0.0000   -0.0000   -0.0000    0.0001    0.0000    0.0001    0.0000
      144 TA     6g4-       0.0000   -0.0000   -0.0000   -0.0000    0.0000   -0.0000    0.0000    0.0000    0.0000    0.0000
      145 TA     7g4-      -0.0000    0.0000    0.0000    0.0000   -0.0000    0.0000   -0.0000   -0.0000   -0.0000   -0.0000
      146 TA     8g4-       0.0000   -0.0000   -0.0000   -0.0000    0.0000   -0.0000    0.0000    0.0000   -0.0000   -0.0000
      147 TA     5g3-      -0.0000    0.0000    0.0000    0.0000    0.0000    0.0000   -0.0000   -0.0000   -0.0001   -0.0000
      148 TA     6g3-       0.0000   -0.0000   -0.0000   -0.0000   -0.0000    0.0000   -0.0000   -0.0000   -0.0001   -0.0000
      149 TA     7g3-      -0.0000    0.0000    0.0000    0.0000    0.0000   -0.0000    0.0000    0.0000    0.0002    0.0000
      150 TA     8g3-       0.0000   -0.0000   -0.0000   -0.0000    0.0000   -0.0000    0.0000   -0.0000   -0.0000   -0.0000
      151 TA     5g2-       0.0000   -0.0000   -0.0000   -0.0000   -0.0000    0.0000   -0.0000   -0.0000   -0.0000   -0.0000
      152 TA     6g2-      -0.0000    0.0000    0.0000    0.0000    0.0000    0.0000   -0.0000   -0.0000   -0.0000   -0.0000
      153 TA     7g2-       0.0000   -0.0000   -0.0000   -0.0000   -0.0000   -0.0000    0.0000    0.0000    0.0000    0.0000
      154 TA     8g2-      -0.0000    0.0000    0.0000    0.0000    0.0000    0.0000   -0.0000   -0.0000    0.0000    0.0000
      155 TA     5g1-       0.0000   -0.0000   -0.0000   -0.0000    0.0000    0.0000   -0.0000   -0.0000    0.0000    0.0000
      156 TA     6g1-      -0.0000    0.0000    0.0000    0.0000   -0.0000   -0.0000    0.0000    0.0000    0.0000    0.0000
      157 TA     7g1-       0.0000   -0.0000   -0.0000   -0.0000    0.0000    0.0000   -0.0000   -0.0000   -0.0001   -0.0000
      158 TA     8g1-      -0.0000    0.0000    0.0000    0.0000   -0.0000    0.0000   -0.0000   -0.0000    0.0000    0.0000
      159 TA     5g0        0.0000    0.0000   -0.0000    0.0000   -0.0000   -0.0000   -0.0000    0.0000   -0.0000    0.0001
      160 TA     6g0       -0.0000   -0.0000    0.0000   -0.0000   -0.0000   -0.0000   -0.0000   -0.0000   -0.0000    0.0001
      161 TA     7g0        0.0000    0.0000   -0.0000    0.0000    0.0000    0.0000    0.0000   -0.0000    0.0000   -0.0001
      162 TA     8g0       -0.0000   -0.0000    0.0000   -0.0000   -0.0000   -0.0000   -0.0000    0.0000   -0.0000    0.0000
      163 TA     5g1+      -0.0000   -0.0000    0.0000   -0.0000    0.0000   -0.0001   -0.0000    0.0000   -0.0000    0.0000
      164 TA     6g1+       0.0000    0.0000   -0.0000    0.0000   -0.0000   -0.0000   -0.0000    0.0000   -0.0000    0.0000
      165 TA     7g1+      -0.0000   -0.0000    0.0000   -0.0000    0.0000    0.0000    0.0000   -0.0000    0.0000   -0.0000
      166 TA     8g1+       0.0000    0.0000   -0.0000    0.0000   -0.0000   -0.0000   -0.0000   -0.0000    0.0000   -0.0000
      167 TA     5g2+      -0.0000   -0.0000    0.0000   -0.0000    0.0000   -0.0000    0.0000   -0.0001    0.0000   -0.0001
      168 TA     6g2+       0.0000    0.0000   -0.0000    0.0000    0.0000    0.0000    0.0000    0.0000    0.0000   -0.0001
      169 TA     7g2+      -0.0000   -0.0000    0.0000   -0.0000   -0.0000   -0.0000   -0.0000    0.0000   -0.0000    0.0001
      170 TA     8g2+       0.0000    0.0000   -0.0000    0.0000    0.0000   -0.0000   -0.0000   -0.0000    0.0000   -0.0000
      171 TA     5g3+       0.0000    0.0000   -0.0000    0.0000    0.0000    0.0000    0.0000    0.0000    0.0000   -0.0000
      172 TA     6g3+      -0.0000   -0.0000    0.0000   -0.0000   -0.0000    0.0000    0.0000    0.0000    0.0000   -0.0000
      173 TA     7g3+       0.0000    0.0000   -0.0000    0.0000    0.0000   -0.0000   -0.0000   -0.0000   -0.0000    0.0000
      174 TA     8g3+      -0.0000   -0.0000    0.0000   -0.0000   -0.0000    0.0000    0.0000   -0.0000   -0.0000    0.0000
      175 TA     5g4+      -0.0000   -0.0000    0.0000   -0.0000   -0.0000    0.0000   -0.0000    0.0001    0.0000   -0.0001
      176 TA     6g4+       0.0000    0.0000   -0.0000    0.0000   -0.0000    0.0000    0.0000   -0.0000    0.0000   -0.0001
      177 TA     7g4+      -0.0000   -0.0000    0.0000   -0.0000    0.0000   -0.0000    0.0000   -0.0000   -0.0000    0.0001
      178 TA     8g4+       0.0000    0.0000   -0.0000    0.0000   -0.0000   -0.0000   -0.0000    0.0000    0.0000   -0.0000
      179 TA     6h5-      -0.0000    0.0000   -0.0000   -0.0000   -0.0000    0.0000   -0.0000   -0.0000   -0.0000   -0.0000
      180 TA     7h5-       0.0000   -0.0000   -0.0000   -0.0000    0.0000   -0.0000    0.0000    0.0000    0.0000    0.0000
      181 TA     6h4-       0.0000   -0.0000    0.0000    0.0000    0.0000   -0.0000    0.0000    0.0000    0.0001    0.0000
      182 TA     7h4-       0.0000   -0.0000   -0.0000   -0.0000    0.0000    0.0000   -0.0000   -0.0000    0.0000    0.0000
      183 TA     6h3-       0.0000   -0.0000   -0.0000   -0.0000   -0.0000   -0.0000    0.0000    0.0000   -0.0000   -0.0000
      184 TA     7h3-      -0.0000    0.0000    0.0000    0.0000    0.0000    0.0000   -0.0000   -0.0000   -0.0000   -0.0000
      185 TA     6h2-      -0.0000    0.0000   -0.0000   -0.0000   -0.0000   -0.0000    0.0000    0.0000   -0.0001   -0.0000
      186 TA     7h2-      -0.0000    0.0000    0.0000    0.0000   -0.0000   -0.0000    0.0000    0.0000   -0.0000   -0.0000
      187 TA     6h1-      -0.0000    0.0000   -0.0000   -0.0000   -0.0000    0.0000   -0.0000   -0.0000   -0.0000   -0.0000
[...]
         7    9       1.74031462E-01  6.68784275E-18  3.85914558E+06  2.93157219E-14  3.85914558E+06
         7   11       1.25705831E-01  1.28167679E+01  4.77103209E-14  3.76645470E+06  3.76646752E+06
         7   13       5.91635811E-02  1.84341195E+08  4.68125492E-14  9.43124777E+06  1.93772443E+08
         7   15       1.98476001E-02  1.29394151E-13  8.36427164E+07  1.32104241E-11  8.36427164E+07
         7   17       1.13271057E-02  1.35743505E+05  1.62907959E-11  4.76638474E+07  4.77995909E+07
         8   10       1.74031462E-01  6.68784275E-18  3.85914558E+06  2.93157219E-14  3.85914558E+06
         8   12       1.25705831E-01  1.28167679E+01  4.77103209E-14  3.76645470E+06  3.76646752E+06
         8   14       5.91635811E-02  1.84341195E+08  4.68125492E-14  9.43124777E+06  1.93772443E+08
         8   16       1.98476001E-02  1.29394151E-13  8.36427164E+07  1.32104241E-11  8.36427164E+07
         8   18       1.13271057E-02  1.35743505E+05  1.62907959E-11  4.76638474E+07  4.77995909E+07
         9   11       1.36459424E-02  2.08882739E-21  7.98121654E+03  6.10530655E-16  7.98121654E+03
         9   13       1.99742343E-01  5.51277576E-13  5.50965942E+08  3.03397529E-12  5.50965942E+08
         9   15       2.08868226E-02  4.64571096E+06  3.10519454E-11  7.10696173E+07  7.57153283E+07
         9   17       2.02277410E-02  6.13246792E-13  7.34327272E+07  2.34146657E-11  7.34327272E+07
        10   12       1.36459424E-02  2.08882739E-21  7.98121654E+03  6.10530655E-16  7.98121654E+03
        10   14       1.99742343E-01  5.51277576E-13  5.50965942E+08  3.03397529E-12  5.50965942E+08
        10   16       2.08868226E-02  4.64571096E+06  3.10519454E-11  7.10696173E+07  7.57153283E+07
        10   18       2.02277410E-02  6.13246792E-13  7.34327272E+07  2.34146657E-11  7.34327272E+07
        11   13       1.95356271E-01  2.34354978E+06  7.56542930E-12  5.20944769E+08  5.23288319E+08
        11   15       1.55090159E-02  6.90315786E-13  5.48014513E+07  1.87402242E-11  5.48014513E+07
        11   17       2.37697641E-02  4.45291051E+06  1.85195905E-11  7.96617400E+07  8.41146505E+07
        12   14       1.95356271E-01  2.34354978E+06  7.56542930E-12  5.20944769E+08  5.23288319E+08
        12   16       1.55090159E-02  6.90315786E-13  5.48014513E+07  1.87402242E-11  5.48014513E+07
        12   18       2.37697641E-02  4.45291051E+06  1.85195905E-11  7.96617400E+07  8.41146505E+07
        13   15       3.96775689E-03  5.09882582E-14  2.34509339E+05  3.77112783E-14  2.34509339E+05
        13   17       3.83104103E-03  4.05199157E+02  6.36519243E-14  2.28607814E+05  2.29013013E+05
        14   16       3.96775689E-03  5.09882582E-14  2.34509339E+05  3.77112783E-14  2.34509339E+05
        14   18       3.83104103E-03  4.05199157E+02  6.36519243E-14  2.28607814E+05  2.29013013E+05
        15   17       4.32428630E-05  1.15465419E-25  8.27475179E-02  6.32360420E-20  8.27475179E-02
        16   18       4.32428630E-05  1.15465419E-25  8.27475179E-02  6.32360420E-20  8.27475179E-02
     -----------------------------------------------------------------------------------------------
--

++ Velocity transition strengths (SO states):
   ------------------------------------------
    for osc. strength at least    1.0000000000000001E-005

      From   To        Osc. strength     Einstein coefficients Ax, Ay, Az (sec-1)    Total A (sec-1)
     -----------------------------------------------------------------------------------------------
         1    3       2.42081140E-01  1.99715975E+01  1.22527642E-09  4.17185442E+07  4.17185642E+07
         1    5       2.36604110E-01  3.49618277E-17  4.33668859E+07  1.25699012E-09  4.33668859E+07
         1    7       2.30813686E-03  1.87031165E+06  4.48681233E-14  3.28698356E+02  1.87064035E+06
         1    9       3.89671031E-05  3.54254476E-15  4.28929718E+04  1.59750126E-15  4.28929718E+04
         1   11       1.07786818E-04  3.20282370E+04  4.51007645E-15  9.21507821E+04  1.24179019E+05
         1   13       1.23304406E-03  9.05561933E+06  9.08563254E-16  2.31950878E+01  9.05564252E+06
         1   15       3.27446616E-03  7.69196870E-15  2.85563423E+07  3.79635798E-12  2.85563423E+07
         1   17       3.13793043E-03  1.77836520E+03  8.47804977E-12  2.73894908E+07  2.73912692E+07
         2    4       2.42081140E-01  1.99715975E+01  1.22527642E-09  4.17185442E+07  4.17185642E+07
         2    6       2.36604110E-01  3.49618277E-17  4.33668859E+07  1.25699012E-09  4.33668859E+07
         2    8       2.30813686E-03  1.87031165E+06  4.48681233E-14  3.28698356E+02  1.87064035E+06
         2   10       3.89671031E-05  3.54254476E-15  4.28929718E+04  1.59750126E-15  4.28929718E+04
         2   12       1.07786818E-04  3.20282370E+04  4.51007645E-15  9.21507821E+04  1.24179019E+05
         2   14       1.23304406E-03  9.05561933E+06  9.08563254E-16  2.31950878E+01  9.05564252E+06
         2   16       3.27446616E-03  7.69196870E-15  2.85563423E+07  3.79635798E-12  2.85563423E+07
         2   18       3.13793043E-03  1.77836520E+03  8.47804977E-12  2.73894908E+07  2.73912692E+07
         3    5       8.37271228E-04  1.83000470E-18  1.41332331E+02  1.42149513E-15  1.41332331E+02
         3    7       4.10993789E-02  9.73243727E+03  3.73378095E-10  9.66275308E+06  9.67248552E+06
         3    9       1.32098222E-02  3.15432244E-11  5.31036096E+06  1.48512356E-10  5.31036096E+06
         3   11       2.06730235E-02  1.05228455E+06  9.88595506E-11  7.90436960E+06  8.95665416E+06
         3   13       2.44736513E-03  3.58472022E+02  3.75626612E-10  1.28885871E+07  1.28889456E+07
         3   15       1.92342761E-02  4.51406439E-11  1.23895489E+08  3.01939376E-09  1.23895489E+08
         3   17       1.96492367E-02  1.29813564E+06  3.12243893E-09  1.25408285E+08  1.26706421E+08
         4    6       8.37271228E-04  1.83000470E-18  1.41332331E+02  1.42149513E-15  1.41332331E+02
         4    8       4.10993789E-02  9.73243727E+03  3.73378095E-10  9.66275308E+06  9.67248552E+06
         4   10       1.32098222E-02  3.15432244E-11  5.31036096E+06  1.48512356E-10  5.31036096E+06
         4   12       2.06730235E-02  1.05228455E+06  9.88595506E-11  7.90436960E+06  8.95665416E+06
         4   14       2.44736513E-03  3.58472022E+02  3.75626612E-10  1.28885871E+07  1.28889456E+07
         4   16       1.92342761E-02  4.51406439E-11  1.23895489E+08  3.01939376E-09  1.23895489E+08
         4   18       1.96492367E-02  1.29813564E+06  3.12243893E-09  1.25408285E+08  1.26706421E+08
         5    7       5.57862832E-02  2.16266079E-13  1.24351461E+07  2.73879665E-10  1.24351461E+07
         5    9       1.62131138E-02  1.02795459E+06  1.47765472E-10  5.22535459E+06  6.25330917E+06
         5   11       8.34093020E-03  3.13079569E-11  3.47248262E+06  2.20066640E-10  3.47248262E+06
         5   13       2.36788708E-03  1.10145730E-14  1.23295764E+07  3.59990847E-10  1.23295764E+07
         5   15       1.95261073E-02  1.30164362E+06  2.98509136E-09  1.23189216E+08  1.24490859E+08
         5   17       1.98929728E-02  4.44108014E-11  1.26968856E+08  3.06594695E-09  1.26968856E+08
         6    8       5.57862832E-02  2.16266079E-13  1.24351461E+07  2.73879665E-10  1.24351461E+07
         6   10       1.62131138E-02  1.02795459E+06  1.47765472E-10  5.22535459E+06  6.25330917E+06
         6   12       8.34093020E-03  3.13079569E-11  3.47248262E+06  2.20066640E-10  3.47248262E+06
         6   14       2.36788708E-03  1.10145730E-14  1.23295764E+07  3.59990847E-10  1.23295764E+07
         6   16       1.95261073E-02  1.30164362E+06  2.98509136E-09  1.23189216E+08  1.24490859E+08
         6   18       1.98929728E-02  4.44108014E-11  1.26968856E+08  3.06594695E-09  1.26968856E+08
         7    9       2.90910729E-03  8.16919291E-17  6.45096433E+04  1.55926787E-16  6.45096433E+04
         7   11       2.43834635E-03  2.51740214E+00  2.36674511E-15  7.30568163E+04  7.30593337E+04
         7   13       7.83700024E-03  2.55215466E+07  1.61832753E-13  1.46270228E+05  2.56678168E+07
         7   15       3.97746731E-02  2.69294350E-17  1.67620934E+08  2.61547086E-11  1.67620934E+08
         7   17       2.76147388E-02  9.90002855E+04  3.39230690E-11  1.16433664E+08  1.16532664E+08
         8   10       2.90910729E-03  8.16919291E-17  6.45096433E+04  1.55926787E-16  6.45096433E+04
         8   12       2.43834635E-03  2.51740214E+00  2.36674511E-15  7.30568163E+04  7.30593337E+04
         8   14       7.83700024E-03  2.55215466E+07  1.61832753E-13  1.46270228E+05  2.56678168E+07
         8   16       3.97746731E-02  2.69294350E-17  1.67620934E+08  2.61547086E-11  1.67620934E+08
         8   18       2.76147388E-02  9.90002855E+04  3.39230690E-11  1.16433664E+08  1.16532664E+08
         9   11       2.97556529E-04  5.34440623E-19  1.74034983E+02  5.41802641E-17  1.74034983E+02
         9   13       3.00675375E-03  8.68972787E-16  8.29380814E+06  5.56538477E-18  8.29380814E+06
         9   15       1.88926982E-02  5.01534609E+06  1.91443086E-11  6.34714623E+07  6.84868084E+07
         9   17       1.79855616E-02  6.43463934E-13  6.52931750E+07  2.22366285E-11  6.52931750E+07
        10   12       2.97556529E-04  5.34440623E-19  1.74034983E+02  5.41802641E-17  1.74034983E+02
        10   14       3.00675375E-03  8.68972787E-16  8.29380814E+06  5.56538477E-18  8.29380814E+06
        10   16       1.88926982E-02  5.01534609E+06  1.91443086E-11  6.34714623E+07  6.84868084E+07
        10   18       1.79855616E-02  6.43463934E-13  6.52931750E+07  2.22366285E-11  6.52931750E+07
        11   13       3.02012215E-03  3.14876643E+05  2.55831413E-13  7.77495907E+06  8.08983571E+06
        11   15       1.16419985E-02  6.67430211E-13  4.11374025E+07  2.23683108E-11  4.11374025E+07
        11   17       2.40404550E-02  4.91537321E+06  1.41398975E-11  8.01574738E+07  8.50728470E+07
        12   14       3.02012215E-03  3.14876643E+05  2.55831413E-13  7.77495907E+06  8.08983571E+06
        12   16       1.16419985E-02  6.67430211E-13  4.11374025E+07  2.23683108E-11  4.11374025E+07
        12   18       2.40404550E-02  4.91537321E+06  1.41398975E-11  8.01574738E+07  8.50728470E+07
        13   15       2.78566381E-03  2.68577363E-16  1.64643770E+05  3.49213280E-14  1.64643770E+05
        13   17       2.49544674E-03  4.62542444E+00  3.24442183E-14  1.49169387E+05  1.49174013E+05
        14   16       2.78566381E-03  2.68577363E-16  1.64643770E+05  3.49213280E-14  1.64643770E+05
        14   18       2.49544674E-03  4.62542444E+00  3.24442183E-14  1.49169387E+05  1.49174013E+05
        15   17       1.91777362E-04  3.62840419E-21  3.66977457E-01  1.02598799E-17  3.66977457E-01
        16   18       1.91777362E-04  3.62840419E-21  3.66977457E-01  1.02598799E-17  3.66977457E-01
     -----------------------------------------------------------------------------------------------
--

++ Length and velocity gauge comparison (SO states):

 --------------------------------------------------
 A comparison between the dipole oscillator strengths in 
 length and velocity gauge will be performed

 All dipole oscillator differences above the tolerance of   0.10000000000000001       will be printed 

 Due to basis set deficiency these oscillator may be problematic 

 The tolerance is defined as ABS(1-O_l/O_v) 
 O_l : dipole oscillator strength in length gauge
 O_p : dipole oscillator strength in velocity gauge
 --------------------------------------------------

  Problematic transitions have been found

      From   To       Difference (%) Osc. st. (len.) Osc. st. (vel.)
     ---------------------------------------------------------------
         1    3            82.959865  4.12509521E-02  2.42081140E-01
         1    5            81.963884  4.26741915E-02  2.36604110E-01
         1    7            42.530797  3.28980586E-03  2.30813686E-03
         1    9         89021.808658  3.47281871E-02  3.89671031E-05
         1   11         30438.632113  3.29166198E-02  1.07786818E-04
         1   13          2137.477548  2.75890839E-02  1.23304406E-03
         1   15            13.520179  3.71717983E-03  3.27446616E-03
         1   17            18.485562  3.71799450E-03  3.13793043E-03
         2    4            82.959865  4.12509521E-02  2.42081140E-01
         2    6            81.963884  4.26741915E-02  2.36604110E-01
         2    8            42.530797  3.28980586E-03  2.30813686E-03
         2   10         89021.808658  3.47281871E-02  3.89671031E-05
         2   12         30438.632113  3.29166198E-02  1.07786818E-04
         2   14          2137.477548  2.75890839E-02  1.23304406E-03
         2   16            13.520179  3.71717983E-03  3.27446616E-03
         2   18            18.485562  3.71799450E-03  3.13793043E-03
         3    5            63.984945  3.01543693E-04  8.37271228E-04
         3    7            83.179735  6.91302454E-03  4.10993789E-02
         3    9            90.783298  2.52021344E-02  1.32098222E-02
         3   11            54.690767  3.19792585E-02  2.06730235E-02
         3   13           188.468736  7.05988325E-03  2.44736513E-03
         3   15            39.369854  1.16617696E-02  1.92342761E-02
         3   17            18.104868  1.60917684E-02  1.96492367E-02
         4    6            63.984945  3.01543693E-04  8.37271228E-04
         4    8            83.179735  6.91302454E-03  4.10993789E-02
         4   10            90.783298  2.52021344E-02  1.32098222E-02
         4   12            54.690767  3.19792585E-02  2.06730235E-02
         4   14           188.468736  7.05988325E-03  2.44736513E-03
         4   16            39.369854  1.16617696E-02  1.92342761E-02
         4   18            18.104868  1.60917684E-02  1.96492367E-02
         5    7            74.215136  1.43844171E-02  5.57862832E-02
         5    9            81.741213  2.94659096E-02  1.62131138E-02
         5   11           148.903830  2.07608948E-02  8.34093020E-03
         5   13           217.807913  7.52533250E-03  2.36788708E-03
         5   15            18.494766  1.59147994E-02  1.95261073E-02
         5   17            37.325634  1.24677946E-02  1.98929728E-02
         6    8            74.215136  1.43844171E-02  5.57862832E-02
         6   10            81.741213  2.94659096E-02  1.62131138E-02
         6   12           148.903830  2.07608948E-02  8.34093020E-03
         6   14           217.807913  7.52533250E-03  2.36788708E-03
         6   16            18.494766  1.59147994E-02  1.95261073E-02
         6   18            37.325634  1.24677946E-02  1.98929728E-02
         7    9          5882.297831  1.74031462E-01  2.90910729E-03
         7   11          5055.372249  1.25705831E-01  2.43834635E-03
         7   13           654.926366  5.91635811E-02  7.83700024E-03
         7   15            50.099904  1.98476001E-02  3.97746731E-02
         7   17            58.981666  1.13271057E-02  2.76147388E-02
         8   10          5882.297831  1.74031462E-01  2.90910729E-03
         8   12          5055.372249  1.25705831E-01  2.43834635E-03
         8   14           654.926366  5.91635811E-02  7.83700024E-03
         8   16            50.099904  1.98476001E-02  3.97746731E-02
         8   18            58.981666  1.13271057E-02  2.76147388E-02
         9   11          4485.999991  1.36459424E-02  2.97556529E-04
         9   13          6543.122777  1.99742343E-01  3.00675375E-03
         9   15            10.555001  2.08868226E-02  1.88926982E-02
         9   17            12.466552  2.02277410E-02  1.79855616E-02
        10   12          4485.999991  1.36459424E-02  2.97556529E-04
        10   14          6543.122777  1.99742343E-01  3.00675375E-03
        10   16            10.555001  2.08868226E-02  1.88926982E-02
        10   18            12.466552  2.02277410E-02  1.79855616E-02
        11   13          6368.489063  1.95356271E-01  3.02012215E-03
        11   15            33.216097  1.55090159E-02  1.16419985E-02
        12   14          6368.489063  1.95356271E-01  3.02012215E-03
        12   16            33.216097  1.55090159E-02  1.16419985E-02
        13   15            42.434879  3.96775689E-03  2.78566381E-03
        13   17            53.521250  3.83104103E-03  2.49544674E-03
        14   16            42.434879  3.96775689E-03  2.78566381E-03
        14   18            53.521250  3.83104103E-03  2.49544674E-03
        15   17            77.451529  4.32428630E-05  1.91777362E-04
        16   18            77.451529  4.32428630E-05  1.91777362E-04
     ---------------------------------------------------------------

 Number of problematic transitions =                    70

--

 Electric-dipole - electric-octupole not included
++ I/O STATISTICS
 
  I. General I/O information
  - - - - - - - - - - - - - - - - - - - - - - - - - - - - - - - - - - - - - - - - - - -
  Unit  Name          Flsize      Write/Read            MBytes           Write/Read
                      (MBytes)       Calls              In/Out           Time, sec.
  - - - - - - - - - - - - - - - - - - - - - - - - - - - - - - - - - - - - - - - - - - -
   1  SCRATCH           0.00 .       9/      45 .      0.0/      0.0 .       0/       0
   2  ANNI              0.00 .       0/       0 .      0.0/      0.0 .       0/       0
   3  RUNFILE          15.31 .     322/   10733 .      2.3/     77.8 .       0/       0
   4  ONEINT            6.58 .       0/   28767 .      0.0/   3777.9 .       0/       0
   5  JOBIPH            7.71 .       0/      92 .      0.0/      0.9 .       0/       0
   6  ORDINT          771.03 .       1/    6169 .      0.0/   1542.0 .       0/       0
  - - - - - - - - - - - - - - - - - - - - - - - - - - - - - - - - - - - - - - - - - - -
   *  TOTAL           800.63 .     332/   45806 .      2.3/   5398.7 .       0/       0
  - - - - - - - - - - - - - - - - - - - - - - - - - - - - - - - - - - - - - - - - - - -
 
  II. I/O Access Patterns
  - - - - - - - - - - - - - - - - - - - -
  Unit  Name               % of random
                         Write/Read calls
  - - - - - - - - - - - - - - - - - - - -
   1  SCRATCH             88.9/ 100.0
   2  ANNI                 0.0/   0.0
   3  RUNFILE             28.6/  10.8
   4  ONEINT               0.0/  13.4
   5  JOBIPH               0.0/  76.1
   6  ORDINT             100.0/   0.0
  - - - - - - - - - - - - - - - - - - - -
--
--- Stop Module: rassi at Mon Mar 31 12:43:58 2025 /rc=_RC_ALL_IS_WELL_ ---
*** files: xmldump
    saved to directory /home4/s4752295/Internship/Initial_simulations/Point_charge_model/1_electron/Madelung_charges_9_active_space/Ta/fixed_calculations
--- Module rassi spent 3 seconds ---

.##################.
.# Happy landing! #.
.##################.

    Timing: Wall=90.03 User=73.55 System=14.86

###############################################################################
Hbrk Cluster
Job 16049512 for user s4752295
Finished at: Mon Mar 31 12:44:02 CEST 2025

Job details:
============

Job ID                         : 16049512
Name                           : Ta_no_SO
User                           : s4752295
Partition                      : regularshort
Nodes                          : node112
Number of Nodes                : 1
Cores                          : 1
Number of Tasks                : 1
State                          : COMPLETED  
Submit                         : 2025-03-31T12:41:27
Start                          : 2025-03-31T12:42:24
End                            : 2025-03-31T12:43:58
Reserved walltime              : 01:00:00
Used walltime                  : 00:01:34
Used CPU time                  : 00:01:30 (Efficiency: 95.27%)
% User (Computation)           : 83.14%
% System (I/O)                 : 16.86%
Total memory reserved          : 25000M
Maximum memory used            : 3.04G

Acknowledgements:
=================

Please see this page for information about acknowledging Hbrk in your publications:

https://wiki.hpc.rug.nl/habrok/introduction/scientific_output

################################################################################
