   This run of MOLCAS is using the pymolcas driver

                             OPE
                             OPE          NMOL  CASOP  ENMOLC A   SO
                 OPE        NMOLC        AS  OP EN  MO LC     AS  OP
                OPENM       OL CA        SO  PE NM  OL CA     SOP EN
                OP EN      MO   LC       AS  OP ENMOL  CASO   PENMOL
                OP  EN     MO   LC       AS  OP EN     MO     LC ASO
               OP   E  NMOL  C  AS       OP  EN MO     LC     AS  OP
               OP  E   NMO   LC AS        OPEN  MO     LCASOP EN   M
               O  PEN   MO  LCA  SO
            OPE   NMO   L   CAS    OP
        OPENMOL  CASOP     ENMOL   CASOPE
     OPENMOLCA   SOPENMOLCASOPEN   MOLCASOPE
    OPENMOLCAS   OP           EN   MOL    CAS
    OPENMOLCAS       OP  ENM        O     LCA
    OPENMOLCAS    OPEN  MOLCASO     P  E  NMO
    OPENMOLCAS     OP               E  N  MOL
    OPENMOLCA   SO           PENM   O  L  CAS    OPEN    MO    LCAS
    OPENMOLCA   SOP           ENM   O  L  CAS   OP  EN  MOLC  AS   O
    OPENMOLCA   SOPE           NM      O  LCA   S      OP  EN MO
    OPENMOLC                AS         O  PEN   M      OL  CA  SOPE
    OPENMO        LCASOPE  NMOL        C  ASO   P      ENMOLC     AS
    OPE     NMO      LCA  SO     P     E   NM   OL  CA SO  PE N   MO
          OPENMOLCA            SOPE   NMO        LCAS  O    P  ENMO
     OPENMOLCASOPENMOLCASOPENMOLCASOPENMOLCA
        OPENMOLCASOPENMOLCASOPENMOLCASOPE
            OPENMOLCASOPENMOLCASOPENM
               OPENMOLCASOPENMOLCA        version: o91e1abe7de707b ?
                   OPENMOLCASO
                       OPE                tag:

 OpenMolcas is free software; you can redistribute it and/or modify it
 under the terms of the GNU Lesser General Public License version 2.1.
 OpenMolcas is distributed in the hope that it will be useful, but it
 is provided "as is" and without any express or implied warranties.
 For more details see the full text of the license in the file
 LICENSE or in <http://www.gnu.org/licenses/>.

                 Copyright (C) The OpenMolcas Authors
           For the author list and the recommended citation,
                   consult the file CONTRIBUTORS.md

           *************************************************
           * pymolcas version py2.10                       *
           *   build 3068ae8b88c9345ec6cfef6fef7f1169      *
           *   (after the EMIL interpreter by V. Veryazov) *
           *************************************************

configuration info
------------------
Host name: login1 (Linux)
C Compiler ID: GNU
C flags: -std=gnu99
Fortran Compiler ID: GNU
Fortran flags: -fno-aggressive-loop-optimizations -cpp -fdefault-integer-8 -fmax-stack-var-size=1048576
Definitions: _MOLCAS_;_I8_;_LINUX_;_MKL_
Parallel: OFF (GA=OFF)


   -----------------------------------------------------------------------------------------------------------------------------------------------------
  |
  |           Project: tungsten_so_cf
  |    Submitted from: /home4/s4752295/Internship/Initial_simulations/Point_charge_model/1_electron/Madelung_charges_9_active_space/W/fixed_calculations
  |      Scratch area: /tmp/tungsten_so_cf
  |   Save outputs to: /home4/s4752295/Internship/Initial_simulations/Point_charge_model/1_electron/Madelung_charges_9_active_space/W/fixed_calculations
  |            Molcas: /home4/s4752295/Internship/Molcas/recomp_try/OpenMolcas-master/build
  |
  | Scratch area is empty
  |
  |    MOLCAS_DRIVER = /home4/s4752295/Internship/Molcas/bin/pymolcas
  |    MOLCAS_NPROCS = 1
  |    MOLCAS_SOURCE = /home4/s4752295/Internship/Molcas/recomp_try/OpenMolcas-master
  | MOLCAS_STRUCTURE = 0
  |
   -----------------------------------------------------------------------------------------------------------------------------------------------------

++ ---------   Input file   ---------

&SEWARD
AMFi

CLIG
$R

Basis Set
W.ANO-rcc.Roos.24s21p15d11f4g2h.11s10p9d8f4g2h.
Spherical d
W            -1.0658140267135469e-14    -3.5527134223784897e-15 0.008753588724385739
End of Basis

Xfield

414
-4.00220108,-1.54,0.889119      -0.625931
-4.00220108,-0.0,-1.778239      -0.625931
-4.00220108,1.54,0.889119       -0.625931
-3.99534607,0.0,0.0     1.892092
2.65917969,-1.54,-0.889119      2.515516
2.65917969,0.0,1.778239 2.515516
2.65917969,1.54,-0.889119       2.515516
3.56298828,-3.08,0.0    0.004632
3.56298828,-1.54,-2.667358      0.004632
3.56298828,-1.54,2.667358       0.004632
3.56298828,1.54,-2.667358       0.004632
3.56298828,1.54,2.667358        0.004632
3.56298828,3.08,0.0     0.004632
4.12915039,-1.54,0.889119       -2.519484
4.12915039,-0.0,-1.778239       -2.519484
4.12915039,1.54,0.889119        -2.519484
-2.93310547,-0.0,-0.0   -3.142907
-4.97509766,-3.08,-1.778239     -0.625931
-4.97509766,0.0,3.556477        -0.625931
-4.97509766,3.08,-1.778239      -0.625931
-6.609375,-3.08,0.0     1.892092
-6.609375,-1.54,-2.667358       1.892092
-6.609375,-1.54,2.667358        1.892092
-6.609375,1.54,-2.667358        1.892092
-6.609375,1.54,2.667358 1.892092
-6.609375,3.08,0.0      1.892092
25.171875,-3.08,1.778239        2.515516
25.171875,-0.0,-3.556477        2.515516
25.171875,3.08,1.778239 2.515516
3.63867188,-3.08,-1.778239      -2.519484
3.63867188,0.0,3.556477 -2.519484
3.63867188,3.08,-1.778239       -2.519484
-3.23242188,-3.08,-0.0  -3.142907
-3.23242188,-1.54,-2.667358     -3.142907
-3.23242188,-1.54,2.667358      -3.142907
-3.23242188,1.54,-2.667358      -3.142907
-3.23242188,1.54,2.667358       -3.142907
-3.23242188,3.08,-0.0   -3.142907
-9.5234375,-3.08,3.556477       -0.625931
-9.5234375,3.08,3.556477        -0.625931
-9.5234375,-4.62,0.889119       -0.625931
-9.5234375,4.62,0.889119        -0.625931
-9.5234375,-1.54,-4.445597      -0.625931
-9.5234375,1.54,-4.445597       -0.625931
6.0078125,-1.54,-0.889119       4.409069
6.0078125,1.54,-0.889119        4.409069
6.0078125,0.0,1.778239  4.409069
-175.25,-0.0,-0.0       -5.030367
-175.25,0.0,0.0 5.039632
13.51757812,-3.08,-3.556477     2.515516
13.51757812,3.08,-3.556477      2.515516
13.51757812,-4.62,-0.889119     2.515516
13.51757812,4.62,-0.889119      2.515516
13.51757812,-1.54,4.445597      2.515516
13.51757812,1.54,4.445597       2.515516
19.0390625,-4.62,-2.667358      0.004632
19.0390625,-4.62,2.667358       0.004632
19.0390625,4.62,-2.667358       0.004632
19.0390625,4.62,2.667358        0.004632
19.0390625,-0.0,-5.334716       0.004632
19.0390625,0.0,5.334716 0.004632
48.078125,-3.08,3.556477        -2.519484
48.078125,3.08,3.556477 -2.519484
48.078125,-4.62,0.889119        -2.519484
48.078125,4.62,0.889119 -2.519484
48.078125,-1.54,-4.445597       -2.519484
48.078125,1.54,-4.445597        -2.519484
-145.875,-4.62,-2.667358        1.892092
-145.875,-4.62,2.667358 1.892092
-145.875,4.62,-2.667358 1.892092
-145.875,4.62,2.667358  1.892092
-145.875,-0.0,-5.334716 1.892092
-145.875,0.0,5.334716   1.892092
-117.75,-3.08,1.778239  4.409069
-117.75,-0.0,-3.556477  4.409069
-117.75,3.08,1.778239   4.409069
-89.0,-3.08,-0.0        -5.030367
-89.0,-1.54,-2.667358   -5.030367
-89.0,-1.54,2.667358    -5.030367
-89.0,1.54,-2.667358    -5.030367
-89.0,-3.08,0.0 5.039632
-89.0,3.08,-0.0 -5.030367
-89.0,1.54,2.667358     -5.030367
-89.0,-1.54,-2.667358   5.039632
-89.0,-1.54,2.667358    5.039632
-89.0,1.54,-2.667358    5.039632
-89.0,3.08,0.0  5.039632
-89.0,1.54,2.667358     5.039632
-46.625,-1.54,-0.889119 -5.660931
-46.625,0.0,1.778239    -5.660931
-46.625,1.54,-0.889119  -5.660931
0.8828125,-6.159999,0.0 0.004632
0.8828125,-3.08,-5.334716       0.004632
0.8828125,-3.08,5.334716        0.004632
0.8828125,3.08,-5.334716        0.004632
0.8828125,6.159999,0.0  0.004632
0.8828125,3.08,5.334716 0.004632
67.9375,-4.62,2.667358  -3.142907
67.9375,-4.62,-2.667358 -3.142907
67.9375,4.62,-2.667358  -3.142907
67.9375,4.62,2.667358   -3.142907
67.9375,-0.0,-5.334716  -3.142907
67.9375,0.0,5.334716    -3.142907
86.375,-6.159999,-1.778239      -0.625931
86.375,-4.62,-4.445597  -0.625931
86.375,-1.54,6.223835   -0.625931
86.375,4.62,-4.445597   -0.625931
86.375,6.159999,-1.778239       -0.625931
86.375,1.54,6.223835    -0.625931
1.19726562,-6.159999,0.0        1.892092
1.19726562,-3.08,-5.334716      1.892092
1.19726562,-3.08,5.334716       1.892092
1.19726562,3.08,-5.334716       1.892092
1.19726562,6.159999,0.0 1.892092
1.19726562,3.08,5.334716        1.892092
33.84375,-3.08,-3.556477        4.409069
33.84375,3.08,-3.556477 4.409069
33.84375,-4.62,-0.889119        4.409069
33.84375,4.62,-0.889119 4.409069
33.84375,-1.54,4.445597 4.409069
33.84375,1.54,4.445597  4.409069
162.40625,-3.08,1.778239        -5.660931
162.40625,-0.0,-3.556477        -5.660931
162.40625,3.08,1.778239 -5.660931
0.34375,-6.159999,1.778239      2.515516
0.34375,-1.54,-6.223835 2.515516
0.34375,-4.62,4.445597  2.515516
0.34375,1.54,-6.223835  2.515516
0.34375,6.159999,1.778239       2.515516
0.34375,4.62,4.445597   2.515516
-94.1875,-6.159999,-1.778239    -2.519484
-94.1875,-4.62,-4.445597        -2.519484
-94.1875,-1.54,6.223835 -2.519484
-94.1875,4.62,-4.445597 -2.519484
-94.1875,1.54,6.223835  -2.519484
-94.1875,6.159999,-1.778239     -2.519484
-22.0703125,-6.159999,-0.0      -3.142907
-22.0703125,-3.08,-5.334716     -3.142907
-22.0703125,-3.08,5.334716      -3.142907
-22.0703125,3.08,-5.334716      -3.142907
-22.0703125,3.08,5.334716       -3.142907
-22.0703125,6.159999,-0.0       -3.142907
606.5,0.0,0.0   6.927092
323.25,-6.159999,3.556477       -0.625931
323.25,6.159999,3.556477        -0.625931
323.25,-0.0,-7.112955   -0.625931
-5.421875,-4.62,2.667358        -5.030367
-5.421875,-4.62,-2.667358       -5.030367
-5.421875,-4.62,2.667358        5.039632
-5.421875,-4.62,-2.667358       5.039632
-5.421875,4.62,-2.667358        -5.030367
-5.421875,4.62,2.667358 -5.030367
-5.421875,4.62,-2.667358        5.039632
-5.421875,4.62,2.667358 5.039632
-5.421875,-0.0,-5.334716        -5.030367
-5.421875,0.0,5.334716  -5.030367
-5.421875,-0.0,-5.334716        5.039632
-5.421875,0.0,5.334716  5.039632
91.8125,-3.08,-3.556477 -5.660931
91.8125,3.08,-3.556477  -5.660931
91.8125,-4.62,-0.889119 -5.660931
91.8125,4.62,-0.889119  -5.660931
91.8125,-1.54,4.445597  -5.660931
91.8125,1.54,4.445597   -5.660931
300.5,-6.159999,-3.556477       2.515516
300.5,6.159999,-3.556477        2.515516
300.5,0.0,7.112955      2.515516
-517.25,-6.159999,3.556477      -2.519484
-517.25,6.159999,3.556477       -2.519484
-517.25,-0.0,-7.112955  -2.519484
53.5625,-3.08,0.0       6.927092
53.5625,-1.54,-2.667358 6.927092
53.5625,-1.54,2.667358  6.927092
53.5625,1.54,-2.667358  6.927092
53.5625,1.54,2.667358   6.927092
53.5625,3.08,0.0        6.927092
-55.25,-1.54,0.889119   7.550516
-55.25,0.0,-1.778239    7.550516
-55.25,1.54,0.889119    7.550516
15.53125,-1.54,-0.889119        -7.554483
15.53125,1.54,-0.889119 -7.554483
15.53125,-0.0,1.778239  -7.554483
-124.875,-7.699999,0.889119     -0.625931
-124.875,-4.62,6.223835 -0.625931
-124.875,-3.08,-7.112955        -0.625931
-124.875,3.08,-7.112955 -0.625931
-124.875,7.699999,0.889119      -0.625931
-124.875,4.62,6.223835  -0.625931
-67.4375,-6.159999,1.778239     4.409069
-67.4375,-4.62,4.445597 4.409069
-67.4375,-1.54,-6.223835        4.409069
-67.4375,1.54,-6.223835 4.409069
-67.4375,4.62,4.445597  4.409069
-67.4375,6.159999,1.778239      4.409069
49.15625,-6.159999,-0.0 -5.030367
49.15625,-3.08,-5.334716        -5.030367
49.15625,-3.08,5.334716 -5.030367
49.15625,-6.159999,0.0  5.039632
49.15625,-3.08,-5.334716        5.039632
49.15625,3.08,-5.334716 -5.030367
49.15625,3.08,5.334716  -5.030367
49.15625,6.159999,-0.0  -5.030367
49.15625,-3.08,5.334716 5.039632
49.15625,3.08,-5.334716 5.039632
49.15625,6.159999,0.0   5.039632
49.15625,3.08,5.334716  5.039632
180.75,-7.699999,-0.889119      2.515516
180.75,-4.62,-6.223835  2.515516
180.75,-3.08,7.112955   2.515516
180.75,4.62,-6.223835   2.515516
180.75,7.699999,-0.889119       2.515516
180.75,3.08,7.112955    2.515516
-23.34375,-7.699999,-2.667358   0.004632
-23.34375,-7.699999,2.667358    0.004632
-23.34375,-6.159999,-5.334716   0.004632
-23.34375,-6.159999,5.334716    0.004632
-23.34375,-1.54,-8.002074       0.004632
-23.34375,1.54,-8.002074        0.004632
-23.34375,-1.54,8.002074        0.004632
-23.34375,6.159999,-5.334716    0.004632
-23.34375,1.54,8.002074 0.004632
-23.34375,7.699999,-2.667358    0.004632
-23.34375,7.699999,2.667358     0.004632
-23.34375,6.159999,5.334716     0.004632
-143.125,-7.699999,0.889119     -2.519484
-143.125,-4.62,6.223835 -2.519484
-143.125,-3.08,-7.112955        -2.519484
-143.125,3.08,-7.112955 -2.519484
-143.125,7.699999,0.889119      -2.519484
-143.125,4.62,6.223835  -2.519484
3032.0,-0.0,-0.0        -8.177907
-116.0,-3.08,-1.778239  7.550516
-116.0,0.0,3.556477     7.550516
-116.0,3.08,-1.778239   7.550516
-603.5,-3.08,1.778239   -7.554483
-603.5,-0.0,-3.556477   -7.554483
-603.5,3.08,1.778239    -7.554483
48.90625,-7.699999,2.667358     1.892092
48.90625,-7.699999,-2.667358    1.892092
48.90625,-6.159999,-5.334716    1.892092
48.90625,-6.159999,5.334716     1.892092
48.90625,-1.54,-8.002074        1.892092
48.90625,1.54,-8.002074 1.892092
48.90625,-1.54,8.002074 1.892092
48.90625,6.159999,-5.334716     1.892092
48.90625,1.54,8.002074  1.892092
48.90625,7.699999,-2.667358     1.892092
48.90625,7.699999,2.667358      1.892092
48.90625,6.159999,5.334716      1.892092
-505.0,-6.159999,-3.556477      4.409069
-505.0,6.159999,-3.556477       4.409069
-505.0,0.0,7.112955     4.409069
25.8203125,-6.159999,1.778239   -5.660931
25.8203125,-1.54,-6.223835      -5.660931
25.8203125,-4.62,4.445597       -5.660931
25.8203125,1.54,-6.223835       -5.660931
25.8203125,4.62,4.445597        -5.660931
25.8203125,6.159999,1.778239    -5.660931
-58.1875,-6.159999,-5.334716    -3.142907
-58.1875,-7.699999,2.667358     -3.142907
-58.1875,-7.699999,-2.667358    -3.142907
-58.1875,-6.159999,5.334716     -3.142907
-58.1875,-1.54,-8.002074        -3.142907
-58.1875,1.54,-8.002074 -3.142907
-58.1875,-1.54,8.002074 -3.142907
-58.1875,7.699999,-2.667358     -3.142907
-58.1875,6.159999,-5.334716     -3.142907
-58.1875,1.54,8.002074  -3.142907
-58.1875,7.699999,2.667358      -3.142907
-58.1875,6.159999,5.334716      -3.142907
65.40625,-4.62,-2.667358        6.927092
65.40625,-4.62,2.667358 6.927092
65.40625,4.62,-2.667358 6.927092
65.40625,4.62,2.667358  6.927092
65.40625,-0.0,-5.334716 6.927092
65.40625,0.0,5.334716   6.927092
-83.25,-3.08,-0.0       -8.177907
-83.25,-1.54,2.667358   -8.177907
-83.25,-1.54,-2.667358  -8.177907
-83.25,1.54,-2.667358   -8.177907
-83.25,3.08,-0.0        -8.177907
-83.25,1.54,2.667358    -8.177907
-90.90625,-3.08,3.556477        7.550516
-90.90625,3.08,3.556477 7.550516
-90.90625,-4.62,0.889119        7.550516
-90.90625,4.62,0.889119 7.550516
-90.90625,-1.54,-4.445597       7.550516
-90.90625,1.54,-4.445597        7.550516
-45.6875,-3.08,-3.556477        -7.554483
-45.6875,3.08,-3.556477 -7.554483
-45.6875,-4.62,-0.889119        -7.554483
-45.6875,4.62,-0.889119 -7.554483
-45.6875,-1.54,4.445597 -7.554483
-45.6875,1.54,4.445597  -7.554483
-500.25,0.0,8.891193    -0.625931
-500.25,-7.699999,-4.445597     -0.625931
-500.25,7.699999,-4.445597      -0.625931
-269.75,-7.699999,-0.889119     4.409069
-269.75,-4.62,-6.223835 4.409069
-269.75,-3.08,7.112955  4.409069
-269.75,4.62,-6.223835  4.409069
-269.75,7.699999,-0.889119      4.409069
-269.75,3.08,7.112955   4.409069
310.375,-6.159999,-3.556477     -5.660931
310.375,6.159999,-3.556477      -5.660931
310.375,0.0,7.112955    -5.660931
587.0,-0.0,-8.891193    2.515516
587.0,-7.699999,4.445597        2.515516
587.0,7.699999,4.445597 2.515516
-93.875,-9.239999,-0.0  0.004632
-93.875,4.62,-8.002074  0.004632
-93.875,-4.62,8.002074  0.004632
-93.875,9.239999,-0.0   0.004632
-93.875,-4.62,-8.002074 0.004632
-93.875,4.62,8.002074   0.004632
-385.75,0.0,8.891193    -2.519484
-385.75,-7.699999,-4.445597     -2.519484
-385.75,7.699999,-4.445597      -2.519484
228.0,-6.159999,0.0     6.927092
228.0,-3.08,-5.334716   6.927092
228.0,-3.08,5.334716    6.927092
228.0,3.08,-5.334716    6.927092
228.0,6.159999,0.0      6.927092
228.0,3.08,5.334716     6.927092
211.875,-9.239999,-1.778239     -0.625931
211.875,-3.08,8.891193  -0.625931
211.875,-6.159999,-7.112955     -0.625931
211.875,6.159999,-7.112955      -0.625931
211.875,3.08,8.891193   -0.625931
211.875,9.239999,-1.778239      -0.625931
111.9375,-9.239999,0.0  1.892092
111.9375,-4.62,-8.002074        1.892092
111.9375,-4.62,8.002074 1.892092
111.9375,4.62,-8.002074 1.892092
111.9375,9.239999,0.0   1.892092
111.9375,4.62,8.002074  1.892092
-4.3203125,-7.699999,2.667358   -5.030367
-4.3203125,-7.699999,-2.667358  -5.030367
-4.3203125,-6.159999,-5.334716  -5.030367
-4.3203125,-6.159999,5.334716   -5.030367
-4.3203125,-7.699999,2.667358   5.039632
-4.3203125,1.54,-8.002074       -5.030367
-4.3203125,-1.54,-8.002074      -5.030367
-4.3203125,-7.699999,-2.667358  5.039632
-4.3203125,-6.159999,-5.334716  5.039632
-4.3203125,-1.54,8.002074       -5.030367
-4.3203125,1.54,-8.002074       5.039632
-4.3203125,-6.159999,5.334716   5.039632
-4.3203125,-1.54,-8.002074      5.039632
-4.3203125,6.159999,-5.334716   -5.030367
-4.3203125,1.54,8.002074        -5.030367
-4.3203125,7.699999,-2.667358   -5.030367
-4.3203125,7.699999,2.667358    -5.030367
-4.3203125,6.159999,5.334716    -5.030367
-4.3203125,-1.54,8.002074       5.039632
-4.3203125,6.159999,-5.334716   5.039632
-4.3203125,7.699999,-2.667358   5.039632
-4.3203125,1.54,8.002074        5.039632
-4.3203125,7.699999,2.667358    5.039632
-4.3203125,6.159999,5.334716    5.039632
-0.6875,-7.699999,-0.889119     -5.660931
-0.6875,-4.62,-6.223835 -5.660931
-0.6875,-3.08,7.112955  -5.660931
-0.6875,4.62,-6.223835  -5.660931
-0.6875,3.08,7.112955   -5.660931
-0.6875,7.699999,-0.889119      -5.660931
116.0,-1.54,0.889119    9.444068
116.0,0.0,-1.778239     9.444068
116.0,1.54,0.889119     9.444068
51.3125,-9.239999,1.778239      2.515516
51.3125,-3.08,-8.891193 2.515516
51.3125,3.08,-8.891193  2.515516
51.3125,-6.159999,7.112955      2.515516
51.3125,9.239999,1.778239       2.515516
51.3125,6.159999,7.112955       2.515516
156.875,-9.239999,-1.778239     -2.519484
156.875,-3.08,8.891193  -2.519484
156.875,-6.159999,-7.112955     -2.519484
156.875,6.159999,-7.112955      -2.519484
156.875,9.239999,-1.778239      -2.519484
156.875,3.08,8.891193   -2.519484
219.625,-9.239999,-0.0  -3.142907
219.625,-4.62,-8.002074 -3.142907
219.625,-4.62,8.002074  -3.142907
219.625,4.62,-8.002074  -3.142907
219.625,9.239999,-0.0   -3.142907
219.625,4.62,8.002074   -3.142907
8.64550781,-4.62,-2.667358      -8.177907
8.64550781,-4.62,2.667358       -8.177907
8.64550781,4.62,2.667358        -8.177907
8.64550781,4.62,-2.667358       -8.177907
8.64550781,-0.0,-5.334716       -8.177907
8.64550781,0.0,5.334716 -8.177907
251.875,-4.62,-4.445597 7.550516
251.875,-6.159999,-1.778239     7.550516
251.875,-1.54,6.223835  7.550516
251.875,4.62,-4.445597  7.550516
251.875,1.54,6.223835   7.550516
251.875,6.159999,-1.778239      7.550516
-348.0,-4.62,4.445597   -7.554483
-348.0,-6.159999,1.778239       -7.554483
-348.0,-1.54,-6.223835  -7.554483
-348.0,1.54,-6.223835   -7.554483
-348.0,6.159999,1.778239        -7.554483
-348.0,4.62,4.445597    -7.554483
71.265625,-7.699999,6.223835    -0.625931
71.265625,-9.239999,3.556477    -0.625931
71.265625,-1.54,-9.780313       -0.625931
71.265625,1.54,-9.780313        -0.625931
71.265625,9.239999,3.556477     -0.625931
71.265625,7.699999,6.223835     -0.625931
-483.75,-0.0,-8.891193  4.409069
-483.75,-7.699999,4.445597      4.409069
-483.75,7.699999,4.445597       4.409069

End of input

&SCF
Occupied
34
Iterations
   50  100
End of Input

&RASSCF
LumOrb
Symmetry
1
Spin
2
Nactel
1 0 0
CIRoot
9 9 1
inactive
34
ras2
9
End of Input

>>> COPY tungsten_so_cf.JobIph $SLURM_SUBMIT_DIR/tungsten_so_cf.doublet.JobIph

>>> COPY $SLURM_SUBMIT_DIR/tungsten_so_cf.doublet.JobIph ./JOB002

&RASSI
NROFJobIph
1 All
SpinOrbit
End of Input

EOF

-- ----------------------------------

--- Start Module: seward at Mon Mar 31 12:42:28 2025 ---

()()()()()()()()()()()()()()()()()()()()()()()()()()()()()()()()()()()()()()()()()()()()()()()()()()

                                              &SEWARD

                                   only a single process is used
                       available to each process: 4.1 GB of memory, 1 thread?
                                            pid: 3840565
()()()()()()()()()()()()()()()()()()()()()()()()()()()()()()()()()()()()()()()()()()()()()()()()()()

 The speed of LIGHT in this CALCULATION =   137.03599917700001     
               SEWARD will generate:
                  Multipole Moment integrals up to order  2
                  Kinetic Energy integrals
                  Nuclear Attraction integrals (point charge)
                  One-Electron Hamiltonian integrals
                  Velocity integrals
                  Relativistic Douglas-Kroll-Hess integrals:
                    - Parametrization         : EXP
                    - DKH order of Hamiltonian: 2
                    - DKH order of Properties : 0
                         - multipole moment operators
                         - electric potential operators
                         - contact operators
                  External field from   414 point(s) added to the one-electron Hamiltonian
                  Orbital angular momentum around (-0.0000 -0.0000  0.0088 )
                  Velocity quadrupole around (-0.0000 -0.0000  0.0088 )
                  Atomic mean-field integrals
                  Two-Electron Repulsion integrals

                   Integrals are discarded if absolute value <: 0.10E-13
                   Integral cutoff threshold is set to       <: 0.10E-15

++    Symmetry information:
      ---------------------

                    Character Table for C1 

                             E  
                    a        1  x, y, xy, Rz, z, xz, Ry, yz, Rx, I
--


++    Basis set information:
      ----------------------


      Basis set label: W.ANO-RCC.ROOS.24S21P15D11F4G2H.11S10P9D8F4G2H......

      Electronic valence basis set:
      ------------------
      Associated Effective Charge  74.000000 au
      Associated Actual Charge     74.000000 au
      Nuclear Model: Point charge

      Shell  nPrim  nBasis  Cartesian Spherical Contaminant
         s      24      11        X                  
         p      21      10        X                  
         d      15       9                 X         
         f      11       8                 X         
         g       4       4                 X         
         h       2       2                 X         
--


++    Molecular structure info:
      -------------------------

                    ************************************************ 
                    **** Cartesian Coordinates / Bohr, Angstrom **** 
                    ************************************************ 

     Center  Label                x              y              z                     x              y              z
        1      W               -0.000000      -0.000000       0.008754             -0.000000      -0.000000       0.004632
--


++    Operator info:
      --------------


  Net charge from external field:   -39.268449999999902     
--


            Nuclear Potential Energy              0.00000000 au

                    Nuclear-External Field Potential Energy    -677.02355290 au
                    External Field Potential Energy            1605.63690139 au 


            Total Nuclear Potential Energy           -677.02355290 au


      Basis set specifications :
      Symmetry species         a  
      Basis functions          200

 Sorry, Molden does not know how to handle
 functions with angular momentum larger than g
Note: The following floating-point exceptions are signalling: IEEE_UNDERFLOW_FLAG IEEE_DENORMAL
--- Stop Module: seward at Mon Mar 31 12:42:49 2025 /rc=_RC_ALL_IS_WELL_ ---
*** files: tungsten_so_cf.GssOrb xmldump
    saved to directory /home4/s4752295/Internship/Initial_simulations/Point_charge_model/1_electron/Madelung_charges_9_active_space/W/fixed_calculations
--- Module seward spent 21 seconds ---

*** symbolic link created: INPORB -> tungsten_so_cf.GssOrb
--- Start Module: scf at Mon Mar 31 12:42:49 2025 ---

()()()()()()()()()()()()()()()()()()()()()()()()()()()()()()()()()()()()()()()()()()()()()()()()()()

                                                &SCF

                                   only a single process is used
                       available to each process: 4.1 GB of memory, 1 thread?
                                            pid: 3841538
()()()()()()()()()()()()()()()()()()()()()()()()()()()()()()()()()()()()()()()()()()()()()()()()()()

++    Input section:
      --------------

      Header of the integral files:
      
       Integrals generated by seward 4.2.0  , Mon Mar 31 12:42:28 2025


      Cartesian coordinates in Angstrom:
      -----------------------------------------------------
      No.  Label        X            Y            Z        
      -----------------------------------------------------
       1   W         -0.00000000  -0.00000000   0.00463220
      -----------------------------------------------------
      Nuclear repulsion energy = -677.02355290
--

++    Orbital specifications:
      -----------------------

      Symmetry species               1
                                     a
      Frozen orbitals                0
      Occupied orbitals             34
      Secondary orbitals           166
      Deleted orbitals               0
      Total number of orbitals     200
      Number of basis functions    200
--

      Molecular charge                           6.000

++    Optimization specifications:
      ----------------------------

      SCF Algorithm: Conventional
      Minimized density differences are used
      Number of density matrices in core                5
      Maximum number of NDDO SCF iterations            50
      Maximum number of HF SCF iterations             100
      Threshold for SCF energy change            0.10E-08
      Threshold for density matrix               0.10E-03
      Threshold for Fock matrix                  0.15E-03
      Threshold for linear dependence            0.10E-08
      Threshold at which DIIS is turned on       0.15E+00
      Threshold at which QNR/C2DIIS is turned on 0.75E-01
      Threshold for Norm(delta) (QNR/C2DIIS)     0.20E-04
      DIIS extrapolation of the SCF procedure
      All orbitals punched on: SCFORB
--

      Detected guessorb starting orbitals                                             


++ Convergence information
                                   SCF        iterations: Energy and convergence statistics

Iter     Tot. SCF        One-elec.       Two-elec.     Energy      Max Dij or  Max Fij      DNorm      TNorm      AccCon     Time
         Energy          Energy          Energy        Change      Delta Norm                                                in Sec.

 The total and one-electron energies are shifted by a value of     16000. a.u.

   1  -174.897712791 -5291.193748331  5793.319588443   0.00E+00    0.35E+00*   0.58E+00*    0.12E+02   0.15E+04   None         1.
   2  -176.039974533 -5311.249918113  5812.233496484  -0.11E+01*   0.11E+00*   0.24E+00*    0.21E+01   0.15E+04   EDIIS        1.
   3  -176.158344768 -5300.578603918  5801.443812053  -0.12E+00*   0.50E-01*   0.11E+00*    0.42E+00   0.15E+04   EDIIS        1.
   4  -176.185826144 -5309.350842292  5810.188569051  -0.27E-01*   0.21E-01*   0.55E-01*    0.52E-01   0.15E+04   EDIIS        1.
   5  -176.193169441 -5301.468371217  5802.298754679  -0.73E-02*   0.28E-02*   0.16E-01*    0.31E-01   0.15E+04   c2DIIS       1.
   6  -176.196064890 -5306.423189318  5807.250677331  -0.29E-02*   0.57E-02*   0.65E-02*    0.51E-02   0.15E+04   QNRc2DIIS    1.
   7  -176.196038115 -5303.872299344  5804.699814131   0.27E-04*   0.29E-02*   0.71E-02*    0.72E-03   0.15E+04   QNRc2DIIS    1.
   8  -176.196242250 -5305.206734840  5806.034045493  -0.20E-03*   0.80E-04*   0.16E-03*    0.97E-04   0.15E+04   QNRc2DIIS    1.
   9  -176.196242323 -5305.201355797  5806.028666377  -0.73E-07*   0.23E-04*   0.15E-04     0.31E-04   0.15E+04   QNRc2DIIS    1.
  10  -176.196242325 -5305.201119823  5806.028430401  -0.19E-08*   0.14E-05    0.14E-05     0.15E-02   0.15E+04   QNRc2DIIS    1.
  11  -176.196242325 -5305.201277448  5806.028588026   0.18E-11    0.25E-06    0.19E-06     0.84E-01   0.15E+04   QNRc2DIIS    1.

       Convergence after 11 Macro Iterations
--

 *****************************************************************************************************************************
 *                                                                                                                           *
 *                                             SCF/KS-DFT Program, Final results                                             *
 *                                                                                                                           *
 *                                                                                                                           *
 *                                                                                                                           *
 *                                                       Final Results                                                       *
 *                                                                                                                           *
 *****************************************************************************************************************************

::    Total SCF energy                             -16176.1962423252
      One-electron energy                          -21305.2012774482
      Two-electron energy                            5806.0285880259
      Nuclear repulsion energy                       -677.0235529030
      Kinetic energy (interpolated)                 22645.6241555281
      Virial theorem                                    0.7143188517
      Total spin, S(S+1)                                0.0000000000
      Total spin, S                                     0.0000000000
      Max non-diagonal density matrix element           0.0000001633
      Max non-diagonal Fock matrix element              0.0000000612


      All orbitals with orbital energies smaller than  E(LUMO)+0.5 are printed

++    Molecular orbitals:
      -------------------

      Title: SCF orbitals

      Molecular orbitals for symmetry species 1: a  

          Some orbital energies have been scaled by powers of 10, the power is written right after the orbital index


          Orbital            1 (1)     2         3         4         5         6         7         8         9        10    
          Energy         -255.7525 -441.8618 -387.2030 -387.2013 -387.2013  -99.3372  -82.7475  -82.7475  -82.7471  -62.8775
          Occ. No.          2.0000    2.0000    2.0000    2.0000    2.0000    2.0000    2.0000    2.0000    2.0000    2.0000

        1 W      1s         1.0000    0.0000   -0.0000    0.0000    0.0000    0.0000   -0.0000   -0.0000    0.0000   -0.0000
        2 W      2s        -0.0000    1.0000   -0.0000    0.0000   -0.0000    0.0000    0.0000    0.0000   -0.0000   -0.0000
        3 W      3s        -0.0000   -0.0000    0.0000    0.0000    0.0000    1.0000    0.0000    0.0000   -0.0018    0.0000
        4 W      4s         0.0000    0.0000   -0.0000   -0.0000    0.0000   -0.0001   -0.0000   -0.0000    0.0002    0.0000
        5 W      5s        -0.0000   -0.0000    0.0000    0.0000   -0.0000    0.0000    0.0000    0.0000   -0.0001   -0.0000
        6 W      6s         0.0000    0.0000   -0.0000   -0.0000    0.0000   -0.0000   -0.0000   -0.0000    0.0000    0.0000
        7 W      7s        -0.0000   -0.0000    0.0000    0.0000    0.0000    0.0000    0.0000    0.0000   -0.0000   -0.0000
        8 W      8s         0.0000    0.0000   -0.0000   -0.0000   -0.0000   -0.0000   -0.0000   -0.0000    0.0000    0.0000
        9 W      9s        -0.0000   -0.0000    0.0000    0.0000   -0.0000    0.0000    0.0000    0.0000   -0.0001   -0.0000
       10 W     10s         0.0000    0.0000   -0.0000   -0.0000    0.0000   -0.0000   -0.0000   -0.0000    0.0001    0.0000
       11 W     11s        -0.0000   -0.0000    0.0000    0.0000    0.0000    0.0000    0.0000    0.0000   -0.0001   -0.0000
       12 W      2px        0.0000    0.0000    1.0000   -0.0005   -0.0000   -0.0000   -0.0000   -0.0000    0.0000   -0.0000
       13 W      3px       -0.0000    0.0000   -0.0000    0.0000    0.0000    0.0018   -0.0081   -0.0000    1.0000   -0.0014
       14 W      4px        0.0000   -0.0000    0.0000   -0.0000   -0.0000    0.0001    0.0000    0.0000   -0.0001    0.0001
       15 W      5px       -0.0000    0.0000   -0.0000    0.0000    0.0000   -0.0001   -0.0000   -0.0000    0.0000    0.0000
       16 W      6px        0.0000   -0.0000    0.0000   -0.0000   -0.0000    0.0000    0.0000    0.0000   -0.0000   -0.0000
       17 W      7px       -0.0000    0.0000   -0.0000    0.0000   -0.0000   -0.0000   -0.0000   -0.0000    0.0000   -0.0000
       18 W      8px        0.0000   -0.0000    0.0000   -0.0000   -0.0000    0.0000    0.0000    0.0000   -0.0000    0.0000
       19 W      9px       -0.0000    0.0000   -0.0000    0.0000    0.0000   -0.0000   -0.0000   -0.0000    0.0000   -0.0000
       20 W     10px        0.0000   -0.0000    0.0000   -0.0000   -0.0000    0.0000    0.0000    0.0000   -0.0000    0.0000
       21 W     11px       -0.0000    0.0000   -0.0000    0.0000    0.0000   -0.0001   -0.0000   -0.0000    0.0000   -0.0000
       22 W      2py        0.0000    0.0000    0.0000   -0.0000    1.0000   -0.0000    0.0000    0.0000    0.0000    0.0000
       23 W      3py       -0.0000   -0.0000   -0.0000    0.0000   -0.0000   -0.0000    0.0000    1.0000    0.0000    0.0000
       24 W      4py        0.0000    0.0000    0.0000   -0.0000    0.0000    0.0000   -0.0000   -0.0001   -0.0000   -0.0000
       25 W      5py       -0.0000   -0.0000   -0.0000    0.0000   -0.0000   -0.0000    0.0000    0.0000    0.0000   -0.0000
       26 W      6py        0.0000    0.0000   -0.0000   -0.0000    0.0000    0.0000   -0.0000   -0.0000   -0.0000    0.0000
       27 W      7py       -0.0000   -0.0000   -0.0000    0.0000   -0.0000   -0.0000    0.0000    0.0000    0.0000    0.0000
       28 W      8py        0.0000    0.0000    0.0000   -0.0000    0.0000    0.0000   -0.0000   -0.0000   -0.0000   -0.0000
       29 W      9py       -0.0000   -0.0000   -0.0000    0.0000   -0.0000   -0.0000    0.0000    0.0000    0.0000    0.0000
       30 W     10py        0.0000    0.0000    0.0000   -0.0000    0.0000    0.0000   -0.0000   -0.0000   -0.0000   -0.0000
       31 W     11py       -0.0000   -0.0000   -0.0000    0.0000   -0.0000   -0.0000    0.0000    0.0000    0.0000    0.0000
       32 W      2pz        0.0000    0.0000    0.0005    1.0000    0.0000   -0.0000    0.0000   -0.0000    0.0000    0.0000
       33 W      3pz       -0.0000    0.0000   -0.0000   -0.0000   -0.0000    0.0000    1.0000   -0.0000    0.0081    0.0000
       34 W      4pz        0.0000   -0.0000    0.0000    0.0000    0.0000    0.0000   -0.0001    0.0000   -0.0000   -0.0000
       35 W      5pz       -0.0000    0.0000   -0.0000   -0.0000   -0.0000   -0.0000    0.0000   -0.0000    0.0000   -0.0000
       36 W      6pz        0.0000   -0.0000    0.0000    0.0000    0.0000    0.0000   -0.0000    0.0000   -0.0000    0.0000
       37 W      7pz       -0.0000    0.0000   -0.0000   -0.0000   -0.0000   -0.0000    0.0000   -0.0000    0.0000    0.0000
       38 W      8pz        0.0000   -0.0000    0.0000    0.0000    0.0000    0.0000   -0.0000    0.0000   -0.0000   -0.0000
       39 W      9pz       -0.0000    0.0000   -0.0000   -0.0000   -0.0000   -0.0000    0.0000   -0.0000    0.0000    0.0000
       40 W     10pz        0.0000   -0.0000    0.0000    0.0000    0.0000    0.0000   -0.0000    0.0000   -0.0000   -0.0000
       41 W     11pz       -0.0000    0.0000   -0.0000   -0.0000   -0.0000   -0.0000    0.0000   -0.0000    0.0000    0.0000
       42 W      3d2-       0.0000   -0.0000    0.0000   -0.0000    0.0000    0.0000    0.0000    0.0012    0.0000   -0.0000
       43 W      4d2-      -0.0000    0.0000    0.0000   -0.0000    0.0000   -0.0000    0.0000    0.0001    0.0000    0.0000
       44 W      5d2-      -0.0000   -0.0000    0.0000   -0.0000    0.0000   -0.0000   -0.0000   -0.0000   -0.0000   -0.0000
       45 W      6d2-       0.0000    0.0000   -0.0000    0.0000   -0.0000    0.0000    0.0000    0.0000    0.0000    0.0000
       46 W      7d2-       0.0000   -0.0000    0.0000    0.0000   -0.0000   -0.0000   -0.0000   -0.0000   -0.0000   -0.0000
       47 W      8d2-       0.0000    0.0000    0.0000   -0.0000    0.0000    0.0000    0.0000    0.0000    0.0000    0.0000
       48 W      9d2-      -0.0000   -0.0000   -0.0000    0.0000   -0.0000   -0.0000   -0.0000   -0.0000   -0.0000   -0.0000
       49 W     10d2-       0.0000    0.0000    0.0000   -0.0000    0.0000    0.0000    0.0000    0.0001    0.0000    0.0000
       50 W     11d2-      -0.0000   -0.0000   -0.0000    0.0000   -0.0000   -0.0000   -0.0000   -0.0000   -0.0000   -0.0000
       51 W      3d1-       0.0000    0.0000    0.0000   -0.0000    0.0000   -0.0000    0.0000    0.0000    0.0000    0.0000
       52 W      4d1-      -0.0000    0.0000    0.0000   -0.0000   -0.0000    0.0000    0.0000    0.0000    0.0000   -0.0000
       53 W      5d1-       0.0000    0.0000   -0.0000    0.0000   -0.0000   -0.0000   -0.0000   -0.0000   -0.0000   -0.0000
       54 W      6d1-      -0.0000    0.0000    0.0000   -0.0000    0.0000    0.0000    0.0000    0.0000   -0.0000   -0.0000
       55 W      7d1-       0.0000   -0.0000   -0.0000    0.0000   -0.0000   -0.0000   -0.0000   -0.0000    0.0000    0.0000
       56 W      8d1-      -0.0000    0.0000    0.0000   -0.0000    0.0000    0.0000    0.0000    0.0000    0.0000   -0.0000
       57 W      9d1-       0.0000    0.0000   -0.0000    0.0000   -0.0000    0.0000   -0.0000   -0.0000   -0.0000    0.0000
       58 W     10d1-      -0.0000   -0.0000    0.0000    0.0000   -0.0000   -0.0000    0.0000    0.0000    0.0000   -0.0000
       59 W     11d1-       0.0000    0.0000   -0.0000   -0.0000    0.0000    0.0000   -0.0000   -0.0000   -0.0000    0.0000
       60 W      3d0       -0.0000   -0.0000   -0.0000   -0.0000   -0.0000    0.0000    0.0000    0.0000   -0.0007   -0.5028
       61 W      4d0        0.0000    0.0000   -0.0000    0.0000    0.0000   -0.0000    0.0000    0.0000   -0.0001    0.0001
       62 W      5d0       -0.0000   -0.0000   -0.0000    0.0000    0.0000    0.0000   -0.0000   -0.0000    0.0000   -0.0000
       63 W      6d0        0.0000    0.0000    0.0000   -0.0000   -0.0000   -0.0000    0.0000    0.0000   -0.0000    0.0000
       64 W      7d0       -0.0000   -0.0000    0.0000    0.0000    0.0000    0.0000   -0.0000   -0.0000    0.0000   -0.0000
       65 W      8d0        0.0000    0.0000   -0.0000   -0.0000    0.0000   -0.0000    0.0000    0.0000   -0.0000    0.0000
       66 W      9d0       -0.0000   -0.0000    0.0000   -0.0000   -0.0000    0.0000   -0.0000   -0.0000    0.0000   -0.0000
       67 W     10d0        0.0000    0.0000   -0.0000    0.0000    0.0000   -0.0000    0.0000    0.0000   -0.0000    0.0000
       68 W     11d0       -0.0000   -0.0000    0.0000   -0.0000   -0.0000    0.0000   -0.0000   -0.0000    0.0000   -0.0000
       69 W      3d1+       0.0000    0.0000    0.0000    0.0000    0.0000   -0.0000    0.0012   -0.0000    0.0000   -0.0008
       70 W      4d1+      -0.0000   -0.0000    0.0000    0.0000    0.0000    0.0000    0.0001   -0.0000    0.0000    0.0000
       71 W      5d1+       0.0000    0.0000    0.0000    0.0000    0.0000    0.0000   -0.0000    0.0000   -0.0000   -0.0000
       72 W      6d1+      -0.0000   -0.0000    0.0000   -0.0000   -0.0000   -0.0000    0.0000   -0.0000    0.0000    0.0000
       73 W      7d1+       0.0000    0.0000   -0.0000   -0.0000   -0.0000    0.0000   -0.0000    0.0000   -0.0000   -0.0000
       74 W      8d1+      -0.0000   -0.0000    0.0000    0.0000    0.0000   -0.0000    0.0000   -0.0000    0.0000    0.0000
       75 W      9d1+       0.0000    0.0000   -0.0000   -0.0000   -0.0000   -0.0000   -0.0000    0.0000   -0.0000   -0.0000
       76 W     10d1+      -0.0000   -0.0000    0.0000    0.0000    0.0000    0.0000    0.0001   -0.0000    0.0000    0.0000
       77 W     11d1+      -0.0000    0.0000   -0.0000   -0.0000   -0.0000   -0.0000   -0.0000    0.0000   -0.0000   -0.0000
       78 W      3d2+       0.0000    0.0000    0.0000   -0.0000   -0.0000   -0.0000   -0.0000   -0.0000    0.0012    0.8644
       79 W      4d2+      -0.0000   -0.0000    0.0000    0.0000    0.0000    0.0000   -0.0000   -0.0000    0.0001   -0.0001
       80 W      5d2+       0.0000    0.0000    0.0000    0.0000    0.0000   -0.0000    0.0000    0.0000   -0.0000    0.0000
       81 W      6d2+      -0.0000   -0.0000   -0.0000   -0.0000   -0.0000    0.0000   -0.0000   -0.0000    0.0000   -0.0000
       82 W      7d2+       0.0000    0.0000   -0.0000    0.0000    0.0000   -0.0000    0.0000    0.0000   -0.0000    0.0000
       83 W      8d2+      -0.0000   -0.0000    0.0000   -0.0000   -0.0000    0.0000   -0.0000   -0.0000    0.0000   -0.0000
       84 W      9d2+       0.0000    0.0000   -0.0000    0.0000    0.0000   -0.0000    0.0000    0.0000   -0.0000    0.0000
       85 W     10d2+      -0.0000   -0.0000    0.0000    0.0000    0.0000    0.0000   -0.0000   -0.0000    0.0001   -0.0000
       86 W     11d2+       0.0000    0.0000   -0.0000   -0.0000   -0.0000   -0.0000    0.0000    0.0000   -0.0000    0.0000
       87 W      4f3-      -0.0000   -0.0000    0.0000   -0.0000    0.0000   -0.0000   -0.0000   -0.0000   -0.0000   -0.0000
       88 W      5f3-      -0.0000    0.0000   -0.0000    0.0000   -0.0000    0.0000    0.0000    0.0000    0.0000    0.0000
       89 W      6f3-      -0.0000   -0.0000    0.0000   -0.0000    0.0000    0.0000   -0.0000   -0.0000   -0.0000   -0.0000
       90 W      7f3-      -0.0000   -0.0000   -0.0000    0.0000   -0.0000   -0.0000    0.0000    0.0000    0.0000    0.0000
       91 W      8f3-       0.0000    0.0000    0.0000   -0.0000    0.0000    0.0000   -0.0000   -0.0000    0.0000   -0.0000
       92 W      9f3-       0.0000   -0.0000   -0.0000    0.0000   -0.0000   -0.0000   -0.0000   -0.0000   -0.0000    0.0000
       93 W     10f3-       0.0000    0.0000    0.0000   -0.0000    0.0000    0.0000    0.0000    0.0000    0.0000   -0.0000
       94 W     11f3-      -0.0000   -0.0000   -0.0000    0.0000   -0.0000   -0.0000   -0.0000   -0.0000   -0.0000    0.0000
       95 W      4f2-       0.0000    0.0000    0.0000   -0.0000    0.0000    0.0000    0.0000    0.0000    0.0000    0.0000
       96 W      5f2-      -0.0000   -0.0000   -0.0000    0.0000   -0.0000   -0.0000   -0.0000   -0.0000   -0.0000   -0.0000
       97 W      6f2-       0.0000    0.0000    0.0000   -0.0000    0.0000   -0.0000    0.0000    0.0000    0.0000    0.0000
       98 W      7f2-       0.0000   -0.0000   -0.0000   -0.0000    0.0000    0.0000   -0.0000   -0.0000   -0.0000   -0.0000
       99 W      8f2-       0.0000    0.0000   -0.0000   -0.0000    0.0000   -0.0000    0.0000    0.0000    0.0000    0.0000
      100 W      9f2-      -0.0000   -0.0000    0.0000    0.0000    0.0000   -0.0000   -0.0000   -0.0000   -0.0000   -0.0000
      101 W     10f2-       0.0000    0.0000   -0.0000    0.0000   -0.0000   -0.0000    0.0000    0.0000    0.0000    0.0000
      102 W     11f2-      -0.0000   -0.0000    0.0000   -0.0000    0.0000    0.0000   -0.0000   -0.0000   -0.0000   -0.0000
      103 W      4f1-       0.0000    0.0000   -0.0000    0.0000   -0.0000    0.0000    0.0000    0.0000    0.0000    0.0000
      104 W      5f1-       0.0000   -0.0000    0.0000   -0.0000    0.0000   -0.0000   -0.0000   -0.0000   -0.0000   -0.0000
      105 W      6f1-       0.0000    0.0000   -0.0000    0.0000   -0.0000    0.0000    0.0000    0.0000    0.0000    0.0000
      106 W      7f1-      -0.0000   -0.0000    0.0000   -0.0000    0.0000   -0.0000   -0.0000   -0.0000   -0.0000   -0.0000
      107 W      8f1-       0.0000    0.0000   -0.0000    0.0000   -0.0000    0.0000    0.0000    0.0000   -0.0000    0.0000
      108 W      9f1-      -0.0000    0.0000    0.0000   -0.0000    0.0000   -0.0000    0.0000    0.0000    0.0000   -0.0000
      109 W     10f1-      -0.0000   -0.0000   -0.0000    0.0000   -0.0000   -0.0000   -0.0000   -0.0000   -0.0000    0.0000
      110 W     11f1-       0.0000    0.0000    0.0000   -0.0000    0.0000    0.0000    0.0000    0.0000    0.0000   -0.0000
      111 W      4f0        0.0000   -0.0000   -0.0000   -0.0000   -0.0000   -0.0000    0.0000   -0.0000   -0.0000    0.0000
      112 W      5f0       -0.0000    0.0000    0.0000    0.0000    0.0000    0.0000   -0.0000    0.0000    0.0000    0.0000
      113 W      6f0       -0.0000   -0.0000   -0.0000   -0.0000   -0.0000   -0.0000    0.0000   -0.0000   -0.0000    0.0000
      114 W      7f0        0.0000    0.0000    0.0000    0.0000    0.0000    0.0000   -0.0000    0.0000    0.0000   -0.0000
      115 W      8f0       -0.0000   -0.0000   -0.0000   -0.0000   -0.0000   -0.0000    0.0000   -0.0000   -0.0000    0.0000
      116 W      9f0        0.0000    0.0000    0.0000    0.0000    0.0000    0.0000    0.0000   -0.0000    0.0000   -0.0000
      117 W     10f0       -0.0000    0.0000   -0.0000   -0.0000   -0.0000   -0.0000   -0.0000    0.0000   -0.0000    0.0000
      118 W     11f0        0.0000   -0.0000   -0.0000    0.0000    0.0000    0.0000    0.0000   -0.0000    0.0000   -0.0000
      119 W      4f1+       0.0000    0.0000   -0.0000   -0.0000   -0.0000   -0.0000   -0.0000    0.0000    0.0000   -0.0002
      120 W      5f1+       0.0000   -0.0000    0.0000    0.0000    0.0000    0.0000    0.0000   -0.0000   -0.0000    0.0001
      121 W      6f1+       0.0000    0.0000   -0.0000   -0.0000   -0.0000   -0.0000   -0.0000    0.0000    0.0000   -0.0001
      122 W      7f1+      -0.0000   -0.0000    0.0000   -0.0000   -0.0000    0.0000    0.0000   -0.0000   -0.0000    0.0001
      123 W      8f1+       0.0000    0.0000   -0.0000    0.0000    0.0000   -0.0000   -0.0000    0.0000    0.0000   -0.0001
      124 W      9f1+      -0.0000   -0.0000    0.0000   -0.0000   -0.0000    0.0000    0.0000   -0.0000    0.0000    0.0000
      125 W     10f1+       0.0000    0.0000   -0.0000    0.0000    0.0000   -0.0000   -0.0000    0.0000   -0.0000   -0.0000
      126 W     11f1+      -0.0000   -0.0000    0.0000   -0.0000   -0.0000    0.0000    0.0000   -0.0000    0.0000    0.0000
      127 W      4f2+       0.0000   -0.0000   -0.0000    0.0000    0.0000   -0.0000   -0.0000    0.0000   -0.0000    0.0000
      128 W      5f2+      -0.0000    0.0000    0.0000   -0.0000   -0.0000    0.0000    0.0000   -0.0000    0.0000    0.0000
      129 W      6f2+      -0.0000   -0.0000   -0.0000    0.0000    0.0000   -0.0000   -0.0000    0.0000   -0.0000    0.0000
      130 W      7f2+       0.0000    0.0000    0.0000   -0.0000   -0.0000    0.0000    0.0000   -0.0000    0.0000   -0.0000
      131 W      8f2+      -0.0000   -0.0000   -0.0000    0.0000    0.0000   -0.0000   -0.0000    0.0000   -0.0000    0.0000
      132 W      9f2+       0.0000    0.0000    0.0000   -0.0000   -0.0000    0.0000   -0.0000    0.0000    0.0000   -0.0000
      133 W     10f2+      -0.0000    0.0000    0.0000    0.0000    0.0000   -0.0000    0.0000   -0.0000   -0.0000    0.0000
      134 W     11f2+       0.0000   -0.0000   -0.0000   -0.0000   -0.0000    0.0000   -0.0000    0.0000    0.0000   -0.0000
      135 W      4f3+      -0.0000   -0.0000    0.0000   -0.0000   -0.0000    0.0000   -0.0000    0.0000   -0.0000    0.0002
      136 W      5f3+      -0.0000    0.0000   -0.0000    0.0000    0.0000   -0.0000    0.0000   -0.0000    0.0000   -0.0001
      137 W      6f3+      -0.0000   -0.0000    0.0000   -0.0000   -0.0000    0.0000   -0.0000    0.0000   -0.0000    0.0001
      138 W      7f3+       0.0000    0.0000   -0.0000   -0.0000    0.0000   -0.0000    0.0000   -0.0000    0.0000   -0.0001
      139 W      8f3+      -0.0000   -0.0000    0.0000   -0.0000   -0.0000    0.0000   -0.0000    0.0000   -0.0000    0.0001
      140 W      9f3+       0.0000    0.0000   -0.0000   -0.0000    0.0000   -0.0000    0.0000   -0.0000   -0.0000   -0.0000
      141 W     10f3+      -0.0000    0.0000    0.0000    0.0000    0.0000    0.0000   -0.0000    0.0000    0.0000    0.0000
      142 W     11f3+       0.0000    0.0000   -0.0000   -0.0000   -0.0000   -0.0000    0.0000   -0.0000   -0.0000   -0.0000
      143 W      5g4-      -0.0000   -0.0000    0.0000   -0.0000    0.0000   -0.0000    0.0000    0.0000    0.0000    0.0000
      144 W      6g4-      -0.0000   -0.0000   -0.0000    0.0000   -0.0000    0.0000    0.0000    0.0000    0.0000    0.0000
      145 W      7g4-      -0.0000   -0.0000    0.0000   -0.0000    0.0000   -0.0000    0.0000    0.0000    0.0000    0.0000
      146 W      8g4-      -0.0000   -0.0000   -0.0000    0.0000   -0.0000    0.0000   -0.0000   -0.0000   -0.0000   -0.0000
      147 W      5g3-       0.0000    0.0000   -0.0000    0.0000   -0.0000    0.0000    0.0000    0.0000    0.0000   -0.0000
      148 W      6g3-       0.0000    0.0000   -0.0000   -0.0000    0.0000   -0.0000   -0.0000   -0.0000   -0.0000    0.0000
      149 W      7g3-       0.0000    0.0000    0.0000    0.0000   -0.0000    0.0000    0.0000    0.0000    0.0000   -0.0000
      150 W      8g3-       0.0000   -0.0000   -0.0000   -0.0000    0.0000   -0.0000   -0.0000   -0.0000   -0.0000    0.0000
      151 W      5g2-       0.0000   -0.0000   -0.0000    0.0000   -0.0000   -0.0000   -0.0000   -0.0000   -0.0000   -0.0000
      152 W      6g2-       0.0000    0.0000    0.0000   -0.0000    0.0000    0.0000   -0.0000   -0.0000   -0.0000   -0.0000
      153 W      7g2-       0.0000   -0.0000   -0.0000    0.0000   -0.0000   -0.0000   -0.0000   -0.0000   -0.0000    0.0000
      154 W      8g2-       0.0000    0.0000    0.0000   -0.0000    0.0000    0.0000    0.0000    0.0000    0.0000   -0.0000
      155 W      5g1-      -0.0000   -0.0000    0.0000   -0.0000    0.0000    0.0000   -0.0000   -0.0000   -0.0000    0.0000
      156 W      6g1-      -0.0000    0.0000   -0.0000    0.0000   -0.0000    0.0000    0.0000    0.0000    0.0000   -0.0000
      157 W      7g1-      -0.0000   -0.0000    0.0000   -0.0000    0.0000   -0.0000   -0.0000   -0.0000   -0.0000   -0.0000
      158 W      8g1-      -0.0000    0.0000   -0.0000    0.0000   -0.0000    0.0000    0.0000    0.0000    0.0000   -0.0000
      159 W      5g0        0.0000   -0.0000   -0.0000   -0.0000   -0.0000   -0.0000    0.0000   -0.0000    0.0000    0.0000
      160 W      6g0       -0.0000    0.0000    0.0000    0.0000    0.0000   -0.0000   -0.0000    0.0000   -0.0000   -0.0000
      161 W      7g0        0.0000   -0.0000   -0.0000   -0.0000   -0.0000    0.0000    0.0000   -0.0000    0.0000    0.0000
      162 W      8g0       -0.0000    0.0000   -0.0000    0.0000    0.0000   -0.0000   -0.0000    0.0000   -0.0000   -0.0000
      163 W      5g1+       0.0000   -0.0000    0.0000   -0.0000   -0.0000    0.0000   -0.0000    0.0000   -0.0000   -0.0000
      164 W      6g1+      -0.0000    0.0000   -0.0000    0.0000    0.0000   -0.0000   -0.0000    0.0000    0.0000    0.0000
      165 W      7g1+       0.0000   -0.0000    0.0000   -0.0000   -0.0000    0.0000   -0.0000    0.0000   -0.0000   -0.0000
      166 W      8g1+      -0.0000    0.0000   -0.0000    0.0000    0.0000   -0.0000    0.0000   -0.0000    0.0000    0.0000
      167 W      5g2+      -0.0000    0.0000    0.0000    0.0000    0.0000    0.0000   -0.0000    0.0000   -0.0000   -0.0000
      168 W      6g2+       0.0000   -0.0000   -0.0000   -0.0000   -0.0000    0.0000    0.0000   -0.0000    0.0000    0.0000
      169 W      7g2+      -0.0000    0.0000    0.0000    0.0000    0.0000   -0.0000   -0.0000    0.0000   -0.0000   -0.0000
      170 W      8g2+       0.0000   -0.0000    0.0000   -0.0000   -0.0000    0.0000    0.0000   -0.0000    0.0000    0.0000
      171 W      5g3+       0.0000   -0.0000    0.0000    0.0000    0.0000    0.0000    0.0000   -0.0000   -0.0000   -0.0000
      172 W      6g3+      -0.0000    0.0000   -0.0000   -0.0000   -0.0000   -0.0000    0.0000   -0.0000    0.0000    0.0000
      173 W      7g3+       0.0000   -0.0000    0.0000    0.0000    0.0000    0.0000    0.0000   -0.0000   -0.0000   -0.0000
      174 W      8g3+      -0.0000    0.0000   -0.0000   -0.0000   -0.0000   -0.0000   -0.0000    0.0000    0.0000    0.0000
      175 W      5g4+       0.0000   -0.0000   -0.0000    0.0000    0.0000   -0.0000   -0.0000    0.0000    0.0000    0.0000
      176 W      6g4+      -0.0000    0.0000    0.0000   -0.0000   -0.0000   -0.0000    0.0000   -0.0000   -0.0000   -0.0000
      177 W      7g4+       0.0000   -0.0000   -0.0000    0.0000    0.0000    0.0000   -0.0000    0.0000    0.0000    0.0000
      178 W      8g4+      -0.0000    0.0000   -0.0000   -0.0000   -0.0000   -0.0000    0.0000   -0.0000   -0.0000   -0.0000
      179 W      6h5-      -0.0000   -0.0000   -0.0000    0.0000   -0.0000   -0.0000   -0.0000   -0.0000    0.0000   -0.0000
      180 W      7h5-      -0.0000    0.0000   -0.0000   -0.0000    0.0000    0.0000    0.0000    0.0000    0.0000    0.0000
      181 W      6h4-      -0.0000   -0.0000   -0.0000    0.0000   -0.0000    0.0000    0.0000    0.0000    0.0000    0.0000
      182 W      7h4-       0.0000    0.0000   -0.0000    0.0000   -0.0000    0.0000   -0.0000   -0.0000   -0.0000    0.0000
      183 W      6h3-       0.0000    0.0000    0.0000   -0.0000    0.0000    0.0000    0.0000    0.0000    0.0000   -0.0000
      184 W      7h3-      -0.0000   -0.0000   -0.0000    0.0000   -0.0000   -0.0000   -0.0000   -0.0000   -0.0000    0.0000
      185 W      6h2-      -0.0000    0.0000   -0.0000    0.0000   -0.0000    0.0000   -0.0000   -0.0000   -0.0000   -0.0000
      186 W      7h2-      -0.0000   -0.0000    0.0000   -0.0000    0.0000    0.0000   -0.0000   -0.0000   -0.0000   -0.0000
      187 W      6h1-       0.0000   -0.0000   -0.0000    0.0000   -0.0000    0.0000   -0.0000   -0.0000    0.0000   -0.0000
      188 W      7h1-      -0.0000    0.0000   -0.0000    0.0000    0.0000   -0.0000    0.0000    0.0000    0.0000    0.0000
      189 W      6h0        0.0000   -0.0000   -0.0000   -0.0000   -0.0000    0.0000   -0.0000    0.0000    0.0000   -0.0000
      190 W      7h0        0.0000   -0.0000   -0.0000    0.0000    0.0000    0.0000    0.0000   -0.0000   -0.0000   -0.0000
      191 W      6h1+       0.0000   -0.0000   -0.0000   -0.0000   -0.0000    0.0000    0.0000   -0.0000    0.0000    0.0000
      192 W      7h1+       0.0000   -0.0000   -0.0000   -0.0000   -0.0000   -0.0000   -0.0000    0.0000   -0.0000   -0.0000
      193 W      6h2+      -0.0000    0.0000    0.0000    0.0000    0.0000   -0.0000    0.0000   -0.0000   -0.0000    0.0000
      194 W      7h2+      -0.0000    0.0000    0.0000   -0.0000   -0.0000   -0.0000   -0.0000    0.0000    0.0000    0.0000
      195 W      6h3+      -0.0000    0.0000    0.0000   -0.0000   -0.0000   -0.0000    0.0000   -0.0000   -0.0000   -0.0000
      196 W      7h3+      -0.0000    0.0000    0.0000    0.0000    0.0000    0.0000   -0.0000    0.0000    0.0000    0.0000
      197 W      6h4+      -0.0000    0.0000    0.0000   -0.0000   -0.0000   -0.0000   -0.0000    0.0000   -0.0000    0.0000
      198 W      7h4+      -0.0000    0.0000    0.0000    0.0000    0.0000   -0.0000    0.0000   -0.0000    0.0000    0.0000
      199 W      6h5+       0.0000   -0.0000   -0.0000   -0.0000   -0.0000    0.0000   -0.0000    0.0000    0.0000    0.0000
      200 W      7h5+       0.0000   -0.0000   -0.0000    0.0000    0.0000   -0.0000    0.0000   -0.0000   -0.0000   -0.0000

          Orbital           11        12        13        14        15        16        17        18        19        20    
          Energy          -62.8769  -62.8769  -62.8753  -62.8753  -16.7999  -11.2266  -11.2266  -11.2199   -3.8716   -3.8716
          Occ. No.          2.0000    2.0000    2.0000    2.0000    2.0000    2.0000    2.0000    2.0000    2.0000    2.0000

        1 W      1s        -0.0000   -0.0000   -0.0000   -0.0000   -0.0000    0.0000   -0.0000   -0.0000    0.0000    0.0000
        2 W      2s        -0.0000   -0.0000   -0.0000   -0.0000   -0.0000   -0.0000   -0.0000    0.0000    0.0000   -0.0000
        3 W      3s         0.0000   -0.0000   -0.0000   -0.0000    0.0001    0.0000    0.0000   -0.0001   -0.0000   -0.0000
        4 W      4s         0.0000    0.0000    0.0000    0.0000    0.9999    0.0000    0.0000   -0.0123   -0.0000   -0.0000
        5 W      5s        -0.0000   -0.0000   -0.0000   -0.0000   -0.0009   -0.0000   -0.0000    0.0028    0.0000    0.0000
        6 W      6s         0.0000    0.0000    0.0000    0.0000    0.0001    0.0000    0.0000   -0.0003   -0.0000   -0.0000
        7 W      7s        -0.0000   -0.0000   -0.0000   -0.0000   -0.0000   -0.0000    0.0000    0.0003    0.0000    0.0000
        8 W      8s         0.0000    0.0000    0.0000    0.0000    0.0000    0.0000   -0.0000   -0.0004   -0.0000   -0.0000
        9 W      9s        -0.0000   -0.0000   -0.0000   -0.0000   -0.0000   -0.0000   -0.0000    0.0002    0.0000    0.0000
       10 W     10s         0.0000    0.0000    0.0000    0.0000    0.0000    0.0000    0.0000   -0.0001   -0.0000    0.0000
       11 W     11s        -0.0000   -0.0000   -0.0000   -0.0000   -0.0001   -0.0000    0.0000    0.0001    0.0000   -0.0000
       12 W      2px       -0.0000   -0.0000   -0.0000   -0.0000    0.0000    0.0000   -0.0000   -0.0000   -0.0000    0.0000
       13 W      3px       -0.0000   -0.0000   -0.0000   -0.0000   -0.0002   -0.0000   -0.0000    0.0001    0.0000    0.0000
       14 W      4px        0.0000    0.0000    0.0000    0.0000    0.0124   -0.0035   -0.0000    0.9999    0.0000    0.0000
       15 W      5px        0.0000    0.0000    0.0000    0.0000    0.0008    0.0000    0.0000   -0.0011   -0.0000   -0.0000
       16 W      6px       -0.0000   -0.0000   -0.0000   -0.0000   -0.0002   -0.0000   -0.0000    0.0002    0.0000    0.0000
       17 W      7px        0.0000   -0.0000   -0.0000   -0.0000    0.0003    0.0000    0.0000   -0.0001   -0.0000   -0.0000
       18 W      8px        0.0000   -0.0000    0.0000    0.0000   -0.0001    0.0000   -0.0000   -0.0001    0.0000   -0.0000
       19 W      9px       -0.0000   -0.0000   -0.0000   -0.0000    0.0000   -0.0000   -0.0000    0.0001    0.0000    0.0000
       20 W     10px        0.0000    0.0000    0.0000    0.0000   -0.0000   -0.0000   -0.0000   -0.0000    0.0000   -0.0000
       21 W     11px       -0.0000   -0.0000   -0.0000   -0.0000    0.0001    0.0000    0.0000   -0.0001    0.0000   -0.0000
       22 W      2py       -0.0000   -0.0000   -0.0000    0.0000   -0.0000   -0.0000   -0.0000    0.0000    0.0000   -0.0000
       23 W      3py       -0.0000   -0.0012   -0.0000    0.0001    0.0000    0.0000    0.0001   -0.0000    0.0000   -0.0000
       24 W      4py        0.0000    0.0001    0.0000   -0.0000    0.0000    0.0000    1.0000    0.0000    0.0003   -0.0000
       25 W      5py        0.0000    0.0000    0.0000   -0.0000   -0.0000   -0.0000   -0.0006   -0.0000   -0.0002    0.0000
       26 W      6py       -0.0000   -0.0000   -0.0000    0.0000    0.0000    0.0000    0.0001   -0.0000    0.0000   -0.0000
       27 W      7py       -0.0000   -0.0000   -0.0000    0.0000   -0.0000   -0.0000   -0.0001    0.0000   -0.0000    0.0000
       28 W      8py        0.0000    0.0000    0.0000   -0.0000    0.0000    0.0000    0.0000   -0.0000   -0.0000    0.0000
       29 W      9py       -0.0000   -0.0000   -0.0000    0.0000   -0.0000   -0.0000   -0.0000    0.0000    0.0000   -0.0000
       30 W     10py        0.0000    0.0000    0.0000   -0.0000    0.0000    0.0000    0.0001    0.0000   -0.0000    0.0000
       31 W     11py       -0.0000   -0.0000   -0.0000    0.0000   -0.0000   -0.0000   -0.0001    0.0000   -0.0000    0.0000
       32 W      2pz       -0.0000    0.0000   -0.0000   -0.0000    0.0000   -0.0000    0.0000   -0.0000    0.0000   -0.0000
       33 W      3pz       -0.0012    0.0000   -0.0001   -0.0000   -0.0000    0.0001   -0.0000    0.0000   -0.0000   -0.0000
       34 W      4pz        0.0001   -0.0000    0.0000    0.0000    0.0000    1.0000   -0.0000    0.0035   -0.0000   -0.0003
       35 W      5pz        0.0000   -0.0000    0.0000    0.0000    0.0000   -0.0006    0.0000   -0.0000    0.0000    0.0002
       36 W      6pz       -0.0000    0.0000   -0.0000   -0.0000   -0.0000    0.0001   -0.0000    0.0000   -0.0000   -0.0000
       37 W      7pz       -0.0000    0.0000   -0.0000   -0.0000    0.0000   -0.0001    0.0000   -0.0000    0.0000    0.0000
       38 W      8pz        0.0000   -0.0000    0.0000    0.0000   -0.0000    0.0000   -0.0000   -0.0000    0.0000    0.0000
       39 W      9pz       -0.0000    0.0000   -0.0000   -0.0000    0.0000   -0.0000    0.0000    0.0000   -0.0000   -0.0000
       40 W     10pz        0.0000   -0.0000    0.0000    0.0000   -0.0000    0.0001   -0.0000    0.0000    0.0000    0.0000
       41 W     11pz       -0.0000    0.0000   -0.0000   -0.0000    0.0000   -0.0001    0.0000   -0.0000    0.0000    0.0000
       42 W      3d2-       0.0000    0.9986    0.0000   -0.0531    0.0000   -0.0000   -0.0001   -0.0000   -0.0000    0.0000
       43 W      4d2-      -0.0000   -0.0001   -0.0000    0.0000    0.0000    0.0000    0.0082    0.0000   -0.0440    0.0000
       44 W      5d2-       0.0000    0.0000    0.0000   -0.0000    0.0000    0.0000    0.0004    0.0000    0.0000   -0.0000
       45 W      6d2-      -0.0000   -0.0000   -0.0000    0.0000   -0.0000   -0.0000   -0.0004   -0.0000   -0.0001    0.0000
       46 W      7d2-       0.0000    0.0000    0.0000   -0.0000    0.0000    0.0000    0.0002    0.0000    0.0000   -0.0000
       47 W      8d2-      -0.0000   -0.0000   -0.0000    0.0000   -0.0000   -0.0000   -0.0000   -0.0000    0.0000   -0.0000
       48 W      9d2-       0.0000    0.0000    0.0000   -0.0000    0.0000   -0.0000   -0.0000   -0.0000   -0.0000    0.0000
       49 W     10d2-      -0.0000   -0.0000   -0.0000    0.0000   -0.0000   -0.0000   -0.0001   -0.0000   -0.0000    0.0000
       50 W     11d2-       0.0000    0.0000    0.0000   -0.0000   -0.0000    0.0000    0.0001    0.0000    0.0000   -0.0000
       51 W      3d1-       0.0000    0.0531   -0.0000    0.9986   -0.0000   -0.0000   -0.0000    0.0000    0.0001   -0.0000
       52 W      4d1-      -0.0000   -0.0000    0.0000   -0.0001   -0.0000    0.0000    0.0000    0.0000    0.9990   -0.0000
       53 W      5d1-       0.0000    0.0000   -0.0000    0.0000    0.0000    0.0000    0.0000    0.0000   -0.0013    0.0000
       54 W      6d1-      -0.0000   -0.0000    0.0000   -0.0000   -0.0000   -0.0000   -0.0000   -0.0000    0.0006   -0.0000
       55 W      7d1-       0.0000    0.0000   -0.0000    0.0000    0.0000    0.0000    0.0000    0.0000    0.0001   -0.0000
       56 W      8d1-      -0.0000   -0.0000    0.0000   -0.0000   -0.0000   -0.0000   -0.0000   -0.0000   -0.0003    0.0000
       57 W      9d1-       0.0000    0.0000   -0.0000    0.0000    0.0000    0.0000    0.0000   -0.0000    0.0001   -0.0000
       58 W     10d1-      -0.0000   -0.0000    0.0000   -0.0000   -0.0000   -0.0000   -0.0000   -0.0000    0.0001   -0.0000
       59 W     11d1-       0.0000    0.0000   -0.0000    0.0000    0.0000    0.0000    0.0000   -0.0000   -0.0000    0.0000
       60 W      3d0       -0.0445    0.0000    0.8633    0.0000    0.0000    0.0000   -0.0000    0.0000    0.0000    0.0001
       61 W      4d0        0.0000   -0.0000   -0.0001   -0.0000    0.0001    0.0000    0.0000   -0.0049    0.0000    0.8663
       62 W      5d0       -0.0000    0.0000    0.0000    0.0000    0.0000   -0.0000    0.0000   -0.0003   -0.0000   -0.0011
       63 W      6d0        0.0000   -0.0000   -0.0000   -0.0000   -0.0000    0.0000   -0.0000    0.0003    0.0000    0.0005
       64 W      7d0       -0.0000    0.0000    0.0000    0.0000    0.0000   -0.0000    0.0000   -0.0002    0.0000    0.0001
       65 W      8d0        0.0000   -0.0000   -0.0000   -0.0000    0.0000    0.0000   -0.0000    0.0000   -0.0000   -0.0003
       66 W      9d0       -0.0000    0.0000    0.0000    0.0000   -0.0000   -0.0000    0.0000    0.0000    0.0000    0.0001
       67 W     10d0        0.0000   -0.0000   -0.0000   -0.0000    0.0000    0.0000   -0.0000    0.0000    0.0000    0.0001
       68 W     11d0       -0.0000    0.0000    0.0000    0.0000    0.0000    0.0000    0.0000   -0.0000   -0.0000   -0.0000
       69 W      3d1+       0.9987   -0.0000    0.0511    0.0000   -0.0000   -0.0001    0.0000   -0.0000    0.0000    0.0000
       70 W      4d1+      -0.0001    0.0000   -0.0000   -0.0000   -0.0000    0.0082   -0.0000    0.0000    0.0000    0.0347
       71 W      5d1+       0.0000   -0.0000    0.0000    0.0000   -0.0000    0.0004   -0.0000    0.0000   -0.0000   -0.0000
       72 W      6d1+      -0.0000    0.0000   -0.0000   -0.0000    0.0000   -0.0004    0.0000   -0.0000    0.0000    0.0000
       73 W      7d1+       0.0000   -0.0000    0.0000    0.0000   -0.0000    0.0002   -0.0000    0.0000   -0.0000   -0.0000
       74 W      8d1+      -0.0000    0.0000   -0.0000   -0.0000    0.0000   -0.0000    0.0000   -0.0000    0.0000    0.0000
       75 W      9d1+       0.0000   -0.0000    0.0000    0.0000    0.0000   -0.0000    0.0000   -0.0000    0.0000    0.0000
       76 W     10d1+      -0.0000    0.0000   -0.0000   -0.0000   -0.0000   -0.0001    0.0000   -0.0000    0.0000    0.0000
       77 W     11d1+       0.0000   -0.0000    0.0000    0.0000   -0.0000    0.0001   -0.0000    0.0000   -0.0000   -0.0000
       78 W      3d2+      -0.0250    0.0000    0.5021    0.0000   -0.0000    0.0000   -0.0000   -0.0001    0.0000    0.0000
       79 W      4d2+       0.0000   -0.0000   -0.0000   -0.0000   -0.0001   -0.0000   -0.0000    0.0085    0.0000    0.4983
       80 W      5d2+      -0.0000    0.0000    0.0000    0.0000   -0.0000   -0.0000   -0.0000    0.0005   -0.0000   -0.0006
       81 W      6d2+       0.0000   -0.0000   -0.0000   -0.0000    0.0001    0.0000    0.0000   -0.0004    0.0000    0.0003
       82 W      7d2+      -0.0000    0.0000    0.0000    0.0000   -0.0000   -0.0000    0.0000    0.0003    0.0000    0.0000
       83 W      8d2+       0.0000   -0.0000   -0.0000   -0.0000   -0.0000    0.0000   -0.0000   -0.0000   -0.0000   -0.0002
       84 W      9d2+      -0.0000    0.0000    0.0000    0.0000    0.0000   -0.0000    0.0000   -0.0000    0.0000    0.0000
       85 W     10d2+       0.0000   -0.0000   -0.0000   -0.0000   -0.0000    0.0000   -0.0000   -0.0001    0.0000    0.0001
       86 W     11d2+      -0.0000    0.0000    0.0000    0.0000   -0.0000   -0.0000   -0.0000    0.0001   -0.0000   -0.0000
       87 W      4f3-       0.0000    0.0003    0.0000   -0.0000   -0.0000    0.0000    0.0000    0.0000   -0.0003    0.0000
       88 W      5f3-      -0.0000   -0.0002   -0.0000    0.0000   -0.0000   -0.0000   -0.0002   -0.0000   -0.0001    0.0000
       89 W      6f3-       0.0000    0.0001    0.0000   -0.0000    0.0000    0.0000    0.0001    0.0000    0.0000   -0.0000
       90 W      7f3-      -0.0000   -0.0001   -0.0000    0.0000   -0.0000    0.0000    0.0000    0.0000    0.0000   -0.0000
       91 W      8f3-       0.0000    0.0001    0.0000   -0.0000    0.0000   -0.0000   -0.0001   -0.0000   -0.0000    0.0000
       92 W      9f3-      -0.0000   -0.0001   -0.0000    0.0000   -0.0000    0.0000    0.0000    0.0000   -0.0000    0.0000
       93 W     10f3-       0.0000    0.0000    0.0000   -0.0000    0.0000    0.0000    0.0000    0.0000    0.0000   -0.0000
       94 W     11f3-      -0.0000   -0.0000   -0.0000    0.0000   -0.0000   -0.0000   -0.0000   -0.0000   -0.0000    0.0000
       95 W      4f2-       0.0000    0.0000   -0.0000    0.0002   -0.0000   -0.0000   -0.0000   -0.0000    0.0062   -0.0000
       96 W      5f2-      -0.0000   -0.0000    0.0000   -0.0001    0.0000    0.0000    0.0000    0.0000    0.0016   -0.0000
       97 W      6f2-       0.0000    0.0000   -0.0000    0.0001   -0.0000   -0.0000   -0.0000   -0.0000   -0.0007    0.0000
       98 W      7f2-      -0.0000   -0.0000    0.0000   -0.0001    0.0000    0.0000    0.0000    0.0000   -0.0001    0.0000
       99 W      8f2-       0.0000    0.0000   -0.0000    0.0001   -0.0000   -0.0000   -0.0000   -0.0000    0.0001   -0.0000
      100 W      9f2-      -0.0000   -0.0000    0.0000   -0.0000    0.0000   -0.0000   -0.0000   -0.0000    0.0001   -0.0000
      101 W     10f2-       0.0000    0.0000   -0.0000    0.0000   -0.0000    0.0000    0.0000   -0.0000   -0.0001    0.0000
      102 W     11f2-      -0.0000   -0.0000    0.0000   -0.0000    0.0000    0.0000    0.0000   -0.0000    0.0000   -0.0000
      103 W      4f1-      -0.0000   -0.0001   -0.0000    0.0000    0.0000   -0.0000   -0.0000   -0.0000    0.0001   -0.0000
      104 W      5f1-       0.0000    0.0000    0.0000   -0.0000   -0.0000    0.0000    0.0001    0.0000    0.0000   -0.0000
      105 W      6f1-      -0.0000   -0.0000   -0.0000    0.0000    0.0000   -0.0000   -0.0000   -0.0000   -0.0000    0.0000
      106 W      7f1-       0.0000    0.0000    0.0000   -0.0000   -0.0000   -0.0000   -0.0000   -0.0000   -0.0000    0.0000
      107 W      8f1-      -0.0000   -0.0000   -0.0000    0.0000    0.0000    0.0000    0.0000    0.0000    0.0000   -0.0000
      108 W      9f1-       0.0000    0.0000    0.0000   -0.0000   -0.0000   -0.0000   -0.0000   -0.0000    0.0000   -0.0000
      109 W     10f1-      -0.0000   -0.0000   -0.0000    0.0000    0.0000   -0.0000   -0.0000   -0.0000   -0.0000    0.0000
      110 W     11f1-       0.0000    0.0000    0.0000   -0.0000   -0.0000    0.0000    0.0000    0.0000    0.0000   -0.0000
      111 W      4f0       -0.0002    0.0000   -0.0000   -0.0000   -0.0000   -0.0000    0.0000    0.0000   -0.0000   -0.0002
      112 W      5f0        0.0001   -0.0000    0.0000    0.0000    0.0000    0.0001   -0.0000   -0.0000   -0.0000   -0.0001
      113 W      6f0       -0.0001    0.0000   -0.0000   -0.0000    0.0000   -0.0001    0.0000    0.0000    0.0000    0.0000
      114 W      7f0        0.0001   -0.0000    0.0000    0.0000   -0.0000   -0.0000    0.0000   -0.0000    0.0000    0.0000
      115 W      8f0       -0.0001    0.0000   -0.0000   -0.0000   -0.0000    0.0000   -0.0000    0.0000   -0.0000   -0.0000
      116 W      9f0        0.0000   -0.0000    0.0000    0.0000   -0.0000   -0.0000    0.0000    0.0000   -0.0000   -0.0000
      117 W     10f0       -0.0000    0.0000   -0.0000   -0.0000   -0.0000   -0.0000    0.0000   -0.0000    0.0000    0.0000
      118 W     11f0        0.0000   -0.0000    0.0000    0.0000   -0.0000    0.0000   -0.0000   -0.0000   -0.0000   -0.0000
      119 W      4f1+      -0.0000    0.0000    0.0002    0.0000   -0.0000    0.0000   -0.0000   -0.0000    0.0000    0.0049
      120 W      5f1+       0.0000   -0.0000   -0.0001   -0.0000   -0.0000   -0.0000    0.0000    0.0002    0.0000    0.0013
      121 W      6f1+      -0.0000    0.0000    0.0001    0.0000    0.0000    0.0000   -0.0000   -0.0001   -0.0000   -0.0006
      122 W      7f1+       0.0000   -0.0000   -0.0001   -0.0000   -0.0000   -0.0000    0.0000   -0.0000   -0.0000   -0.0000
      123 W      8f1+      -0.0000    0.0000    0.0001    0.0000    0.0000    0.0000   -0.0000    0.0000    0.0000    0.0001
      124 W      9f1+       0.0000   -0.0000   -0.0000   -0.0000    0.0000    0.0000   -0.0000   -0.0000    0.0000    0.0001
      125 W     10f1+      -0.0000    0.0000    0.0000    0.0000   -0.0000   -0.0000    0.0000   -0.0000   -0.0000   -0.0001
      126 W     11f1+       0.0000   -0.0000   -0.0000   -0.0000   -0.0000   -0.0000    0.0000    0.0000    0.0000    0.0000
      127 W      4f2+       0.0002   -0.0000    0.0000    0.0000   -0.0000    0.0000   -0.0000    0.0000    0.0000    0.0002
      128 W      5f2+      -0.0001    0.0000   -0.0000   -0.0000    0.0000   -0.0002    0.0000   -0.0000    0.0000    0.0001
      129 W      6f2+       0.0001   -0.0000    0.0000    0.0000    0.0000    0.0001   -0.0000    0.0000   -0.0000   -0.0000
      130 W      7f2+      -0.0001    0.0000   -0.0000   -0.0000   -0.0000    0.0000   -0.0000   -0.0000   -0.0000   -0.0000
      131 W      8f2+       0.0001   -0.0000    0.0000    0.0000   -0.0000   -0.0000    0.0000    0.0000    0.0000    0.0000
      132 W      9f2+      -0.0000    0.0000   -0.0000   -0.0000   -0.0000    0.0000   -0.0000    0.0000    0.0000    0.0000
      133 W     10f2+       0.0000   -0.0000    0.0000    0.0000   -0.0000    0.0000   -0.0000   -0.0000   -0.0000   -0.0000
      134 W     11f2+      -0.0000    0.0000   -0.0000   -0.0000   -0.0000   -0.0000    0.0000   -0.0000    0.0000    0.0000
      135 W      4f3+      -0.0000    0.0000    0.0001    0.0000    0.0000    0.0000   -0.0000    0.0000    0.0000    0.0038
      136 W      5f3+       0.0000   -0.0000   -0.0001   -0.0000    0.0000   -0.0000    0.0000   -0.0002    0.0000    0.0010
      137 W      6f3+      -0.0000    0.0000    0.0001    0.0000   -0.0000    0.0000   -0.0000    0.0001   -0.0000   -0.0004
      138 W      7f3+       0.0000   -0.0000   -0.0001   -0.0000    0.0000   -0.0000    0.0000    0.0000   -0.0000   -0.0000
      139 W      8f3+      -0.0000    0.0000    0.0000    0.0000   -0.0000    0.0000   -0.0000   -0.0001    0.0000    0.0000
      140 W      9f3+       0.0000   -0.0000   -0.0000   -0.0000   -0.0000    0.0000   -0.0000    0.0000    0.0000    0.0001
      141 W     10f3+      -0.0000    0.0000    0.0000    0.0000   -0.0000   -0.0000    0.0000    0.0000   -0.0000   -0.0001
      142 W     11f3+       0.0000   -0.0000   -0.0000   -0.0000    0.0000   -0.0000    0.0000   -0.0000    0.0000    0.0000
      143 W      5g4-       0.0000    0.0000   -0.0000    0.0000   -0.0000    0.0000    0.0001    0.0000    0.0000   -0.0000
      144 W      6g4-      -0.0000   -0.0000    0.0000   -0.0000    0.0000    0.0000    0.0000    0.0000    0.0000   -0.0000
      145 W      7g4-       0.0000    0.0000   -0.0000    0.0000    0.0000   -0.0000   -0.0000   -0.0000   -0.0000    0.0000
      146 W      8g4-      -0.0000   -0.0000    0.0000   -0.0000   -0.0000    0.0000    0.0000    0.0000   -0.0000    0.0000
      147 W      5g3-       0.0000    0.0000   -0.0000    0.0000    0.0000   -0.0000   -0.0000   -0.0000   -0.0002    0.0000
      148 W      6g3-      -0.0000   -0.0000    0.0000   -0.0000   -0.0000   -0.0000   -0.0000   -0.0000   -0.0001    0.0000
      149 W      7g3-       0.0000    0.0000   -0.0000    0.0000    0.0000    0.0000    0.0000    0.0000    0.0001   -0.0000
      150 W      8g3-      -0.0000   -0.0000    0.0000   -0.0000   -0.0000    0.0000    0.0000    0.0000   -0.0000    0.0000
      151 W      5g2-      -0.0000   -0.0000    0.0000   -0.0000   -0.0000   -0.0000   -0.0000   -0.0000   -0.0000    0.0000
      152 W      6g2-       0.0000    0.0000   -0.0000    0.0000    0.0000   -0.0000   -0.0000   -0.0000   -0.0000    0.0000
      153 W      7g2-      -0.0000   -0.0000    0.0000   -0.0000   -0.0000    0.0000    0.0000    0.0000    0.0000   -0.0000
      154 W      8g2-       0.0000    0.0000   -0.0000    0.0000    0.0000   -0.0000   -0.0000   -0.0000    0.0000   -0.0000
      155 W      5g1-      -0.0000   -0.0000    0.0000   -0.0000   -0.0000   -0.0000   -0.0000   -0.0000    0.0001   -0.0000
      156 W      6g1-       0.0000    0.0000   -0.0000    0.0000    0.0000    0.0000    0.0000    0.0000    0.0000   -0.0000
      157 W      7g1-      -0.0000   -0.0000    0.0000   -0.0000   -0.0000   -0.0000   -0.0000    0.0000   -0.0000    0.0000
      158 W      8g1-       0.0000    0.0000   -0.0000    0.0000    0.0000   -0.0000   -0.0000   -0.0000    0.0000   -0.0000
      159 W      5g0        0.0000   -0.0000   -0.0000   -0.0000   -0.0000   -0.0000    0.0000    0.0000    0.0000    0.0001
      160 W      6g0       -0.0000    0.0000    0.0000    0.0000   -0.0000   -0.0000    0.0000    0.0000    0.0000    0.0000
      161 W      7g0        0.0000   -0.0000   -0.0000   -0.0000    0.0000    0.0000   -0.0000   -0.0000   -0.0000   -0.0001
      162 W      8g0       -0.0000    0.0000    0.0000    0.0000   -0.0000   -0.0000    0.0000    0.0000    0.0000    0.0000
      163 W      5g1+      -0.0000    0.0000    0.0000    0.0000    0.0000   -0.0000    0.0000    0.0000    0.0000    0.0000
      164 W      6g1+       0.0000   -0.0000   -0.0000   -0.0000    0.0000   -0.0000    0.0000    0.0000    0.0000    0.0000
      165 W      7g1+      -0.0000    0.0000    0.0000    0.0000    0.0000    0.0000   -0.0000   -0.0000   -0.0000   -0.0000
      166 W      8g1+       0.0000   -0.0000   -0.0000   -0.0000   -0.0000   -0.0000    0.0000   -0.0000   -0.0000   -0.0000
      167 W      5g2+      -0.0000    0.0000    0.0000    0.0000    0.0000   -0.0000    0.0000   -0.0000   -0.0000   -0.0001
      168 W      6g2+       0.0000   -0.0000   -0.0000   -0.0000    0.0000    0.0000   -0.0000   -0.0000   -0.0000   -0.0000
      169 W      7g2+      -0.0000    0.0000    0.0000    0.0000   -0.0000   -0.0000    0.0000    0.0000    0.0000    0.0001
      170 W      8g2+       0.0000   -0.0000   -0.0000   -0.0000    0.0000   -0.0000    0.0000   -0.0000   -0.0000   -0.0000
      171 W      5g3+       0.0000   -0.0000   -0.0000   -0.0000    0.0000    0.0000   -0.0000    0.0000   -0.0000   -0.0000
      172 W      6g3+      -0.0000    0.0000    0.0000    0.0000    0.0000    0.0000   -0.0000    0.0000   -0.0000   -0.0000
      173 W      7g3+       0.0000   -0.0000   -0.0000   -0.0000    0.0000   -0.0000    0.0000   -0.0000    0.0000    0.0000
      174 W      8g3+      -0.0000    0.0000    0.0000    0.0000   -0.0000    0.0000   -0.0000   -0.0000    0.0000    0.0000
      175 W      5g4+      -0.0000    0.0000    0.0000    0.0000   -0.0000    0.0000   -0.0000    0.0001   -0.0000   -0.0001
      176 W      6g4+       0.0000   -0.0000   -0.0000   -0.0000   -0.0000    0.0000   -0.0000    0.0000   -0.0000   -0.0001
      177 W      7g4+      -0.0000    0.0000    0.0000    0.0000    0.0000   -0.0000    0.0000   -0.0000    0.0000    0.0001
      178 W      8g4+       0.0000   -0.0000   -0.0000   -0.0000   -0.0000   -0.0000    0.0000    0.0000   -0.0000   -0.0000
      179 W      6h5-       0.0000    0.0000    0.0000   -0.0000   -0.0000   -0.0000   -0.0000   -0.0000    0.0000   -0.0000
      180 W      7h5-      -0.0000   -0.0000    0.0000   -0.0000    0.0000    0.0000    0.0000    0.0000    0.0000   -0.0000
      181 W      6h4-      -0.0000   -0.0000   -0.0000    0.0000    0.0000    0.0000    0.0000    0.0000    0.0001   -0.0000
      182 W      7h4-      -0.0000   -0.0000    0.0000   -0.0000    0.0000   -0.0000   -0.0000   -0.0000    0.0000   -0.0000
      183 W      6h3-      -0.0000   -0.0000    0.0000   -0.0000    0.0000    0.0000    0.0000    0.0000   -0.0000    0.0000
      184 W      7h3-       0.0000    0.0000   -0.0000    0.0000    0.0000   -0.0000   -0.0000   -0.0000   -0.0000    0.0000
      185 W      6h2-       0.0000    0.0000    0.0000   -0.0000    0.0000    0.0000    0.0000    0.0000   -0.0000    0.0000
      186 W      7h2-       0.0000    0.0000   -0.0000    0.0000    0.0000    0.0000    0.0000    0.0000   -0.0000    0.0000
      187 W      6h1-       0.0000    0.0000    0.0000   -0.0000   -0.0000   -0.0000   -0.0000   -0.0000   -0.0000    0.0000
[...]
         5   15       3.58431317E-04  1.04996074E-11  2.04815268E+06  3.74522986E-13  2.04815268E+06
         5   17       2.36956300E-02  3.23758240E-15  1.80111856E+08  2.40357822E-14  1.80111856E+08
         6    8       1.63578199E-02  2.88407561E+05  8.87208275E-13  6.34181376E+07  6.37065452E+07
         6   10       2.02474426E-02  3.67307616E-14  7.94286216E+07  3.50325551E-13  7.94286216E+07
         6   12       2.85096033E-02  5.74698558E-15  1.25409588E+08  3.57469929E-15  1.25409588E+08
         6   14       4.89779599E-03  2.71756691E+07  5.20924250E-13  4.32686459E+05  2.76083556E+07
         6   16       3.58431317E-04  1.04996074E-11  2.04815268E+06  3.74522986E-13  2.04815268E+06
         6   18       2.36956300E-02  3.23758240E-15  1.80111856E+08  2.40357822E-14  1.80111856E+08
         7    9       8.61923893E-04  7.77678814E-22  4.42591605E+01  2.10924562E-19  4.42591605E+01
         7   11       2.28155584E-02  1.87637415E-19  3.50133739E+05  1.21052409E-15  3.50133739E+05
         7   13       5.54087309E-02  1.22240390E+05  2.11612205E-12  8.77642655E+06  8.89866694E+06
         7   15       5.57708861E-02  6.25780722E-14  9.69689229E+06  2.98772384E-12  9.69689229E+06
         7   17       5.87316665E-02  3.55916752E-17  3.60571571E+07  3.29795515E-13  3.60571571E+07
         8   10       8.61923893E-04  7.77678814E-22  4.42591605E+01  2.10924562E-19  4.42591605E+01
         8   12       2.28155584E-02  1.87637415E-19  3.50133739E+05  1.21052409E-15  3.50133739E+05
         8   14       5.54087309E-02  1.22240390E+05  2.11612205E-12  8.77642655E+06  8.89866694E+06
         8   16       5.57708861E-02  6.25780722E-14  9.69689229E+06  2.98772384E-12  9.69689229E+06
         8   18       5.87316665E-02  3.55916752E-17  3.60571571E+07  3.29795515E-13  3.60571571E+07
         9   11       2.12982572E-02  4.22332334E+01  1.11800876E-15  2.90087112E+05  2.90129345E+05
         9   13       6.56328938E-02  5.34676651E-14  1.01670851E+07  2.29270959E-12  1.01670851E+07
         9   15       4.15513068E-02  1.32654208E+05  3.86067717E-12  6.84570128E+06  6.97835549E+06
         9   17       6.37294348E-02  4.05183470E+03  1.60599930E-14  3.84090162E+07  3.84130680E+07
        10   12       2.12982572E-02  4.22332334E+01  1.11800876E-15  2.90087112E+05  2.90129345E+05
        10   14       6.56328938E-02  5.34676651E-14  1.01670851E+07  2.29270959E-12  1.01670851E+07
        10   16       4.15513068E-02  1.32654208E+05  3.86067717E-12  6.84570128E+06  6.97835549E+06
        10   18       6.37294348E-02  4.05183470E+03  1.60599930E-14  3.84090162E+07  3.84130680E+07
        11   13       9.86854988E-02  2.54856515E-16  7.56492245E+06  3.32865588E-12  7.56492245E+06
        11   15       1.07328470E-01  9.07672891E+02  3.01217235E-12  9.21925671E+06  9.22016438E+06
        11   17       3.90027883E-04  4.30315947E+04  3.28859517E-14  1.26688039E+05  1.69719633E+05
        12   14       9.86854988E-02  2.54856515E-16  7.56492245E+06  3.32865588E-12  7.56492245E+06
        12   16       1.07328470E-01  9.07672891E+02  3.01217235E-12  9.21925671E+06  9.22016438E+06
        12   18       3.90027883E-04  4.30315947E+04  3.28859517E-14  1.26688039E+05  1.69719633E+05
        13   15       7.07973689E-03  5.16967799E-20  1.86432901E+03  3.09135118E-15  1.86432901E+03
        13   17       9.77655006E-02  8.33600970E-17  1.43251970E+07  6.82796550E-12  1.43251970E+07
        14   16       7.07973689E-03  5.16967799E-20  1.86432901E+03  3.09135118E-15  1.86432901E+03
        14   18       9.77655006E-02  8.33600970E-17  1.43251970E+07  6.82796550E-12  1.43251970E+07
        15   17       1.14695978E-01  1.22452438E+02  4.66430260E-12  1.54111214E+07  1.54112438E+07
        16   18       1.14695978E-01  1.22452438E+02  4.66430260E-12  1.54111214E+07  1.54112438E+07
     -----------------------------------------------------------------------------------------------
--

++ Velocity transition strengths (SO states):
   ------------------------------------------
    for osc. strength at least    1.0000000000000001E-005

      From   To        Osc. strength     Einstein coefficients Ax, Ay, Az (sec-1)    Total A (sec-1)
     -----------------------------------------------------------------------------------------------
         1    3       1.88347964E-01  2.63977555E+01  9.86930506E-15  7.73515650E+07  7.73515914E+07
         1    5       1.84727402E-01  1.04133041E-16  7.98530741E+07  1.95065799E-14  7.98530741E+07
         1    7       3.71479639E-03  1.34665169E-16  2.57133300E+07  6.17559447E-14  2.57133300E+07
         1    9       3.50341178E-03  2.47465283E+04  2.17511040E-13  2.43576864E+07  2.43824329E+07
         1   11       3.16229812E-04  2.23492778E+06  3.93004141E-14  1.64958761E+05  2.39988654E+06
         1   13       2.63909276E-05  7.81635482E-15  2.42563600E+05  2.01540278E-15  2.42563600E+05
         1   17       3.76160351E-03  4.38498056E+07  1.74654228E-17  5.57399995E+03  4.38553796E+07
         2    4       1.88347964E-01  2.63977555E+01  9.86930506E-15  7.73515650E+07  7.73515914E+07
         2    6       1.84727402E-01  1.04133041E-16  7.98530741E+07  1.95065799E-14  7.98530741E+07
         2    8       3.71479639E-03  1.34665169E-16  2.57133300E+07  6.17559447E-14  2.57133300E+07
         2   10       3.50341178E-03  2.47465283E+04  2.17511040E-13  2.43576864E+07  2.43824329E+07
         2   12       3.16229812E-04  2.23492778E+06  3.93004141E-14  1.64958761E+05  2.39988654E+06
         2   14       2.63909276E-05  7.81635482E-15  2.42563600E+05  2.01540278E-15  2.42563600E+05
         2   18       3.76160351E-03  4.38498056E+07  1.74654228E-17  5.57399995E+03  4.38553796E+07
         3    5       4.79066302E-04  1.07905221E-18  1.32483862E+02  8.14822593E-17  1.32483862E+02
         3    7       2.02588411E-02  8.37837333E-15  8.02349055E+07  2.13390132E-13  8.02349055E+07
         3    9       1.67460019E-02  1.38972228E+06  4.78196059E-13  6.54111051E+07  6.68008274E+07
         3   11       3.52801127E-02  2.03106998E+02  7.79119001E-14  1.57663179E+08  1.57663382E+08
         3   15       1.39958021E-03  6.69846064E+06  1.93805417E-14  1.41072596E+06  8.10918660E+06
         3   17       8.14938459E-03  2.55338677E+04  1.15145559E-14  6.26681471E+07  6.26936809E+07
         4    6       4.79066302E-04  1.07905221E-18  1.32483862E+02  8.14822593E-17  1.32483862E+02
         4    8       2.02588411E-02  8.37837333E-15  8.02349055E+07  2.13390132E-13  8.02349055E+07
         4   10       1.67460019E-02  1.38972228E+06  4.78196059E-13  6.54111051E+07  6.68008274E+07
         4   12       3.52801127E-02  2.03106998E+02  7.79119001E-14  1.57663179E+08  1.57663382E+08
         4   16       1.39958021E-03  6.69846064E+06  1.93805417E-14  1.41072596E+06  8.10918660E+06
         4   18       8.14938459E-03  2.55338677E+04  1.15145559E-14  6.26681471E+07  6.26936809E+07
         5    7       2.08252251E-02  1.49145068E+06  8.42100259E-13  7.96139635E+07  8.11054142E+07
         5    9       2.45682117E-02  5.11631203E-16  9.63788869E+07  4.41350557E-13  9.63788869E+07
         5   11       2.69336983E-02  2.66336401E-16  1.18477823E+08  1.70026133E-15  1.18477823E+08
         5   13       1.16963276E-03  6.59058489E+06  1.15200305E-13  2.53365288E+03  6.59311854E+06
         5   15       4.45780287E-05  2.45573671E-12  2.54729210E+05  2.41069242E-14  2.54729210E+05
         5   17       8.64542257E-03  6.89862586E-15  6.57145860E+07  4.45991948E-15  6.57145860E+07
         6    8       2.08252251E-02  1.49145068E+06  8.42100259E-13  7.96139635E+07  8.11054142E+07
         6   10       2.45682117E-02  5.11631203E-16  9.63788869E+07  4.41350557E-13  9.63788869E+07
         6   12       2.69336983E-02  2.66336401E-16  1.18477823E+08  1.70026133E-15  1.18477823E+08
         6   14       1.16963276E-03  6.59058489E+06  1.15200305E-13  2.53365288E+03  6.59311854E+06
         6   16       4.45780287E-05  2.45573671E-12  2.54729210E+05  2.41069242E-14  2.54729210E+05
         6   18       8.64542257E-03  6.89862586E-15  6.57145860E+07  4.45991948E-15  6.57145860E+07
         7    9       2.27055572E-03  2.01058763E-18  1.16591779E+02  1.01539504E-16  1.16591779E+02
         7   11       3.61219158E-02  9.74034448E-17  5.54338631E+05  1.82694051E-16  5.54338631E+05
         7   13       5.18095009E-02  1.58607067E+06  1.83138575E-12  6.73458724E+06  8.32065791E+06
         7   15       4.14016878E-02  7.54159172E-13  7.19854267E+06  2.42733964E-12  7.19854267E+06
         7   17       3.27854861E-02  1.93994537E-15  2.01280775E+07  9.81704071E-14  2.01280775E+07
         8   10       2.27055572E-03  2.01058763E-18  1.16591779E+02  1.01539504E-16  1.16591779E+02
         8   12       3.61219158E-02  9.74034448E-17  5.54338631E+05  1.82694051E-16  5.54338631E+05
         8   14       5.18095009E-02  1.58607067E+06  1.83138575E-12  6.73458724E+06  8.32065791E+06
         8   16       4.14016878E-02  7.54159172E-13  7.19854267E+06  2.42733964E-12  7.19854267E+06
         8   18       3.27854861E-02  1.93994537E-15  2.01280775E+07  9.81704071E-14  2.01280775E+07
         9   11       3.11442947E-02  5.15284561E+02  1.68316083E-14  4.23740331E+05  4.24255616E+05
         9   13       5.45532322E-02  7.09972808E-13  8.45078204E+06  1.41503273E-12  8.45078204E+06
         9   15       3.86174709E-02  1.62801457E+06  2.73703585E-12  4.85763890E+06  6.48565347E+06
         9   17       3.48226363E-02  2.58380839E+04  4.95646205E-14  2.09636615E+07  2.09894996E+07
        10   12       3.11442947E-02  5.15284561E+02  1.68316083E-14  4.23740331E+05  4.24255616E+05
        10   14       5.45532322E-02  7.09972808E-13  8.45078204E+06  1.41503273E-12  8.45078204E+06
        10   16       3.86174709E-02  1.62801457E+06  2.73703585E-12  4.85763890E+06  6.48565347E+06
        10   18       3.48226363E-02  2.58380839E+04  4.95646205E-14  2.09636615E+07  2.09894996E+07
        11   13       1.50613573E-01  1.35368143E-17  1.15456067E+07  5.32738656E-12  1.15456067E+07
        11   15       1.69793936E-01  2.34385302E+03  4.46445205E-12  1.45840324E+07  1.45863763E+07
        11   17       1.26246626E-02  5.33953304E+06  1.15607011E-14  1.54075609E+05  5.49360865E+06
        12   14       1.50613573E-01  1.35368143E-17  1.15456067E+07  5.32738656E-12  1.15456067E+07
        12   16       1.69793936E-01  2.34385302E+03  4.46445205E-12  1.45840324E+07  1.45863763E+07
        12   18       1.26246626E-02  5.33953304E+06  1.15607011E-14  1.54075609E+05  5.49360865E+06
        13   15       5.85262245E-03  3.52419606E-18  1.54119453E+03  8.38584820E-16  1.54119453E+03
        13   17       1.63246712E-02  5.32512185E-15  2.39199863E+06  1.09789724E-12  2.39199863E+06
        14   16       5.85262245E-03  3.52419606E-18  1.54119453E+03  8.38584820E-16  1.54119453E+03
        14   18       1.63246712E-02  5.32512185E-15  2.39199863E+06  1.09789724E-12  2.39199863E+06
        15   17       1.80163149E-02  4.95982723E+03  8.00277620E-13  2.41582939E+06  2.42078922E+06
        16   18       1.80163149E-02  4.95982723E+03  8.00277620E-13  2.41582939E+06  2.42078922E+06
     -----------------------------------------------------------------------------------------------
--

++ Length and velocity gauge comparison (SO states):

 --------------------------------------------------
 A comparison between the dipole oscillator strengths in 
 length and velocity gauge will be performed

 All dipole oscillator differences above the tolerance of   0.10000000000000001       will be printed 

 Due to basis set deficiency these oscillator may be problematic 

 The tolerance is defined as ABS(1-O_l/O_v) 
 O_l : dipole oscillator strength in length gauge
 O_p : dipole oscillator strength in velocity gauge
 --------------------------------------------------

  Problematic transitions have been found

      From   To       Difference (%) Osc. st. (len.) Osc. st. (vel.)
     ---------------------------------------------------------------
         1    3            75.359740  4.64094288E-02  1.88347964E-01
         1    5            74.708301  4.67206989E-02  1.84727402E-01
         1    7           184.286019  1.05606468E-02  3.71479639E-03
         1    9           184.161949  9.95536319E-03  3.50341178E-03
         1   11            70.634455  9.28626079E-05  3.16229812E-04
         1   13          3537.537666  9.59979932E-04  2.63909276E-05
         1   15      ---------------  1.14589906E-03 below threshold
         1   17            44.835268  2.07507850E-03  3.76160351E-03
         2    4            75.359740  4.64094288E-02  1.88347964E-01
         2    6            74.708301  4.67206989E-02  1.84727402E-01
         2    8           184.286019  1.05606468E-02  3.71479639E-03
         2   10           184.161949  9.95536319E-03  3.50341178E-03
         2   12            70.634455  9.28626079E-05  3.16229812E-04
         2   14          3537.537666  9.59979932E-04  2.63909276E-05
         2   16      ---------------  1.14589906E-03 below threshold
         2   18            44.835268  2.07507850E-03  3.76160351E-03
         3    5            17.193580  3.96697653E-04  4.79066302E-04
         3    7            19.570335  1.62941179E-02  2.02588411E-02
         3    9            20.551264  1.33044867E-02  1.67460019E-02
         3   13      ---------------  7.71044019E-05 below threshold
         3   15           243.383597  4.80592886E-03  1.39958021E-03
         3   17           182.180090  2.29959408E-02  8.14938459E-03
         4    6            17.193580  3.96697653E-04  4.79066302E-04
         4    8            19.570335  1.62941179E-02  2.02588411E-02
         4   10            20.551264  1.33044867E-02  1.67460019E-02
         4   14      ---------------  7.71044019E-05 below threshold
         4   16           243.383597  4.80592886E-03  1.39958021E-03
         4   18           182.180090  2.29959408E-02  8.14938459E-03
         5    7            21.451894  1.63578199E-02  2.08252251E-02
         5    9            17.586828  2.02474426E-02  2.45682117E-02
         5   13           318.746477  4.89779599E-03  1.16963276E-03
         5   15           704.053764  3.58431317E-04  4.45780287E-05
         5   17           174.082960  2.36956300E-02  8.64542257E-03
         6    8            21.451894  1.63578199E-02  2.08252251E-02
         6   10            17.586828  2.02474426E-02  2.45682117E-02
         6   14           318.746477  4.89779599E-03  1.16963276E-03
         6   16           704.053764  3.58431317E-04  4.45780287E-05
         6   18           174.082960  2.36956300E-02  8.64542257E-03
         7    9            62.039078  8.61923893E-04  2.27055572E-03
         7   11            36.837352  2.28155584E-02  3.61219158E-02
         7   15            34.706793  5.57708861E-02  4.14016878E-02
         7   17            79.139228  5.87316665E-02  3.27854861E-02
         8   10            62.039078  8.61923893E-04  2.27055572E-03
         8   12            36.837352  2.28155584E-02  3.61219158E-02
         8   16            34.706793  5.57708861E-02  4.14016878E-02
         8   18            79.139228  5.87316665E-02  3.27854861E-02
         9   11            31.614257  2.12982572E-02  3.11442947E-02
         9   13            20.309817  6.56328938E-02  5.45532322E-02
         9   17            83.011517  6.37294348E-02  3.48226363E-02
        10   12            31.614257  2.12982572E-02  3.11442947E-02
        10   14            20.309817  6.56328938E-02  5.45532322E-02
        10   18            83.011517  6.37294348E-02  3.48226363E-02
        11   13            34.477686  9.86854988E-02  1.50613573E-01
        11   15            36.788985  1.07328470E-01  1.69793936E-01
        11   17            96.910588  3.90027883E-04  1.26246626E-02
        12   14            34.477686  9.86854988E-02  1.50613573E-01
        12   16            36.788985  1.07328470E-01  1.69793936E-01
        12   18            96.910588  3.90027883E-04  1.26246626E-02
        13   15            20.966916  7.07973689E-03  5.85262245E-03
        13   17           498.881897  9.77655006E-02  1.63246712E-02
        14   16            20.966916  7.07973689E-03  5.85262245E-03
        14   18           498.881897  9.77655006E-02  1.63246712E-02
        15   17           536.622854  1.14695978E-01  1.80163149E-02
        16   18           536.622854  1.14695978E-01  1.80163149E-02
     ---------------------------------------------------------------

 Number of problematic transitions =                    64

--

 Electric-dipole - electric-octupole not included
++ I/O STATISTICS
 
  I. General I/O information
  - - - - - - - - - - - - - - - - - - - - - - - - - - - - - - - - - - - - - - - - - - -
  Unit  Name          Flsize      Write/Read            MBytes           Write/Read
                      (MBytes)       Calls              In/Out           Time, sec.
  - - - - - - - - - - - - - - - - - - - - - - - - - - - - - - - - - - - - - - - - - - -
   1  SCRATCH           0.00 .       9/      45 .      0.0/      0.0 .       0/       0
   2  ANNI              0.00 .       0/       0 .      0.0/      0.0 .       0/       0
   3  RUNFILE          15.31 .     322/   10733 .      2.3/     77.8 .       0/       0
   4  ONEINT            6.58 .       0/   28767 .      0.0/   3777.9 .       0/       0
   5  JOBIPH            7.71 .       0/      92 .      0.0/      0.9 .       0/       0
   6  ORDINT          771.03 .       1/    6169 .      0.0/   1542.0 .       0/       0
  - - - - - - - - - - - - - - - - - - - - - - - - - - - - - - - - - - - - - - - - - - -
   *  TOTAL           800.63 .     332/   45806 .      2.3/   5398.7 .       0/       0
  - - - - - - - - - - - - - - - - - - - - - - - - - - - - - - - - - - - - - - - - - - -
 
  II. I/O Access Patterns
  - - - - - - - - - - - - - - - - - - - -
  Unit  Name               % of random
                         Write/Read calls
  - - - - - - - - - - - - - - - - - - - -
   1  SCRATCH             88.9/ 100.0
   2  ANNI                 0.0/   0.0
   3  RUNFILE             28.6/  10.8
   4  ONEINT               0.0/  13.4
   5  JOBIPH               0.0/  76.1
   6  ORDINT             100.0/   0.0
  - - - - - - - - - - - - - - - - - - - -
--
--- Stop Module: rassi at Mon Mar 31 12:43:56 2025 /rc=_RC_ALL_IS_WELL_ ---
*** files: xmldump
    saved to directory /home4/s4752295/Internship/Initial_simulations/Point_charge_model/1_electron/Madelung_charges_9_active_space/W/fixed_calculations
--- Module rassi spent 3 seconds ---

.##################.
.# Happy landing! #.
.##################.

    Timing: Wall=87.51 User=71.47 System=14.43

###############################################################################
Hbrk Cluster
Job 16049517 for user s4752295
Finished at: Mon Mar 31 12:44:00 CEST 2025

Job details:
============

Job ID                         : 16049517
Name                           : W_no_SO
User                           : s4752295
Partition                      : regularshort
Nodes                          : node112
Number of Nodes                : 1
Cores                          : 1
Number of Tasks                : 1
State                          : COMPLETED  
Submit                         : 2025-03-31T12:41:42
Start                          : 2025-03-31T12:42:24
End                            : 2025-03-31T12:43:56
Reserved walltime              : 01:00:00
Used walltime                  : 00:01:32
Used CPU time                  : 00:01:27 (Efficiency: 94.60%)
% User (Computation)           : 83.15%
% System (I/O)                 : 16.85%
Total memory reserved          : 25000M
Maximum memory used            : 3.07G

Acknowledgements:
=================

Please see this page for information about acknowledging Hbrk in your publications:

https://wiki.hpc.rug.nl/habrok/introduction/scientific_output

################################################################################
