   This run of MOLCAS is using the pymolcas driver

                             OPE
                             OPE          NMOL  CASOP  ENMOLC A   SO
                 OPE        NMOLC        AS  OP EN  MO LC     AS  OP
                OPENM       OL CA        SO  PE NM  OL CA     SOP EN
                OP EN      MO   LC       AS  OP ENMOL  CASO   PENMOL
                OP  EN     MO   LC       AS  OP EN     MO     LC ASO
               OP   E  NMOL  C  AS       OP  EN MO     LC     AS  OP
               OP  E   NMO   LC AS        OPEN  MO     LCASOP EN   M
               O  PEN   MO  LCA  SO
            OPE   NMO   L   CAS    OP
        OPENMOL  CASOP     ENMOL   CASOPE
     OPENMOLCA   SOPENMOLCASOPEN   MOLCASOPE
    OPENMOLCAS   OP           EN   MOL    CAS
    OPENMOLCAS       OP  ENM        O     LCA
    OPENMOLCAS    OPEN  MOLCASO     P  E  NMO
    OPENMOLCAS     OP               E  N  MOL
    OPENMOLCA   SO           PENM   O  L  CAS    OPEN    MO    LCAS
    OPENMOLCA   SOP           ENM   O  L  CAS   OP  EN  MOLC  AS   O
    OPENMOLCA   SOPE           NM      O  LCA   S      OP  EN MO
    OPENMOLC                AS         O  PEN   M      OL  CA  SOPE
    OPENMO        LCASOPE  NMOL        C  ASO   P      ENMOLC     AS
    OPE     NMO      LCA  SO     P     E   NM   OL  CA SO  PE N   MO
          OPENMOLCA            SOPE   NMO        LCAS  O    P  ENMO
     OPENMOLCASOPENMOLCASOPENMOLCASOPENMOLCA
        OPENMOLCASOPENMOLCASOPENMOLCASOPE
            OPENMOLCASOPENMOLCASOPENM
               OPENMOLCASOPENMOLCA        version: o91e1abe7de707b ?
                   OPENMOLCASO
                       OPE                tag:

 OpenMolcas is free software; you can redistribute it and/or modify it
 under the terms of the GNU Lesser General Public License version 2.1.
 OpenMolcas is distributed in the hope that it will be useful, but it
 is provided "as is" and without any express or implied warranties.
 For more details see the full text of the license in the file
 LICENSE or in <http://www.gnu.org/licenses/>.

                 Copyright (C) The OpenMolcas Authors
           For the author list and the recommended citation,
                   consult the file CONTRIBUTORS.md

           *************************************************
           * pymolcas version py2.10                       *
           *   build 3068ae8b88c9345ec6cfef6fef7f1169      *
           *   (after the EMIL interpreter by V. Veryazov) *
           *************************************************

configuration info
------------------
Host name: login1 (Linux)
C Compiler ID: GNU
C flags: -std=gnu99
Fortran Compiler ID: GNU
Fortran flags: -fno-aggressive-loop-optimizations -cpp -fdefault-integer-8 -fmax-stack-var-size=1048576
Definitions: _MOLCAS_;_I8_;_LINUX_;_MKL_
Parallel: OFF (GA=OFF)


   ----------------------------------------------------------------------------------------------------------------------------------------------
  |
  |           Project: chromium_so_cf
  |    Submitted from: /home4/s4752295/Internship/Initial_simulations/Point_charge_model/1_electron/active_space_9_non_rel/Cr/varying_bond_length
  |      Scratch area: /tmp/chromium_so_cf
  |   Save outputs to: /home4/s4752295/Internship/Initial_simulations/Point_charge_model/1_electron/active_space_9_non_rel/Cr/varying_bond_length
  |            Molcas: /home4/s4752295/Internship/Molcas/recomp_try/OpenMolcas-master/build
  |
  | Scratch area is empty
  |
  |    MOLCAS_DRIVER = /home4/s4752295/Internship/Molcas/bin/pymolcas
  |    MOLCAS_NPROCS = 1
  |    MOLCAS_SOURCE = /home4/s4752295/Internship/Molcas/recomp_try/OpenMolcas-master
  | MOLCAS_STRUCTURE = 0
  |
   ----------------------------------------------------------------------------------------------------------------------------------------------

++ ---------   Input file   ---------

&SEWARD
AMFi

CLIG
$R

Basis Set
Cr.ANO-rcc.Roos.21s15p10d6f4g2h.10s10p8d6f4g2h.
Spherical d
Cr            0.0       0.0     0.0
End of Basis

Xfield

4
0.000000,  0.0000,  0.378       -1.0
0.327358,  0.0000, -0.189       -1.0
-0.163679,  0.2835, -0.189      -1.0
-0.163679, -0.2835, -0.189      -1.0

End of input

&SCF
Occupied
9
Iterations
   50  100
End of Input

&RASSCF
LumOrb
Symmetry
1
Spin
2
Nactel
1 0 0
CIRoot
9 9 1
inactive
9
ras2
9
End of Input

>>> COPY chromium_so_cf.JobIph $SLURM_SUBMIT_DIR/chromium_so_cf.doublet.JobIph

>>> COPY $SLURM_SUBMIT_DIR/chromium_so_cf.doublet.JobIph ./JOB002

&RASSI
NROFJobIph
1 All
SpinOrbit
End of Input

EOF

-- ----------------------------------

--- Start Module: seward at Thu Jan  9 20:20:05 2025 ---

()()()()()()()()()()()()()()()()()()()()()()()()()()()()()()()()()()()()()()()()()()()()()()()()()()

                                              &SEWARD

                                   only a single process is used
                       available to each process: 4.1 GB of memory, 1 thread?
                                            pid: 519478
()()()()()()()()()()()()()()()()()()()()()()()()()()()()()()()()()()()()()()()()()()()()()()()()()()

 The speed of LIGHT in this CALCULATION =   137.03599917700001     
               SEWARD will generate:
                  Multipole Moment integrals up to order  2
                  Kinetic Energy integrals
                  Nuclear Attraction integrals (point charge)
                  One-Electron Hamiltonian integrals
                  Velocity integrals
                  Relativistic Douglas-Kroll-Hess integrals:
                    - Parametrization         : EXP
                    - DKH order of Hamiltonian: 2
                    - DKH order of Properties : 0
                         - multipole moment operators
                         - electric potential operators
                         - contact operators
                  External field from     4 point(s) added to the one-electron Hamiltonian
                  Orbital angular momentum around ( 0.0000  0.0000  0.0000 )
                  Velocity quadrupole around ( 0.0000  0.0000  0.0000 )
                  Atomic mean-field integrals
                  Two-Electron Repulsion integrals

                   Integrals are discarded if absolute value <: 0.10E-13
                   Integral cutoff threshold is set to       <: 0.10E-15

++    Symmetry information:
      ---------------------

                    Character Table for C1 

                             E  
                    a        1  x, y, xy, Rz, z, xz, Ry, yz, Rx, I
--


++    Basis set information:
      ----------------------


      Basis set label: CR.ANO-RCC.ROOS.21S15P10D6F4G2H.10S10P8D6F4G2H......

      Electronic valence basis set:
      ------------------
      Associated Effective Charge  24.000000 au
      Associated Actual Charge     24.000000 au
      Nuclear Model: Point charge

      Shell  nPrim  nBasis  Cartesian Spherical Contaminant
         s      21      10        X                  
         p      15      10        X                  
         d      10       8                 X         
         f       6       6                 X         
         g       4       4                 X         
         h       2       2                 X         
--


++    Molecular structure info:
      -------------------------

                    ************************************************ 
                    **** Cartesian Coordinates / Bohr, Angstrom **** 
                    ************************************************ 

     Center  Label                x              y              z                     x              y              z
        1      CR               0.000000       0.000000       0.000000              0.000000       0.000000       0.000000
--


++    Operator info:
      --------------


  Net charge from external field:   -4.0000000000000000     
--


            Nuclear Potential Energy              0.00000000 au

                    Nuclear-External Field Potential Energy    -253.96816726 au
                    External Field Potential Energy               9.87314638 au 


            Total Nuclear Potential Energy           -253.96816726 au


      Basis set specifications :
      Symmetry species         a  
      Basis functions          180

 Sorry, Molden does not know how to handle
 functions with angular momentum larger than g
Note: The following floating-point exceptions are signalling: IEEE_UNDERFLOW_FLAG IEEE_DENORMAL
--- Stop Module: seward at Thu Jan  9 20:20:14 2025 /rc=_RC_ALL_IS_WELL_ ---
*** files: chromium_so_cf.GssOrb xmldump
    saved to directory /home4/s4752295/Internship/Initial_simulations/Point_charge_model/1_electron/active_space_9_non_rel/Cr/varying_bond_length
--- Module seward spent 8 seconds ---

*** symbolic link created: INPORB -> chromium_so_cf.GssOrb
--- Start Module: scf at Thu Jan  9 20:20:14 2025 ---

()()()()()()()()()()()()()()()()()()()()()()()()()()()()()()()()()()()()()()()()()()()()()()()()()()

                                                &SCF

                                   only a single process is used
                       available to each process: 4.1 GB of memory, 1 thread?
                                            pid: 519564
()()()()()()()()()()()()()()()()()()()()()()()()()()()()()()()()()()()()()()()()()()()()()()()()()()

++    Input section:
      --------------

      Header of the integral files:
      
       Integrals generated by seward 4.2.0  , Thu Jan  9 20:20:06 2025


      Cartesian coordinates in Angstrom:
      -----------------------------------------------------
      No.  Label        X            Y            Z        
      -----------------------------------------------------
       1   CR         0.00000000   0.00000000   0.00000000
      -----------------------------------------------------
      Nuclear repulsion energy = -253.96816726
--

++    Orbital specifications:
      -----------------------

      Symmetry species               1
                                     a
      Frozen orbitals                0
      Occupied orbitals              9
      Secondary orbitals           171
      Deleted orbitals               0
      Total number of orbitals     180
      Number of basis functions    180
--

      Molecular charge                           6.000

++    Optimization specifications:
      ----------------------------

      SCF Algorithm: Conventional
      Minimized density differences are used
      Number of density matrices in core                5
      Maximum number of NDDO SCF iterations            50
      Maximum number of HF SCF iterations             100
      Threshold for SCF energy change            0.10E-08
      Threshold for density matrix               0.10E-03
      Threshold for Fock matrix                  0.15E-03
      Threshold for linear dependence            0.10E-08
      Threshold at which DIIS is turned on       0.15E+00
      Threshold at which QNR/C2DIIS is turned on 0.75E-01
      Threshold for Norm(delta) (QNR/C2DIIS)     0.20E-04
      DIIS extrapolation of the SCF procedure
      All orbitals punched on: SCFORB
--

      Detected guessorb starting orbitals                                             


++ Convergence information
                                   SCF        iterations: Energy and convergence statistics

Iter     Tot. SCF        One-elec.       Two-elec.     Energy      Max Dij or  Max Fij      DNorm      TNorm      AccCon     Time
         Energy          Energy          Energy        Change      Delta Norm                                                in Sec.

 The total and one-electron energies are shifted by a value of      1000. a.u.

   1  -151.609993068  -203.018488883   305.376663078   0.00E+00    0.32E+00*   0.92E+00*    0.60E+01   0.25E+03   None         1.
   2  -153.578508837  -178.891640972   279.281299398  -0.20E+01*   0.70E-01*   0.14E+00*    0.20E+01   0.24E+03   EDIIS        1.
   3  -153.651905508  -184.578771407   284.895033163  -0.73E-01*   0.13E-01*   0.33E-01*    0.20E+00   0.24E+03   EDIIS        1.
   4  -153.654932626  -183.491846426   283.805081064  -0.30E-02*   0.18E-02*   0.58E-02*    0.23E-01   0.24E+03   c2DIIS       1.
   5  -153.655069131  -183.676004301   283.989102433  -0.14E-03*   0.90E-03*   0.68E-03*    0.33E-02   0.24E+03   QNRc2DIIS    1.
   6  -153.655073901  -183.678918006   283.992011369  -0.48E-05*   0.47E-03*   0.23E-03*    0.30E-03   0.24E+03   QNRc2DIIS    1.
   7  -153.655074526  -183.678680281   283.991773018  -0.63E-06*   0.83E-05    0.16E-04     0.33E-04   0.24E+03   QNRc2DIIS    1.
   8  -153.655074527  -183.678968246   283.992060982  -0.52E-09    0.19E-05    0.24E-05     0.90E-04   0.24E+03   QNRc2DIIS    1.

       Convergence after  8 Macro Iterations
--

 *****************************************************************************************************************************
 *                                                                                                                           *
 *                                             SCF/KS-DFT Program, Final results                                             *
 *                                                                                                                           *
 *                                                                                                                           *
 *                                                                                                                           *
 *                                                       Final Results                                                       *
 *                                                                                                                           *
 *****************************************************************************************************************************

::    Total SCF energy                              -1153.6550745268
      One-electron energy                           -1183.6789682456
      Two-electron energy                             283.9920609821
      Nuclear repulsion energy                       -253.9681672633
      Kinetic energy (interpolated)                  1030.3786713242
      Virial theorem                                    1.1196418430
      Total spin, S(S+1)                                0.0000000000
      Total spin, S                                     0.0000000000
      Max non-diagonal density matrix element           0.0000015246
      Max non-diagonal Fock matrix element              0.0000005242


      All orbitals with orbital energies smaller than  E(LUMO)+0.5 are printed

++    Molecular orbitals:
      -------------------

      Title: SCF orbitals

      Molecular orbitals for symmetry species 1: a  

          Orbital            1         2         3         4         5         6         7         8         9        10    
          Energy         -218.9792  -23.2052  -18.9500  -18.9500  -18.5030   -3.2069   -2.0474   -2.0474   -1.9584   -0.4485
          Occ. No.          2.0000    2.0000    2.0000    2.0000    2.0000    2.0000    2.0000    2.0000    2.0000    0.0000

        1 CR     1s         1.0000    0.0004   -0.0000   -0.0000   -0.0004   -0.0001   -0.0000    0.0000    0.0001    0.0000
        2 CR     2s        -0.0004    0.9959   -0.0000   -0.0000   -0.0835   -0.0187    0.0000    0.0000    0.0007    0.0044
        3 CR     3s         0.0002    0.0207   -0.0000   -0.0000   -0.0032    0.9825   -0.0000   -0.0000   -0.0675   -0.0673
        4 CR     4s        -0.0000   -0.0037   -0.0000    0.0000    0.0005    0.0767   -0.0000   -0.0000   -0.0229    0.9916
        5 CR     5s         0.0001    0.0095   -0.0000   -0.0000   -0.0011   -0.1333   -0.0000    0.0000    0.0286    0.0358
        6 CR     6s        -0.0001   -0.0078    0.0000    0.0000    0.0008    0.0668   -0.0000   -0.0000   -0.0091   -0.0783
        7 CR     7s         0.0001    0.0040    0.0000   -0.0000    0.0000   -0.0038    0.0000    0.0000   -0.0026   -0.0298
        8 CR     8s        -0.0001   -0.0017    0.0000    0.0000   -0.0004    0.0016    0.0000   -0.0000    0.0004   -0.0030
        9 CR     9s         0.0002   -0.0014   -0.0000   -0.0000    0.0011   -0.0065    0.0000    0.0000    0.0013    0.0061
       10 CR    10s        -0.0002    0.0035   -0.0000   -0.0000   -0.0010   -0.0021    0.0000    0.0000    0.0004    0.0011
       11 CR     2px        0.0000    0.0000    0.0000    0.9992    0.0000    0.0000   -0.0000   -0.0184   -0.0000   -0.0000
       12 CR     3px       -0.0000   -0.0000    0.0000    0.0207    0.0000    0.0000    0.0000    0.9771    0.0000    0.0000
       13 CR     4px        0.0000    0.0000   -0.0000   -0.0061   -0.0000   -0.0000    0.0000    0.1309    0.0000    0.0000
       14 CR     5px       -0.0000   -0.0000    0.0000    0.0121    0.0000    0.0000   -0.0000   -0.1545   -0.0000    0.0000
       15 CR     6px        0.0000    0.0000   -0.0000   -0.0046   -0.0000   -0.0000    0.0000    0.0156    0.0000   -0.0000
       16 CR     7px       -0.0000    0.0000    0.0000    0.0039    0.0000    0.0000    0.0000    0.0023    0.0000   -0.0000
       17 CR     8px        0.0000   -0.0000   -0.0000   -0.0004    0.0000   -0.0000    0.0000    0.0068    0.0000    0.0000
       18 CR     9px       -0.0000    0.0000   -0.0000   -0.0021   -0.0000   -0.0000   -0.0000   -0.0067   -0.0000    0.0000
       19 CR    10px        0.0000   -0.0000    0.0000    0.0032    0.0000    0.0000   -0.0000   -0.0018   -0.0000    0.0000
       20 CR    11px       -0.0000    0.0000   -0.0000   -0.0015   -0.0000   -0.0000    0.0000    0.0016    0.0000    0.0000
       21 CR     2py       -0.0000   -0.0000    0.9992   -0.0000   -0.0000   -0.0000   -0.0184    0.0000    0.0000    0.0000
       22 CR     3py        0.0000    0.0000    0.0207   -0.0000   -0.0000   -0.0000    0.9771   -0.0000   -0.0000   -0.0000
       23 CR     4py       -0.0000   -0.0000   -0.0061    0.0000   -0.0000    0.0000    0.1309   -0.0000   -0.0000    0.0000
       24 CR     5py        0.0000    0.0000    0.0121   -0.0000   -0.0000   -0.0000   -0.1545    0.0000    0.0000    0.0000
       25 CR     6py       -0.0000   -0.0000   -0.0046    0.0000   -0.0000    0.0000    0.0156   -0.0000    0.0000   -0.0000
       26 CR     7py        0.0000    0.0000    0.0039   -0.0000    0.0000   -0.0000    0.0023   -0.0000   -0.0000   -0.0000
       27 CR     8py       -0.0000   -0.0000   -0.0004    0.0000   -0.0000    0.0000    0.0068   -0.0000    0.0000    0.0000
       28 CR     9py        0.0000    0.0000   -0.0021    0.0000    0.0000   -0.0000   -0.0067    0.0000    0.0000    0.0000
       29 CR    10py       -0.0000   -0.0000    0.0032   -0.0000   -0.0000    0.0000   -0.0018    0.0000    0.0000    0.0000
       30 CR    11py        0.0000    0.0000   -0.0015    0.0000    0.0000   -0.0000    0.0016   -0.0000    0.0000    0.0000
       31 CR     2pz        0.0004    0.0834   -0.0000   -0.0000    0.9961   -0.0003   -0.0000   -0.0000   -0.0168   -0.0000
       32 CR     3pz       -0.0001    0.0021   -0.0000   -0.0000    0.0196    0.0750    0.0000   -0.0000    0.9694    0.0082
       33 CR     4pz        0.0000   -0.0008    0.0000    0.0000   -0.0055   -0.0022    0.0000   -0.0000    0.1529    0.0584
       34 CR     5pz       -0.0001    0.0020   -0.0000   -0.0000    0.0101    0.0011    0.0000    0.0000   -0.1730    0.0018
       35 CR     6pz        0.0001   -0.0012   -0.0000    0.0000   -0.0032    0.0008   -0.0000   -0.0000    0.0141   -0.0040
       36 CR     7pz       -0.0001    0.0018    0.0000   -0.0000    0.0012   -0.0013   -0.0000   -0.0000    0.0054   -0.0009
       37 CR     8pz        0.0001   -0.0016   -0.0000   -0.0000    0.0021    0.0006   -0.0000   -0.0000    0.0079    0.0002
       38 CR     9pz       -0.0001    0.0014    0.0000    0.0000   -0.0046   -0.0004    0.0000    0.0000   -0.0075    0.0004
       39 CR    10pz        0.0001   -0.0011   -0.0000   -0.0000    0.0053    0.0005    0.0000    0.0000   -0.0026   -0.0000
       40 CR    11pz       -0.0001    0.0004    0.0000    0.0000   -0.0019   -0.0002    0.0000    0.0000    0.0019    0.0001
       41 CR     3d2-       0.0000    0.0000    0.0068   -0.0000   -0.0000   -0.0000    0.0256   -0.0000   -0.0000    0.0000
       42 CR     4d2-      -0.0000   -0.0000   -0.0070    0.0000    0.0000    0.0000   -0.0095    0.0000    0.0000    0.0000
       43 CR     5d2-       0.0000    0.0000    0.0065   -0.0000   -0.0000   -0.0000    0.0009   -0.0000    0.0000   -0.0000
       44 CR     6d2-      -0.0000    0.0000   -0.0081    0.0000    0.0000   -0.0000    0.0009   -0.0000    0.0000   -0.0000
       45 CR     7d2-       0.0000   -0.0000    0.0050   -0.0000   -0.0000   -0.0000   -0.0007    0.0000   -0.0000   -0.0000
       46 CR     8d2-      -0.0000   -0.0000   -0.0033    0.0000   -0.0000   -0.0000    0.0008   -0.0000   -0.0000   -0.0000
       47 CR     9d2-       0.0000    0.0000    0.0020   -0.0000    0.0000    0.0000   -0.0010    0.0000    0.0000    0.0000
       48 CR    10d2-      -0.0000    0.0000    0.0003   -0.0000   -0.0000   -0.0000    0.0005   -0.0000    0.0000   -0.0000
       49 CR     3d1-       0.0000    0.0000    0.0107   -0.0000   -0.0000   -0.0000    0.0498   -0.0000   -0.0000    0.0000
       50 CR     4d1-       0.0000   -0.0000   -0.0110    0.0000    0.0000    0.0000   -0.0174    0.0000   -0.0000    0.0000
       51 CR     5d1-      -0.0000    0.0000    0.0102   -0.0000   -0.0000   -0.0000    0.0003   -0.0000   -0.0000    0.0000
       52 CR     6d1-      -0.0000   -0.0000   -0.0127    0.0000    0.0000    0.0000    0.0028   -0.0000   -0.0000   -0.0000
       53 CR     7d1-       0.0000    0.0000    0.0078   -0.0000   -0.0000   -0.0000   -0.0015    0.0000    0.0000    0.0000
       54 CR     8d1-      -0.0000   -0.0000   -0.0053    0.0000    0.0000   -0.0000    0.0016   -0.0000   -0.0000    0.0000
       55 CR     9d1-       0.0000    0.0000    0.0033   -0.0000   -0.0000   -0.0000   -0.0017    0.0000    0.0000    0.0000
       56 CR    10d1-       0.0000   -0.0000   -0.0003    0.0000    0.0000    0.0000    0.0009   -0.0000    0.0000    0.0000
       57 CR     3d0       -0.0000   -0.0050   -0.0000    0.0000   -0.0060   -0.0155    0.0000    0.0000   -0.0116    0.0191
       58 CR     4d0        0.0000    0.0052    0.0000   -0.0000    0.0062    0.0079   -0.0000   -0.0000    0.0055    0.0015
       59 CR     5d0       -0.0000   -0.0049   -0.0000    0.0000   -0.0058   -0.0015   -0.0000    0.0000   -0.0021   -0.0004
       60 CR     6d0        0.0000    0.0063    0.0000   -0.0000    0.0072   -0.0014   -0.0000   -0.0000    0.0011    0.0007
       61 CR     7d0       -0.0000   -0.0039    0.0000    0.0000   -0.0043    0.0013   -0.0000    0.0000   -0.0001   -0.0005
       62 CR     8d0        0.0000    0.0026   -0.0000   -0.0000    0.0028   -0.0010    0.0000   -0.0000   -0.0003    0.0003
       63 CR     9d0       -0.0000   -0.0016    0.0000    0.0000   -0.0015    0.0010    0.0000   -0.0000    0.0007   -0.0004
       64 CR    10d0        0.0001   -0.0001    0.0000    0.0000   -0.0012   -0.0005    0.0000   -0.0000   -0.0004    0.0001
       65 CR     3d1+      -0.0000   -0.0000    0.0000    0.0107    0.0000    0.0000    0.0000    0.0498    0.0000   -0.0000
       66 CR     4d1+       0.0000    0.0000   -0.0000   -0.0110   -0.0000   -0.0000   -0.0000   -0.0174   -0.0000    0.0000
       67 CR     5d1+      -0.0000   -0.0000    0.0000    0.0102    0.0000    0.0000    0.0000    0.0003   -0.0000   -0.0000
       68 CR     6d1+       0.0000    0.0000   -0.0000   -0.0127   -0.0000   -0.0000    0.0000    0.0028    0.0000    0.0000
       69 CR     7d1+      -0.0000   -0.0000    0.0000    0.0078    0.0000    0.0000   -0.0000   -0.0015   -0.0000   -0.0000
       70 CR     8d1+       0.0000    0.0000   -0.0000   -0.0053   -0.0000   -0.0000    0.0000    0.0016    0.0000    0.0000
       71 CR     9d1+      -0.0000   -0.0000    0.0000    0.0033    0.0000    0.0000   -0.0000   -0.0017   -0.0000   -0.0000
       72 CR    10d1+       0.0000    0.0000   -0.0000   -0.0003   -0.0000   -0.0000    0.0000    0.0009    0.0000    0.0000
       73 CR     3d2+      -0.0000   -0.0000   -0.0000   -0.0068   -0.0000   -0.0000   -0.0000   -0.0256    0.0000    0.0000
       74 CR     4d2+       0.0000    0.0000    0.0000    0.0070    0.0000    0.0000    0.0000    0.0095   -0.0000    0.0000
       75 CR     5d2+      -0.0000   -0.0000   -0.0000   -0.0065   -0.0000   -0.0000   -0.0000   -0.0009    0.0000    0.0000
       76 CR     6d2+       0.0000    0.0000    0.0000    0.0081    0.0000   -0.0000   -0.0000   -0.0009    0.0000    0.0000
       77 CR     7d2+      -0.0000   -0.0000   -0.0000   -0.0050   -0.0000    0.0000    0.0000    0.0007   -0.0000   -0.0000
       78 CR     8d2+       0.0000    0.0000    0.0000    0.0033    0.0000   -0.0000   -0.0000   -0.0008    0.0000    0.0000
       79 CR     9d2+      -0.0000    0.0000   -0.0000   -0.0020   -0.0000    0.0000    0.0000    0.0010   -0.0000   -0.0000
       80 CR    10d2+      -0.0000   -0.0000   -0.0000   -0.0003    0.0000   -0.0000   -0.0000   -0.0005    0.0000   -0.0000
       81 CR     4f3-      -0.0000   -0.0000   -0.0000    0.0000    0.0000    0.0000   -0.0000    0.0000   -0.0000   -0.0000
       82 CR     5f3-       0.0000    0.0000    0.0000   -0.0000    0.0000   -0.0000    0.0000   -0.0000   -0.0000    0.0000
       83 CR     6f3-      -0.0000   -0.0000   -0.0000    0.0000   -0.0000    0.0000   -0.0000    0.0000   -0.0000   -0.0000
       84 CR     7f3-       0.0000    0.0000    0.0000   -0.0000    0.0000    0.0000    0.0000    0.0000    0.0000    0.0000
       85 CR     8f3-      -0.0000   -0.0000   -0.0000    0.0000   -0.0000    0.0000   -0.0000    0.0000   -0.0000   -0.0000
       86 CR     9f3-       0.0000    0.0000    0.0000   -0.0000    0.0000   -0.0000    0.0000    0.0000   -0.0000   -0.0000
       87 CR     4f2-      -0.0000   -0.0000   -0.0016    0.0000    0.0000   -0.0000   -0.0025    0.0000    0.0000    0.0000
       88 CR     5f2-       0.0000    0.0000    0.0019   -0.0000   -0.0000    0.0000    0.0016   -0.0000   -0.0000    0.0000
       89 CR     6f2-      -0.0000    0.0000   -0.0022    0.0000    0.0000   -0.0000   -0.0010    0.0000    0.0000    0.0000
       90 CR     7f2-       0.0000   -0.0000    0.0028   -0.0000   -0.0000   -0.0000    0.0006   -0.0000   -0.0000    0.0000
       91 CR     8f2-      -0.0000    0.0000   -0.0041    0.0000    0.0000    0.0000   -0.0004    0.0000   -0.0000   -0.0000
       92 CR     9f2-       0.0000   -0.0000    0.0023   -0.0000   -0.0000   -0.0000    0.0001   -0.0000   -0.0000    0.0000
       93 CR     4f1-      -0.0000   -0.0000   -0.0010    0.0000    0.0000    0.0000   -0.0042    0.0000    0.0000   -0.0000
       94 CR     5f1-       0.0000    0.0000    0.0012   -0.0000   -0.0000    0.0000    0.0018   -0.0000    0.0000   -0.0000
       95 CR     6f1-      -0.0000   -0.0000   -0.0013    0.0000    0.0000    0.0000   -0.0007    0.0000    0.0000   -0.0000
       96 CR     7f1-       0.0000    0.0000    0.0015   -0.0000   -0.0000   -0.0000    0.0004   -0.0000   -0.0000   -0.0000
       97 CR     8f1-      -0.0000   -0.0000   -0.0022    0.0000    0.0000    0.0000   -0.0002    0.0000   -0.0000    0.0000
       98 CR     9f1-      -0.0000    0.0000    0.0012   -0.0000   -0.0000   -0.0000   -0.0000    0.0000   -0.0000   -0.0000
       99 CR     4f0       -0.0000   -0.0040    0.0000    0.0000   -0.0011   -0.0106   -0.0000   -0.0000   -0.0054    0.0034
      100 CR     5f0        0.0000    0.0048   -0.0000   -0.0000    0.0013    0.0062    0.0000    0.0000    0.0023   -0.0013
      101 CR     6f0       -0.0000   -0.0055    0.0000    0.0000   -0.0014   -0.0033   -0.0000   -0.0000   -0.0010    0.0013
      102 CR     7f0        0.0000    0.0068   -0.0000   -0.0000    0.0017    0.0016   -0.0000    0.0000    0.0005   -0.0005
      103 CR     8f0       -0.0001   -0.0100    0.0000    0.0000   -0.0024   -0.0006   -0.0000   -0.0000   -0.0004    0.0002
      104 CR     9f0        0.0000    0.0055   -0.0000   -0.0000    0.0013   -0.0001   -0.0000    0.0000    0.0000    0.0000
      105 CR     4f1+       0.0000    0.0000   -0.0000   -0.0010   -0.0000    0.0000   -0.0000   -0.0042   -0.0000   -0.0000
      106 CR     5f1+      -0.0000   -0.0000    0.0000    0.0012    0.0000   -0.0000    0.0000    0.0018    0.0000    0.0000
      107 CR     6f1+       0.0000    0.0000   -0.0000   -0.0013   -0.0000    0.0000   -0.0000   -0.0007   -0.0000   -0.0000
      108 CR     7f1+      -0.0000   -0.0000    0.0000    0.0015    0.0000   -0.0000    0.0000    0.0004    0.0000    0.0000
      109 CR     8f1+       0.0000    0.0000   -0.0000   -0.0022   -0.0000   -0.0000   -0.0000   -0.0002   -0.0000    0.0000
      110 CR     9f1+      -0.0000   -0.0000    0.0000    0.0012    0.0000    0.0000   -0.0000   -0.0000   -0.0000   -0.0000
      111 CR     4f2+      -0.0000    0.0000    0.0000    0.0016    0.0000    0.0000    0.0000    0.0025   -0.0000   -0.0000
      112 CR     5f2+       0.0000   -0.0000   -0.0000   -0.0019   -0.0000   -0.0000   -0.0000   -0.0016    0.0000    0.0000
      113 CR     6f2+      -0.0000    0.0000    0.0000    0.0022    0.0000    0.0000    0.0000    0.0010   -0.0000   -0.0000
      114 CR     7f2+       0.0000   -0.0000   -0.0000   -0.0028   -0.0000   -0.0000   -0.0000   -0.0006    0.0000    0.0000
      115 CR     8f2+      -0.0000    0.0000    0.0000    0.0041    0.0000    0.0000    0.0000    0.0004   -0.0000   -0.0000
      116 CR     9f2+       0.0000   -0.0000   -0.0000   -0.0023   -0.0000   -0.0000   -0.0000   -0.0001    0.0000    0.0000
      117 CR     4f3+      -0.0000   -0.0025   -0.0000   -0.0000    0.0017   -0.0067   -0.0000   -0.0000    0.0032    0.0024
      118 CR     5f3+       0.0000    0.0030    0.0000    0.0000   -0.0020    0.0039    0.0000    0.0000   -0.0018   -0.0009
      119 CR     6f3+      -0.0000   -0.0035   -0.0000   -0.0000    0.0023   -0.0021   -0.0000   -0.0000    0.0011    0.0009
      120 CR     7f3+       0.0000    0.0043    0.0000    0.0000   -0.0029    0.0010    0.0000    0.0000   -0.0007   -0.0004
      121 CR     8f3+      -0.0000   -0.0063   -0.0000   -0.0000    0.0042   -0.0004    0.0000   -0.0000    0.0005    0.0002
      122 CR     9f3+       0.0000    0.0035    0.0000    0.0000   -0.0023   -0.0001   -0.0000    0.0000   -0.0002   -0.0000
      123 CR     5g4-      -0.0000   -0.0000   -0.0010    0.0000   -0.0000    0.0000   -0.0027    0.0000    0.0000   -0.0000
      124 CR     6g4-       0.0000    0.0000    0.0014   -0.0000   -0.0000    0.0000    0.0015   -0.0000   -0.0000    0.0000
      125 CR     7g4-      -0.0000   -0.0000   -0.0016    0.0000    0.0000   -0.0000   -0.0011    0.0000   -0.0000   -0.0000
      126 CR     8g4-       0.0000    0.0000    0.0010   -0.0000   -0.0000    0.0000    0.0006   -0.0000   -0.0000    0.0000
      127 CR     5g3-       0.0000    0.0000    0.0000   -0.0000    0.0000    0.0000    0.0000   -0.0000   -0.0000   -0.0000
      128 CR     6g3-      -0.0000   -0.0000   -0.0000    0.0000    0.0000   -0.0000   -0.0000    0.0000    0.0000    0.0000
      129 CR     7g3-       0.0000    0.0000    0.0000   -0.0000   -0.0000    0.0000    0.0000   -0.0000   -0.0000   -0.0000
      130 CR     8g3-      -0.0000   -0.0000   -0.0000    0.0000    0.0000   -0.0000   -0.0000    0.0000    0.0000    0.0000
      131 CR     5g2-      -0.0000   -0.0000    0.0001   -0.0000    0.0000    0.0000   -0.0002    0.0000    0.0000    0.0000
      132 CR     6g2-       0.0000    0.0000   -0.0002    0.0000   -0.0000   -0.0000    0.0001   -0.0000   -0.0000   -0.0000
      133 CR     7g2-      -0.0000   -0.0000    0.0002   -0.0000    0.0000    0.0000   -0.0000    0.0000    0.0000    0.0000
      134 CR     8g2-       0.0000    0.0000   -0.0001    0.0000   -0.0000   -0.0000   -0.0000    0.0000   -0.0000   -0.0000
      135 CR     5g1-      -0.0000    0.0000   -0.0012    0.0000    0.0000    0.0000   -0.0035    0.0000    0.0000    0.0000
      136 CR     6g1-       0.0000   -0.0000    0.0017   -0.0000   -0.0000   -0.0000    0.0019   -0.0000   -0.0000   -0.0000
      137 CR     7g1-      -0.0000    0.0000   -0.0019    0.0000    0.0000    0.0000   -0.0014    0.0000    0.0000   -0.0000
      138 CR     8g1-       0.0000   -0.0000    0.0012   -0.0000   -0.0000   -0.0000    0.0008   -0.0000   -0.0000    0.0000
      139 CR     5g0       -0.0000   -0.0002    0.0000    0.0000   -0.0021   -0.0005   -0.0000    0.0000   -0.0048    0.0000
      140 CR     6g0        0.0000    0.0003   -0.0000   -0.0000    0.0028    0.0003   -0.0000   -0.0000    0.0028   -0.0000
      141 CR     7g0       -0.0000   -0.0004    0.0000    0.0000   -0.0033   -0.0003    0.0000    0.0000   -0.0021    0.0000
      142 CR     8g0        0.0000    0.0002   -0.0000   -0.0000    0.0020    0.0001    0.0000   -0.0000    0.0012   -0.0000
      143 CR     5g1+       0.0000   -0.0000   -0.0000   -0.0012   -0.0000   -0.0000   -0.0000   -0.0035    0.0000    0.0000
      144 CR     6g1+      -0.0000    0.0000    0.0000    0.0017    0.0000    0.0000    0.0000    0.0019   -0.0000   -0.0000
      145 CR     7g1+       0.0000   -0.0000   -0.0000   -0.0019   -0.0000   -0.0000   -0.0000   -0.0014    0.0000    0.0000
      146 CR     8g1+      -0.0000    0.0000    0.0000    0.0012    0.0000    0.0000    0.0000    0.0008   -0.0000   -0.0000
      147 CR     5g2+       0.0000    0.0000   -0.0000   -0.0001    0.0000   -0.0000    0.0000    0.0002    0.0000   -0.0000
      148 CR     6g2+      -0.0000   -0.0000    0.0000    0.0002   -0.0000    0.0000   -0.0000   -0.0001   -0.0000   -0.0000
      149 CR     7g2+       0.0000    0.0000   -0.0000   -0.0002    0.0000   -0.0000    0.0000    0.0000    0.0000   -0.0000
      150 CR     8g2+      -0.0000   -0.0000    0.0000    0.0001   -0.0000    0.0000    0.0000    0.0000   -0.0000   -0.0000
      151 CR     5g3+       0.0000    0.0012    0.0000    0.0000   -0.0013    0.0019    0.0000    0.0000   -0.0026   -0.0006
      152 CR     6g3+      -0.0000   -0.0017   -0.0000   -0.0000    0.0018   -0.0014   -0.0000   -0.0000    0.0016    0.0005
      153 CR     7g3+       0.0000    0.0020    0.0000    0.0000   -0.0021    0.0011    0.0000    0.0000   -0.0012   -0.0003
      154 CR     8g3+      -0.0000   -0.0012   -0.0000   -0.0000    0.0013   -0.0006   -0.0000   -0.0000    0.0007    0.0002
      155 CR     5g4+       0.0000    0.0000   -0.0000   -0.0010   -0.0000   -0.0000   -0.0000   -0.0027   -0.0000   -0.0000
      156 CR     6g4+      -0.0000   -0.0000    0.0000    0.0014    0.0000    0.0000    0.0000    0.0015    0.0000   -0.0000
      157 CR     7g4+       0.0000    0.0000   -0.0000   -0.0016   -0.0000   -0.0000   -0.0000   -0.0011   -0.0000    0.0000
      158 CR     8g4+      -0.0000   -0.0000    0.0000    0.0010    0.0000    0.0000    0.0000    0.0006    0.0000   -0.0000
      159 CR     6h5-      -0.0000   -0.0000    0.0000   -0.0000    0.0000    0.0000    0.0000   -0.0000   -0.0000    0.0000
      160 CR     7h5-       0.0000    0.0000   -0.0000    0.0000   -0.0000   -0.0000   -0.0000    0.0000   -0.0000   -0.0000
      161 CR     6h4-       0.0000   -0.0000    0.0002   -0.0000   -0.0000   -0.0000    0.0007   -0.0000   -0.0000   -0.0000
      162 CR     7h4-      -0.0000    0.0000   -0.0002    0.0000    0.0000    0.0000   -0.0004    0.0000    0.0000    0.0000
      163 CR     6h3-      -0.0000   -0.0000   -0.0000   -0.0000    0.0000    0.0000   -0.0000    0.0000    0.0000    0.0000
      164 CR     7h3-       0.0000    0.0000    0.0000    0.0000   -0.0000   -0.0000    0.0000   -0.0000    0.0000   -0.0000
      165 CR     6h2-       0.0000   -0.0000    0.0001   -0.0000   -0.0000   -0.0000    0.0002   -0.0000   -0.0000    0.0000
      166 CR     7h2-      -0.0000    0.0000   -0.0001    0.0000    0.0000    0.0000   -0.0001    0.0000    0.0000   -0.0000
      167 CR     6h1-      -0.0000   -0.0000    0.0001   -0.0000   -0.0000    0.0000   -0.0000    0.0000    0.0000    0.0000
      168 CR     7h1-       0.0000    0.0000   -0.0000    0.0000   -0.0000   -0.0000    0.0000   -0.0000   -0.0000   -0.0000
      169 CR     6h0       -0.0000   -0.0001    0.0000    0.0000   -0.0001   -0.0001   -0.0000    0.0000   -0.0002    0.0000
      170 CR     7h0        0.0000    0.0001    0.0000   -0.0000    0.0001    0.0001   -0.0000   -0.0000    0.0001   -0.0000
      171 CR     6h1+      -0.0000    0.0000    0.0000    0.0001    0.0000    0.0000   -0.0000   -0.0000   -0.0000   -0.0000
      172 CR     7h1+       0.0000   -0.0000   -0.0000   -0.0000   -0.0000   -0.0000    0.0000    0.0000    0.0000    0.0000
      173 CR     6h2+      -0.0000   -0.0000   -0.0000   -0.0001   -0.0000   -0.0000   -0.0000   -0.0002   -0.0000    0.0000
      174 CR     7h2+       0.0000    0.0000    0.0000    0.0001    0.0000    0.0000    0.0000    0.0001   -0.0000   -0.0000
      175 CR     6h3+      -0.0000   -0.0001   -0.0000   -0.0000    0.0002   -0.0002    0.0000   -0.0000    0.0007    0.0001
      176 CR     7h3+       0.0000    0.0001    0.0000    0.0000   -0.0002    0.0001    0.0000    0.0000   -0.0004   -0.0000
      177 CR     6h4+      -0.0000   -0.0000    0.0000    0.0002    0.0000    0.0000    0.0000    0.0007    0.0000    0.0000
      178 CR     7h4+       0.0000    0.0000   -0.0000   -0.0002   -0.0000   -0.0000   -0.0000   -0.0004   -0.0000   -0.0000
      179 CR     6h5+      -0.0000   -0.0000   -0.0000   -0.0000    0.0000   -0.0000   -0.0000   -0.0000    0.0000    0.0000
      180 CR     7h5+       0.0000    0.0000    0.0000    0.0000   -0.0000    0.0000    0.0000    0.0000   -0.0000   -0.0000

          Orbital           11        12        13        14        15        16        17        18        19        20    
          Energy           -0.3234   -0.3234   -0.3175   -0.2677   -0.2677   -0.2601   -0.2601   -0.2597   -0.2025   -0.1609
          Occ. No.          0.0000    0.0000    0.0000    0.0000    0.0000    0.0000    0.0000    0.0000    0.0000    0.0000

        1 CR     1s        -0.0000   -0.0000   -0.0000    0.0000    0.0000    0.0000   -0.0000    0.0000   -0.0000   -0.0000
        2 CR     2s        -0.0000   -0.0000   -0.0000    0.0000    0.0000    0.0000   -0.0000    0.0009   -0.0024   -0.0000
        3 CR     3s         0.0000    0.0000    0.0086    0.0000    0.0000    0.0000   -0.0000    0.0038    0.0366    0.0000
        4 CR     4s        -0.0000   -0.0000   -0.0522   -0.0000   -0.0000   -0.0000    0.0000   -0.0104    0.0438   -0.0000
        5 CR     5s        -0.0000   -0.0000   -0.0285   -0.0000   -0.0000   -0.0000    0.0000   -0.0220    0.6241    0.0000
        6 CR     6s        -0.0000   -0.0000   -0.0091   -0.0000   -0.0000   -0.0000    0.0000   -0.0131    0.6742    0.0000
        7 CR     7s         0.0000    0.0000    0.0026   -0.0000   -0.0000   -0.0000    0.0000   -0.0016    0.3395    0.0000
        8 CR     8s         0.0000    0.0000    0.0033    0.0000    0.0000    0.0000   -0.0000    0.0011    0.1802    0.0000
        9 CR     9s        -0.0000   -0.0000    0.0005    0.0000    0.0000    0.0000   -0.0000    0.0004    0.0139    0.0000
       10 CR    10s        -0.0000   -0.0000   -0.0000    0.0000    0.0000    0.0000   -0.0000    0.0001    0.0003    0.0000
       11 CR     2px        0.0000    0.0042    0.0000    0.0000    0.0003    0.0000   -0.0021   -0.0000    0.0000    0.0000
       12 CR     3px       -0.0000   -0.0651   -0.0000    0.0000    0.0016    0.0000   -0.0228   -0.0000   -0.0000   -0.0000
       13 CR     4px        0.0000    0.9132    0.0000   -0.0000   -0.0146   -0.0000    0.0534    0.0000    0.0000    0.0000
       14 CR     5px        0.0000    0.3493    0.0000   -0.0000   -0.0091   -0.0000    0.0551    0.0000    0.0000   -0.0000
       15 CR     6px        0.0000    0.1552    0.0000   -0.0000   -0.0066   -0.0000    0.0435    0.0000    0.0000   -0.0000
       16 CR     7px       -0.0000   -0.0524   -0.0000    0.0000    0.0001    0.0000   -0.0005   -0.0000    0.0000   -0.0000
       17 CR     8px       -0.0000   -0.0675   -0.0000    0.0000    0.0018    0.0000   -0.0098   -0.0000    0.0000   -0.0000
       18 CR     9px       -0.0000   -0.0208   -0.0000    0.0000    0.0007    0.0000   -0.0042   -0.0000   -0.0000   -0.0000
       19 CR    10px       -0.0000   -0.0027   -0.0000    0.0000    0.0002    0.0000   -0.0013   -0.0000   -0.0000   -0.0000
       20 CR    11px       -0.0000   -0.0004   -0.0000    0.0000    0.0001    0.0000   -0.0003   -0.0000   -0.0000    0.0000
       21 CR     2py        0.0042   -0.0000   -0.0000   -0.0003    0.0000   -0.0021   -0.0000    0.0000   -0.0000   -0.0026
       22 CR     3py       -0.0651    0.0000    0.0000   -0.0016    0.0000   -0.0228   -0.0000    0.0000    0.0000    0.0383
       23 CR     4py        0.9132   -0.0000   -0.0000    0.0146   -0.0000    0.0534    0.0000   -0.0000    0.0000   -0.1670
       24 CR     5py        0.3493   -0.0000   -0.0000    0.0091   -0.0000    0.0551    0.0000   -0.0000   -0.0000    0.2124
       25 CR     6py        0.1552   -0.0000   -0.0000    0.0066   -0.0000    0.0435    0.0000   -0.0000   -0.0000    0.8000
       26 CR     7py       -0.0524    0.0000    0.0000   -0.0001    0.0000   -0.0005   -0.0000    0.0000   -0.0000    0.4510
       27 CR     8py       -0.0675    0.0000    0.0000   -0.0018    0.0000   -0.0098   -0.0000    0.0000   -0.0000    0.2567
       28 CR     9py       -0.0208    0.0000    0.0000   -0.0007    0.0000   -0.0042   -0.0000    0.0000    0.0000    0.0661
       29 CR    10py       -0.0027    0.0000    0.0000   -0.0002    0.0000   -0.0013   -0.0000    0.0000    0.0000    0.0064
       30 CR    11py       -0.0004    0.0000    0.0000   -0.0001    0.0000   -0.0003   -0.0000    0.0000    0.0000   -0.0001
       31 CR     2pz        0.0000    0.0000    0.0036   -0.0000   -0.0000    0.0000   -0.0000    0.0011    0.0000    0.0000
       32 CR     3pz       -0.0000    0.0000   -0.0772   -0.0000   -0.0000    0.0000   -0.0000    0.0067   -0.0039   -0.0000
       33 CR     4pz        0.0000   -0.0000    0.9004    0.0000    0.0000   -0.0000    0.0000   -0.0439    0.0041    0.0000
       34 CR     5pz        0.0000   -0.0000    0.3703    0.0000    0.0000   -0.0000    0.0000   -0.0315    0.0302   -0.0000
       35 CR     6pz        0.0000   -0.0000    0.1756   -0.0000    0.0000   -0.0000    0.0000   -0.0247    0.0507   -0.0000
       36 CR     7pz       -0.0000    0.0000   -0.0523   -0.0000   -0.0000   -0.0000    0.0000   -0.0001    0.0148   -0.0000
       37 CR     8pz       -0.0000    0.0000   -0.0719   -0.0000   -0.0000    0.0000   -0.0000    0.0058    0.0022   -0.0000
       38 CR     9pz       -0.0000    0.0000   -0.0231   -0.0000   -0.0000    0.0000   -0.0000    0.0025   -0.0017   -0.0000
       39 CR    10pz        0.0000    0.0000   -0.0032    0.0000   -0.0000    0.0000   -0.0000    0.0009   -0.0009   -0.0000
       40 CR    11pz       -0.0000    0.0000   -0.0006    0.0000   -0.0000    0.0000   -0.0000    0.0002   -0.0002   -0.0000
       41 CR     3d2-      -0.0450    0.0000    0.0000    0.6062   -0.0000    0.2557    0.0000   -0.0000    0.0000    0.0197
       42 CR     4d2-      -0.0239    0.0000    0.0000    0.5502   -0.0000    0.2573    0.0000   -0.0000    0.0000   -0.0114
       43 CR     5d2-      -0.0102    0.0000    0.0000    0.3325   -0.0000    0.1631    0.0000   -0.0000    0.0000   -0.0318
       44 CR     6d2-      -0.0051    0.0000    0.0000    0.1795   -0.0000    0.0909    0.0000   -0.0000    0.0000   -0.0286
       45 CR     7d2-      -0.0016    0.0000   -0.0000    0.1155   -0.0000    0.0610    0.0000   -0.0000    0.0000   -0.0334
       46 CR     8d2-       0.0007   -0.0000   -0.0000   -0.0012    0.0000    0.0019    0.0000   -0.0000    0.0000   -0.0150
       47 CR     9d2-       0.0010   -0.0000   -0.0000   -0.0174    0.0000   -0.0080   -0.0000    0.0000   -0.0000   -0.0036
       48 CR    10d2-       0.0001   -0.0000   -0.0000   -0.0052    0.0000   -0.0026   -0.0000    0.0000   -0.0000   -0.0005
       49 CR     3d1-      -0.0665    0.0000    0.0000   -0.2789    0.0000    0.5645    0.0000   -0.0000    0.0000    0.0309
       50 CR     4d1-      -0.0273    0.0000    0.0000   -0.2503    0.0000    0.5628    0.0000   -0.0000    0.0000   -0.0201
       51 CR     5d1-      -0.0087    0.0000    0.0000   -0.1516    0.0000    0.3579    0.0000   -0.0000    0.0000   -0.0487
       52 CR     6d1-      -0.0051    0.0000    0.0000   -0.0814    0.0000    0.1985    0.0000   -0.0000    0.0000   -0.0413
       53 CR     7d1-      -0.0007    0.0000    0.0000   -0.0527    0.0000    0.1339    0.0000   -0.0000    0.0000   -0.0474
       54 CR     8d1-       0.0005   -0.0000    0.0000    0.0006   -0.0000    0.0042    0.0000   -0.0000    0.0000   -0.0202
       55 CR     9d1-       0.0011   -0.0000   -0.0000    0.0078   -0.0000   -0.0173   -0.0000    0.0000    0.0000   -0.0046
       56 CR    10d1-       0.0000   -0.0000    0.0000    0.0023   -0.0000   -0.0056   -0.0000    0.0000    0.0000   -0.0005
       57 CR     3d0        0.0000   -0.0000    0.0417    0.0000    0.0000    0.0000   -0.0000    0.6211    0.0019   -0.0000
       58 CR     4d0        0.0000   -0.0000    0.0322    0.0000    0.0000    0.0000   -0.0000    0.6196    0.0191    0.0000
       59 CR     5d0        0.0000   -0.0000    0.0180    0.0000    0.0000    0.0000   -0.0000    0.3944    0.0198    0.0000
       60 CR     6d0        0.0000   -0.0000    0.0079    0.0000    0.0000    0.0000   -0.0000    0.2190    0.0131    0.0000
       61 CR     7d0        0.0000   -0.0000    0.0039    0.0000    0.0000    0.0000   -0.0000    0.1480    0.0126    0.0000
       62 CR     8d0       -0.0000    0.0000   -0.0013   -0.0000   -0.0000    0.0000   -0.0000    0.0049    0.0034    0.0000
       63 CR     9d0       -0.0000    0.0000   -0.0014   -0.0000   -0.0000   -0.0000    0.0000   -0.0190    0.0003    0.0000
       64 CR    10d0       -0.0000    0.0000   -0.0002   -0.0000   -0.0000   -0.0000    0.0000   -0.0061   -0.0001    0.0000
       65 CR     3d1+      -0.0000   -0.0665   -0.0000    0.0000    0.2789   -0.0000    0.5645    0.0000   -0.0000   -0.0000
       66 CR     4d1+      -0.0000   -0.0273   -0.0000    0.0000    0.2503   -0.0000    0.5628    0.0000   -0.0000    0.0000
       67 CR     5d1+      -0.0000   -0.0087    0.0000    0.0000    0.1516   -0.0000    0.3579    0.0000   -0.0000    0.0000
       68 CR     6d1+      -0.0000   -0.0051   -0.0000    0.0000    0.0814   -0.0000    0.1985    0.0000   -0.0000    0.0000
       69 CR     7d1+      -0.0000   -0.0007    0.0000    0.0000    0.0527   -0.0000    0.1339    0.0000   -0.0000    0.0000
       70 CR     8d1+       0.0000    0.0005   -0.0000   -0.0000   -0.0006   -0.0000    0.0042    0.0000   -0.0000    0.0000
       71 CR     9d1+       0.0000    0.0011    0.0000   -0.0000   -0.0078    0.0000   -0.0173   -0.0000    0.0000    0.0000
       72 CR    10d1+       0.0000    0.0000   -0.0000   -0.0000   -0.0023    0.0000   -0.0056   -0.0000   -0.0000    0.0000
       73 CR     3d2+       0.0000    0.0450   -0.0000    0.0000    0.6062    0.0000   -0.2557   -0.0000    0.0000    0.0000
       74 CR     4d2+       0.0000    0.0239   -0.0000    0.0000    0.5502    0.0000   -0.2573   -0.0000    0.0000   -0.0000
       75 CR     5d2+       0.0000    0.0102   -0.0000    0.0000    0.3325    0.0000   -0.1631   -0.0000    0.0000   -0.0000
       76 CR     6d2+       0.0000    0.0051   -0.0000    0.0000    0.1795    0.0000   -0.0909   -0.0000    0.0000   -0.0000
       77 CR     7d2+       0.0000    0.0016   -0.0000    0.0000    0.1155    0.0000   -0.0610   -0.0000    0.0000   -0.0000
       78 CR     8d2+      -0.0000   -0.0007    0.0000   -0.0000   -0.0012    0.0000   -0.0019   -0.0000    0.0000   -0.0000
       79 CR     9d2+      -0.0000   -0.0010    0.0000   -0.0000   -0.0174   -0.0000    0.0080    0.0000    0.0000   -0.0000
       80 CR    10d2+      -0.0000   -0.0001    0.0000   -0.0000   -0.0052   -0.0000    0.0026    0.0000   -0.0000   -0.0000
       81 CR     4f3-       0.0000   -0.0000    0.0000    0.0000   -0.0000    0.0000   -0.0000   -0.0000    0.0000   -0.0000
       82 CR     5f3-      -0.0000    0.0000    0.0000    0.0000   -0.0000    0.0000   -0.0000   -0.0000   -0.0000    0.0000
       83 CR     6f3-      -0.0000    0.0000    0.0000    0.0000   -0.0000    0.0000   -0.0000   -0.0000   -0.0000    0.0000
       84 CR     7f3-      -0.0000    0.0000   -0.0000    0.0000   -0.0000   -0.0000   -0.0000   -0.0000   -0.0000    0.0000
       85 CR     8f3-      -0.0000    0.0000   -0.0000    0.0000   -0.0000    0.0000   -0.0000   -0.0000   -0.0000   -0.0000
       86 CR     9f3-      -0.0000    0.0000   -0.0000    0.0000   -0.0000   -0.0000   -0.0000   -0.0000   -0.0000   -0.0000
       87 CR     4f2-      -0.0002    0.0000   -0.0000    0.0071   -0.0000    0.0054    0.0000   -0.0000   -0.0000    0.0001
       88 CR     5f2-      -0.0003    0.0000    0.0000    0.0025   -0.0000    0.0006    0.0000   -0.0000    0.0000    0.0001
       89 CR     6f2-      -0.0000    0.0000   -0.0000    0.0036   -0.0000    0.0023    0.0000   -0.0000   -0.0000   -0.0001
       90 CR     7f2-      -0.0001    0.0000    0.0000    0.0011   -0.0000    0.0001    0.0000   -0.0000    0.0000   -0.0001
       91 CR     8f2-      -0.0000    0.0000   -0.0000    0.0013   -0.0000    0.0011    0.0000   -0.0000   -0.0000   -0.0000
       92 CR     9f2-       0.0001   -0.0000    0.0000    0.0000   -0.0000   -0.0003   -0.0000    0.0000    0.0000   -0.0001
       93 CR     4f1-       0.0001   -0.0000    0.0000   -0.0032    0.0000    0.0046    0.0000   -0.0000    0.0000   -0.0001
       94 CR     5f1-      -0.0016    0.0000    0.0000   -0.0017    0.0000    0.0040    0.0000   -0.0000    0.0000    0.0008
       95 CR     6f1-      -0.0008    0.0000    0.0000   -0.0018    0.0000    0.0037    0.0000   -0.0000    0.0000    0.0001
       96 CR     7f1-      -0.0006    0.0000    0.0000   -0.0008    0.0000    0.0021    0.0000   -0.0000    0.0000   -0.0000
       97 CR     8f1-      -0.0001    0.0000    0.0000   -0.0005    0.0000    0.0011    0.0000   -0.0000    0.0000   -0.0002
       98 CR     9f1-      -0.0000    0.0000    0.0000   -0.0001    0.0000    0.0004    0.0000   -0.0000    0.0000   -0.0002
       99 CR     4f0        0.0000   -0.0000    0.0010    0.0000   -0.0000    0.0000   -0.0000    0.0030   -0.0020   -0.0000
      100 CR     5f0       -0.0000    0.0000   -0.0014    0.0000    0.0000    0.0000   -0.0000    0.0055    0.0008    0.0000
      101 CR     6f0       -0.0000    0.0000   -0.0006    0.0000    0.0000    0.0000   -0.0000    0.0038   -0.0007    0.0000
      102 CR     7f0       -0.0000    0.0000   -0.0006    0.0000    0.0000    0.0000   -0.0000    0.0030    0.0004    0.0000
      103 CR     8f0       -0.0000    0.0000   -0.0001   -0.0000   -0.0000   -0.0000   -0.0000    0.0007   -0.0001    0.0000
      104 CR     9f0       -0.0000   -0.0000   -0.0000    0.0000    0.0000    0.0000   -0.0000    0.0009    0.0000    0.0000
      105 CR     4f1+       0.0000    0.0001    0.0000    0.0000    0.0032   -0.0000    0.0046    0.0000    0.0000    0.0000
      106 CR     5f1+      -0.0000   -0.0016   -0.0000    0.0000    0.0017   -0.0000    0.0040    0.0000   -0.0000   -0.0000
      107 CR     6f1+      -0.0000   -0.0008   -0.0000    0.0000    0.0018   -0.0000    0.0037    0.0000    0.0000   -0.0000
      108 CR     7f1+      -0.0000   -0.0006   -0.0000    0.0000    0.0008   -0.0000    0.0021    0.0000   -0.0000    0.0000
      109 CR     8f1+      -0.0000   -0.0001    0.0000    0.0000    0.0005   -0.0000    0.0011    0.0000   -0.0000    0.0000
      110 CR     9f1+      -0.0000   -0.0000   -0.0000    0.0000    0.0001   -0.0000    0.0004    0.0000    0.0000    0.0000
      111 CR     4f2+       0.0000    0.0002    0.0000    0.0000    0.0071    0.0000   -0.0054   -0.0000    0.0000    0.0000
      112 CR     5f2+       0.0000    0.0003   -0.0000    0.0000    0.0025    0.0000   -0.0006   -0.0000   -0.0000    0.0000
      113 CR     6f2+       0.0000    0.0000   -0.0000    0.0000    0.0036    0.0000   -0.0023   -0.0000    0.0000   -0.0000
      114 CR     7f2+       0.0000    0.0001   -0.0000    0.0000    0.0011    0.0000   -0.0001   -0.0000    0.0000   -0.0000
      115 CR     8f2+       0.0000    0.0000   -0.0000    0.0000    0.0013    0.0000   -0.0011   -0.0000    0.0000   -0.0000
      116 CR     9f2+      -0.0000   -0.0001   -0.0000    0.0000    0.0000   -0.0000    0.0003    0.0000    0.0000   -0.0000
      117 CR     4f3+       0.0000    0.0000   -0.0008    0.0000    0.0000    0.0000   -0.0000    0.0021   -0.0014    0.0000
      118 CR     5f3+      -0.0000   -0.0000    0.0003    0.0000    0.0000   -0.0000    0.0000   -0.0005    0.0004   -0.0000
      119 CR     6f3+      -0.0000   -0.0000   -0.0003    0.0000    0.0000   -0.0000   -0.0000    0.0004   -0.0006   -0.0000
      120 CR     7f3+      -0.0000   -0.0000    0.0002    0.0000    0.0000   -0.0000    0.0000   -0.0003    0.0002   -0.0000
      121 CR     8f3+       0.0000    0.0000   -0.0001   -0.0000    0.0000    0.0000   -0.0000    0.0003   -0.0001    0.0000
      122 CR     9f3+       0.0000   -0.0000    0.0000   -0.0000    0.0000   -0.0000    0.0000   -0.0002    0.0000    0.0000
      123 CR     5g4-       0.0006   -0.0000   -0.0000   -0.0001    0.0000    0.0005    0.0000   -0.0000    0.0000   -0.0004
      124 CR     6g4-      -0.0002    0.0000    0.0000    0.0000   -0.0000   -0.0002   -0.0000    0.0000   -0.0000    0.0001
      125 CR     7g4-       0.0003   -0.0000   -0.0000   -0.0000    0.0000    0.0002    0.0000   -0.0000   -0.0000   -0.0002
      126 CR     8g4-      -0.0001    0.0000    0.0000    0.0000   -0.0000   -0.0002   -0.0000    0.0000    0.0000    0.0001
      127 CR     5g3-      -0.0000    0.0000   -0.0000    0.0000   -0.0000   -0.0000    0.0000   -0.0000   -0.0000    0.0000
      128 CR     6g3-       0.0000   -0.0000    0.0000    0.0000   -0.0000   -0.0000   -0.0000   -0.0000   -0.0000   -0.0000
      129 CR     7g3-      -0.0000    0.0000    0.0000    0.0000   -0.0000   -0.0000   -0.0000   -0.0000   -0.0000    0.0000
      130 CR     8g3-       0.0000   -0.0000    0.0000    0.0000   -0.0000    0.0000   -0.0000   -0.0000   -0.0000   -0.0000
      131 CR     5g2-       0.0002   -0.0000   -0.0000   -0.0007    0.0000   -0.0006   -0.0000    0.0000   -0.0000   -0.0001
      132 CR     6g2-      -0.0000    0.0000   -0.0000   -0.0003    0.0000    0.0000    0.0000   -0.0000    0.0000    0.0000
      133 CR     7g2-       0.0001   -0.0000   -0.0000   -0.0004    0.0000   -0.0004   -0.0000    0.0000   -0.0000   -0.0000
      134 CR     8g2-      -0.0000    0.0000    0.0000   -0.0001    0.0000    0.0001    0.0000   -0.0000    0.0000    0.0000
      135 CR     5g1-       0.0009   -0.0000   -0.0000    0.0008   -0.0000   -0.0007   -0.0000    0.0000    0.0000   -0.0006
      136 CR     6g1-      -0.0003    0.0000    0.0000    0.0000   -0.0000   -0.0005   -0.0000    0.0000   -0.0000    0.0002
      137 CR     7g1-       0.0005   -0.0000   -0.0000    0.0004   -0.0000   -0.0004   -0.0000    0.0000    0.0000   -0.0003
      138 CR     8g1-      -0.0001    0.0000    0.0000   -0.0001    0.0000   -0.0002   -0.0000    0.0000    0.0000    0.0001
      139 CR     5g0       -0.0000   -0.0000    0.0011   -0.0000   -0.0000   -0.0000    0.0000   -0.0015   -0.0000   -0.0000
      140 CR     6g0       -0.0000    0.0000   -0.0005   -0.0000   -0.0000   -0.0000    0.0000   -0.0002    0.0000   -0.0000
      141 CR     7g0        0.0000   -0.0000    0.0006   -0.0000   -0.0000   -0.0000    0.0000   -0.0009   -0.0000   -0.0000
      142 CR     8g0        0.0000    0.0000   -0.0002    0.0000   -0.0000    0.0000   -0.0000    0.0000    0.0000   -0.0000
      143 CR     5g1+       0.0000    0.0009   -0.0000   -0.0000   -0.0008    0.0000   -0.0007   -0.0000   -0.0000    0.0000
      144 CR     6g1+      -0.0000   -0.0003    0.0000   -0.0000   -0.0000    0.0000   -0.0005   -0.0000    0.0000   -0.0000
      145 CR     7g1+       0.0000    0.0005   -0.0000   -0.0000   -0.0004    0.0000   -0.0004   -0.0000   -0.0000    0.0000
      146 CR     8g1+      -0.0000   -0.0001    0.0000    0.0000    0.0001    0.0000   -0.0002   -0.0000    0.0000   -0.0000
      147 CR     5g2+      -0.0000   -0.0002   -0.0000   -0.0000   -0.0007   -0.0000    0.0006    0.0000    0.0000   -0.0000
      148 CR     6g2+       0.0000    0.0000    0.0000   -0.0000   -0.0003    0.0000   -0.0000   -0.0000   -0.0000    0.0000
      149 CR     7g2+      -0.0000   -0.0001   -0.0000   -0.0000   -0.0004   -0.0000    0.0004    0.0000   -0.0000   -0.0000
      150 CR     8g2+       0.0000    0.0000    0.0000   -0.0000   -0.0001    0.0000   -0.0001   -0.0000   -0.0000    0.0000
      151 CR     5g3+      -0.0000   -0.0000    0.0006   -0.0000   -0.0000   -0.0000   -0.0000   -0.0002    0.0003   -0.0000
      152 CR     6g3+       0.0000    0.0000   -0.0003   -0.0000   -0.0000    0.0000   -0.0000    0.0001   -0.0003    0.0000
      153 CR     7g3+      -0.0000   -0.0000    0.0004   -0.0000   -0.0000   -0.0000   -0.0000   -0.0001    0.0002   -0.0000
      154 CR     8g3+       0.0000    0.0000   -0.0002   -0.0000   -0.0000    0.0000   -0.0000    0.0001   -0.0001    0.0000
      155 CR     5g4+       0.0000    0.0006    0.0000    0.0000    0.0001   -0.0000    0.0005    0.0000   -0.0000    0.0000
      156 CR     6g4+      -0.0000   -0.0002   -0.0000   -0.0000   -0.0000    0.0000   -0.0002   -0.0000    0.0000   -0.0000
      157 CR     7g4+       0.0000    0.0003    0.0000    0.0000    0.0000   -0.0000    0.0002    0.0000   -0.0000    0.0000
      158 CR     8g4+      -0.0000   -0.0001   -0.0000   -0.0000   -0.0000    0.0000   -0.0002   -0.0000    0.0000   -0.0000
      159 CR     6h5-       0.0000   -0.0000    0.0000   -0.0004    0.0000   -0.0002   -0.0000    0.0000    0.0000   -0.0000
      160 CR     7h5-      -0.0000    0.0000    0.0000    0.0002   -0.0000    0.0001    0.0000   -0.0000   -0.0000    0.0000
      161 CR     6h4-      -0.0001    0.0000    0.0000    0.0001   -0.0000   -0.0003   -0.0000    0.0000    0.0000    0.0001
      162 CR     7h4-       0.0001   -0.0000   -0.0000   -0.0001    0.0000    0.0002    0.0000   -0.0000    0.0000   -0.0001
      163 CR     6h3-      -0.0000   -0.0000   -0.0000   -0.0000   -0.0000    0.0000   -0.0000   -0.0000    0.0000    0.0000
      164 CR     7h3-       0.0000    0.0000    0.0000    0.0000   -0.0000   -0.0000   -0.0000    0.0000   -0.0000   -0.0000
      165 CR     6h2-      -0.0000    0.0000    0.0000   -0.0003    0.0000   -0.0002   -0.0000    0.0000   -0.0000    0.0000
      166 CR     7h2-       0.0000   -0.0000   -0.0000    0.0002   -0.0000    0.0001    0.0000   -0.0000    0.0000   -0.0000
      167 CR     6h1-       0.0001   -0.0000   -0.0000    0.0002   -0.0000   -0.0005   -0.0000    0.0000    0.0000   -0.0001
      168 CR     7h1-      -0.0000    0.0000   -0.0000   -0.0001    0.0000    0.0003    0.0000   -0.0000   -0.0000    0.0000
      169 CR     6h0       -0.0000   -0.0000    0.0000   -0.0000   -0.0000   -0.0000    0.0000   -0.0006   -0.0000   -0.0000
      170 CR     7h0       -0.0000    0.0000   -0.0000    0.0000    0.0000    0.0000   -0.0000    0.0004    0.0000   -0.0000
      171 CR     6h1+       0.0000    0.0001    0.0000   -0.0000   -0.0002    0.0000   -0.0005   -0.0000    0.0000    0.0000
      172 CR     7h1+      -0.0000   -0.0000   -0.0000    0.0000    0.0001   -0.0000    0.0003    0.0000   -0.0000   -0.0000
      173 CR     6h2+       0.0000    0.0000    0.0000   -0.0000   -0.0003   -0.0000    0.0002    0.0000   -0.0000    0.0000
      174 CR     7h2+      -0.0000   -0.0000   -0.0000    0.0000    0.0002    0.0000   -0.0001   -0.0000    0.0000   -0.0000
      175 CR     6h3+      -0.0000    0.0000   -0.0002    0.0000    0.0000   -0.0000    0.0000   -0.0002   -0.0000    0.0000
      176 CR     7h3+       0.0000   -0.0000    0.0001    0.0000   -0.0000    0.0000   -0.0000    0.0001    0.0000    0.0000
      177 CR     6h4+      -0.0000   -0.0001   -0.0000   -0.0000   -0.0001    0.0000   -0.0003   -0.0000   -0.0000   -0.0000
      178 CR     7h4+       0.0000    0.0001    0.0000    0.0000    0.0001   -0.0000    0.0002    0.0000    0.0000    0.0000
      179 CR     6h5+      -0.0000   -0.0000    0.0000   -0.0000   -0.0004   -0.0000    0.0002    0.0000   -0.0000   -0.0000
      180 CR     7h5+       0.0000    0.0000    0.0000    0.0000    0.0002    0.0000   -0.0001   -0.0000    0.0000    0.0000

          Orbital           21        22        23        24        25        26        27        28        29        30    
          Energy           -0.1609   -0.1587   -0.1360   -0.1360   -0.1295   -0.1295   -0.1294   -0.0908   -0.0639   -0.0639
          Occ. No.          0.0000    0.0000    0.0000    0.0000    0.0000    0.0000    0.0000    0.0000    0.0000    0.0000

        1 CR     1s         0.0000    0.0000   -0.0000   -0.0000   -0.0000    0.0000   -0.0000    0.0000   -0.0000   -0.0000
        2 CR     2s         0.0000    0.0000   -0.0000   -0.0000   -0.0000    0.0000   -0.0009    0.0029    0.0000    0.0000
        3 CR     3s        -0.0000   -0.0052   -0.0000   -0.0000   -0.0000    0.0000   -0.0034   -0.0431    0.0000    0.0003
        4 CR     4s         0.0000    0.0098    0.0000    0.0000    0.0000   -0.0000    0.0052    0.0198   -0.0000   -0.0004
        5 CR     5s        -0.0000   -0.0167    0.0000    0.0000    0.0000   -0.0000    0.0089   -0.3815    0.0000    0.0007
        6 CR     6s        -0.0000   -0.0370   -0.0000   -0.0000   -0.0000    0.0000   -0.0100   -0.1212    0.0000    0.0005
        7 CR     7s        -0.0000   -0.0384   -0.0000   -0.0000   -0.0000    0.0000   -0.0295    0.5663   -0.0000   -0.0008
        8 CR     8s        -0.0000   -0.0309   -0.0000   -0.0000   -0.0000    0.0000   -0.0296    0.6946   -0.0000   -0.0011
        9 CR     9s        -0.0000   -0.0053   -0.0000   -0.0000   -0.0000    0.0000   -0.0061    0.1688   -0.0000   -0.0003
       10 CR    10s        -0.0000   -0.0005   -0.0000   -0.0000   -0.0000    0.0000   -0.0006    0.0176   -0.0000   -0.0000
       11 CR     2px       -0.0026   -0.0000   -0.0000   -0.0003   -0.0000    0.0021    0.0000   -0.0000   -0.0000    0.0000
       12 CR     3px        0.0383    0.0000   -0.0000   -0.0008   -0.0000    0.0204    0.0000    0.0000   -0.0000    0.0000
       13 CR     4px       -0.1670   -0.0000    0.0000    0.0031    0.0000   -0.0269   -0.0000   -0.0000   -0.0000    0.0000
       14 CR     5px        0.2124    0.0000   -0.0000   -0.0006    0.0000   -0.0160   -0.0000   -0.0000    0.0000    0.0000
       15 CR     6px        0.8000    0.0000   -0.0000   -0.0117   -0.0000    0.0641    0.0000    0.0000    0.0000   -0.0000
       16 CR     7px        0.4510    0.0000   -0.0000   -0.0092   -0.0000    0.0659    0.0000    0.0000   -0.0000   -0.0000
       17 CR     8px        0.2567    0.0000   -0.0000   -0.0071   -0.0000    0.0539    0.0000    0.0000   -0.0000   -0.0000
       18 CR     9px        0.0661    0.0000   -0.0000   -0.0025   -0.0000    0.0201    0.0000    0.0000   -0.0000   -0.0000
       19 CR    10px        0.0064    0.0000   -0.0000   -0.0006   -0.0000    0.0047    0.0000    0.0000   -0.0000   -0.0000
       20 CR    11px       -0.0001    0.0000   -0.0000   -0.0001   -0.0000    0.0006    0.0000    0.0000   -0.0000   -0.0000
       21 CR     2py       -0.0000   -0.0000    0.0003   -0.0000    0.0021    0.0000   -0.0000   -0.0000    0.0000   -0.0000
       22 CR     3py        0.0000    0.0000    0.0008   -0.0000    0.0204    0.0000   -0.0000   -0.0000    0.0000   -0.0000
       23 CR     4py       -0.0000   -0.0000   -0.0031    0.0000   -0.0269   -0.0000    0.0000    0.0000    0.0000   -0.0000
       24 CR     5py        0.0000    0.0000    0.0006   -0.0000   -0.0160   -0.0000    0.0000    0.0000    0.0000    0.0000
       25 CR     6py        0.0000    0.0000    0.0117   -0.0000    0.0641    0.0000   -0.0000   -0.0000   -0.0000   -0.0000
       26 CR     7py        0.0000    0.0000    0.0092   -0.0000    0.0659    0.0000   -0.0000   -0.0000   -0.0000   -0.0000
       27 CR     8py        0.0000    0.0000    0.0071   -0.0000    0.0539    0.0000   -0.0000   -0.0000   -0.0000   -0.0000
       28 CR     9py        0.0000    0.0000    0.0025   -0.0000    0.0201    0.0000   -0.0000   -0.0000   -0.0000   -0.0000
       29 CR    10py        0.0000    0.0000    0.0006   -0.0000    0.0047    0.0000   -0.0000   -0.0000   -0.0000   -0.0000
       30 CR    11py       -0.0000   -0.0000    0.0001   -0.0000    0.0006    0.0000   -0.0000   -0.0000   -0.0000   -0.0000
       31 CR     2pz       -0.0000   -0.0022    0.0000    0.0000   -0.0000    0.0000   -0.0011   -0.0001   -0.0000   -0.0000
       32 CR     3pz       -0.0000    0.0462   -0.0000    0.0000   -0.0000    0.0000   -0.0050    0.0051   -0.0000   -0.0001
       33 CR     4pz        0.0000   -0.1787    0.0000   -0.0000    0.0000   -0.0000    0.0121   -0.0031   -0.0000   -0.0000
       34 CR     5pz       -0.0000    0.1906   -0.0000   -0.0000    0.0000   -0.0000    0.0030   -0.0193    0.0000    0.0002
       35 CR     6pz       -0.0000    0.7921   -0.0000    0.0000   -0.0000    0.0000   -0.0375    0.0087    0.0000    0.0000
       36 CR     7pz       -0.0000    0.4637   -0.0000    0.0000   -0.0000    0.0000   -0.0343    0.0333   -0.0000   -0.0003
       37 CR     8pz       -0.0000    0.2726   -0.0000    0.0000   -0.0000    0.0000   -0.0281    0.0365   -0.0000   -0.0004
       38 CR     9pz       -0.0000    0.0735   -0.0000    0.0000   -0.0000    0.0000   -0.0106    0.0180   -0.0000   -0.0002
       39 CR    10pz       -0.0000    0.0084   -0.0000    0.0000   -0.0000    0.0000   -0.0026    0.0050   -0.0000   -0.0001
       40 CR    11pz        0.0000    0.0002    0.0000    0.0000   -0.0000    0.0000   -0.0004    0.0007   -0.0000   -0.0000
       41 CR     3d2-       0.0000   -0.0000   -0.3757    0.0000   -0.1769   -0.0000    0.0000   -0.0000   -0.0000    0.0000
       42 CR     4d2-      -0.0000    0.0000   -0.0445    0.0000   -0.0455   -0.0000    0.0000    0.0000   -0.0000    0.0000
       43 CR     5d2-      -0.0000    0.0000    0.3590   -0.0000    0.1525    0.0000   -0.0000   -0.0000   -0.0000    0.0000
       44 CR     6d2-      -0.0000    0.0000    0.4093   -0.0000    0.1870    0.0000   -0.0000   -0.0000   -0.0000   -0.0000
       45 CR     7d2-      -0.0000    0.0000    0.5344   -0.0000    0.2532    0.0000   -0.0000   -0.0000   -0.0000   -0.0000
       46 CR     8d2-      -0.0000    0.0000    0.2913   -0.0000    0.1440    0.0000   -0.0000   -0.0000   -0.0000   -0.0000
       47 CR     9d2-      -0.0000    0.0000    0.0845   -0.0000    0.0439    0.0000   -0.0000   -0.0000   -0.0000   -0.0000
       48 CR    10d2-      -0.0000    0.0000    0.0155   -0.0000    0.0084    0.0000   -0.0000   -0.0000   -0.0000   -0.0000
       49 CR     3d1-       0.0000    0.0000    0.1781   -0.0000   -0.3777   -0.0000    0.0000   -0.0000   -0.0000    0.0000
       50 CR     4d1-      -0.0000   -0.0000    0.0199   -0.0000   -0.0946   -0.0000    0.0000   -0.0000   -0.0000    0.0000
       51 CR     5d1-      -0.0000   -0.0000   -0.1694    0.0000    0.3243    0.0000   -0.0000   -0.0000   -0.0000   -0.0000
       52 CR     6d1-      -0.0000   -0.0000   -0.1936    0.0000    0.3986    0.0000   -0.0000    0.0000    0.0000   -0.0000
       53 CR     7d1-      -0.0000   -0.0000   -0.2520    0.0000    0.5384    0.0000   -0.0000    0.0000    0.0000   -0.0000
       54 CR     8d1-      -0.0000   -0.0000   -0.1374    0.0000    0.3063    0.0000   -0.0000    0.0000    0.0000   -0.0000
       55 CR     9d1-      -0.0000   -0.0000   -0.0398    0.0000    0.0932    0.0000   -0.0000    0.0000    0.0000   -0.0000
       56 CR    10d1-      -0.0000    0.0000   -0.0072    0.0000    0.0177    0.0000   -0.0000    0.0000    0.0000   -0.0000
       57 CR     3d0        0.0000   -0.0164   -0.0000   -0.0000   -0.0000    0.0000   -0.4198   -0.0149   -0.0000   -0.0001
       58 CR     4d0       -0.0000    0.0061    0.0000   -0.0000   -0.0000    0.0000   -0.1058   -0.0185   -0.0000   -0.0006
       59 CR     5d0       -0.0000    0.0265    0.0000    0.0000    0.0000   -0.0000    0.3591    0.0058   -0.0000   -0.0001
       60 CR     6d0       -0.0000    0.0273    0.0000    0.0000    0.0000   -0.0000    0.4417    0.0178    0.0000    0.0005
       61 CR     7d0       -0.0000    0.0330    0.0000    0.0000    0.0000   -0.0000    0.5969    0.0286    0.0000    0.0010
       62 CR     8d0       -0.0000    0.0164    0.0000    0.0000    0.0000   -0.0000    0.3398    0.0206    0.0000    0.0008
       63 CR     9d0       -0.0000    0.0043    0.0000    0.0000    0.0000   -0.0000    0.1035    0.0073    0.0000    0.0003
       64 CR    10d0       -0.0000    0.0006    0.0000    0.0000    0.0000   -0.0000    0.0197    0.0016    0.0000    0.0001
       65 CR     3d1+       0.0309    0.0000   -0.0000   -0.1781    0.0000   -0.3777   -0.0000    0.0000    0.0000   -0.0000
       66 CR     4d1+      -0.0201   -0.0000   -0.0000   -0.0199    0.0000   -0.0946   -0.0000    0.0000    0.0000   -0.0000
       67 CR     5d1+      -0.0487   -0.0000    0.0000    0.1694   -0.0000    0.3243    0.0000   -0.0000    0.0000   -0.0000
       68 CR     6d1+      -0.0413   -0.0000    0.0000    0.1936   -0.0000    0.3986    0.0000   -0.0000    0.0000    0.0000
       69 CR     7d1+      -0.0474   -0.0000    0.0000    0.2520   -0.0000    0.5384    0.0000   -0.0000   -0.0000    0.0000
       70 CR     8d1+      -0.0202   -0.0000    0.0000    0.1374   -0.0000    0.3063    0.0000   -0.0000    0.0000    0.0000
       71 CR     9d1+      -0.0046   -0.0000    0.0000    0.0398   -0.0000    0.0932    0.0000   -0.0000    0.0000    0.0000
       72 CR    10d1+      -0.0005    0.0000    0.0000    0.0072   -0.0000    0.0177    0.0000   -0.0000    0.0000    0.0000
       73 CR     3d2+      -0.0197    0.0000   -0.0000   -0.3757   -0.0000    0.1769    0.0000   -0.0000    0.0000   -0.0000
       74 CR     4d2+       0.0114   -0.0000   -0.0000   -0.0445   -0.0000    0.0455    0.0000   -0.0000    0.0000   -0.0000
       75 CR     5d2+       0.0318   -0.0000    0.0000    0.3590    0.0000   -0.1525   -0.0000    0.0000    0.0000   -0.0000
       76 CR     6d2+       0.0286   -0.0000    0.0000    0.4093    0.0000   -0.1870   -0.0000    0.0000   -0.0000   -0.0000
       77 CR     7d2+       0.0334   -0.0000    0.0000    0.5344    0.0000   -0.2532   -0.0000    0.0000   -0.0000   -0.0000
       78 CR     8d2+       0.0150   -0.0000    0.0000    0.2913    0.0000   -0.1440   -0.0000    0.0000   -0.0000   -0.0000
       79 CR     9d2+       0.0036   -0.0000    0.0000    0.0845    0.0000   -0.0439   -0.0000    0.0000   -0.0000   -0.0000
       80 CR    10d2+       0.0005   -0.0000    0.0000    0.0155    0.0000   -0.0084   -0.0000    0.0000   -0.0000   -0.0000
       81 CR     4f3-      -0.0000    0.0000    0.0000    0.0000   -0.0000    0.0000    0.0000    0.0000    0.1590   -0.0000
       82 CR     5f3-       0.0000    0.0000   -0.0000    0.0000   -0.0000    0.0000    0.0000    0.0000    0.4162   -0.0000
       83 CR     6f3-       0.0000   -0.0000    0.0000    0.0000   -0.0000    0.0000    0.0000    0.0000    0.5647   -0.0000
       84 CR     7f3-       0.0000   -0.0000    0.0000    0.0000    0.0000    0.0000    0.0000    0.0000    0.5392   -0.0000
       85 CR     8f3-      -0.0000   -0.0000    0.0000    0.0000   -0.0000    0.0000    0.0000    0.0000    0.3448   -0.0000
       86 CR     9f3-      -0.0000   -0.0000    0.0000    0.0000    0.0000    0.0000    0.0000    0.0000    0.2701   -0.0000
       87 CR     4f2-       0.0000   -0.0000   -0.0062    0.0000   -0.0056   -0.0000    0.0000   -0.0000   -0.0000   -0.0000
       88 CR     5f2-       0.0000    0.0000   -0.0014    0.0000   -0.0008   -0.0000    0.0000   -0.0000   -0.0000   -0.0000
       89 CR     6f2-      -0.0000    0.0000   -0.0019    0.0000   -0.0024   -0.0000    0.0000   -0.0000   -0.0000   -0.0000
       90 CR     7f2-      -0.0000    0.0000    0.0005   -0.0000   -0.0000   -0.0000   -0.0000   -0.0000   -0.0000   -0.0000
       91 CR     8f2-      -0.0000   -0.0000   -0.0002    0.0000   -0.0010   -0.0000    0.0000   -0.0000   -0.0000   -0.0000
       92 CR     9f2-      -0.0000   -0.0000    0.0008   -0.0000    0.0004    0.0000   -0.0000   -0.0000   -0.0000   -0.0000
       93 CR     4f1-      -0.0000    0.0000    0.0027   -0.0000   -0.0039   -0.0000    0.0000   -0.0000    0.0000    0.0000
       94 CR     5f1-       0.0000    0.0000    0.0008   -0.0000   -0.0021   -0.0000    0.0000   -0.0000    0.0000    0.0000
       95 CR     6f1-       0.0000    0.0000    0.0006   -0.0000   -0.0011   -0.0000    0.0000   -0.0000    0.0000    0.0000
       96 CR     7f1-      -0.0000    0.0000   -0.0003    0.0000    0.0004    0.0000   -0.0000   -0.0000    0.0000    0.0000
       97 CR     8f1-      -0.0000    0.0000   -0.0002    0.0000    0.0006    0.0000   -0.0000   -0.0000    0.0000    0.0000
       98 CR     9f1-      -0.0000    0.0000   -0.0004    0.0000    0.0008    0.0000   -0.0000   -0.0000    0.0000    0.0000
       99 CR     4f0        0.0000   -0.0006    0.0000    0.0000   -0.0000    0.0000   -0.0020    0.0027   -0.0000   -0.0024
      100 CR     5f0       -0.0000    0.0011    0.0000   -0.0000   -0.0000    0.0000   -0.0028   -0.0003   -0.0000   -0.0062
      101 CR     6f0       -0.0000    0.0006    0.0000    0.0000    0.0000    0.0000   -0.0003    0.0016   -0.0000   -0.0084
      102 CR     7f0        0.0000    0.0005    0.0000    0.0000    0.0000   -0.0000    0.0003    0.0003   -0.0000   -0.0080
      103 CR     8f0       -0.0000    0.0001    0.0000    0.0000    0.0000   -0.0000    0.0014    0.0006   -0.0000   -0.0051
      104 CR     9f0        0.0000    0.0000   -0.0000    0.0000    0.0000   -0.0000    0.0007    0.0004   -0.0000   -0.0040
      105 CR     4f1+      -0.0001   -0.0000   -0.0000   -0.0027    0.0000   -0.0039   -0.0000   -0.0000   -0.0000    0.0000
      106 CR     5f1+       0.0008    0.0000   -0.0000   -0.0008    0.0000   -0.0021   -0.0000   -0.0000   -0.0000    0.0000
      107 CR     6f1+       0.0001    0.0000   -0.0000   -0.0006    0.0000   -0.0011   -0.0000   -0.0000   -0.0000    0.0000
      108 CR     7f1+      -0.0000    0.0000    0.0000    0.0003   -0.0000    0.0004    0.0000   -0.0000   -0.0000    0.0000
      109 CR     8f1+      -0.0002   -0.0000    0.0000    0.0002   -0.0000    0.0006    0.0000   -0.0000   -0.0000    0.0000
      110 CR     9f1+      -0.0002   -0.0000    0.0000    0.0004   -0.0000    0.0008    0.0000   -0.0000   -0.0000    0.0000
      111 CR     4f2+      -0.0001   -0.0000   -0.0000   -0.0062   -0.0000    0.0056    0.0000   -0.0000   -0.0000   -0.0000
      112 CR     5f2+      -0.0001    0.0000   -0.0000   -0.0014   -0.0000    0.0008    0.0000   -0.0000   -0.0000   -0.0000
      113 CR     6f2+       0.0001    0.0000   -0.0000   -0.0019   -0.0000    0.0024    0.0000   -0.0000   -0.0000   -0.0000
      114 CR     7f2+       0.0001    0.0000    0.0000    0.0005   -0.0000    0.0000    0.0000   -0.0000   -0.0000   -0.0000
      115 CR     8f2+       0.0000   -0.0000   -0.0000   -0.0002   -0.0000    0.0010    0.0000   -0.0000   -0.0000   -0.0000
      116 CR     9f2+       0.0001   -0.0000    0.0000    0.0008    0.0000   -0.0004   -0.0000   -0.0000   -0.0000   -0.0000
      117 CR     4f3+      -0.0000    0.0005   -0.0000   -0.0000   -0.0000    0.0000   -0.0024    0.0019    0.0000    0.1589
      118 CR     5f3+       0.0000   -0.0002   -0.0000   -0.0000    0.0000    0.0000   -0.0001    0.0001    0.0000    0.4162
      119 CR     6f3+       0.0000    0.0002   -0.0000   -0.0000   -0.0000    0.0000   -0.0010    0.0014    0.0000    0.5647
      120 CR     7f3+       0.0000   -0.0001   -0.0000    0.0000    0.0000    0.0000   -0.0002    0.0004    0.0000    0.5391
      121 CR     8f3+      -0.0000    0.0001   -0.0000    0.0000   -0.0000    0.0000   -0.0006    0.0005    0.0000    0.3448
      122 CR     9f3+       0.0000   -0.0000   -0.0000    0.0000    0.0000    0.0000   -0.0000    0.0003    0.0000    0.2701
      123 CR     5g4-      -0.0000   -0.0000    0.0001   -0.0000   -0.0005   -0.0000    0.0000    0.0000    0.0000    0.0000
      124 CR     6g4-       0.0000    0.0000   -0.0000    0.0000    0.0002    0.0000   -0.0000   -0.0000    0.0000   -0.0000
      125 CR     7g4-      -0.0000   -0.0000    0.0000   -0.0000   -0.0002   -0.0000    0.0000    0.0000    0.0000   -0.0000
      126 CR     8g4-       0.0000   -0.0000   -0.0000    0.0000    0.0002    0.0000   -0.0000   -0.0000    0.0000   -0.0000
      127 CR     5g3-       0.0000    0.0000   -0.0000    0.0000    0.0000    0.0000   -0.0000    0.0000    0.0003   -0.0000
      128 CR     6g3-      -0.0000   -0.0000   -0.0000    0.0000    0.0000    0.0000   -0.0000   -0.0000    0.0005   -0.0000
      129 CR     7g3-       0.0000   -0.0000   -0.0000    0.0000    0.0000    0.0000   -0.0000   -0.0000    0.0005   -0.0000
      130 CR     8g3-      -0.0000   -0.0000   -0.0000    0.0000   -0.0000    0.0000   -0.0000   -0.0000    0.0004   -0.0000
      131 CR     5g2-      -0.0000   -0.0000    0.0005   -0.0000    0.0006    0.0000   -0.0000    0.0000   -0.0000   -0.0000
      132 CR     6g2-       0.0000   -0.0000    0.0002   -0.0000   -0.0001   -0.0000    0.0000   -0.0000   -0.0000   -0.0000
      133 CR     7g2-      -0.0000   -0.0000    0.0002   -0.0000    0.0003    0.0000   -0.0000    0.0000   -0.0000   -0.0000
      134 CR     8g2-       0.0000   -0.0000   -0.0000    0.0000   -0.0001   -0.0000    0.0000   -0.0000   -0.0000   -0.0000
      135 CR     5g1-      -0.0000   -0.0000   -0.0007    0.0000    0.0006    0.0000   -0.0000    0.0000    0.0000    0.0000
      136 CR     6g1-       0.0000    0.0000    0.0001   -0.0000    0.0004    0.0000   -0.0000   -0.0000    0.0000    0.0000
      137 CR     7g1-      -0.0000   -0.0000   -0.0003    0.0000    0.0002    0.0000   -0.0000    0.0000    0.0000    0.0000
      138 CR     8g1-       0.0000    0.0000    0.0001   -0.0000    0.0001    0.0000   -0.0000    0.0000    0.0000    0.0000
      139 CR     5g0        0.0000   -0.0007    0.0000    0.0000    0.0000   -0.0000    0.0014    0.0001   -0.0000   -0.0000
      140 CR     6g0       -0.0000    0.0003    0.0000    0.0000    0.0000   -0.0000    0.0001   -0.0000    0.0000    0.0000
      141 CR     7g0        0.0000   -0.0004    0.0000    0.0000    0.0000   -0.0000    0.0007    0.0001    0.0000    0.0000
      142 CR     8g0       -0.0000    0.0002   -0.0000   -0.0000   -0.0000    0.0000   -0.0002   -0.0000    0.0000    0.0000
      143 CR     5g1+      -0.0006    0.0000    0.0000    0.0007   -0.0000    0.0006    0.0000    0.0000   -0.0000    0.0000
      144 CR     6g1+       0.0002   -0.0000   -0.0000   -0.0001   -0.0000    0.0004    0.0000   -0.0000   -0.0000    0.0000
      145 CR     7g1+      -0.0003    0.0000    0.0000    0.0003   -0.0000    0.0002    0.0000    0.0000   -0.0000    0.0000
      146 CR     8g1+       0.0001   -0.0000   -0.0000   -0.0001   -0.0000    0.0001    0.0000   -0.0000   -0.0000    0.0000
      147 CR     5g2+       0.0001    0.0000    0.0000    0.0005    0.0000   -0.0006   -0.0000    0.0000   -0.0000   -0.0000
      148 CR     6g2+      -0.0000   -0.0000    0.0000    0.0002   -0.0000    0.0001    0.0000    0.0000   -0.0000   -0.0000
      149 CR     7g2+       0.0000    0.0000    0.0000    0.0002    0.0000   -0.0003   -0.0000    0.0000   -0.0000   -0.0000
      150 CR     8g2+      -0.0000   -0.0000   -0.0000   -0.0000   -0.0000    0.0001    0.0000    0.0000   -0.0000   -0.0000
      151 CR     5g3+       0.0000   -0.0004    0.0000    0.0000    0.0000   -0.0000    0.0002   -0.0004    0.0000    0.0003
      152 CR     6g3+      -0.0000    0.0002    0.0000    0.0000   -0.0000    0.0000   -0.0001    0.0003    0.0000    0.0005
[...]
         1    5       3.61580686E-01  1.84675087E+08  5.10766877E-03  2.04851250E-05  1.84675087E+08
         1    7       3.84947703E-01  2.16805913E-05  5.01567760E-15  2.15422180E+08  2.15422180E+08
         1   13       7.49130649E-03  6.55151886E-06  8.51899737E+06  1.26501175E-16  8.51899737E+06
         1   15       7.49132131E-03  8.51901567E+06  6.55144746E-06  1.10654025E-05  8.51901567E+06
         1   17       5.68227061E-05  1.59145470E-03  1.62618202E-14  6.49020398E+04  6.49020414E+04
         2    4       3.61580628E-01  5.10766908E-03  1.84675020E+08  1.66816116E-15  1.84675020E+08
         2    6       3.61580686E-01  1.84675087E+08  5.10766877E-03  2.04851250E-05  1.84675087E+08
         2    8       3.84947703E-01  2.16805913E-05  5.01567760E-15  2.15422180E+08  2.15422180E+08
         2   14       7.49130649E-03  6.55151886E-06  8.51899737E+06  1.26501175E-16  8.51899737E+06
         2   16       7.49132131E-03  8.51901567E+06  6.55144746E-06  1.10654025E-05  8.51901567E+06
         2   18       5.68227061E-05  1.59145470E-03  1.62618202E-14  6.49020398E+04  6.49020414E+04
         3    7       3.23017153E-04  9.97247399E-09  3.60567097E+02  6.71005892E-20  3.60567097E+02
         3    9       9.90665027E-02  7.67460241E+06  1.21334697E-02  1.62241061E+06  9.29701304E+06
         3   11       8.17787684E-02  1.21334498E-02  7.67462606E+06  1.38745828E-03  7.67462607E+06
         3   13       1.21569586E-01  2.61034112E+06  5.01281473E-05  1.24291058E+07  1.50394469E+07
         3   15       2.11011529E-02  5.01224756E-05  2.61043772E+06  4.67961341E-04  2.61043772E+06
         3   17       4.67504942E-02  1.62100801E-04  5.86080985E+06  2.13354176E-13  5.86080985E+06
         4    8       3.23017153E-04  9.97247399E-09  3.60567097E+02  6.71005892E-20  3.60567097E+02
         4   10       9.90665027E-02  7.67460241E+06  1.21334697E-02  1.62241061E+06  9.29701304E+06
         4   12       8.17787684E-02  1.21334498E-02  7.67462606E+06  1.38745828E-03  7.67462607E+06
         4   14       1.21569586E-01  2.61034112E+06  5.01281473E-05  1.24291058E+07  1.50394469E+07
         4   16       2.11011529E-02  5.01224756E-05  2.61043772E+06  4.67961341E-04  2.61043772E+06
         4   18       4.67504942E-02  1.62100801E-04  5.86080985E+06  2.13354176E-13  5.86080985E+06
         5    7       3.23017146E-04  3.60565514E+02  9.97234760E-09  1.22460203E-10  3.60565514E+02
         5    9       8.17785304E-02  1.21334215E-02  7.67459917E+06  1.38745337E-03  7.67459918E+06
         5   11       9.90663075E-02  7.67458910E+06  1.21334493E-02  1.62240226E+06  9.29699137E+06
         5   13       2.11003477E-02  5.01249811E-05  2.61033568E+06  4.67961889E-04  2.61033568E+06
         5   15       1.21568771E-01  2.61022621E+06  5.01275225E-05  1.24291215E+07  1.50393477E+07
         5   17       4.67525114E-02  5.86106031E+06  1.62098018E-04  2.07090365E-03  5.86106032E+06
         6    8       3.23017146E-04  3.60565514E+02  9.97234760E-09  1.22460203E-10  3.60565514E+02
         6   10       8.17785304E-02  1.21334215E-02  7.67459917E+06  1.38745337E-03  7.67459918E+06
         6   12       9.90663075E-02  7.67458910E+06  1.21334493E-02  1.62240226E+06  9.29699137E+06
         6   14       2.11003477E-02  5.01249811E-05  2.61033568E+06  4.67961889E-04  2.61033568E+06
         6   16       1.21568771E-01  2.61022621E+06  5.01275225E-05  1.24291215E+07  1.50393477E+07
         6   18       4.67525114E-02  5.86106031E+06  1.62098018E-04  2.07090365E-03  5.86106032E+06
         7    9       1.57250192E-02  1.39446097E-03  1.17139435E+06  9.06499553E-15  1.17139436E+06
         7   11       1.57249934E-02  1.17139258E+06  1.39445771E-03  9.00921073E-06  1.17139259E+06
         7   13       9.09471259E-02  7.08690258E-06  9.21516028E+06  3.29597686E-14  9.21516028E+06
         7   15       9.09471953E-02  9.21517257E+06  7.08665967E-06  2.53234957E-03  9.21517257E+06
         7   17       1.42842083E-01  1.57827860E-03  3.37797493E-14  1.46871461E+07  1.46871461E+07
         8   10       1.57250192E-02  1.39446097E-03  1.17139435E+06  9.06499553E-15  1.17139436E+06
         8   12       1.57249934E-02  1.17139258E+06  1.39445771E-03  9.00921073E-06  1.17139259E+06
         8   14       9.09471259E-02  7.08690258E-06  9.21516028E+06  3.29597686E-14  9.21516028E+06
         8   16       9.09471953E-02  9.21517257E+06  7.08665967E-06  2.53234957E-03  9.21517257E+06
         8   18       1.42842083E-01  1.57827860E-03  3.37797493E-14  1.46871461E+07  1.46871461E+07
         9   13       1.30298145E-04  2.56807899E+02  2.90369487E-07  1.15438083E+01  2.68351707E+02
         9   15       1.24693190E-04  2.90371268E-07  2.56809214E+02  1.44494239E-08  2.56809214E+02
        10   14       1.30298145E-04  2.56807899E+02  2.90369487E-07  1.15438083E+01  2.68351707E+02
        10   16       1.24693190E-04  2.90371268E-07  2.56809214E+02  1.44494239E-08  2.56809214E+02
        11   13       1.24693495E-04  2.90368044E-07  2.56808612E+02  1.44493955E-08  2.56808612E+02
        11   15       1.30299030E-04  2.56810755E+02  2.90369503E-07  1.15436359E+01  2.68354391E+02
        12   14       1.24693495E-04  2.90368044E-07  2.56808612E+02  1.44493955E-08  2.56808612E+02
        12   16       1.30299030E-04  2.56810755E+02  2.90369503E-07  1.15436359E+01  2.68354391E+02
        13   17       1.09253040E-05  4.60917356E-14  5.99264439E-02  5.65494390E-22  5.99264439E-02
        14   18       1.09253040E-05  4.60917356E-14  5.99264439E-02  5.65494390E-22  5.99264439E-02
        15   17       1.09253613E-05  5.99221134E-02  4.60766234E-14  7.80135383E-11  5.99221135E-02
        16   18       1.09253613E-05  5.99221134E-02  4.60766234E-14  7.80135383E-11  5.99221135E-02
     -----------------------------------------------------------------------------------------------
--

++ Velocity transition strengths (SO states):
   ------------------------------------------
    for osc. strength at least    1.0000000000000001E-005

      From   To        Osc. strength     Einstein coefficients Ax, Ay, Az (sec-1)    Total A (sec-1)
     -----------------------------------------------------------------------------------------------
         1    3       3.43273452E-01  4.84907966E-03  1.75325355E+08  1.96874844E-15  1.75325355E+08
         1    5       3.43273493E-01  1.75325412E+08  4.84907954E-03  1.93251786E-05  1.75325412E+08
         1    7       3.62552922E-01  2.05661430E-05  3.88123718E-15  2.02890449E+08  2.02890449E+08
         1   13       7.22950649E-03  6.32255472E-06  8.22131106E+06  6.25151663E-17  8.22131106E+06
         1   15       7.22952054E-03  8.22132844E+06  6.32248150E-06  7.55870471E-06  8.22132844E+06
         1   17       3.85508649E-05  1.53338430E-03  1.89828982E-14  4.40323704E+04  4.40323719E+04
         2    4       3.43273452E-01  4.84907966E-03  1.75325355E+08  1.96874844E-15  1.75325355E+08
         2    6       3.43273493E-01  1.75325412E+08  4.84907954E-03  1.93251786E-05  1.75325412E+08
         2    8       3.62552922E-01  2.05661430E-05  3.88123718E-15  2.02890449E+08  2.02890449E+08
         2   14       7.22950649E-03  6.32255472E-06  8.22131106E+06  6.25151663E-17  8.22131106E+06
         2   16       7.22952054E-03  8.22132844E+06  6.32248150E-06  7.55870471E-06  8.22132844E+06
         2   18       3.85508649E-05  1.53338430E-03  1.89828982E-14  4.40323704E+04  4.40323719E+04
         3    9       1.28416329E-01  9.93610648E+06  1.57088844E-02  2.11531762E+06  1.20514241E+07
         3   11       1.05876440E-01  1.57088571E-02  9.93613530E+06  1.80898360E-03  9.93613532E+06
         3   13       1.48407861E-01  3.17661501E+06  6.10025654E-05  1.51830750E+07  1.83596900E+07
         3   15       2.56786155E-02  6.09958926E-05  3.17672972E+06  5.71649308E-04  3.17672972E+06
         3   17       5.48498955E-02  1.90184999E-04  6.87620379E+06  2.57477180E-13  6.87620379E+06
         4   10       1.28416329E-01  9.93610648E+06  1.57088844E-02  2.11531762E+06  1.20514241E+07
         4   12       1.05876440E-01  1.57088571E-02  9.93613530E+06  1.80898360E-03  9.93613532E+06
         4   14       1.48407861E-01  3.17661501E+06  6.10025654E-05  1.51830750E+07  1.83596900E+07
         4   16       2.56786155E-02  6.09958926E-05  3.17672972E+06  5.71649308E-04  3.17672972E+06
         4   18       5.48498955E-02  1.90184999E-04  6.87620379E+06  2.57477180E-13  6.87620379E+06
         5    9       1.05876157E-01  1.57088255E-02  9.93610289E+06  1.80897826E-03  9.93610291E+06
         5   11       1.28416097E-01  9.93609113E+06  1.57088589E-02  2.11530683E+06  1.20513980E+07
         5   13       2.56776599E-02  6.09987825E-05  3.17660854E+06  5.71650369E-04  3.17660854E+06
         5   15       1.48406881E-01  3.17647747E+06  6.10019740E-05  1.51830932E+07  1.83595707E+07
         5   17       5.48523054E-02  6.87650306E+06  1.90181838E-04  2.52036755E-03  6.87650306E+06
         6   10       1.05876157E-01  1.57088255E-02  9.93610289E+06  1.80897826E-03  9.93610291E+06
         6   12       1.28416097E-01  9.93609113E+06  1.57088589E-02  2.11530683E+06  1.20513980E+07
         6   14       2.56776599E-02  6.09987825E-05  3.17660854E+06  5.71650369E-04  3.17660854E+06
         6   16       1.48406881E-01  3.17647747E+06  6.10019740E-05  1.51830932E+07  1.83595707E+07
         6   18       5.48523054E-02  6.87650306E+06  1.90181838E-04  2.52036755E-03  6.87650306E+06
         7    9       2.10814838E-02  1.86946795E-03  1.57041569E+06  1.19109087E-14  1.57041570E+06
         7   11       2.10814483E-02  1.57041326E+06  1.86946211E-03  1.36206419E-05  1.57041326E+06
         7   13       1.13512305E-01  8.84528529E-06  1.15016028E+07  4.37550645E-14  1.15016028E+07
         7   15       1.13512379E-01  1.15016169E+07  8.84498609E-06  3.23101941E-03  1.15016169E+07
         7   17       1.81006384E-01  1.96521320E-03  4.19239878E-14  1.86112971E+07  1.86112971E+07
         8   10       2.10814838E-02  1.86946795E-03  1.57041569E+06  1.19109087E-14  1.57041570E+06
         8   12       2.10814483E-02  1.57041326E+06  1.86946211E-03  1.36206419E-05  1.57041326E+06
         8   14       1.13512305E-01  8.84528529E-06  1.15016028E+07  4.37550645E-14  1.15016028E+07
         8   16       1.13512379E-01  1.15016169E+07  8.84498609E-06  3.23101941E-03  1.15016169E+07
         8   18       1.81006384E-01  1.96521320E-03  4.19239878E-14  1.86112971E+07  1.86112971E+07
         9   13       2.42010754E-05  4.70277797E+01  5.31753290E-08  2.81500562E+00  4.98427854E+01
         9   15       2.28340000E-05  5.31749660E-08  4.70274437E+01  3.52348353E-09  4.70274437E+01
         9   17       1.64504093E-05  4.45987645E-08  3.74672107E+01  4.65033921E-18  3.74672108E+01
        10   14       2.42010754E-05  4.70277797E+01  5.31753290E-08  2.81500562E+00  4.98427854E+01
        10   16       2.28340000E-05  5.31749660E-08  4.70274437E+01  3.52348353E-09  4.70274437E+01
        10   18       1.64504093E-05  4.45987645E-08  3.74672107E+01  4.65033921E-18  3.74672108E+01
        11   13       2.28343491E-05  5.31746920E-08  4.70279376E+01  3.52346576E-09  4.70279376E+01
        11   15       2.42019505E-05  4.70298536E+01  5.31735115E-08  2.81489410E+00  4.98447477E+01
        11   17       1.64488874E-05  3.74637163E+01  4.46009588E-08  8.92160624E-10  3.74637163E+01
        12   14       2.28343491E-05  5.31746920E-08  4.70279376E+01  3.52346576E-09  4.70279376E+01
        12   16       2.42019505E-05  4.70298536E+01  5.31735115E-08  2.81489410E+00  4.98447477E+01
        12   18       1.64488874E-05  3.74637163E+01  4.46009588E-08  8.92160624E-10  3.74637163E+01
        13   17       1.04159641E-03  4.39581432E-12  5.71328591E+00  1.53448891E-21  5.71328591E+00
        14   18       1.04159641E-03  4.39581432E-12  5.71328591E+00  1.53448891E-21  5.71328591E+00
        15   17       1.04163770E-03  5.71306962E+00  4.39296926E-12  6.52718866E-11  5.71306962E+00
        16   18       1.04163770E-03  5.71306962E+00  4.39296926E-12  6.52718866E-11  5.71306962E+00
     -----------------------------------------------------------------------------------------------
--

++ Length and velocity gauge comparison (SO states):

 --------------------------------------------------
 A comparison between the dipole oscillator strengths in 
 length and velocity gauge will be performed

 All dipole oscillator differences above the tolerance of   0.10000000000000001       will be printed 

 Due to basis set deficiency these oscillator may be problematic 

 The tolerance is defined as ABS(1-O_l/O_v) 
 O_l : dipole oscillator strength in length gauge
 O_p : dipole oscillator strength in velocity gauge
 --------------------------------------------------

  Problematic transitions have been found

      From   To       Difference (%) Osc. st. (len.) Osc. st. (vel.)
     ---------------------------------------------------------------
         1   17            47.396709  5.68227061E-05  3.85508649E-05
         2   18            47.396709  5.68227061E-05  3.85508649E-05
         3    7      ---------------  3.23017153E-04 below threshold
         3    9            22.855214  9.90665027E-02  1.28416329E-01
         3   11            22.760183  8.17787684E-02  1.05876440E-01
         3   13            18.084133  1.21569586E-01  1.48407861E-01
         3   15            17.825971  2.11011529E-02  2.56786155E-02
         3   17            14.766484  4.67504942E-02  5.48498955E-02
         4    8      ---------------  3.23017153E-04 below threshold
         4   10            22.855214  9.90665027E-02  1.28416329E-01
         4   12            22.760183  8.17787684E-02  1.05876440E-01
         4   14            18.084133  1.21569586E-01  1.48407861E-01
         4   16            17.825971  2.11011529E-02  2.56786155E-02
         4   18            14.766484  4.67504942E-02  5.48498955E-02
         5    7      ---------------  3.23017146E-04 below threshold
         5    9            22.760201  8.17785304E-02  1.05876157E-01
         5   11            22.855226  9.90663075E-02  1.28416097E-01
         5   13            17.826049  2.11003477E-02  2.56776599E-02
         5   15            18.084141  1.21568771E-01  1.48406881E-01
         5   17            14.766552  4.67525114E-02  5.48523054E-02
         6    8      ---------------  3.23017146E-04 below threshold
         6   10            22.760201  8.17785304E-02  1.05876157E-01
         6   12            22.855226  9.90663075E-02  1.28416097E-01
         6   14            17.826049  2.11003477E-02  2.56776599E-02
         6   16            18.084141  1.21568771E-01  1.48406881E-01
         6   18            14.766552  4.67525114E-02  5.48523054E-02
         7    9            25.408385  1.57250192E-02  2.10814838E-02
         7   11            25.408382  1.57249934E-02  2.10814483E-02
         7   13            19.879060  9.09471259E-02  1.13512305E-01
         7   15            19.879051  9.09471953E-02  1.13512379E-01
         7   17            21.084506  1.42842083E-01  1.81006384E-01
         8   10            25.408385  1.57250192E-02  2.10814838E-02
         8   12            25.408382  1.57249934E-02  2.10814483E-02
         8   14            19.879060  9.09471259E-02  1.13512305E-01
         8   16            19.879051  9.09471953E-02  1.13512379E-01
         8   18            21.084506  1.42842083E-01  1.81006384E-01
         9   13           438.398162  1.30298145E-04  2.42010754E-05
         9   15           446.085618  1.24693190E-04  2.28340000E-05
         9   17      --------------- below threshold  1.64504093E-05
        10   14           438.398162  1.30298145E-04  2.42010754E-05
        10   16           446.085618  1.24693190E-04  2.28340000E-05
        10   18      --------------- below threshold  1.64504093E-05
        11   13           446.078603  1.24693495E-04  2.28343491E-05
        11   15           438.382350  1.30299030E-04  2.42019505E-05
        11   17      --------------- below threshold  1.64488874E-05
        12   14           446.078603  1.24693495E-04  2.28343491E-05
        12   16           438.382350  1.30299030E-04  2.42019505E-05
        12   18      --------------- below threshold  1.64488874E-05
        13   17            98.951100  1.09253040E-05  1.04159641E-03
        14   18            98.951100  1.09253040E-05  1.04159641E-03
        15   17            98.951136  1.09253613E-05  1.04163770E-03
        16   18            98.951136  1.09253613E-05  1.04163770E-03
     ---------------------------------------------------------------

 Number of problematic transitions =                    52

--

 Electric-dipole - electric-octupole not included
++ I/O STATISTICS
 
  I. General I/O information
  - - - - - - - - - - - - - - - - - - - - - - - - - - - - - - - - - - - - - - - - - - -
  Unit  Name          Flsize      Write/Read            MBytes           Write/Read
                      (MBytes)       Calls              In/Out           Time, sec.
  - - - - - - - - - - - - - - - - - - - - - - - - - - - - - - - - - - - - - - - - - - -
   1  SCRATCH           0.00 .       9/      45 .      0.0/      0.0 .       0/       0
   2  ANNI              0.00 .       0/       0 .      0.0/      0.0 .       0/       0
   3  RUNFILE          14.85 .     322/   10517 .      2.3/     76.3 .       0/       0
   4  ONEINT            5.58 .       0/   23543 .      0.0/   3739.9 .       0/       0
   5  JOBIPH            6.48 .       0/      92 .      0.0/      0.8 .       0/       0
   6  ORDINT          506.53 .       1/    4053 .      0.0/   1013.0 .       0/       0
  - - - - - - - - - - - - - - - - - - - - - - - - - - - - - - - - - - - - - - - - - - -
   *  TOTAL           533.45 .     332/   38250 .      2.3/   4830.0 .       0/       0
  - - - - - - - - - - - - - - - - - - - - - - - - - - - - - - - - - - - - - - - - - - -
 
  II. I/O Access Patterns
  - - - - - - - - - - - - - - - - - - - -
  Unit  Name               % of random
                         Write/Read calls
  - - - - - - - - - - - - - - - - - - - -
   1  SCRATCH             88.9/ 100.0
   2  ANNI                 0.0/   0.0
   3  RUNFILE             28.6/  10.8
   4  ONEINT               0.0/  16.4
   5  JOBIPH               0.0/  76.1
   6  ORDINT             100.0/   0.0
  - - - - - - - - - - - - - - - - - - - -
--
--- Stop Module: rassi at Thu Jan  9 20:21:04 2025 /rc=_RC_ALL_IS_WELL_ ---
*** files: xmldump
    saved to directory /home4/s4752295/Internship/Initial_simulations/Point_charge_model/1_electron/active_space_9_non_rel/Cr/varying_bond_length
--- Module rassi spent 4 seconds ---

.##################.
.# Happy landing! #.
.##################.

    Timing: Wall=56.53 User=43.62 System=8.70

###############################################################################
Hbrk Cluster
Job 14548086 for user s4752295
Finished at: Thu Jan  9 20:21:04 CET 2025

Job details:
============

Job ID                         : 14548086
Name                           : Cr_no_c_light
User                           : s4752295
Partition                      : regularmedium
Nodes                          : node101
Number of Nodes                : 1
Cores                          : 1
Number of Tasks                : 1
State                          : RUNNING  
Submit                         : 2025-01-09T20:20:01
Start                          : 2025-01-09T20:20:02
End                            : --
Reserved walltime              : 15:00:00
Used walltime                  : 00:01:02
Used CPU time                  : -- 
% User (Computation)           : --
% System (I/O)                 : --
Total memory reserved          : 25000M
Maximum memory used            : --

Acknowledgements:
=================

Please see this page for information about acknowledging Hbrk in your publications:

https://wiki.hpc.rug.nl/habrok/introduction/scientific_output

################################################################################
