   This run of MOLCAS is using the pymolcas driver

                             OPE
                             OPE          NMOL  CASOP  ENMOLC A   SO
                 OPE        NMOLC        AS  OP EN  MO LC     AS  OP
                OPENM       OL CA        SO  PE NM  OL CA     SOP EN
                OP EN      MO   LC       AS  OP ENMOL  CASO   PENMOL
                OP  EN     MO   LC       AS  OP EN     MO     LC ASO
               OP   E  NMOL  C  AS       OP  EN MO     LC     AS  OP
               OP  E   NMO   LC AS        OPEN  MO     LCASOP EN   M
               O  PEN   MO  LCA  SO
            OPE   NMO   L   CAS    OP
        OPENMOL  CASOP     ENMOL   CASOPE
     OPENMOLCA   SOPENMOLCASOPEN   MOLCASOPE
    OPENMOLCAS   OP           EN   MOL    CAS
    OPENMOLCAS       OP  ENM        O     LCA
    OPENMOLCAS    OPEN  MOLCASO     P  E  NMO
    OPENMOLCAS     OP               E  N  MOL
    OPENMOLCA   SO           PENM   O  L  CAS    OPEN    MO    LCAS
    OPENMOLCA   SOP           ENM   O  L  CAS   OP  EN  MOLC  AS   O
    OPENMOLCA   SOPE           NM      O  LCA   S      OP  EN MO
    OPENMOLC                AS         O  PEN   M      OL  CA  SOPE
    OPENMO        LCASOPE  NMOL        C  ASO   P      ENMOLC     AS
    OPE     NMO      LCA  SO     P     E   NM   OL  CA SO  PE N   MO
          OPENMOLCA            SOPE   NMO        LCAS  O    P  ENMO
     OPENMOLCASOPENMOLCASOPENMOLCASOPENMOLCA
        OPENMOLCASOPENMOLCASOPENMOLCASOPE
            OPENMOLCASOPENMOLCASOPENM
               OPENMOLCASOPENMOLCA        version: o91e1abe7de707b ?
                   OPENMOLCASO
                       OPE                tag:

 OpenMolcas is free software; you can redistribute it and/or modify it
 under the terms of the GNU Lesser General Public License version 2.1.
 OpenMolcas is distributed in the hope that it will be useful, but it
 is provided "as is" and without any express or implied warranties.
 For more details see the full text of the license in the file
 LICENSE or in <http://www.gnu.org/licenses/>.

                 Copyright (C) The OpenMolcas Authors
           For the author list and the recommended citation,
                   consult the file CONTRIBUTORS.md

           *************************************************
           * pymolcas version py2.10                       *
           *   build 3068ae8b88c9345ec6cfef6fef7f1169      *
           *   (after the EMIL interpreter by V. Veryazov) *
           *************************************************

configuration info
------------------
Host name: login1 (Linux)
C Compiler ID: GNU
C flags: -std=gnu99
Fortran Compiler ID: GNU
Fortran flags: -fno-aggressive-loop-optimizations -cpp -fdefault-integer-8 -fmax-stack-var-size=1048576
Definitions: _MOLCAS_;_I8_;_LINUX_;_MKL_
Parallel: OFF (GA=OFF)


   ----------------------------------------------------------------------------------------------------------------------------------------------
  |
  |           Project: molybdenum_so_cf
  |    Submitted from: /home4/s4752295/Internship/Initial_simulations/Point_charge_model/1_electron/active_space_9_non_rel/Mo/varying_bond_length
  |      Scratch area: /tmp/molybdenum_so_cf
  |   Save outputs to: /home4/s4752295/Internship/Initial_simulations/Point_charge_model/1_electron/active_space_9_non_rel/Mo/varying_bond_length
  |            Molcas: /home4/s4752295/Internship/Molcas/recomp_try/OpenMolcas-master/build
  |
  | Scratch area is empty
  |
  |    MOLCAS_DRIVER = /home4/s4752295/Internship/Molcas/bin/pymolcas
  |    MOLCAS_NPROCS = 1
  |    MOLCAS_SOURCE = /home4/s4752295/Internship/Molcas/recomp_try/OpenMolcas-master
  | MOLCAS_STRUCTURE = 0
  |
   ----------------------------------------------------------------------------------------------------------------------------------------------

++ ---------   Input file   ---------

&SEWARD
AMFi

CLIG
$R

Basis Set
Mo.ANO-rcc.Roos.21s18p13d6f4g2h.10s9p9d6f4g2h.
Spherical d
Mo            0.0       0.0     0.0
End of Basis

Xfield

4
0.000000,  0.0000,  0.630       -1.0
0.545596,  0.0000, -0.315       -1.0
-0.272798,  0.4725, -0.315      -1.0
-0.272798, -0.4725, -0.315      -1.0

End of input

&SCF
Occupied
18
Iterations
   50  100
End of Input

&RASSCF
LumOrb
Symmetry
1
Spin
2
Nactel
1 0 0
CIRoot
9 9 1
inactive
18
ras2
9
End of Input

>>> COPY molybdenum_so_cf.JobIph $SLURM_SUBMIT_DIR/molybdenum_so_cf.doublet.JobIph

>>> COPY $SLURM_SUBMIT_DIR/molybdenum_so_cf.doublet.JobIph ./JOB002

&RASSI
NROFJobIph
1 All
SpinOrbit
End of Input

EOF

-- ----------------------------------

--- Start Module: seward at Thu Jan  9 20:09:39 2025 ---

()()()()()()()()()()()()()()()()()()()()()()()()()()()()()()()()()()()()()()()()()()()()()()()()()()

                                              &SEWARD

                                   only a single process is used
                       available to each process: 4.1 GB of memory, 1 thread?
                                            pid: 1278631
()()()()()()()()()()()()()()()()()()()()()()()()()()()()()()()()()()()()()()()()()()()()()()()()()()

 The speed of LIGHT in this CALCULATION =   137.03599917700001     
               SEWARD will generate:
                  Multipole Moment integrals up to order  2
                  Kinetic Energy integrals
                  Nuclear Attraction integrals (point charge)
                  One-Electron Hamiltonian integrals
                  Velocity integrals
                  Relativistic Douglas-Kroll-Hess integrals:
                    - Parametrization         : EXP
                    - DKH order of Hamiltonian: 2
                    - DKH order of Properties : 0
                         - multipole moment operators
                         - electric potential operators
                         - contact operators
                  External field from     4 point(s) added to the one-electron Hamiltonian
                  Orbital angular momentum around ( 0.0000  0.0000  0.0000 )
                  Velocity quadrupole around ( 0.0000  0.0000  0.0000 )
                  Atomic mean-field integrals
                  Two-Electron Repulsion integrals

                   Integrals are discarded if absolute value <: 0.10E-13
                   Integral cutoff threshold is set to       <: 0.10E-15

++    Symmetry information:
      ---------------------

                    Character Table for C1 

                             E  
                    a        1  x, y, xy, Rz, z, xz, Ry, yz, Rx, I
--


++    Basis set information:
      ----------------------


      Basis set label: MO.ANO-RCC.ROOS.21S18P13D6F4G2H.10S9P9D6F4G2H......

      Electronic valence basis set:
      ------------------
      Associated Effective Charge  42.000000 au
      Associated Actual Charge     42.000000 au
      Nuclear Model: Point charge

      Shell  nPrim  nBasis  Cartesian Spherical Contaminant
         s      21      10        X                  
         p      18       9        X                  
         d      13       9                 X         
         f       6       6                 X         
         g       4       4                 X         
         h       2       2                 X         
--


++    Molecular structure info:
      -------------------------

                    ************************************************ 
                    **** Cartesian Coordinates / Bohr, Angstrom **** 
                    ************************************************ 

     Center  Label                x              y              z                     x              y              z
        1      MO               0.000000       0.000000       0.000000              0.000000       0.000000       0.000000
--


++    Operator info:
      --------------


  Net charge from external field:   -4.0000000000000000     
--


            Nuclear Potential Energy              0.00000000 au

                    Nuclear-External Field Potential Energy    -266.66666727 au
                    External Field Potential Energy               5.92389019 au 


            Total Nuclear Potential Energy           -266.66666727 au


      Basis set specifications :
      Symmetry species         a  
      Basis functions          182

 Sorry, Molden does not know how to handle
 functions with angular momentum larger than g
Note: The following floating-point exceptions are signalling: IEEE_UNDERFLOW_FLAG IEEE_DENORMAL
--- Stop Module: seward at Thu Jan  9 20:09:52 2025 /rc=_RC_ALL_IS_WELL_ ---
*** files: molybdenum_so_cf.GssOrb xmldump
    saved to directory /home4/s4752295/Internship/Initial_simulations/Point_charge_model/1_electron/active_space_9_non_rel/Mo/varying_bond_length
--- Module seward spent 12 seconds ---

*** symbolic link created: INPORB -> molybdenum_so_cf.GssOrb
--- Start Module: scf at Thu Jan  9 20:09:52 2025 ---

()()()()()()()()()()()()()()()()()()()()()()()()()()()()()()()()()()()()()()()()()()()()()()()()()()

                                                &SCF

                                   only a single process is used
                       available to each process: 4.1 GB of memory, 1 thread?
                                            pid: 1278634
()()()()()()()()()()()()()()()()()()()()()()()()()()()()()()()()()()()()()()()()()()()()()()()()()()

++    Input section:
      --------------

      Header of the integral files:
      
       Integrals generated by seward 4.2.0  , Thu Jan  9 20:09:39 2025


      Cartesian coordinates in Angstrom:
      -----------------------------------------------------
      No.  Label        X            Y            Z        
      -----------------------------------------------------
       1   MO         0.00000000   0.00000000   0.00000000
      -----------------------------------------------------
      Nuclear repulsion energy = -266.66666727
--

++    Orbital specifications:
      -----------------------

      Symmetry species               1
                                     a
      Frozen orbitals                0
      Occupied orbitals             18
      Secondary orbitals           164
      Deleted orbitals               0
      Total number of orbitals     182
      Number of basis functions    182
--

      Molecular charge                           6.000

++    Optimization specifications:
      ----------------------------

      SCF Algorithm: Conventional
      Minimized density differences are used
      Number of density matrices in core                5
      Maximum number of NDDO SCF iterations            50
      Maximum number of HF SCF iterations             100
      Threshold for SCF energy change            0.10E-08
      Threshold for density matrix               0.10E-03
      Threshold for Fock matrix                  0.15E-03
      Threshold for linear dependence            0.10E-08
      Threshold at which DIIS is turned on       0.15E+00
      Threshold at which QNR/C2DIIS is turned on 0.75E-01
      Threshold for Norm(delta) (QNR/C2DIIS)     0.20E-04
      DIIS extrapolation of the SCF procedure
      All orbitals punched on: SCFORB
--

      Detected guessorb starting orbitals                                             


++ Convergence information
                                   SCF        iterations: Energy and convergence statistics

Iter     Tot. SCF        One-elec.       Two-elec.     Energy      Max Dij or  Max Fij      DNorm      TNorm      AccCon     Time
         Energy          Energy          Energy        Change      Delta Norm                                                in Sec.

 The total and one-electron energies are shifted by a value of      4000. a.u.

   1   -99.710950232 -1239.068732251  1406.024449289   0.00E+00    0.33E+00*   0.70E+00*    0.85E+01   0.55E+03   None         1.
   2  -101.210650116 -1193.810676385  1359.266693538  -0.15E+01*   0.64E-01*   0.15E+00*    0.19E+01   0.54E+03   EDIIS        1.
   3  -101.277160855 -1209.633541483  1375.023047897  -0.67E-01*   0.16E-01*   0.82E-01*    0.27E+00   0.55E+03   EDIIS        1.
   4  -101.287947394 -1203.135973782  1368.514693658  -0.11E-01*   0.26E-02*   0.26E-01*    0.68E-01   0.54E+03   c2DIIS       1.
   5  -101.290558005 -1205.133242487  1370.509351752  -0.26E-02*   0.17E-02*   0.10E-02*    0.90E-02   0.55E+03   QNRc2DIIS    1.
   6  -101.290570513 -1205.135547361  1370.511644118  -0.13E-04*   0.94E-03*   0.28E-03*    0.23E-02   0.55E+03   QNRc2DIIS    1.
   7  -101.290572262 -1205.137709829  1370.513804836  -0.17E-05*   0.64E-04*   0.81E-04     0.41E-03   0.55E+03   QNRc2DIIS    1.
   8  -101.290572287 -1205.136818573  1370.512913555  -0.24E-07*   0.55E-05    0.69E-05     0.25E-04   0.55E+03   QNRc2DIIS    1.
   9  -101.290572287 -1205.136976684  1370.513071667  -0.15E-09    0.67E-06    0.78E-06     0.79E-04   0.55E+03   QNRc2DIIS    1.

       Convergence after  9 Macro Iterations
--

 *****************************************************************************************************************************
 *                                                                                                                           *
 *                                             SCF/KS-DFT Program, Final results                                             *
 *                                                                                                                           *
 *                                                                                                                           *
 *                                                                                                                           *
 *                                                       Final Results                                                       *
 *                                                                                                                           *
 *****************************************************************************************************************************

::    Total SCF energy                              -4101.2905722867
      One-electron energy                           -5205.1369766839
      Two-electron energy                            1370.5130716665
      Nuclear repulsion energy                       -266.6666672693
      Kinetic energy (interpolated)                  4430.9003957369
      Virial theorem                                    0.9256110962
      Total spin, S(S+1)                                0.0000000000
      Total spin, S                                     0.0000000000
      Max non-diagonal density matrix element           0.0000004208
      Max non-diagonal Fock matrix element              0.0000001192


      All orbitals with orbital energies smaller than  E(LUMO)+0.5 are printed

++    Molecular orbitals:
      -------------------

      Title: SCF orbitals

      Molecular orbitals for symmetry species 1: a  

          Orbital            1         2         3         4         5         6         7         8         9        10    
          Energy         -737.6293 -105.8753  -94.3678  -94.3678  -94.3383  -17.8258  -14.0359  -14.0359  -13.7602   -7.8168
          Occ. No.          2.0000    2.0000    2.0000    2.0000    2.0000    2.0000    2.0000    2.0000    2.0000    2.0000

        1 MO     1s         1.0000    0.0000    0.0000   -0.0000   -0.0000   -0.0000   -0.0000   -0.0000    0.0000   -0.0000
        2 MO     2s        -0.0000    1.0000    0.0000   -0.0000   -0.0052    0.0008    0.0000    0.0000   -0.0004   -0.0000
        3 MO     3s         0.0000   -0.0009   -0.0000    0.0000    0.0002    0.9982    0.0000    0.0000   -0.0521   -0.0000
        4 MO     4s        -0.0000    0.0003    0.0000   -0.0000   -0.0001    0.0074    0.0000    0.0000    0.0011    0.0000
        5 MO     5s         0.0000   -0.0001   -0.0000    0.0000    0.0000   -0.0011   -0.0000    0.0000   -0.0003   -0.0000
        6 MO     6s        -0.0000    0.0001    0.0000   -0.0000   -0.0000    0.0011    0.0000    0.0000    0.0004    0.0000
        7 MO     7s         0.0000   -0.0002   -0.0000    0.0000    0.0000   -0.0016   -0.0000   -0.0000   -0.0013   -0.0000
        8 MO     8s        -0.0000    0.0002    0.0000   -0.0000   -0.0000   -0.0008    0.0000   -0.0000    0.0014    0.0000
        9 MO     9s         0.0000   -0.0002   -0.0000    0.0000    0.0000    0.0023   -0.0000   -0.0000   -0.0014   -0.0000
       10 MO    10s        -0.0000    0.0003    0.0000   -0.0000   -0.0001   -0.0033   -0.0000   -0.0000    0.0010    0.0000
       11 MO     2px       -0.0000   -0.0000    0.9988   -0.0493   -0.0000    0.0000    0.0008    0.0000   -0.0000   -0.0001
       12 MO     3px        0.0000   -0.0000   -0.0008    0.0000    0.0000   -0.0000    0.9977    0.0001   -0.0000    0.0005
       13 MO     4px       -0.0000    0.0000    0.0003   -0.0000   -0.0000    0.0000    0.0113    0.0000   -0.0000   -0.0013
       14 MO     5px        0.0000   -0.0000   -0.0001    0.0000    0.0000   -0.0000   -0.0027   -0.0000    0.0000    0.0004
       15 MO     6px       -0.0000    0.0000    0.0002   -0.0000   -0.0000    0.0000    0.0045    0.0000   -0.0000   -0.0009
       16 MO     7px        0.0000   -0.0000   -0.0002    0.0000    0.0000   -0.0000   -0.0015   -0.0000    0.0000    0.0007
       17 MO     8px       -0.0000    0.0000    0.0002   -0.0000   -0.0000   -0.0000   -0.0012   -0.0000    0.0000   -0.0008
       18 MO     9px        0.0000   -0.0000   -0.0002    0.0000    0.0000    0.0000    0.0030    0.0000   -0.0000    0.0006
       19 MO    10px       -0.0000    0.0000    0.0002   -0.0000   -0.0000   -0.0000   -0.0021   -0.0000    0.0000   -0.0001
       20 MO     2py        0.0000    0.0000    0.0493    0.9988   -0.0000    0.0000   -0.0000    0.0008   -0.0000   -0.0000
       21 MO     3py        0.0000   -0.0000   -0.0000   -0.0008    0.0000    0.0000   -0.0001    0.9977   -0.0000    0.0000
       22 MO     4py        0.0000    0.0000    0.0000    0.0003   -0.0000   -0.0000   -0.0000    0.0113   -0.0000   -0.0000
       23 MO     5py        0.0000   -0.0000   -0.0000   -0.0001    0.0000    0.0000    0.0000   -0.0027    0.0000    0.0000
       24 MO     6py       -0.0000    0.0000    0.0000    0.0002   -0.0000   -0.0000   -0.0000    0.0045    0.0000   -0.0000
       25 MO     7py        0.0000   -0.0000   -0.0000   -0.0002    0.0000    0.0000    0.0000   -0.0015   -0.0000    0.0000
       26 MO     8py       -0.0000    0.0000    0.0000    0.0002   -0.0000   -0.0000    0.0000   -0.0012   -0.0000   -0.0000
       27 MO     9py        0.0000   -0.0000   -0.0000   -0.0002    0.0000    0.0000   -0.0000    0.0030    0.0000    0.0000
       28 MO    10py       -0.0000    0.0000    0.0000    0.0002   -0.0000   -0.0000    0.0000   -0.0021    0.0000   -0.0000
       29 MO     2pz        0.0000    0.0052    0.0000   -0.0000    1.0000   -0.0002    0.0000   -0.0000    0.0011    0.0000
       30 MO     3pz       -0.0000    0.0003   -0.0000    0.0000   -0.0011    0.0516    0.0000    0.0000    0.9979    0.0000
       31 MO     4pz        0.0000   -0.0001    0.0000   -0.0000    0.0003    0.0008    0.0000    0.0000    0.0094   -0.0000
       32 MO     5pz       -0.0000    0.0000   -0.0000    0.0000   -0.0001   -0.0003   -0.0000   -0.0000   -0.0019    0.0000
       33 MO     6pz        0.0000   -0.0001    0.0000   -0.0000    0.0003    0.0008    0.0000   -0.0000    0.0023   -0.0000
       34 MO     7pz       -0.0000    0.0001   -0.0000    0.0000   -0.0002   -0.0008    0.0000    0.0000    0.0007    0.0000
       35 MO     8pz        0.0000   -0.0001    0.0000   -0.0000    0.0003    0.0011   -0.0000   -0.0000   -0.0041   -0.0000
       36 MO     9pz       -0.0000    0.0001   -0.0000    0.0000   -0.0003   -0.0010    0.0000    0.0000    0.0056    0.0000
       37 MO    10pz        0.0000   -0.0001    0.0000   -0.0000    0.0003    0.0005   -0.0000   -0.0000   -0.0029   -0.0000
       38 MO     3d2-       0.0000    0.0000    0.0000    0.0003   -0.0000   -0.0000   -0.0000    0.0339   -0.0000   -0.0000
       39 MO     4d2-       0.0000   -0.0000   -0.0000   -0.0000    0.0000   -0.0000   -0.0000    0.0016   -0.0000   -0.0000
       40 MO     5d2-      -0.0000    0.0000    0.0000    0.0000    0.0000   -0.0000    0.0000   -0.0021   -0.0000    0.0000
       41 MO     6d2-       0.0000   -0.0000   -0.0000   -0.0000   -0.0000    0.0000   -0.0000    0.0023    0.0000   -0.0000
       42 MO     7d2-      -0.0000    0.0000    0.0000    0.0000   -0.0000    0.0000    0.0000   -0.0025    0.0000    0.0000
       43 MO     8d2-      -0.0000   -0.0000   -0.0000   -0.0000    0.0000    0.0000   -0.0000    0.0032    0.0000   -0.0000
       44 MO     9d2-       0.0000    0.0000    0.0000    0.0000    0.0000   -0.0000    0.0000   -0.0029   -0.0000   -0.0000
       45 MO    10d2-      -0.0000   -0.0000   -0.0000   -0.0000    0.0000    0.0000   -0.0000    0.0033    0.0000    0.0000
       46 MO    11d2-      -0.0000    0.0000   -0.0000   -0.0000    0.0000    0.0000   -0.0000    0.0005    0.0000   -0.0000
       47 MO     3d1-       0.0000   -0.0000    0.0000    0.0007   -0.0000    0.0000   -0.0000    0.0550   -0.0000    0.0000
       48 MO     4d1-       0.0000    0.0000   -0.0000   -0.0001    0.0000    0.0000   -0.0000    0.0020    0.0000    0.0000
       49 MO     5d1-      -0.0000   -0.0000    0.0000    0.0001   -0.0000   -0.0000    0.0000   -0.0027    0.0000   -0.0000
       50 MO     6d1-      -0.0000    0.0000   -0.0000   -0.0001    0.0000    0.0000   -0.0000    0.0029    0.0000    0.0000
       51 MO     7d1-       0.0000   -0.0000    0.0000    0.0001   -0.0000   -0.0000    0.0000   -0.0033   -0.0000   -0.0000
       52 MO     8d1-      -0.0000    0.0000   -0.0000   -0.0001    0.0000    0.0000   -0.0000    0.0043   -0.0000    0.0000
       53 MO     9d1-       0.0000   -0.0000    0.0000    0.0001   -0.0000   -0.0000    0.0000   -0.0040    0.0000   -0.0000
       54 MO    10d1-      -0.0000    0.0000   -0.0000   -0.0002    0.0000   -0.0000   -0.0000    0.0046    0.0000   -0.0000
       55 MO    11d1-       0.0000   -0.0000    0.0000    0.0001   -0.0000    0.0000   -0.0000    0.0003    0.0000    0.0000
       56 MO     3d0       -0.0000   -0.0003    0.0000   -0.0000    0.0001   -0.0174   -0.0000    0.0000   -0.0299   -0.0000
       57 MO     4d0        0.0000    0.0001   -0.0000    0.0000   -0.0000   -0.0006   -0.0000    0.0000   -0.0022   -0.0000
       58 MO     5d0       -0.0000   -0.0001    0.0000   -0.0000    0.0000    0.0009    0.0000    0.0000    0.0028    0.0000
       59 MO     6d0        0.0000    0.0001   -0.0000    0.0000   -0.0000   -0.0011   -0.0000   -0.0000   -0.0029   -0.0000
       60 MO     7d0       -0.0000   -0.0001    0.0000   -0.0000    0.0000    0.0013    0.0000    0.0000    0.0032    0.0000
       61 MO     8d0        0.0000    0.0001   -0.0000    0.0000   -0.0001   -0.0018   -0.0000   -0.0000   -0.0040   -0.0000
       62 MO     9d0       -0.0000   -0.0001    0.0000   -0.0000    0.0001    0.0018    0.0000    0.0000    0.0035    0.0000
       63 MO    10d0        0.0000    0.0001   -0.0000    0.0000   -0.0001   -0.0022   -0.0000   -0.0000   -0.0038    0.0000
       64 MO    11d0       -0.0000   -0.0000    0.0000   -0.0000    0.0001   -0.0000   -0.0000    0.0000   -0.0010   -0.0000
       65 MO     3d1+       0.0000    0.0000    0.0007   -0.0000   -0.0000    0.0000    0.0550    0.0000   -0.0000    0.5169
       66 MO     4d1+      -0.0000   -0.0000   -0.0001    0.0000    0.0000   -0.0000    0.0020    0.0000   -0.0000    0.0104
       67 MO     5d1+       0.0000    0.0000    0.0001   -0.0000   -0.0000    0.0000   -0.0027   -0.0000    0.0000   -0.0088
       68 MO     6d1+      -0.0000   -0.0000   -0.0001    0.0000    0.0000   -0.0000    0.0029    0.0000   -0.0000    0.0053
       69 MO     7d1+       0.0000    0.0000    0.0001   -0.0000   -0.0000   -0.0000   -0.0033   -0.0000    0.0000   -0.0029
       70 MO     8d1+      -0.0000   -0.0000   -0.0001    0.0000    0.0000    0.0000    0.0043    0.0000   -0.0000    0.0014
       71 MO     9d1+       0.0000    0.0000    0.0001   -0.0000   -0.0000   -0.0000   -0.0040   -0.0000    0.0000   -0.0001
       72 MO    10d1+      -0.0000   -0.0000   -0.0002    0.0000    0.0000    0.0000    0.0046    0.0000   -0.0000   -0.0008
       73 MO    11d1+       0.0000    0.0000    0.0001   -0.0000   -0.0000   -0.0000    0.0003    0.0000    0.0000    0.0006
       74 MO     3d2+       0.0000    0.0000   -0.0003    0.0000    0.0000    0.0000   -0.0339   -0.0000    0.0000    0.8554
       75 MO     4d2+       0.0000   -0.0000    0.0000   -0.0000   -0.0000    0.0000   -0.0016   -0.0000   -0.0000    0.0163
       76 MO     5d2+      -0.0000    0.0000   -0.0000    0.0000    0.0000   -0.0000    0.0021    0.0000   -0.0000   -0.0135
       77 MO     6d2+      -0.0000   -0.0000    0.0000   -0.0000   -0.0000    0.0000   -0.0023   -0.0000    0.0000    0.0078
       78 MO     7d2+       0.0000    0.0000   -0.0000    0.0000    0.0000   -0.0000    0.0025    0.0000   -0.0000   -0.0037
       79 MO     8d2+      -0.0000   -0.0000    0.0000   -0.0000   -0.0000    0.0000   -0.0032   -0.0000    0.0000    0.0011
       80 MO     9d2+       0.0000    0.0000   -0.0000    0.0000    0.0000   -0.0000    0.0029    0.0000   -0.0000    0.0008
       81 MO    10d2+      -0.0000   -0.0000    0.0000   -0.0000   -0.0000    0.0000   -0.0033   -0.0000    0.0000   -0.0024
       82 MO    11d2+       0.0000    0.0000    0.0000   -0.0000   -0.0000    0.0000   -0.0005   -0.0000   -0.0000    0.0005
       83 MO     4f3-      -0.0000    0.0000    0.0000    0.0000    0.0000   -0.0000   -0.0000    0.0000   -0.0000   -0.0000
       84 MO     5f3-      -0.0000    0.0000    0.0000    0.0000    0.0000    0.0000   -0.0000    0.0000    0.0000    0.0000
       85 MO     6f3-       0.0000   -0.0000   -0.0000   -0.0000   -0.0000   -0.0000    0.0000   -0.0000    0.0000   -0.0000
       86 MO     7f3-       0.0000    0.0000    0.0000    0.0000    0.0000    0.0000   -0.0000    0.0000   -0.0000    0.0000
       87 MO     8f3-       0.0000   -0.0000    0.0000    0.0000   -0.0000    0.0000   -0.0000    0.0000    0.0000   -0.0000
       88 MO     9f3-      -0.0000    0.0000   -0.0000   -0.0000   -0.0000   -0.0000    0.0000   -0.0000    0.0000   -0.0000
       89 MO     4f2-       0.0000   -0.0000   -0.0000   -0.0000    0.0000   -0.0000    0.0000   -0.0028    0.0000   -0.0000
       90 MO     5f2-       0.0000   -0.0000   -0.0000   -0.0000    0.0000   -0.0000    0.0000   -0.0033    0.0000   -0.0000
       91 MO     6f2-      -0.0000    0.0000    0.0000    0.0000   -0.0000    0.0000   -0.0000    0.0034    0.0000    0.0000
       92 MO     7f2-       0.0000   -0.0000   -0.0000   -0.0000    0.0000   -0.0000    0.0000   -0.0031   -0.0000   -0.0000
       93 MO     8f2-       0.0000   -0.0000   -0.0000   -0.0000    0.0000   -0.0000    0.0000   -0.0018    0.0000   -0.0000
       94 MO     9f2-      -0.0000    0.0000    0.0000    0.0001   -0.0000    0.0000   -0.0000    0.0070   -0.0000    0.0000
       95 MO     4f1-      -0.0000    0.0000   -0.0000   -0.0000    0.0000    0.0000    0.0000   -0.0016   -0.0000    0.0000
       96 MO     5f1-      -0.0000    0.0000   -0.0000   -0.0000   -0.0000    0.0000    0.0000   -0.0018    0.0000    0.0000
       97 MO     6f1-       0.0000   -0.0000    0.0000    0.0000   -0.0000   -0.0000   -0.0000    0.0018    0.0000   -0.0000
       98 MO     7f1-       0.0000   -0.0000   -0.0000   -0.0000    0.0000    0.0000    0.0000   -0.0016   -0.0000    0.0000
       99 MO     8f1-      -0.0000   -0.0000   -0.0000   -0.0000   -0.0000    0.0000    0.0000   -0.0010    0.0000    0.0000
      100 MO     9f1-       0.0000    0.0000    0.0000    0.0001    0.0000    0.0000   -0.0000    0.0040   -0.0000   -0.0000
      101 MO     4f0       -0.0000   -0.0000   -0.0000    0.0000   -0.0000   -0.0053   -0.0000   -0.0000   -0.0021    0.0000
      102 MO     5f0       -0.0000   -0.0000   -0.0000    0.0000   -0.0000   -0.0063   -0.0000   -0.0000   -0.0024    0.0000
      103 MO     6f0       -0.0000    0.0000    0.0000   -0.0000    0.0000    0.0065    0.0000    0.0000    0.0024   -0.0000
      104 MO     7f0        0.0000   -0.0000   -0.0000    0.0000   -0.0000   -0.0060   -0.0000   -0.0000   -0.0021    0.0000
      105 MO     8f0       -0.0000   -0.0000   -0.0000    0.0000   -0.0000   -0.0037   -0.0000   -0.0000   -0.0013    0.0000
      106 MO     9f0        0.0000    0.0003    0.0000   -0.0000    0.0001    0.0150    0.0000    0.0000    0.0052   -0.0000
      107 MO     4f1+      -0.0000   -0.0000   -0.0000    0.0000    0.0000   -0.0000   -0.0016   -0.0000    0.0000    0.0019
      108 MO     5f1+      -0.0000   -0.0000   -0.0000    0.0000    0.0000   -0.0000   -0.0018   -0.0000    0.0000    0.0020
      109 MO     6f1+      -0.0000    0.0000    0.0000   -0.0000   -0.0000    0.0000    0.0018    0.0000   -0.0000   -0.0018
      110 MO     7f1+       0.0000   -0.0000   -0.0000    0.0000    0.0000   -0.0000   -0.0016   -0.0000    0.0000    0.0014
      111 MO     8f1+      -0.0000   -0.0000   -0.0000    0.0000    0.0000   -0.0000   -0.0010   -0.0000    0.0000    0.0008
      112 MO     9f1+       0.0000    0.0000    0.0001   -0.0000   -0.0000    0.0000    0.0040    0.0000   -0.0000   -0.0035
      113 MO     4f2+      -0.0000    0.0000    0.0000   -0.0000   -0.0000   -0.0000    0.0028    0.0000   -0.0000    0.0054
      114 MO     5f2+      -0.0000    0.0000    0.0000   -0.0000   -0.0000   -0.0000    0.0033    0.0000   -0.0000    0.0058
      115 MO     6f2+       0.0000    0.0000   -0.0000    0.0000    0.0000    0.0000   -0.0034   -0.0000    0.0000   -0.0052
      116 MO     7f2+      -0.0000    0.0000    0.0000   -0.0000   -0.0000   -0.0000    0.0031    0.0000   -0.0000    0.0043
      117 MO     8f2+      -0.0000    0.0000    0.0000   -0.0000   -0.0000   -0.0000    0.0018    0.0000   -0.0000    0.0024
      118 MO     9f2+       0.0000   -0.0000   -0.0001    0.0000    0.0000    0.0000   -0.0070   -0.0000    0.0000   -0.0096
      119 MO     4f3+      -0.0000   -0.0000    0.0000   -0.0000    0.0000   -0.0034    0.0000    0.0000    0.0029    0.0000
      120 MO     5f3+      -0.0000   -0.0000    0.0000   -0.0000    0.0000   -0.0041    0.0000    0.0000    0.0034    0.0000
      121 MO     6f3+      -0.0000    0.0000   -0.0000    0.0000   -0.0000    0.0042   -0.0000   -0.0000   -0.0034   -0.0000
      122 MO     7f3+       0.0000   -0.0000    0.0000   -0.0000    0.0000   -0.0039    0.0000    0.0000    0.0031    0.0000
      123 MO     8f3+      -0.0000   -0.0000    0.0000   -0.0000    0.0000   -0.0024    0.0000    0.0000    0.0018   -0.0000
      124 MO     9f3+       0.0000    0.0002   -0.0000    0.0000   -0.0001    0.0097   -0.0000   -0.0000   -0.0071    0.0000
      125 MO     5g4-      -0.0000   -0.0000   -0.0000   -0.0000    0.0000   -0.0000    0.0000   -0.0018    0.0000    0.0000
      126 MO     6g4-      -0.0000   -0.0000    0.0000    0.0000   -0.0000    0.0000   -0.0000    0.0023   -0.0000   -0.0000
      127 MO     7g4-       0.0000    0.0000   -0.0000   -0.0000    0.0000   -0.0000    0.0000   -0.0033    0.0000    0.0000
      128 MO     8g4-      -0.0000   -0.0000    0.0000    0.0000   -0.0000    0.0000   -0.0000    0.0041   -0.0000   -0.0000
      129 MO     5g3-       0.0000    0.0000   -0.0000   -0.0000    0.0000    0.0000    0.0000   -0.0000    0.0000    0.0000
      130 MO     6g3-      -0.0000   -0.0000    0.0000    0.0000   -0.0000   -0.0000   -0.0000    0.0000   -0.0000    0.0000
      131 MO     7g3-       0.0000    0.0000   -0.0000   -0.0000    0.0000    0.0000    0.0000   -0.0000    0.0000   -0.0000
      132 MO     8g3-      -0.0000   -0.0000    0.0000    0.0000    0.0000   -0.0000   -0.0000    0.0000   -0.0000    0.0000
      133 MO     5g2-      -0.0000   -0.0000    0.0000    0.0000   -0.0000   -0.0000   -0.0000    0.0003   -0.0000    0.0000
      134 MO     6g2-       0.0000    0.0000   -0.0000   -0.0000    0.0000    0.0000    0.0000   -0.0004    0.0000   -0.0000
      135 MO     7g2-      -0.0000   -0.0000    0.0000    0.0000   -0.0000   -0.0000   -0.0000    0.0006   -0.0000    0.0000
      136 MO     8g2-       0.0000    0.0000   -0.0000   -0.0000    0.0000   -0.0000    0.0000   -0.0008    0.0000   -0.0000
      137 MO     5g1-       0.0000   -0.0000   -0.0000   -0.0000    0.0000   -0.0000    0.0000   -0.0021    0.0000   -0.0000
      138 MO     6g1-      -0.0000    0.0000    0.0000    0.0000   -0.0000    0.0000   -0.0000    0.0027   -0.0000    0.0000
      139 MO     7g1-       0.0000   -0.0000   -0.0000   -0.0000    0.0000   -0.0000    0.0000   -0.0039    0.0000   -0.0000
      140 MO     8g1-      -0.0000    0.0000    0.0000    0.0000   -0.0000    0.0000   -0.0000    0.0048   -0.0000    0.0000
      141 MO     5g0        0.0000   -0.0000   -0.0000    0.0000   -0.0000   -0.0002   -0.0000   -0.0000   -0.0037   -0.0000
      142 MO     6g0       -0.0000    0.0000    0.0000   -0.0000    0.0000    0.0003    0.0000    0.0000    0.0048    0.0000
      143 MO     7g0        0.0000   -0.0000   -0.0000    0.0000   -0.0001   -0.0005   -0.0000   -0.0000   -0.0069   -0.0000
      144 MO     8g0       -0.0000    0.0000    0.0000   -0.0000    0.0001    0.0006    0.0000    0.0000    0.0087    0.0000
      145 MO     5g1+       0.0000   -0.0000   -0.0000    0.0000    0.0000    0.0000   -0.0021   -0.0000    0.0000   -0.0015
      146 MO     6g1+      -0.0000    0.0000    0.0000   -0.0000   -0.0000   -0.0000    0.0027    0.0000   -0.0000    0.0017
      147 MO     7g1+       0.0000   -0.0000   -0.0000    0.0000    0.0000    0.0000   -0.0039   -0.0000    0.0000   -0.0022
      148 MO     8g1+      -0.0000    0.0000    0.0000   -0.0000   -0.0000   -0.0000    0.0048    0.0000   -0.0000    0.0027
      149 MO     5g2+       0.0000   -0.0000   -0.0000    0.0000    0.0000   -0.0000   -0.0003   -0.0000   -0.0000   -0.0004
      150 MO     6g2+      -0.0000    0.0000    0.0000   -0.0000   -0.0000    0.0000    0.0004    0.0000   -0.0000    0.0004
      151 MO     7g2+       0.0000   -0.0000   -0.0000    0.0000    0.0000   -0.0000   -0.0006   -0.0000    0.0000   -0.0005
      152 MO     8g2+      -0.0000    0.0000    0.0000   -0.0000   -0.0000    0.0000    0.0008    0.0000   -0.0000    0.0006
      153 MO     5g3+      -0.0000    0.0000   -0.0000    0.0000   -0.0000    0.0018   -0.0000   -0.0000   -0.0023   -0.0000
      154 MO     6g3+       0.0000   -0.0000    0.0000   -0.0000    0.0000   -0.0025    0.0000    0.0000    0.0030    0.0000
      155 MO     7g3+      -0.0000    0.0000   -0.0000    0.0000   -0.0000    0.0037   -0.0000   -0.0000   -0.0044   -0.0000
      156 MO     8g3+       0.0000   -0.0000    0.0000   -0.0000    0.0000   -0.0047    0.0000    0.0000    0.0056    0.0000
      157 MO     5g4+       0.0000   -0.0000   -0.0000    0.0000    0.0000   -0.0000   -0.0018   -0.0000    0.0000    0.0003
      158 MO     6g4+      -0.0000    0.0000    0.0000   -0.0000   -0.0000    0.0000    0.0023    0.0000   -0.0000   -0.0003
      159 MO     7g4+       0.0000   -0.0000   -0.0000    0.0000    0.0000   -0.0000   -0.0033   -0.0000    0.0000    0.0004
      160 MO     8g4+      -0.0000    0.0000    0.0000   -0.0000   -0.0000    0.0000    0.0041    0.0000   -0.0000   -0.0005
      161 MO     6h5-      -0.0000   -0.0000    0.0000    0.0000   -0.0000   -0.0000   -0.0000    0.0002   -0.0000    0.0000
      162 MO     7h5-       0.0000    0.0000   -0.0000   -0.0000    0.0000    0.0000    0.0000   -0.0002   -0.0000   -0.0000
      163 MO     6h4-      -0.0000    0.0000    0.0000    0.0000   -0.0000    0.0000   -0.0000    0.0009   -0.0000   -0.0000
      164 MO     7h4-       0.0000   -0.0000   -0.0000   -0.0000    0.0000   -0.0000    0.0000   -0.0010    0.0000    0.0000
      165 MO     6h3-      -0.0000   -0.0000    0.0000    0.0000   -0.0000   -0.0000    0.0000    0.0000    0.0000   -0.0000
      166 MO     7h3-       0.0000    0.0000   -0.0000   -0.0000    0.0000    0.0000   -0.0000   -0.0000    0.0000    0.0000
      167 MO     6h2-      -0.0000    0.0000    0.0000    0.0000   -0.0000    0.0000   -0.0000    0.0003   -0.0000    0.0000
      168 MO     7h2-       0.0000   -0.0000   -0.0000   -0.0000    0.0000   -0.0000    0.0000   -0.0003    0.0000   -0.0000
      169 MO     6h1-      -0.0000   -0.0000    0.0000    0.0000   -0.0000   -0.0000   -0.0000    0.0002   -0.0000   -0.0000
      170 MO     7h1-       0.0000    0.0000   -0.0000   -0.0000    0.0000    0.0000    0.0000   -0.0003   -0.0000    0.0000
      171 MO     6h0        0.0000   -0.0000   -0.0000    0.0000   -0.0000   -0.0003   -0.0000   -0.0000   -0.0006   -0.0000
      172 MO     7h0       -0.0000    0.0000    0.0000   -0.0000    0.0000    0.0003    0.0000    0.0000    0.0007    0.0000
      173 MO     6h1+      -0.0000    0.0000    0.0000   -0.0000   -0.0000    0.0000    0.0002    0.0000   -0.0000   -0.0007
      174 MO     7h1+       0.0000   -0.0000   -0.0000    0.0000    0.0000   -0.0000   -0.0003   -0.0000    0.0000    0.0008
      175 MO     6h2+      -0.0000    0.0000   -0.0000    0.0000    0.0000    0.0000   -0.0003   -0.0000    0.0000   -0.0008
      176 MO     7h2+       0.0000   -0.0000    0.0000   -0.0000   -0.0000   -0.0000    0.0003    0.0000   -0.0000    0.0009
      177 MO     6h3+       0.0000   -0.0000    0.0000   -0.0000    0.0000   -0.0004    0.0000    0.0000    0.0008   -0.0000
      178 MO     7h3+      -0.0000    0.0000   -0.0000    0.0000   -0.0000    0.0005   -0.0000   -0.0000   -0.0009    0.0000
      179 MO     6h4+      -0.0000    0.0000    0.0000   -0.0000   -0.0000    0.0000    0.0009    0.0000   -0.0000   -0.0004
      180 MO     7h4+       0.0000   -0.0000   -0.0000    0.0000    0.0000   -0.0000   -0.0010   -0.0000    0.0000    0.0004
      181 MO     6h5+      -0.0000    0.0000   -0.0000    0.0000    0.0000    0.0000   -0.0002   -0.0000   -0.0000   -0.0011
      182 MO     7h5+       0.0000   -0.0000    0.0000   -0.0000   -0.0000   -0.0000    0.0002    0.0000    0.0000    0.0011

          Orbital           11        12        13        14        15        16        17        18        19        20    
          Energy           -7.8168   -7.5051   -7.4767   -7.4767   -2.6713   -1.7170   -1.7170   -1.6217   -0.4039   -0.3007
          Occ. No.          2.0000    2.0000    2.0000    2.0000    2.0000    2.0000    2.0000    2.0000    0.0000    0.0000

        1 MO     1s        -0.0000    0.0000   -0.0000   -0.0000   -0.0000    0.0000   -0.0000   -0.0000   -0.0000   -0.0000
        2 MO     2s        -0.0000    0.0003    0.0000   -0.0000    0.0003   -0.0000    0.0000    0.0001    0.0001    0.0000
        3 MO     3s        -0.0000    0.0157    0.0000   -0.0000    0.0075   -0.0000    0.0000    0.0004    0.0017    0.0000
        4 MO     4s         0.0000   -0.0057   -0.0000    0.0000   -0.9809   -0.0000    0.0000   -0.0745   -0.0761   -0.0000
        5 MO     5s        -0.0000    0.0010    0.0000   -0.0000   -0.0892    0.0000   -0.0000   -0.0265    0.9850    0.0000
        6 MO     6s         0.0000   -0.0011   -0.0000    0.0000    0.0807   -0.0000   -0.0000    0.0205   -0.0231    0.0000
        7 MO     7s         0.0000    0.0030    0.0000   -0.0000   -0.1176    0.0000    0.0000   -0.0222   -0.1232   -0.0000
        8 MO     8s         0.0000   -0.0022   -0.0000    0.0000    0.0104   -0.0000    0.0000   -0.0023   -0.0375   -0.0000
        9 MO     9s        -0.0000    0.0019    0.0000   -0.0000    0.0014    0.0000    0.0000    0.0005   -0.0083   -0.0000
       10 MO    10s         0.0000   -0.0007   -0.0000    0.0000   -0.0022   -0.0000    0.0000   -0.0005   -0.0009   -0.0000
       11 MO     2px       -0.0000   -0.0000    0.0000   -0.0008    0.0000   -0.0002    0.0000    0.0000    0.0000    0.0000
       12 MO     3px        0.0000   -0.0000    0.0000   -0.0643    0.0000   -0.0100    0.0000    0.0000    0.0000    0.0015
       13 MO     4px       -0.0000    0.0000   -0.0000    0.0082    0.0000    0.9781   -0.0001   -0.0000   -0.0000   -0.0304
       14 MO     5px        0.0000   -0.0000    0.0000   -0.0027   -0.0000    0.1222   -0.0000   -0.0000   -0.0000    0.6591
       15 MO     6px       -0.0000    0.0000   -0.0000    0.0067    0.0000   -0.1427    0.0000    0.0000    0.0000    0.2097
       16 MO     7px        0.0000   -0.0000    0.0000   -0.0057   -0.0000    0.0228   -0.0000   -0.0000   -0.0000    0.0760
       17 MO     8px       -0.0000    0.0000   -0.0000    0.0064    0.0000    0.0044   -0.0000   -0.0000    0.0000    0.0039
       18 MO     9px        0.0000   -0.0000    0.0000   -0.0052   -0.0000    0.0054   -0.0000   -0.0000   -0.0000   -0.0064
       19 MO    10px       -0.0000    0.0000   -0.0000    0.0009   -0.0000    0.0030   -0.0000   -0.0000   -0.0000   -0.0016
       20 MO     2py        0.0001    0.0000   -0.0008   -0.0000   -0.0000   -0.0000   -0.0002    0.0000    0.0000   -0.0000
       21 MO     3py       -0.0005    0.0000   -0.0643   -0.0000    0.0000   -0.0000   -0.0100    0.0000   -0.0000   -0.0000
       22 MO     4py        0.0013   -0.0000    0.0082    0.0000    0.0000    0.0001    0.9781   -0.0000    0.0000    0.0000
       23 MO     5py       -0.0004    0.0000   -0.0027   -0.0000   -0.0000    0.0000    0.1222    0.0000   -0.0000   -0.0004
       24 MO     6py        0.0009   -0.0000    0.0067    0.0000    0.0000   -0.0000   -0.1427    0.0000   -0.0000   -0.0001
       25 MO     7py       -0.0007    0.0000   -0.0057   -0.0000   -0.0000    0.0000    0.0228    0.0000   -0.0000   -0.0000
       26 MO     8py        0.0008   -0.0000    0.0064    0.0000    0.0000    0.0000    0.0044    0.0000   -0.0000   -0.0000
       27 MO     9py       -0.0006    0.0000   -0.0052   -0.0000   -0.0000    0.0000    0.0054   -0.0000    0.0000    0.0000
       28 MO    10py        0.0001   -0.0000    0.0009    0.0000    0.0000    0.0000    0.0030   -0.0000   -0.0000    0.0000
       29 MO     2pz        0.0000   -0.0000    0.0000    0.0000   -0.0000    0.0000    0.0000   -0.0003   -0.0000    0.0000
       30 MO     3pz        0.0000    0.0305    0.0000   -0.0000    0.0019    0.0000    0.0000   -0.0086    0.0004    0.0000
       31 MO     4pz       -0.0000   -0.0080   -0.0000    0.0000   -0.0820    0.0000    0.0000    0.9696    0.0088    0.0000
       32 MO     5pz        0.0000    0.0025    0.0000   -0.0000    0.0027    0.0000    0.0000    0.1504    0.0705    0.0000
       33 MO     6pz       -0.0000   -0.0059   -0.0000    0.0000   -0.0023   -0.0000   -0.0000   -0.1666   -0.0004    0.0000
       34 MO     7pz       -0.0000    0.0049    0.0000   -0.0000   -0.0002    0.0000    0.0000    0.0216   -0.0038    0.0000
       35 MO     8pz       -0.0000   -0.0053   -0.0000    0.0000    0.0003    0.0000   -0.0000    0.0064   -0.0027    0.0000
       36 MO     9pz       -0.0000    0.0043    0.0000   -0.0000   -0.0001    0.0000   -0.0000    0.0064   -0.0011   -0.0000
       37 MO    10pz        0.0000   -0.0005   -0.0000   -0.0000    0.0003    0.0000   -0.0000    0.0039    0.0000   -0.0000
       38 MO     3d2-       0.8554   -0.0000    0.5153    0.0000   -0.0000   -0.0000   -0.0052    0.0000    0.0000   -0.0000
       39 MO     4d2-       0.0163   -0.0000    0.0074    0.0000    0.0000    0.0000    0.0379   -0.0000    0.0000    0.0004
       40 MO     5d2-      -0.0135    0.0000   -0.0048   -0.0000   -0.0000   -0.0000   -0.0172   -0.0000    0.0000    0.0002
       41 MO     6d2-       0.0078   -0.0000    0.0012    0.0000    0.0000    0.0000    0.0045   -0.0000    0.0000    0.0001
       42 MO     7d2-      -0.0037   -0.0000    0.0015    0.0000   -0.0000   -0.0000   -0.0018   -0.0000   -0.0000    0.0000
       43 MO     8d2-       0.0011    0.0000   -0.0038   -0.0000    0.0000    0.0000    0.0015    0.0000   -0.0000   -0.0000
       44 MO     9d2-       0.0008   -0.0000    0.0042    0.0000   -0.0000   -0.0000   -0.0007    0.0000    0.0000   -0.0000
       45 MO    10d2-      -0.0024    0.0000   -0.0052   -0.0000   -0.0000   -0.0000   -0.0004    0.0000    0.0000   -0.0000
       46 MO    11d2-       0.0005    0.0000   -0.0005   -0.0000    0.0000    0.0000    0.0004    0.0000    0.0000   -0.0000
       47 MO     3d1-      -0.5169   -0.0000    0.8536    0.0000   -0.0000   -0.0000   -0.0068    0.0000   -0.0000   -0.0000
       48 MO     4d1-      -0.0104   -0.0000    0.0134    0.0000    0.0000    0.0000    0.0650   -0.0000    0.0000    0.0001
       49 MO     5d1-       0.0088    0.0000   -0.0093   -0.0000   -0.0000   -0.0000   -0.0287    0.0000    0.0000    0.0000
       50 MO     6d1-      -0.0053   -0.0000    0.0033    0.0000    0.0000    0.0000    0.0068    0.0000    0.0000    0.0000
       51 MO     7d1-       0.0029   -0.0000    0.0012    0.0000   -0.0000   -0.0000   -0.0023    0.0000    0.0000    0.0000
       52 MO     8d1-      -0.0014    0.0000   -0.0048   -0.0000    0.0000    0.0000    0.0019   -0.0000   -0.0000   -0.0000
       53 MO     9d1-       0.0001   -0.0000    0.0059    0.0000   -0.0000   -0.0000   -0.0010   -0.0000   -0.0000   -0.0000
       54 MO    10d1-       0.0008    0.0000   -0.0076   -0.0000    0.0000   -0.0000   -0.0007    0.0000   -0.0000   -0.0000
       55 MO    11d1-      -0.0006   -0.0000   -0.0003   -0.0000   -0.0000    0.0000    0.0006   -0.0000   -0.0000   -0.0000
       56 MO     3d0        0.0000    0.9988    0.0000   -0.0000   -0.0062    0.0000    0.0000    0.0065   -0.0018    0.0000
       57 MO     4d0       -0.0000    0.0162    0.0000   -0.0000    0.0220   -0.0000   -0.0000   -0.0274    0.0371   -0.0000
       58 MO     5d0        0.0000   -0.0116   -0.0000    0.0000   -0.0143    0.0000    0.0000    0.0127    0.0019   -0.0000
       59 MO     6d0        0.0000    0.0046    0.0000   -0.0000    0.0061   -0.0000   -0.0000   -0.0041    0.0013   -0.0000
       60 MO     7d0       -0.0000    0.0006    0.0000   -0.0000   -0.0026    0.0000    0.0000    0.0022   -0.0008   -0.0000
       61 MO     8d0       -0.0000   -0.0047   -0.0000    0.0000    0.0015   -0.0000    0.0000   -0.0018    0.0002    0.0000
       62 MO     9d0        0.0000    0.0060    0.0000   -0.0000   -0.0007   -0.0000   -0.0000    0.0009   -0.0002    0.0000
       63 MO    10d0        0.0000   -0.0080   -0.0000    0.0000   -0.0002    0.0000   -0.0000    0.0004   -0.0001    0.0000
       64 MO    11d0        0.0000   -0.0001   -0.0000    0.0000    0.0004    0.0000   -0.0000   -0.0004    0.0001    0.0000
       65 MO     3d1+       0.0000    0.0000   -0.0000    0.8536   -0.0000   -0.0068    0.0000   -0.0000   -0.0000    0.0014
       66 MO     4d1+       0.0000    0.0000   -0.0000    0.0134   -0.0000    0.0650   -0.0000   -0.0000   -0.0000   -0.0858
       67 MO     5d1+      -0.0000   -0.0000    0.0000   -0.0093    0.0000   -0.0287    0.0000    0.0000   -0.0000   -0.0372
       68 MO     6d1+       0.0000    0.0000   -0.0000    0.0033   -0.0000    0.0068   -0.0000   -0.0000   -0.0000   -0.0138
       69 MO     7d1+      -0.0000    0.0000   -0.0000    0.0012    0.0000   -0.0023    0.0000    0.0000    0.0000   -0.0034
       70 MO     8d1+       0.0000   -0.0000    0.0000   -0.0048   -0.0000    0.0019   -0.0000   -0.0000   -0.0000    0.0018
       71 MO     9d1+      -0.0000    0.0000   -0.0000    0.0059    0.0000   -0.0010    0.0000    0.0000    0.0000    0.0016
       72 MO    10d1+      -0.0000   -0.0000    0.0000   -0.0076   -0.0000   -0.0007    0.0000   -0.0000   -0.0000    0.0002
       73 MO    11d1+       0.0000   -0.0000    0.0000   -0.0003   -0.0000    0.0006   -0.0000   -0.0000   -0.0000    0.0000
       74 MO     3d2+       0.0000   -0.0000    0.0000   -0.5153    0.0000    0.0052   -0.0000    0.0000    0.0000   -0.0079
       75 MO     4d2+       0.0000   -0.0000    0.0000   -0.0074   -0.0000   -0.0379    0.0000   -0.0000   -0.0000    0.6126
       76 MO     5d2+      -0.0000    0.0000   -0.0000    0.0048    0.0000    0.0172   -0.0000    0.0000   -0.0000    0.3331
       77 MO     6d2+       0.0000   -0.0000    0.0000   -0.0012   -0.0000   -0.0045    0.0000   -0.0000   -0.0000    0.1317
       78 MO     7d2+      -0.0000   -0.0000    0.0000   -0.0015    0.0000    0.0018   -0.0000    0.0000    0.0000    0.0392
       79 MO     8d2+       0.0000    0.0000   -0.0000    0.0038   -0.0000   -0.0015    0.0000   -0.0000    0.0000   -0.0166
       80 MO     9d2+       0.0000   -0.0000    0.0000   -0.0042    0.0000    0.0007   -0.0000    0.0000    0.0000   -0.0159
       81 MO    10d2+      -0.0000    0.0000   -0.0000    0.0052    0.0000    0.0004   -0.0000    0.0000    0.0000   -0.0030
       82 MO    11d2+       0.0000    0.0000   -0.0000    0.0005   -0.0000   -0.0004    0.0000    0.0000   -0.0000   -0.0007
       83 MO     4f3-      -0.0000   -0.0000   -0.0000    0.0000    0.0000    0.0000    0.0000    0.0000    0.0000    0.0000
       84 MO     5f3-      -0.0000   -0.0000   -0.0000    0.0000    0.0000    0.0000    0.0000   -0.0000   -0.0000    0.0000
       85 MO     6f3-       0.0000    0.0000    0.0000   -0.0000    0.0000   -0.0000   -0.0000   -0.0000   -0.0000    0.0000
       86 MO     7f3-      -0.0000   -0.0000   -0.0000    0.0000   -0.0000    0.0000    0.0000   -0.0000   -0.0000    0.0000
       87 MO     8f3-      -0.0000   -0.0000   -0.0000   -0.0000   -0.0000    0.0000    0.0000    0.0000    0.0000   -0.0000
       88 MO     9f3-       0.0000    0.0000    0.0000   -0.0000    0.0000   -0.0000   -0.0000   -0.0000    0.0000   -0.0000
       89 MO     4f2-       0.0054   -0.0000    0.0113    0.0000   -0.0000   -0.0000   -0.0089    0.0000   -0.0000    0.0000
       90 MO     5f2-       0.0058   -0.0000    0.0123    0.0000   -0.0000   -0.0000   -0.0057    0.0000   -0.0000   -0.0000
       91 MO     6f2-      -0.0052    0.0000   -0.0112   -0.0000    0.0000    0.0000    0.0032   -0.0000    0.0000   -0.0000
       92 MO     7f2-       0.0043   -0.0000    0.0094    0.0000   -0.0000   -0.0000   -0.0021    0.0000   -0.0000   -0.0000
       93 MO     8f2-       0.0024   -0.0000    0.0053    0.0000   -0.0000   -0.0000   -0.0009    0.0000   -0.0000    0.0000
       94 MO     9f2-      -0.0096    0.0000   -0.0200   -0.0000    0.0000    0.0000    0.0018    0.0000   -0.0000    0.0000
       95 MO     4f1-      -0.0019   -0.0000    0.0019    0.0000    0.0000   -0.0000   -0.0088    0.0000    0.0000   -0.0000
       96 MO     5f1-      -0.0020   -0.0000    0.0020    0.0000   -0.0000   -0.0000   -0.0042    0.0000   -0.0000   -0.0000
       97 MO     6f1-       0.0018    0.0000   -0.0017   -0.0000    0.0000    0.0000    0.0016   -0.0000   -0.0000   -0.0000
       98 MO     7f1-      -0.0014   -0.0000    0.0015    0.0000   -0.0000   -0.0000   -0.0010   -0.0000   -0.0000   -0.0000
       99 MO     8f1-      -0.0008   -0.0000    0.0009    0.0000   -0.0000   -0.0000   -0.0004   -0.0000    0.0000    0.0000
      100 MO     9f1-       0.0035    0.0000   -0.0036   -0.0000    0.0000    0.0000    0.0006    0.0000    0.0000    0.0000
      101 MO     4f0        0.0000   -0.0052   -0.0000    0.0000    0.0283    0.0000   -0.0000   -0.0108    0.0111    0.0000
      102 MO     5f0        0.0000   -0.0058   -0.0000    0.0000    0.0185    0.0000   -0.0000   -0.0048    0.0051    0.0000
      103 MO     6f0       -0.0000    0.0056    0.0000   -0.0000   -0.0102   -0.0000    0.0000    0.0018   -0.0041   -0.0000
      104 MO     7f0        0.0000   -0.0047   -0.0000    0.0000    0.0064    0.0000   -0.0000   -0.0012    0.0022    0.0000
      105 MO     8f0        0.0000   -0.0026   -0.0000    0.0000    0.0026    0.0000   -0.0000   -0.0005    0.0010   -0.0000
      106 MO     9f0       -0.0000    0.0092    0.0000   -0.0000   -0.0045   -0.0000    0.0000    0.0007   -0.0019   -0.0000
      107 MO     4f1+       0.0000    0.0000   -0.0000    0.0019    0.0000   -0.0088    0.0000    0.0000    0.0000    0.0020
      108 MO     5f1+       0.0000    0.0000   -0.0000    0.0020    0.0000   -0.0042    0.0000    0.0000    0.0000    0.0023
      109 MO     6f1+      -0.0000   -0.0000    0.0000   -0.0017   -0.0000    0.0016   -0.0000   -0.0000   -0.0000    0.0008
      110 MO     7f1+       0.0000    0.0000   -0.0000    0.0015    0.0000   -0.0010    0.0000    0.0000    0.0000    0.0010
      111 MO     8f1+       0.0000    0.0000   -0.0000    0.0009    0.0000   -0.0004    0.0000    0.0000    0.0000   -0.0003
      112 MO     9f1+      -0.0000   -0.0000    0.0000   -0.0036   -0.0000    0.0006   -0.0000    0.0000   -0.0000   -0.0002
      113 MO     4f2+       0.0000   -0.0000    0.0000   -0.0113    0.0000    0.0089   -0.0000    0.0000    0.0000    0.0151
      114 MO     5f2+       0.0000   -0.0000    0.0000   -0.0123    0.0000    0.0057   -0.0000    0.0000    0.0000   -0.0031
      115 MO     6f2+      -0.0000    0.0000   -0.0000    0.0112   -0.0000   -0.0032    0.0000   -0.0000   -0.0000   -0.0035
      116 MO     7f2+       0.0000   -0.0000    0.0000   -0.0094    0.0000    0.0021   -0.0000    0.0000    0.0000   -0.0015
      117 MO     8f2+       0.0000   -0.0000    0.0000   -0.0053    0.0000    0.0009   -0.0000    0.0000    0.0000    0.0009
      118 MO     9f2+      -0.0000    0.0000   -0.0000    0.0200   -0.0000   -0.0018    0.0000   -0.0000   -0.0000    0.0003
      119 MO     4f3+       0.0000    0.0044    0.0000   -0.0000    0.0179    0.0000   -0.0000    0.0105    0.0079    0.0000
      120 MO     5f3+       0.0000    0.0047    0.0000   -0.0000    0.0117    0.0000   -0.0000    0.0061    0.0033   -0.0000
      121 MO     6f3+      -0.0000   -0.0042   -0.0000    0.0000   -0.0064   -0.0000    0.0000   -0.0032   -0.0028   -0.0000
      122 MO     7f3+       0.0000    0.0035    0.0000   -0.0000    0.0040    0.0000   -0.0000    0.0022    0.0014   -0.0000
      123 MO     8f3+       0.0000    0.0020    0.0000   -0.0000    0.0016    0.0000   -0.0000    0.0009    0.0007    0.0000
      124 MO     9f3+      -0.0000   -0.0074   -0.0000    0.0000   -0.0028   -0.0000    0.0000   -0.0017   -0.0013   -0.0000
      125 MO     5g4-      -0.0003   -0.0000    0.0021    0.0000   -0.0000   -0.0000   -0.0068    0.0000   -0.0000   -0.0000
      126 MO     6g4-       0.0003    0.0000   -0.0025   -0.0000    0.0000    0.0000    0.0035   -0.0000   -0.0000    0.0000
      127 MO     7g4-      -0.0004   -0.0000    0.0034    0.0000   -0.0000   -0.0000   -0.0024    0.0000    0.0000   -0.0000
      128 MO     8g4-       0.0005    0.0000   -0.0042   -0.0000    0.0000    0.0000    0.0020   -0.0000   -0.0000    0.0000
      129 MO     5g3-      -0.0000   -0.0000    0.0000    0.0000    0.0000   -0.0000   -0.0000    0.0000    0.0000   -0.0000
      130 MO     6g3-      -0.0000    0.0000   -0.0000   -0.0000   -0.0000    0.0000    0.0000   -0.0000    0.0000    0.0000
      131 MO     7g3-       0.0000   -0.0000    0.0000    0.0000    0.0000   -0.0000   -0.0000   -0.0000    0.0000   -0.0000
      132 MO     8g3-      -0.0000   -0.0000   -0.0000   -0.0000   -0.0000    0.0000    0.0000    0.0000    0.0000    0.0000
      133 MO     5g2-      -0.0004    0.0000   -0.0020   -0.0000    0.0000   -0.0000   -0.0002   -0.0000    0.0000   -0.0000
      134 MO     6g2-       0.0004   -0.0000    0.0023    0.0000   -0.0000   -0.0000   -0.0002    0.0000   -0.0000   -0.0000
      135 MO     7g2-      -0.0005    0.0000   -0.0031   -0.0000    0.0000    0.0000    0.0003   -0.0000    0.0000   -0.0000
      136 MO     8g2-       0.0006   -0.0000    0.0038    0.0000   -0.0000   -0.0000   -0.0003    0.0000   -0.0000   -0.0000
      137 MO     5g1-       0.0015   -0.0000    0.0005    0.0000   -0.0000   -0.0000   -0.0087    0.0000   -0.0000   -0.0000
      138 MO     6g1-      -0.0017    0.0000   -0.0007   -0.0000    0.0000    0.0000    0.0043   -0.0000    0.0000    0.0000
      139 MO     7g1-       0.0022   -0.0000    0.0012    0.0000   -0.0000   -0.0000   -0.0029    0.0000    0.0000   -0.0000
      140 MO     8g1-      -0.0027    0.0000   -0.0016   -0.0000    0.0000    0.0000    0.0023   -0.0000   -0.0000    0.0000
      141 MO     5g0       -0.0000   -0.0037   -0.0000    0.0000    0.0014   -0.0000   -0.0000   -0.0127   -0.0000    0.0000
      142 MO     6g0        0.0000    0.0043    0.0000   -0.0000   -0.0009    0.0000    0.0000    0.0066   -0.0001    0.0000
      143 MO     7g0       -0.0000   -0.0058   -0.0000    0.0000    0.0007   -0.0000    0.0000   -0.0048    0.0001    0.0000
      144 MO     8g0        0.0000    0.0072    0.0000   -0.0000   -0.0006    0.0000   -0.0000    0.0040   -0.0001   -0.0000
      145 MO     5g1+      -0.0000    0.0000   -0.0000    0.0005   -0.0000   -0.0087    0.0000   -0.0000   -0.0000    0.0008
      146 MO     6g1+       0.0000   -0.0000    0.0000   -0.0007    0.0000    0.0043   -0.0000    0.0000    0.0000   -0.0003
      147 MO     7g1+      -0.0000    0.0000   -0.0000    0.0012   -0.0000   -0.0029    0.0000   -0.0000   -0.0000    0.0005
      148 MO     8g1+       0.0000   -0.0000    0.0000   -0.0016    0.0000    0.0023   -0.0000    0.0000    0.0000   -0.0002
      149 MO     5g2+      -0.0000    0.0000   -0.0000    0.0020   -0.0000    0.0002   -0.0000   -0.0000    0.0000   -0.0018
      150 MO     6g2+       0.0000   -0.0000    0.0000   -0.0023    0.0000    0.0002   -0.0000    0.0000    0.0000   -0.0004
      151 MO     7g2+      -0.0000    0.0000   -0.0000    0.0031   -0.0000   -0.0003    0.0000   -0.0000    0.0000   -0.0005
      152 MO     8g2+       0.0000   -0.0000    0.0000   -0.0038    0.0000    0.0003   -0.0000    0.0000    0.0000   -0.0000
      153 MO     5g3+      -0.0000   -0.0008   -0.0000    0.0000   -0.0063   -0.0000    0.0000   -0.0074   -0.0018   -0.0000
      154 MO     6g3+       0.0000    0.0010    0.0000   -0.0000    0.0044    0.0000   -0.0000    0.0040    0.0015   -0.0000
      155 MO     7g3+      -0.0000   -0.0014   -0.0000    0.0000   -0.0036   -0.0000    0.0000   -0.0030   -0.0012   -0.0000
      156 MO     8g3+       0.0000    0.0017    0.0000   -0.0000    0.0033    0.0000   -0.0000    0.0026    0.0012    0.0000
      157 MO     5g4+       0.0000    0.0000   -0.0000    0.0021    0.0000   -0.0068    0.0000    0.0000    0.0000    0.0007
      158 MO     6g4+      -0.0000   -0.0000    0.0000   -0.0025   -0.0000    0.0035   -0.0000   -0.0000   -0.0000   -0.0003
      159 MO     7g4+       0.0000    0.0000   -0.0000    0.0034    0.0000   -0.0024    0.0000    0.0000    0.0000    0.0004
      160 MO     8g4+      -0.0000   -0.0000    0.0000   -0.0042   -0.0000    0.0020   -0.0000   -0.0000   -0.0000   -0.0002
      161 MO     6h5-      -0.0011    0.0000   -0.0010   -0.0000   -0.0000    0.0000    0.0003    0.0000    0.0000   -0.0000
      162 MO     7h5-       0.0011   -0.0000    0.0011    0.0000    0.0000   -0.0000   -0.0003   -0.0000   -0.0000    0.0000
      163 MO     6h4-       0.0004    0.0000   -0.0016   -0.0000    0.0000    0.0000    0.0026   -0.0000    0.0000    0.0000
      164 MO     7h4-      -0.0004   -0.0000    0.0017    0.0000   -0.0000   -0.0000   -0.0019    0.0000   -0.0000   -0.0000
      165 MO     6h3-       0.0000    0.0000   -0.0000    0.0000   -0.0000    0.0000    0.0000    0.0000    0.0000   -0.0000
      166 MO     7h3-      -0.0000   -0.0000    0.0000   -0.0000    0.0000   -0.0000   -0.0000   -0.0000   -0.0000   -0.0000
      167 MO     6h2-      -0.0008    0.0000   -0.0009   -0.0000    0.0000    0.0000    0.0008   -0.0000   -0.0000   -0.0000
      168 MO     7h2-       0.0009   -0.0000    0.0009    0.0000   -0.0000   -0.0000   -0.0006    0.0000    0.0000    0.0000
      169 MO     6h1-       0.0007    0.0000   -0.0020   -0.0000   -0.0000    0.0000    0.0002    0.0000    0.0000   -0.0000
      170 MO     7h1-      -0.0008   -0.0000    0.0022    0.0000    0.0000   -0.0000   -0.0003   -0.0000    0.0000    0.0000
      171 MO     6h0        0.0000   -0.0028   -0.0000    0.0000    0.0007   -0.0000    0.0000   -0.0010    0.0000    0.0000
      172 MO     7h0        0.0000    0.0030    0.0000   -0.0000   -0.0007    0.0000   -0.0000    0.0009   -0.0001   -0.0000
      173 MO     6h1+      -0.0000   -0.0000    0.0000   -0.0020    0.0000    0.0002   -0.0000    0.0000    0.0000    0.0003
      174 MO     7h1+       0.0000    0.0000   -0.0000    0.0022   -0.0000   -0.0003    0.0000   -0.0000   -0.0000   -0.0001
      175 MO     6h2+      -0.0000    0.0000   -0.0000    0.0009   -0.0000   -0.0008    0.0000   -0.0000   -0.0000   -0.0009
      176 MO     7h2+       0.0000   -0.0000    0.0000   -0.0009    0.0000    0.0006   -0.0000    0.0000    0.0000    0.0004
      177 MO     6h3+      -0.0000   -0.0006   -0.0000    0.0000    0.0011    0.0000   -0.0000    0.0027    0.0003    0.0000
      178 MO     7h3+      -0.0000    0.0006    0.0000   -0.0000   -0.0011   -0.0000   -0.0000   -0.0019   -0.0004   -0.0000
      179 MO     6h4+      -0.0000   -0.0000    0.0000   -0.0016   -0.0000    0.0026   -0.0000   -0.0000   -0.0000   -0.0001
      180 MO     7h4+       0.0000    0.0000   -0.0000    0.0017    0.0000   -0.0019    0.0000    0.0000    0.0000    0.0002
      181 MO     6h5+      -0.0000    0.0000   -0.0000    0.0010   -0.0000   -0.0003    0.0000   -0.0000   -0.0000   -0.0011
      182 MO     7h5+       0.0000   -0.0000    0.0000   -0.0011    0.0000    0.0003   -0.0000    0.0000    0.0000    0.0005

          Orbital           21        22        23        24        25        26        27        28        29        30    
          Energy           -0.3007   -0.2975   -0.2975   -0.2924   -0.2813   -0.2813   -0.2810   -0.1865   -0.1546   -0.1546
          Occ. No.          0.0000    0.0000    0.0000    0.0000    0.0000    0.0000    0.0000    0.0000    0.0000    0.0000

        1 MO     1s        -0.0000    0.0000   -0.0000    0.0000   -0.0000    0.0000   -0.0000    0.0000    0.0000   -0.0000
        2 MO     2s        -0.0000    0.0000   -0.0000   -0.0000   -0.0000   -0.0000   -0.0000   -0.0000   -0.0000    0.0000
        3 MO     3s        -0.0000    0.0000   -0.0000   -0.0001    0.0000   -0.0000   -0.0000   -0.0010   -0.0000    0.0000
        4 MO     4s         0.0000   -0.0000    0.0000    0.0153    0.0000    0.0000    0.0018    0.0417    0.0000   -0.0000
        5 MO     5s        -0.0000    0.0000   -0.0000   -0.0682    0.0000    0.0000    0.0145    0.0630   -0.0000    0.0000
        6 MO     6s        -0.0000    0.0000   -0.0000   -0.0379    0.0000    0.0000   -0.0006    0.9508    0.0000   -0.0000
        7 MO     7s         0.0000   -0.0000    0.0000    0.0156   -0.0000   -0.0000   -0.0009    0.2650    0.0000   -0.0000
        8 MO     8s         0.0000   -0.0000   -0.0000    0.0094   -0.0000   -0.0000   -0.0000    0.1185    0.0000   -0.0000
        9 MO     9s         0.0000   -0.0000   -0.0000    0.0034   -0.0000   -0.0000   -0.0001    0.0315    0.0000   -0.0000
       10 MO    10s         0.0000   -0.0000    0.0000    0.0006    0.0000    0.0000    0.0000    0.0025    0.0000   -0.0000
       11 MO     2px       -0.0000    0.0000   -0.0000    0.0000    0.0001    0.0000   -0.0000   -0.0000   -0.0000    0.0000
       12 MO     3px       -0.0000   -0.0009    0.0000    0.0000    0.0011    0.0000   -0.0000   -0.0000   -0.0001    0.0000
       13 MO     4px        0.0000    0.0238   -0.0000   -0.0000   -0.0674   -0.0000    0.0000    0.0000   -0.0016    0.0000
       14 MO     5px       -0.0004   -0.4748    0.0001    0.0000    0.4549    0.0000   -0.0000   -0.0000   -0.0010    0.0000
       15 MO     6px       -0.0001   -0.1567    0.0000    0.0000    0.2063    0.0000   -0.0000   -0.0000    0.0106   -0.0000
       16 MO     7px       -0.0000   -0.0590    0.0000    0.0000    0.0910    0.0000   -0.0000   -0.0000    0.0118   -0.0000
       17 MO     8px       -0.0000   -0.0043    0.0000    0.0000    0.0140    0.0000   -0.0000   -0.0000    0.0055   -0.0000
       18 MO     9px        0.0000    0.0041   -0.0000   -0.0000   -0.0013   -0.0000    0.0000    0.0000    0.0022   -0.0000
       19 MO    10px        0.0000    0.0011   -0.0000   -0.0000   -0.0012   -0.0000    0.0000    0.0000    0.0003   -0.0000
       20 MO     2py       -0.0000   -0.0000   -0.0000    0.0000   -0.0000    0.0001   -0.0000    0.0000    0.0000    0.0000
       21 MO     3py       -0.0015    0.0000    0.0009    0.0000   -0.0000    0.0011   -0.0000    0.0000    0.0000    0.0001
       22 MO     4py        0.0304   -0.0000   -0.0238    0.0000    0.0000   -0.0674    0.0000    0.0000    0.0000    0.0016
       23 MO     5py       -0.6591    0.0001    0.4748    0.0000   -0.0000    0.4549   -0.0000   -0.0000    0.0000    0.0010
       24 MO     6py       -0.2097    0.0000    0.1567    0.0000   -0.0000    0.2063   -0.0000   -0.0000   -0.0000   -0.0106
       25 MO     7py       -0.0760    0.0000    0.0590    0.0000   -0.0000    0.0910   -0.0000   -0.0000   -0.0000   -0.0118
       26 MO     8py       -0.0039    0.0000    0.0043    0.0000   -0.0000    0.0140   -0.0000   -0.0000   -0.0000   -0.0055
       27 MO     9py        0.0064   -0.0000   -0.0041    0.0000    0.0000   -0.0013    0.0000   -0.0000   -0.0000   -0.0022
       28 MO    10py        0.0016   -0.0000   -0.0011    0.0000    0.0000   -0.0012    0.0000   -0.0000   -0.0000   -0.0003
       29 MO     2pz        0.0000   -0.0000   -0.0000    0.0001   -0.0000   -0.0000   -0.0000    0.0000    0.0000   -0.0000
       30 MO     3pz        0.0000   -0.0000   -0.0000    0.0016   -0.0000   -0.0000   -0.0008   -0.0002    0.0000   -0.0000
       31 MO     4pz       -0.0000   -0.0000    0.0000   -0.0567    0.0000    0.0000    0.0620   -0.0052   -0.0000    0.0000
       32 MO     5pz        0.0000    0.0000   -0.0000    0.7193   -0.0000   -0.0000   -0.5650    0.0095    0.0000    0.0000
       33 MO     6pz        0.0000    0.0000   -0.0000    0.2652   -0.0000   -0.0000   -0.2423    0.0366    0.0000   -0.0000
       34 MO     7pz        0.0000    0.0000   -0.0000    0.1053   -0.0000   -0.0000   -0.1073    0.0338    0.0000   -0.0000
       35 MO     8pz       -0.0000    0.0000   -0.0000    0.0108   -0.0000   -0.0000   -0.0169    0.0145    0.0000   -0.0000
       36 MO     9pz       -0.0000   -0.0000    0.0000   -0.0053    0.0000    0.0000    0.0015    0.0053    0.0000   -0.0000
       37 MO    10pz        0.0000   -0.0000    0.0000   -0.0018    0.0000    0.0000    0.0014    0.0006    0.0000   -0.0000
       38 MO     3d2-      -0.0079   -0.0000   -0.0057    0.0000    0.0000   -0.0025    0.0000   -0.0000    0.0000    0.0052
       39 MO     4d2-       0.6126    0.0001    0.4933   -0.0000   -0.0000    0.3200   -0.0000    0.0000   -0.0004   -0.2541
       40 MO     5d2-       0.3331    0.0001    0.2780   -0.0000   -0.0000    0.2135   -0.0000   -0.0000    0.0004    0.1992
       41 MO     6d2-       0.1317    0.0000    0.1112   -0.0000   -0.0000    0.0955   -0.0000   -0.0000    0.0009    0.5244
       42 MO     7d2-       0.0392    0.0000    0.0348   -0.0000   -0.0000    0.0348   -0.0000   -0.0000    0.0010    0.5805
       43 MO     8d2-      -0.0166   -0.0000   -0.0136    0.0000    0.0000   -0.0081    0.0000   -0.0000    0.0006    0.3403
       44 MO     9d2-      -0.0159   -0.0000   -0.0133    0.0000    0.0000   -0.0113    0.0000   -0.0000    0.0002    0.1066
       45 MO    10d2-      -0.0030   -0.0000   -0.0027    0.0000    0.0000   -0.0023    0.0000    0.0000   -0.0000   -0.0020
       46 MO    11d2-      -0.0007   -0.0000   -0.0006    0.0000    0.0000   -0.0006    0.0000   -0.0000    0.0000    0.0001
       47 MO     3d1-      -0.0014    0.0000    0.0072    0.0000    0.0000   -0.0053    0.0000   -0.0000   -0.0000   -0.0024
       48 MO     4d1-       0.0858   -0.0001   -0.5517   -0.0000   -0.0000    0.6099   -0.0000    0.0000    0.0002    0.1088
       49 MO     5d1-       0.0372   -0.0001   -0.3007   -0.0000   -0.0000    0.4088   -0.0000   -0.0000   -0.0002   -0.0867
       50 MO     6d1-       0.0138   -0.0000   -0.1205   -0.0000   -0.0000    0.1852   -0.0000   -0.0000   -0.0004   -0.2258
       51 MO     7d1-       0.0034   -0.0000   -0.0366   -0.0000   -0.0000    0.0671   -0.0000   -0.0000   -0.0004   -0.2498
       52 MO     8d1-      -0.0018    0.0000    0.0144    0.0000    0.0000   -0.0151    0.0000   -0.0000   -0.0003   -0.1462
       53 MO     9d1-      -0.0016    0.0000    0.0145    0.0000    0.0000   -0.0221    0.0000   -0.0000   -0.0001   -0.0458
       54 MO    10d1-      -0.0002    0.0000    0.0029    0.0000    0.0000   -0.0046    0.0000    0.0000    0.0000    0.0008
       55 MO    11d1-      -0.0000    0.0000    0.0006    0.0000    0.0000   -0.0011    0.0000    0.0000   -0.0000   -0.0000
       56 MO     3d0       -0.0000    0.0000   -0.0000   -0.0065   -0.0000   -0.0000   -0.0056    0.0009   -0.0000    0.0000
       57 MO     4d0        0.0000   -0.0000    0.0000    0.5208    0.0000    0.0000    0.6333    0.0007    0.0000   -0.0000
       58 MO     5d0        0.0000   -0.0000    0.0000    0.3150    0.0000    0.0000    0.4088    0.0283   -0.0000    0.0000
       59 MO     6d0        0.0000   -0.0000    0.0000    0.1352    0.0000    0.0000    0.1814    0.0274   -0.0000    0.0000
       60 MO     7d0        0.0000   -0.0000    0.0000    0.0435    0.0000    0.0000    0.0654    0.0212   -0.0000    0.0000
       61 MO     8d0       -0.0000    0.0000   -0.0000   -0.0138   -0.0000   -0.0000   -0.0154    0.0074   -0.0000    0.0000
       62 MO     9d0       -0.0000    0.0000   -0.0000   -0.0165   -0.0000   -0.0000   -0.0215    0.0003   -0.0000    0.0000
       63 MO    10d0       -0.0000    0.0000   -0.0000   -0.0032   -0.0000   -0.0000   -0.0045   -0.0007    0.0000   -0.0000
       64 MO    11d0       -0.0000    0.0000   -0.0000   -0.0007   -0.0000   -0.0000   -0.0010   -0.0001   -0.0000    0.0000
       65 MO     3d1+      -0.0000   -0.0072    0.0000   -0.0000   -0.0053   -0.0000    0.0000    0.0000    0.0024   -0.0000
       66 MO     4d1+       0.0001    0.5517   -0.0001    0.0000    0.6099    0.0000   -0.0000   -0.0000   -0.1088    0.0002
       67 MO     5d1+       0.0000    0.3007   -0.0001    0.0000    0.4088    0.0000   -0.0000   -0.0000    0.0867   -0.0002
       68 MO     6d1+       0.0000    0.1205   -0.0000    0.0000    0.1852    0.0000   -0.0000   -0.0000    0.2258   -0.0004
       69 MO     7d1+       0.0000    0.0366   -0.0000    0.0000    0.0671    0.0000   -0.0000   -0.0000    0.2498   -0.0004
       70 MO     8d1+      -0.0000   -0.0144    0.0000   -0.0000   -0.0151   -0.0000    0.0000   -0.0000    0.1462   -0.0003
       71 MO     9d1+      -0.0000   -0.0145    0.0000   -0.0000   -0.0221   -0.0000    0.0000   -0.0000    0.0458   -0.0001
       72 MO    10d1+      -0.0000   -0.0029    0.0000   -0.0000   -0.0046   -0.0000    0.0000    0.0000   -0.0008    0.0000
       73 MO    11d1+      -0.0000   -0.0006    0.0000   -0.0000   -0.0011   -0.0000    0.0000    0.0000    0.0000   -0.0000
       74 MO     3d2+       0.0000   -0.0057    0.0000   -0.0000    0.0025    0.0000   -0.0000   -0.0000    0.0052   -0.0000
       75 MO     4d2+      -0.0004    0.4933   -0.0001    0.0000   -0.3200   -0.0000    0.0000   -0.0000   -0.2541    0.0004
       76 MO     5d2+      -0.0002    0.2780   -0.0001   -0.0000   -0.2135   -0.0000    0.0000   -0.0000    0.1992   -0.0004
       77 MO     6d2+      -0.0001    0.1112   -0.0000    0.0000   -0.0955   -0.0000    0.0000   -0.0000    0.5244   -0.0009
       78 MO     7d2+      -0.0000    0.0348   -0.0000   -0.0000   -0.0348   -0.0000    0.0000   -0.0000    0.5805   -0.0010
       79 MO     8d2+       0.0000   -0.0136    0.0000    0.0000    0.0081    0.0000   -0.0000   -0.0000    0.3403   -0.0006
       80 MO     9d2+       0.0000   -0.0133    0.0000   -0.0000    0.0113    0.0000   -0.0000   -0.0000    0.1066   -0.0002
       81 MO    10d2+       0.0000   -0.0027    0.0000   -0.0000    0.0023    0.0000   -0.0000    0.0000   -0.0020    0.0000
       82 MO    11d2+       0.0000   -0.0006    0.0000    0.0000    0.0006    0.0000   -0.0000    0.0000    0.0001   -0.0000
       83 MO     4f3-       0.0000   -0.0000    0.0000   -0.0000    0.0000   -0.0000    0.0000   -0.0000   -0.0000   -0.0000
       84 MO     5f3-       0.0000    0.0000   -0.0000    0.0000   -0.0000   -0.0000   -0.0000    0.0000    0.0000    0.0000
       85 MO     6f3-       0.0000    0.0000   -0.0000   -0.0000   -0.0000    0.0000   -0.0000    0.0000    0.0000    0.0000
       86 MO     7f3-       0.0000    0.0000   -0.0000   -0.0000   -0.0000   -0.0000   -0.0000    0.0000    0.0000    0.0000
       87 MO     8f3-      -0.0000   -0.0000    0.0000    0.0000    0.0000    0.0000   -0.0000   -0.0000   -0.0000   -0.0000
       88 MO     9f3-      -0.0000   -0.0000   -0.0000    0.0000   -0.0000    0.0000   -0.0000   -0.0000    0.0000    0.0000
       89 MO     4f2-       0.0151    0.0000    0.0096   -0.0000   -0.0000    0.0161   -0.0000   -0.0000   -0.0000   -0.0107
       90 MO     5f2-      -0.0031   -0.0000   -0.0019    0.0000    0.0000   -0.0004    0.0000   -0.0000    0.0000    0.0017
       91 MO     6f2-      -0.0035   -0.0000   -0.0029    0.0000    0.0000   -0.0040    0.0000    0.0000    0.0000    0.0018
       92 MO     7f2-      -0.0015   -0.0000   -0.0009    0.0000    0.0000   -0.0005    0.0000   -0.0000   -0.0000   -0.0003
       93 MO     8f2-       0.0009    0.0000    0.0008   -0.0000   -0.0000    0.0012   -0.0000   -0.0000    0.0000    0.0008
       94 MO     9f2-       0.0003   -0.0000   -0.0002    0.0000    0.0000   -0.0005    0.0000    0.0000    0.0000    0.0001
       95 MO     4f1-      -0.0020   -0.0000   -0.0077   -0.0000   -0.0000    0.0081   -0.0000   -0.0000    0.0000    0.0038
       96 MO     5f1-      -0.0023    0.0000    0.0048    0.0000    0.0000   -0.0034    0.0000    0.0000   -0.0000   -0.0005
       97 MO     6f1-      -0.0008    0.0000    0.0035    0.0000    0.0000   -0.0033    0.0000    0.0000   -0.0000   -0.0001
       98 MO     7f1-      -0.0010    0.0000    0.0022    0.0000    0.0000   -0.0017    0.0000    0.0000    0.0000    0.0006
       99 MO     8f1-       0.0003   -0.0000   -0.0010   -0.0000   -0.0000    0.0011   -0.0000   -0.0000   -0.0000   -0.0009
      100 MO     9f1-       0.0002   -0.0000   -0.0002    0.0000   -0.0000    0.0000   -0.0000    0.0000   -0.0000   -0.0001
      101 MO     4f0       -0.0000    0.0000   -0.0000    0.0026   -0.0000   -0.0000   -0.0004   -0.0075   -0.0000    0.0000
      102 MO     5f0       -0.0000    0.0000   -0.0000   -0.0021   -0.0000   -0.0000   -0.0076   -0.0025    0.0000   -0.0000
      103 MO     6f0        0.0000    0.0000    0.0000   -0.0011   -0.0000   -0.0000   -0.0034    0.0028    0.0000   -0.0000
      104 MO     7f0       -0.0000    0.0000   -0.0000   -0.0009   -0.0000   -0.0000   -0.0037   -0.0011    0.0000   -0.0000
      105 MO     8f0       -0.0000   -0.0000   -0.0000    0.0004    0.0000    0.0000    0.0013   -0.0007   -0.0000    0.0000
      106 MO     9f0        0.0000   -0.0000    0.0000    0.0001    0.0000    0.0000    0.0006    0.0012    0.0000   -0.0000
      107 MO     4f1+      -0.0000    0.0077   -0.0000    0.0000    0.0081    0.0000   -0.0000   -0.0000   -0.0038    0.0000
      108 MO     5f1+      -0.0000   -0.0048    0.0000   -0.0000   -0.0034   -0.0000    0.0000   -0.0000    0.0005   -0.0000
      109 MO     6f1+      -0.0000   -0.0035    0.0000   -0.0000   -0.0033   -0.0000    0.0000    0.0000    0.0001   -0.0000
      110 MO     7f1+      -0.0000   -0.0022    0.0000   -0.0000   -0.0017   -0.0000    0.0000   -0.0000   -0.0006    0.0000
      111 MO     8f1+       0.0000    0.0010   -0.0000    0.0000    0.0011    0.0000   -0.0000   -0.0000    0.0009   -0.0000
      112 MO     9f1+       0.0000    0.0002   -0.0000   -0.0000    0.0000    0.0000   -0.0000    0.0000    0.0001   -0.0000
      113 MO     4f2+      -0.0000    0.0096   -0.0000   -0.0000   -0.0161   -0.0000    0.0000   -0.0000   -0.0107    0.0000
      114 MO     5f2+       0.0000   -0.0019    0.0000   -0.0000    0.0004    0.0000   -0.0000   -0.0000    0.0017   -0.0000
      115 MO     6f2+       0.0000   -0.0029    0.0000    0.0000    0.0040    0.0000   -0.0000    0.0000    0.0018   -0.0000
      116 MO     7f2+       0.0000   -0.0009    0.0000   -0.0000    0.0005    0.0000   -0.0000   -0.0000   -0.0003    0.0000
      117 MO     8f2+      -0.0000    0.0008   -0.0000    0.0000   -0.0012   -0.0000    0.0000   -0.0000    0.0008   -0.0000
      118 MO     9f2+      -0.0000   -0.0002    0.0000    0.0000    0.0005    0.0000   -0.0000    0.0000    0.0001   -0.0000
      119 MO     4f3+       0.0000    0.0000    0.0000    0.0014    0.0000    0.0000    0.0079   -0.0055   -0.0000    0.0000
      120 MO     5f3+       0.0000    0.0000   -0.0000   -0.0007    0.0000    0.0000    0.0010   -0.0014   -0.0000    0.0000
      121 MO     6f3+       0.0000    0.0000   -0.0000    0.0003   -0.0000   -0.0000   -0.0015    0.0022    0.0000   -0.0000
      122 MO     7f3+       0.0000    0.0000   -0.0000   -0.0004    0.0000    0.0000    0.0003   -0.0005   -0.0000    0.0000
      123 MO     8f3+      -0.0000   -0.0000    0.0000   -0.0001    0.0000    0.0000    0.0004   -0.0007    0.0000   -0.0000
      124 MO     9f3+       0.0000   -0.0000    0.0000    0.0004   -0.0000   -0.0000   -0.0004    0.0008    0.0000   -0.0000
      125 MO     5g4-      -0.0007   -0.0000   -0.0001   -0.0000   -0.0000    0.0023   -0.0000   -0.0000    0.0000    0.0002
      126 MO     6g4-       0.0003   -0.0000   -0.0002    0.0000    0.0000   -0.0007    0.0000    0.0000   -0.0000   -0.0000
      127 MO     7g4-      -0.0004    0.0000    0.0002   -0.0000   -0.0000    0.0008   -0.0000   -0.0000    0.0000    0.0000
      128 MO     8g4-       0.0002   -0.0000   -0.0001    0.0000    0.0000   -0.0005    0.0000    0.0000   -0.0000   -0.0000
      129 MO     5g3-      -0.0000   -0.0000   -0.0000    0.0000   -0.0000    0.0000    0.0000   -0.0000    0.0000    0.0000
      130 MO     6g3-       0.0000   -0.0000   -0.0000    0.0000    0.0000    0.0000   -0.0000    0.0000    0.0000    0.0000
      131 MO     7g3-      -0.0000   -0.0000   -0.0000    0.0000   -0.0000    0.0000   -0.0000   -0.0000    0.0000    0.0000
      132 MO     8g3-       0.0000   -0.0000   -0.0000   -0.0000    0.0000   -0.0000   -0.0000    0.0000   -0.0000   -0.0000
      133 MO     5g2-      -0.0018   -0.0000   -0.0004    0.0000    0.0000   -0.0017    0.0000   -0.0000    0.0000    0.0008
      134 MO     6g2-      -0.0004   -0.0000   -0.0005    0.0000   -0.0000    0.0000   -0.0000    0.0000    0.0000    0.0002
      135 MO     7g2-      -0.0005   -0.0000   -0.0002    0.0000    0.0000   -0.0005    0.0000    0.0000    0.0000    0.0001
      136 MO     8g2-      -0.0000   -0.0000   -0.0001   -0.0000   -0.0000    0.0002   -0.0000    0.0000   -0.0000   -0.0000
      137 MO     5g1-      -0.0008    0.0000    0.0036    0.0000    0.0000   -0.0002    0.0000   -0.0000   -0.0000   -0.0013
      138 MO     6g1-       0.0003    0.0000    0.0000    0.0000    0.0000   -0.0014    0.0000    0.0000    0.0000    0.0000
      139 MO     7g1-      -0.0005    0.0000    0.0012    0.0000   -0.0000    0.0001   -0.0000   -0.0000   -0.0000   -0.0003
      140 MO     8g1-       0.0002   -0.0000   -0.0003    0.0000    0.0000   -0.0006    0.0000    0.0000    0.0000    0.0001
      141 MO     5g0       -0.0000    0.0000   -0.0000   -0.0001   -0.0000   -0.0000   -0.0055   -0.0000   -0.0000    0.0000
      142 MO     6g0        0.0000    0.0000   -0.0000   -0.0015    0.0000    0.0000    0.0005    0.0000   -0.0000    0.0000
      143 MO     7g0       -0.0000    0.0000   -0.0000    0.0003   -0.0000   -0.0000   -0.0021   -0.0001   -0.0000    0.0000
      144 MO     8g0        0.0000   -0.0000   -0.0000   -0.0006    0.0000    0.0000    0.0009    0.0000    0.0000   -0.0000
      145 MO     5g1+      -0.0000   -0.0036    0.0000    0.0000   -0.0002   -0.0000    0.0000    0.0000    0.0013   -0.0000
      146 MO     6g1+       0.0000   -0.0000    0.0000   -0.0000   -0.0014   -0.0000    0.0000   -0.0000   -0.0000    0.0000
      147 MO     7g1+      -0.0000   -0.0012    0.0000    0.0000    0.0001    0.0000   -0.0000    0.0000    0.0003   -0.0000
[...]
         2   10       1.68676196E-01  6.02457312E+07  4.49678705E+03  7.35204146E-10  6.02502280E+07
         2   12       2.04225049E-01  5.24785381E-09  1.01121521E-17  8.14125082E+07  8.14125082E+07
         2   14       1.62147425E-01  6.52732417E+02  7.74677627E+07  7.42073439E-11  7.74684154E+07
         2   16       1.62147425E-01  7.74677629E+07  6.52732482E+02  2.37228762E-07  7.74684157E+07
         2   18       2.15511593E-01  1.32932063E-07  9.00131031E-11  1.04319175E+08  1.04319175E+08
         3    7       1.69606344E-03  6.27280084E+02  4.29316486E-01  6.19741296E+01  6.89683530E+02
         3    9       1.54366922E-03  4.29316482E-01  6.27280077E+02  4.88356736E-03  6.27714277E+02
         3   11       2.50771488E-04  2.23401954E-01  7.27996420E+02  9.93735683E-18  7.28219822E+02
         3   13       8.12618772E-03  4.50207424E+04  9.61542895E+00  6.00471624E+04  1.05077520E+05
         3   15       3.48436714E-03  9.61542744E+00  4.50207450E+04  2.50420418E+01  4.50554025E+04
         3   17       2.07877638E-03  8.91692176E+00  2.90574199E+04  1.60414238E-13  2.90663369E+04
         4    8       1.69606344E-03  6.27280084E+02  4.29316486E-01  6.19741296E+01  6.89683530E+02
         4   10       1.54366922E-03  4.29316482E-01  6.27280077E+02  4.88356736E-03  6.27714277E+02
         4   12       2.50771488E-04  2.23401954E-01  7.27996420E+02  9.93735683E-18  7.28219822E+02
         4   14       8.12618772E-03  4.50207424E+04  9.61542895E+00  6.00471624E+04  1.05077520E+05
         4   16       3.48436714E-03  9.61542744E+00  4.50207450E+04  2.50420418E+01  4.50554025E+04
         4   18       2.07877638E-03  8.91692176E+00  2.90574199E+04  1.60414238E-13  2.90663369E+04
         5    7       1.54366920E-03  4.29316486E-01  6.27280070E+02  4.88356778E-03  6.27714270E+02
         5    9       1.69606343E-03  6.27280078E+02  4.29316475E-01  6.19741323E+01  6.89683527E+02
         5   11       2.50771452E-04  7.27996317E+02  2.23402023E-01  6.83093863E-15  7.28219719E+02
         5   13       3.48436679E-03  9.61542724E+00  4.50207404E+04  2.50420421E+01  4.50553979E+04
         5   15       8.12618757E-03  4.50207398E+04  9.61542855E+00  6.00471631E+04  1.05077518E+05
         5   17       2.07877679E-03  2.90574257E+04  8.91692294E+00  5.77901944E-11  2.90663426E+04
         6    8       1.54366920E-03  4.29316486E-01  6.27280070E+02  4.88356778E-03  6.27714270E+02
         6   10       1.69606343E-03  6.27280078E+02  4.29316475E-01  6.19741323E+01  6.89683527E+02
         6   12       2.50771452E-04  7.27996317E+02  2.23402023E-01  6.83093863E-15  7.28219719E+02
         6   14       3.48436679E-03  9.61542724E+00  4.50207404E+04  2.50420421E+01  4.50553979E+04
         6   16       8.12618757E-03  4.50207398E+04  9.61542855E+00  6.00471631E+04  1.05077518E+05
         6   18       2.07877679E-03  2.90574257E+04  8.91692294E+00  5.77901944E-11  2.90663426E+04
         7   11       6.73481855E-03  5.71630649E-01  7.65842495E+03  7.92748173E-18  7.65899658E+03
         7   13       4.57901691E-03  3.46432430E+04  1.14006458E+00  5.42772050E+03  4.00721036E+04
         7   15       3.95887728E-03  1.14006442E+00  3.46432459E+04  7.23132658E-01  3.46451091E+04
         7   17       1.21099912E-03  8.69493846E-01  1.16490483E+04  1.48413840E-14  1.16499178E+04
         8   12       6.73481855E-03  5.71630649E-01  7.65842495E+03  7.92748173E-18  7.65899658E+03
         8   14       4.57901691E-03  3.46432430E+04  1.14006458E+00  5.42772050E+03  4.00721036E+04
         8   16       3.95887728E-03  1.14006442E+00  3.46432459E+04  7.23132658E-01  3.46451091E+04
         8   18       1.21099912E-03  8.69493846E-01  1.16490483E+04  1.48413840E-14  1.16499178E+04
         9   11       6.73481855E-03  7.65842495E+03  5.71630647E-01  1.65180289E-13  7.65899658E+03
         9   13       3.95887689E-03  1.14006442E+00  3.46432425E+04  7.23132803E-01  3.46451057E+04
         9   15       4.57901666E-03  3.46432414E+04  1.14006474E+00  5.42771994E+03  4.00721014E+04
         9   17       1.21099962E-03  1.16490531E+04  8.69494192E-01  1.51681471E-11  1.16499226E+04
        10   12       6.73481855E-03  7.65842495E+03  5.71630647E-01  1.65180289E-13  7.65899658E+03
        10   14       3.95887689E-03  1.14006442E+00  3.46432425E+04  7.23132803E-01  3.46451057E+04
        10   16       4.57901666E-03  3.46432414E+04  1.14006474E+00  5.42771994E+03  4.00721014E+04
        10   18       1.21099962E-03  1.16490531E+04  8.69494192E-01  1.51681471E-11  1.16499226E+04
        11   13       5.07615544E-04  1.53079106E-02  1.81677719E+03  9.24790446E-17  1.81679249E+03
        11   15       5.07615506E-04  1.81677705E+03  1.53079075E-02  9.35297205E-13  1.81679236E+03
        11   17       8.42894357E-05  9.20258178E-12  1.14180842E-15  3.49136867E+02  3.49136867E+02
        12   14       5.07615544E-04  1.53079106E-02  1.81677719E+03  9.24790446E-17  1.81679249E+03
        12   16       5.07615506E-04  1.81677705E+03  1.53079075E-02  9.35297205E-13  1.81679236E+03
        12   18       8.42894357E-05  9.20258178E-12  1.14180842E-15  3.49136867E+02  3.49136867E+02
        13   17       7.38164360E-04  1.27854803E-04  1.51741053E+01  8.96297504E-17  1.51742332E+01
        14   18       7.38164360E-04  1.27854803E-04  1.51741053E+01  8.96297504E-17  1.51742332E+01
        15   17       7.38164265E-04  1.51741034E+01  1.27854930E-04  2.11436125E-13  1.51742312E+01
        16   18       7.38164265E-04  1.51741034E+01  1.27854930E-04  2.11436125E-13  1.51742312E+01
     -----------------------------------------------------------------------------------------------
--

++ Velocity transition strengths (SO states):
   ------------------------------------------
    for osc. strength at least    1.0000000000000001E-005

      From   To        Osc. strength     Einstein coefficients Ax, Ay, Az (sec-1)    Total A (sec-1)
     -----------------------------------------------------------------------------------------------
         1    3       5.68063376E-02  5.81186301E+03  1.89390200E+07  3.08158982E-14  1.89448318E+07
         1    5       5.68063386E-02  1.89390203E+07  5.81186316E+03  6.87676601E-11  1.89448322E+07
         1    7       1.55804896E-01  4.15366172E+03  5.56487088E+07  5.40035680E-13  5.56528624E+07
         1    9       1.55804894E-01  5.56487080E+07  4.15366178E+03  6.49170890E-10  5.56528617E+07
         1   11       1.89491243E-01  4.93969508E-09  1.13555474E-15  7.55392693E+07  7.55392693E+07
         1   13       1.52559950E-01  6.14139707E+02  7.28874919E+07  6.97977151E-11  7.28881060E+07
         1   15       1.52559950E-01  7.28874918E+07  6.14139760E+02  2.17792208E-07  7.28881060E+07
         1   17       1.97685049E-01  1.25347860E-07  8.07689433E-11  9.56905039E+07  9.56905039E+07
         2    4       5.68063376E-02  5.81186301E+03  1.89390200E+07  3.08158982E-14  1.89448318E+07
         2    6       5.68063386E-02  1.89390203E+07  5.81186316E+03  6.87676601E-11  1.89448322E+07
         2    8       1.55804896E-01  4.15366172E+03  5.56487088E+07  5.40035680E-13  5.56528624E+07
         2   10       1.55804894E-01  5.56487080E+07  4.15366178E+03  6.49170890E-10  5.56528617E+07
         2   12       1.89491243E-01  4.93969508E-09  1.13555474E-15  7.55392693E+07  7.55392693E+07
         2   14       1.52559950E-01  6.14139707E+02  7.28874919E+07  6.97977151E-11  7.28881060E+07
         2   16       1.52559950E-01  7.28874918E+07  6.14139760E+02  2.17792208E-07  7.28881060E+07
         2   18       1.97685049E-01  1.25347860E-07  8.07689433E-11  9.56905039E+07  9.56905039E+07
         3    7       2.98974861E-02  6.92767794E+03  4.74136902E+00  5.22507138E+03  1.21574907E+04
         3    9       1.70490957E-02  4.74136910E+00  6.92767802E+03  4.11736269E-01  6.93283112E+03
         3   11       3.16299121E-03  2.81778899E+00  9.18228108E+03  3.26255232E-16  9.18509887E+03
         3   13       7.89003184E-03  3.68131827E+02  7.86246725E-02  1.01655997E+05  1.02024208E+05
         3   15       3.17540898E-05  7.86248196E-02  3.68131719E+02  4.23945703E+01  4.10604914E+02
         3   17       2.57227694E-03  1.10338323E+01  3.59557631E+04  2.58121856E-13  3.59667970E+04
         4    8       2.98974861E-02  6.92767794E+03  4.74136902E+00  5.22507138E+03  1.21574907E+04
         4   10       1.70490957E-02  4.74136910E+00  6.92767802E+03  4.11736269E-01  6.93283112E+03
         4   12       3.16299121E-03  2.81778899E+00  9.18228108E+03  3.26255232E-16  9.18509887E+03
         4   14       7.89003184E-03  3.68131827E+02  7.86246725E-02  1.01655997E+05  1.02024208E+05
         4   16       3.17540898E-05  7.86248196E-02  3.68131719E+02  4.23945703E+01  4.10604914E+02
         4   18       2.57227694E-03  1.10338323E+01  3.59557631E+04  2.58121856E-13  3.59667970E+04
         5    7       1.70490954E-02  4.74136909E+00  6.92767789E+03  4.11736232E-01  6.93283099E+03
         5    9       2.98974864E-02  6.92767797E+03  4.74136908E+00  5.22507148E+03  1.21574908E+04
         5   11       3.16299128E-03  9.18228127E+03  2.81778899E+00  3.26267488E-12  9.18509906E+03
         5   13       3.17541099E-05  7.86248328E-02  3.68131978E+02  4.23945716E+01  4.10605175E+02
         5   15       7.89003184E-03  3.68132225E+02  7.86247081E-02  1.01655997E+05  1.02024208E+05
         5   17       2.57227685E-03  3.59557619E+04  1.10338324E+01  1.57530126E-10  3.59667957E+04
         6    8       1.70490954E-02  4.74136909E+00  6.92767789E+03  4.11736232E-01  6.93283099E+03
         6   10       2.98974864E-02  6.92767797E+03  4.74136908E+00  5.22507148E+03  1.21574908E+04
         6   12       3.16299128E-03  9.18228127E+03  2.81778899E+00  3.26267488E-12  9.18509906E+03
         6   14       3.17541099E-05  7.86248328E-02  3.68131978E+02  4.23945716E+01  4.10605175E+02
         6   16       7.89003184E-03  3.68132225E+02  7.86247081E-02  1.01655997E+05  1.02024208E+05
         6   18       2.57227685E-03  3.59557619E+04  1.10338324E+01  1.57530126E-10  3.59667957E+04
         7   11       7.09150689E-04  6.01907260E-02  8.06405722E+02  1.00051464E-19  8.06465913E+02
         7   13       1.88421001E-02  5.09309078E+04  1.67607031E+00  1.13959843E+05  1.64892427E+05
         7   15       5.82175246E-03  1.67607059E+00  5.09309064E+04  1.51828190E+01  5.09477653E+04
         7   17       1.10896855E-03  7.96238867E-01  1.06676156E+04  2.49433315E-13  1.06684119E+04
         8   12       7.09150689E-04  6.01907260E-02  8.06405722E+02  1.00051464E-19  8.06465913E+02
         8   14       1.88421001E-02  5.09309078E+04  1.67607031E+00  1.13959843E+05  1.64892427E+05
         8   16       5.82175246E-03  1.67607059E+00  5.09309064E+04  1.51828190E+01  5.09477653E+04
         8   18       1.10896855E-03  7.96238867E-01  1.06676156E+04  2.49433315E-13  1.06684119E+04
         9   11       7.09150679E-04  8.06405710E+02  6.01907328E-02  1.27048851E-13  8.06465901E+02
         9   13       5.82175255E-03  1.67607066E+00  5.09309072E+04  1.51828187E+01  5.09477660E+04
         9   15       1.88421000E-02  5.09309099E+04  1.67607045E+00  1.13959840E+05  1.64892426E+05
         9   17       1.10896794E-03  1.06676097E+04  7.96238433E-01  2.40899282E-10  1.06684060E+04
        10   12       7.09150679E-04  8.06405710E+02  6.01907328E-02  1.27048851E-13  8.06465901E+02
        10   14       5.82175255E-03  1.67607066E+00  5.09309072E+04  1.51828187E+01  5.09477660E+04
        10   16       1.88421000E-02  5.09309099E+04  1.67607045E+00  1.13959840E+05  1.64892426E+05
        10   18       1.10896794E-03  1.06676097E+04  7.96238433E-01  2.40899282E-10  1.06684060E+04
        11   13       1.38577205E-02  4.17901794E-01  4.95975317E+04  7.67621608E-14  4.95979496E+04
        11   15       1.38577200E-02  4.95975298E+04  4.17901821E-01  2.01552276E-10  4.95979477E+04
        11   17       2.45986649E-02  1.12984362E-10  5.24680695E-14  1.01890950E+05  1.01890950E+05
        12   14       1.38577205E-02  4.17901794E-01  4.95975317E+04  7.67621608E-14  4.95979496E+04
        12   16       1.38577200E-02  4.95975298E+04  4.17901821E-01  2.01552276E-10  4.95979477E+04
        12   18       2.45986649E-02  1.12984362E-10  5.24680695E-14  1.01890950E+05  1.01890950E+05
        13   17       6.28192625E-03  1.08807421E-03  1.29135118E+02  1.52700849E-16  1.29136206E+02
        14   18       6.28192625E-03  1.08807421E-03  1.29135118E+02  1.52700849E-16  1.29136206E+02
        15   17       6.28192563E-03  1.29135105E+02  1.08807442E-03  6.59193582E-13  1.29136193E+02
        16   18       6.28192563E-03  1.29135105E+02  1.08807442E-03  6.59193582E-13  1.29136193E+02
     -----------------------------------------------------------------------------------------------
--

++ Length and velocity gauge comparison (SO states):

 --------------------------------------------------
 A comparison between the dipole oscillator strengths in 
 length and velocity gauge will be performed

 All dipole oscillator differences above the tolerance of   0.10000000000000001       will be printed 

 Due to basis set deficiency these oscillator may be problematic 

 The tolerance is defined as ABS(1-O_l/O_v) 
 O_l : dipole oscillator strength in length gauge
 O_p : dipole oscillator strength in velocity gauge
 --------------------------------------------------

  Problematic transitions have been found

      From   To       Difference (%) Osc. st. (len.) Osc. st. (vel.)
     ---------------------------------------------------------------
         3    7            94.327070  1.69606344E-03  2.98974861E-02
         3    9            90.945741  1.54366922E-03  1.70490957E-02
         3   11            92.071698  2.50771488E-04  3.16299121E-03
         3   15         10872.971251  3.48436714E-03  3.17540898E-05
         3   17            19.185359  2.07877638E-03  2.57227694E-03
         4    8            94.327070  1.69606344E-03  2.98974861E-02
         4   10            90.945741  1.54366922E-03  1.70490957E-02
         4   12            92.071698  2.50771488E-04  3.16299121E-03
         4   16         10872.971251  3.48436714E-03  3.17540898E-05
         4   18            19.185359  2.07877638E-03  2.57227694E-03
         5    7            90.945741  1.54366920E-03  1.70490954E-02
         5    9            94.327070  1.69606343E-03  2.98974864E-02
         5   11            92.071700  2.50771452E-04  3.16299128E-03
         5   13         10872.963162  3.48436679E-03  3.17541099E-05
         5   17            19.185340  2.07877679E-03  2.57227685E-03
         6    8            90.945741  1.54366920E-03  1.70490954E-02
         6   10            94.327070  1.69606343E-03  2.98974864E-02
         6   12            92.071700  2.50771452E-04  3.16299128E-03
         6   14         10872.963162  3.48436679E-03  3.17541099E-05
         6   18            19.185340  2.07877679E-03  2.57227685E-03
         7   11           849.702038  6.73481855E-03  7.09150689E-04
         7   13            75.697948  4.57901691E-03  1.88421001E-02
         7   15            31.998530  3.95887728E-03  5.82175246E-03
         8   12           849.702038  6.73481855E-03  7.09150689E-04
         8   14            75.697948  4.57901691E-03  1.88421001E-02
         8   16            31.998530  3.95887728E-03  5.82175246E-03
         9   11           849.702052  6.73481855E-03  7.09150679E-04
         9   13            31.998537  3.95887689E-03  5.82175255E-03
         9   15            75.697949  4.57901666E-03  1.88421000E-02
        10   12           849.702052  6.73481855E-03  7.09150679E-04
        10   14            31.998537  3.95887689E-03  5.82175255E-03
        10   16            75.697949  4.57901666E-03  1.88421000E-02
        11   13            96.336948  5.07615544E-04  1.38577205E-02
        11   15            96.336948  5.07615506E-04  1.38577200E-02
        11   17            99.657341  8.42894357E-05  2.45986649E-02
        12   14            96.336948  5.07615544E-04  1.38577205E-02
        12   16            96.336948  5.07615506E-04  1.38577200E-02
        12   18            99.657341  8.42894357E-05  2.45986649E-02
        13   17            88.249395  7.38164360E-04  6.28192625E-03
        14   18            88.249395  7.38164360E-04  6.28192625E-03
        15   17            88.249395  7.38164265E-04  6.28192563E-03
        16   18            88.249395  7.38164265E-04  6.28192563E-03
     ---------------------------------------------------------------

 Number of problematic transitions =                    42

--

 Electric-dipole - electric-octupole not included
++ I/O STATISTICS
 
  I. General I/O information
  - - - - - - - - - - - - - - - - - - - - - - - - - - - - - - - - - - - - - - - - - - -
  Unit  Name          Flsize      Write/Read            MBytes           Write/Read
                      (MBytes)       Calls              In/Out           Time, sec.
  - - - - - - - - - - - - - - - - - - - - - - - - - - - - - - - - - - - - - - - - - - -
   1  SCRATCH           0.00 .       9/      45 .      0.0/      0.0 .       0/       0
   2  ANNI              0.00 .       0/       0 .      0.0/      0.0 .       0/       0
   3  RUNFILE          14.89 .     322/    9923 .      2.3/     72.0 .       0/       0
   4  ONEINT            5.68 .       0/   24849 .      0.0/   3743.6 .       0/       0
   5  JOBIPH            6.59 .       0/      92 .      0.0/      0.8 .       0/       0
   6  ORDINT          529.03 .       1/    4233 .      0.0/   1058.0 .       0/       0
  - - - - - - - - - - - - - - - - - - - - - - - - - - - - - - - - - - - - - - - - - - -
   *  TOTAL           556.21 .     332/   39142 .      2.3/   4874.4 .       0/       0
  - - - - - - - - - - - - - - - - - - - - - - - - - - - - - - - - - - - - - - - - - - -
 
  II. I/O Access Patterns
  - - - - - - - - - - - - - - - - - - - -
  Unit  Name               % of random
                         Write/Read calls
  - - - - - - - - - - - - - - - - - - - -
   1  SCRATCH             88.9/ 100.0
   2  ANNI                 0.0/   0.0
   3  RUNFILE             28.6/  10.8
   4  ONEINT               0.0/  15.5
   5  JOBIPH               0.0/  76.1
   6  ORDINT             100.0/   0.0
  - - - - - - - - - - - - - - - - - - - -
--
--- Stop Module: rassi at Thu Jan  9 20:11:01 2025 /rc=_RC_ALL_IS_WELL_ ---
*** files: xmldump
    saved to directory /home4/s4752295/Internship/Initial_simulations/Point_charge_model/1_electron/active_space_9_non_rel/Mo/varying_bond_length
--- Module rassi spent 5 seconds ---

.##################.
.# Happy landing! #.
.##################.

    Timing: Wall=79.84 User=61.47 System=14.77

###############################################################################
Hbrk Cluster
Job 14548073 for user s4752295
Finished at: Thu Jan  9 20:11:01 CET 2025

Job details:
============

Job ID                         : 14548073
Name                           : Mo_no_c_light
User                           : s4752295
Partition                      : regularmedium
Nodes                          : node99
Number of Nodes                : 1
Cores                          : 1
Number of Tasks                : 1
State                          : RUNNING  
Submit                         : 2025-01-09T20:09:34
Start                          : 2025-01-09T20:09:35
End                            : --
Reserved walltime              : 15:00:00
Used walltime                  : 00:01:26
Used CPU time                  : -- 
% User (Computation)           : --
% System (I/O)                 : --
Total memory reserved          : 25000M
Maximum memory used            : --

Acknowledgements:
=================

Please see this page for information about acknowledging Hbrk in your publications:

https://wiki.hpc.rug.nl/habrok/introduction/scientific_output

################################################################################
