   This run of MOLCAS is using the pymolcas driver

                             OPE
                             OPE          NMOL  CASOP  ENMOLC A   SO
                 OPE        NMOLC        AS  OP EN  MO LC     AS  OP
                OPENM       OL CA        SO  PE NM  OL CA     SOP EN
                OP EN      MO   LC       AS  OP ENMOL  CASO   PENMOL
                OP  EN     MO   LC       AS  OP EN     MO     LC ASO
               OP   E  NMOL  C  AS       OP  EN MO     LC     AS  OP
               OP  E   NMO   LC AS        OPEN  MO     LCASOP EN   M
               O  PEN   MO  LCA  SO
            OPE   NMO   L   CAS    OP
        OPENMOL  CASOP     ENMOL   CASOPE
     OPENMOLCA   SOPENMOLCASOPEN   MOLCASOPE
    OPENMOLCAS   OP           EN   MOL    CAS
    OPENMOLCAS       OP  ENM        O     LCA
    OPENMOLCAS    OPEN  MOLCASO     P  E  NMO
    OPENMOLCAS     OP               E  N  MOL
    OPENMOLCA   SO           PENM   O  L  CAS    OPEN    MO    LCAS
    OPENMOLCA   SOP           ENM   O  L  CAS   OP  EN  MOLC  AS   O
    OPENMOLCA   SOPE           NM      O  LCA   S      OP  EN MO
    OPENMOLC                AS         O  PEN   M      OL  CA  SOPE
    OPENMO        LCASOPE  NMOL        C  ASO   P      ENMOLC     AS
    OPE     NMO      LCA  SO     P     E   NM   OL  CA SO  PE N   MO
          OPENMOLCA            SOPE   NMO        LCAS  O    P  ENMO
     OPENMOLCASOPENMOLCASOPENMOLCASOPENMOLCA
        OPENMOLCASOPENMOLCASOPENMOLCASOPE
            OPENMOLCASOPENMOLCASOPENM
               OPENMOLCASOPENMOLCA        version: o91e1abe7de707b ?
                   OPENMOLCASO
                       OPE                tag:

 OpenMolcas is free software; you can redistribute it and/or modify it
 under the terms of the GNU Lesser General Public License version 2.1.
 OpenMolcas is distributed in the hope that it will be useful, but it
 is provided "as is" and without any express or implied warranties.
 For more details see the full text of the license in the file
 LICENSE or in <http://www.gnu.org/licenses/>.

                 Copyright (C) The OpenMolcas Authors
           For the author list and the recommended citation,
                   consult the file CONTRIBUTORS.md

           *************************************************
           * pymolcas version py2.10                       *
           *   build 3068ae8b88c9345ec6cfef6fef7f1169      *
           *   (after the EMIL interpreter by V. Veryazov) *
           *************************************************

configuration info
------------------
Host name: login1 (Linux)
C Compiler ID: GNU
C flags: -std=gnu99
Fortran Compiler ID: GNU
Fortran flags: -fno-aggressive-loop-optimizations -cpp -fdefault-integer-8 -fmax-stack-var-size=1048576
Definitions: _MOLCAS_;_I8_;_LINUX_;_MKL_
Parallel: OFF (GA=OFF)


   ----------------------------------------------------------------------------------------------------------------------------------------------
  |
  |           Project: niobium_so_cf
  |    Submitted from: /home4/s4752295/Internship/Initial_simulations/Point_charge_model/1_electron/active_space_9_non_rel/Nb/varying_bond_length
  |      Scratch area: /tmp/niobium_so_cf
  |   Save outputs to: /home4/s4752295/Internship/Initial_simulations/Point_charge_model/1_electron/active_space_9_non_rel/Nb/varying_bond_length
  |            Molcas: /home4/s4752295/Internship/Molcas/recomp_try/OpenMolcas-master/build
  |
  | Scratch area is empty
  |
  |    MOLCAS_DRIVER = /home4/s4752295/Internship/Molcas/bin/pymolcas
  |    MOLCAS_NPROCS = 1
  |    MOLCAS_SOURCE = /home4/s4752295/Internship/Molcas/recomp_try/OpenMolcas-master
  | MOLCAS_STRUCTURE = 0
  |
   ----------------------------------------------------------------------------------------------------------------------------------------------

++ ---------   Input file   ---------

&SEWARD
AMFi

CLIG
$R

Basis Set
Nb.ANO-rcc.Roos.21s18p13d6f4g2h.10s9p8d5f4g2h.
Spherical d
Nb            0.0       0.0     0.0
End of Basis

Xfield

4
0.000000,  0.00000,  1.7010     -1.0
1.473109,  0.00000, -0.8505     -1.0
-0.736555,  1.27575, -0.8505    -1.0
-0.736555, -1.27575, -0.8505    -1.0

End of input

&SCF
Occupied
18
Iterations
   50  100
End of Input

&RASSCF
LumOrb
Symmetry
1
Spin
2
Nactel
1 0 0
CIRoot
9 9 1
inactive
18
ras2
9
Alter
4
1 19 24
1 20 25
1 21 26
1 22 27
End of Input

>>> COPY niobium_so_cf.JobIph $SLURM_SUBMIT_DIR/niobium_so_cf.doublet.JobIph

>>> COPY $SLURM_SUBMIT_DIR/niobium_so_cf.doublet.JobIph ./JOB002

&RASSI
NROFJobIph
1 All
SpinOrbit
End of Input

EOF

-- ----------------------------------

--- Start Module: seward at Fri Jan 10 02:18:46 2025 ---

()()()()()()()()()()()()()()()()()()()()()()()()()()()()()()()()()()()()()()()()()()()()()()()()()()

                                              &SEWARD

                                   only a single process is used
                       available to each process: 4.1 GB of memory, 1 thread?
                                            pid: 1090363
()()()()()()()()()()()()()()()()()()()()()()()()()()()()()()()()()()()()()()()()()()()()()()()()()()

 The speed of LIGHT in this CALCULATION =   137.03599917700001     
               SEWARD will generate:
                  Multipole Moment integrals up to order  2
                  Kinetic Energy integrals
                  Nuclear Attraction integrals (point charge)
                  One-Electron Hamiltonian integrals
                  Velocity integrals
                  Relativistic Douglas-Kroll-Hess integrals:
                    - Parametrization         : EXP
                    - DKH order of Hamiltonian: 2
                    - DKH order of Properties : 0
                         - multipole moment operators
                         - electric potential operators
                         - contact operators
                  External field from     4 point(s) added to the one-electron Hamiltonian
                  Orbital angular momentum around ( 0.0000  0.0000  0.0000 )
                  Velocity quadrupole around ( 0.0000  0.0000  0.0000 )
                  Atomic mean-field integrals
                  Two-Electron Repulsion integrals

                   Integrals are discarded if absolute value <: 0.10E-13
                   Integral cutoff threshold is set to       <: 0.10E-15

++    Symmetry information:
      ---------------------

                    Character Table for C1 

                             E  
                    a        1  x, y, xy, Rz, z, xz, Ry, yz, Rx, I
--


++    Basis set information:
      ----------------------


      Basis set label: NB.ANO-RCC.ROOS.21S18P13D6F4G2H.10S9P8D5F4G2H......

      Electronic valence basis set:
      ------------------
      Associated Effective Charge  41.000000 au
      Associated Actual Charge     41.000000 au
      Nuclear Model: Point charge

      Shell  nPrim  nBasis  Cartesian Spherical Contaminant
         s      21      10        X                  
         p      18       9        X                  
         d      13       8                 X         
         f       6       5                 X         
         g       4       4                 X         
         h       2       2                 X         
--


++    Molecular structure info:
      -------------------------

                    ************************************************ 
                    **** Cartesian Coordinates / Bohr, Angstrom **** 
                    ************************************************ 

     Center  Label                x              y              z                     x              y              z
        1      NB               0.000000       0.000000       0.000000              0.000000       0.000000       0.000000
--


++    Operator info:
      --------------


  Net charge from external field:   -4.0000000000000000     
--


            Nuclear Potential Energy              0.00000000 au

                    Nuclear-External Field Potential Energy     -96.41387196 au
                    External Field Potential Energy               2.19403334 au 


            Total Nuclear Potential Energy            -96.41387196 au


      Basis set specifications :
      Symmetry species         a  
      Basis functions          170

 Sorry, Molden does not know how to handle
 functions with angular momentum larger than g
Note: The following floating-point exceptions are signalling: IEEE_UNDERFLOW_FLAG IEEE_DENORMAL
--- Stop Module: seward at Fri Jan 10 02:18:54 2025 /rc=_RC_ALL_IS_WELL_ ---
*** files: niobium_so_cf.GssOrb xmldump
    saved to directory /home4/s4752295/Internship/Initial_simulations/Point_charge_model/1_electron/active_space_9_non_rel/Nb/varying_bond_length
--- Module seward spent 8 seconds ---

*** symbolic link created: INPORB -> niobium_so_cf.GssOrb
--- Start Module: scf at Fri Jan 10 02:18:54 2025 ---

()()()()()()()()()()()()()()()()()()()()()()()()()()()()()()()()()()()()()()()()()()()()()()()()()()

                                                &SCF

                                   only a single process is used
                       available to each process: 4.1 GB of memory, 1 thread?
                                            pid: 1090382
()()()()()()()()()()()()()()()()()()()()()()()()()()()()()()()()()()()()()()()()()()()()()()()()()()

++    Input section:
      --------------

      Header of the integral files:
      
       Integrals generated by seward 4.2.0  , Fri Jan 10 02:18:46 2025


      Cartesian coordinates in Angstrom:
      -----------------------------------------------------
      No.  Label        X            Y            Z        
      -----------------------------------------------------
       1   NB         0.00000000   0.00000000   0.00000000
      -----------------------------------------------------
      Nuclear repulsion energy =  -96.41387196
--

++    Orbital specifications:
      -----------------------

      Symmetry species               1
                                     a
      Frozen orbitals                0
      Occupied orbitals             18
      Secondary orbitals           152
      Deleted orbitals               0
      Total number of orbitals     170
      Number of basis functions    170
--

      Molecular charge                           5.000

++    Optimization specifications:
      ----------------------------

      SCF Algorithm: Conventional
      Minimized density differences are used
      Number of density matrices in core                5
      Maximum number of NDDO SCF iterations            50
      Maximum number of HF SCF iterations             100
      Threshold for SCF energy change            0.10E-08
      Threshold for density matrix               0.10E-03
      Threshold for Fock matrix                  0.15E-03
      Threshold for linear dependence            0.10E-08
      Threshold at which DIIS is turned on       0.15E+00
      Threshold at which QNR/C2DIIS is turned on 0.75E-01
      Threshold for Norm(delta) (QNR/C2DIIS)     0.20E-04
      DIIS extrapolation of the SCF procedure
      All orbitals punched on: SCFORB
--

      Detected guessorb starting orbitals                                             


++ Convergence information
                                   SCF        iterations: Energy and convergence statistics

Iter     Tot. SCF        One-elec.       Two-elec.     Energy      Max Dij or  Max Fij      DNorm      TNorm      AccCon     Time
         Energy          Energy          Energy        Change      Delta Norm                                                in Sec.

 The total and one-electron energies are shifted by a value of      3000. a.u.

   1  -824.140716542 -2083.131280640  1355.404436053   0.00E+00    0.13E+00*   0.16E+00*    0.85E+01   0.49E+03   None         1.
   2  -824.418434446 -2089.760159803  1361.755597312  -0.28E+00*   0.49E-01*   0.43E-01*    0.76E+00   0.49E+03   EDIIS        1.
   3  -824.431618545 -2087.266286395  1359.248539805  -0.13E-01*   0.11E-01*   0.14E-01*    0.16E+00   0.49E+03   EDIIS        1.
   4  -824.432946477 -2088.252956615  1360.233882093  -0.13E-02*   0.49E-02*   0.62E-02*    0.32E-01   0.49E+03   c2DIIS       1.
   5  -824.433108673 -2087.787172614  1359.767935896  -0.16E-03*   0.17E-02*   0.29E-02*    0.60E-02   0.49E+03   QNRc2DIIS    1.
   6  -824.433131374 -2087.995016666  1359.975757247  -0.23E-04*   0.59E-03*   0.13E-02*    0.12E-02   0.49E+03   QNRc2DIIS    1.
   7  -824.433135407 -2087.934920488  1359.915657037  -0.40E-05*   0.21E-03*   0.13E-03     0.91E-04   0.49E+03   QNRc2DIIS    0.
   8  -824.433135547 -2087.929087497  1359.909823905  -0.14E-06*   0.62E-05    0.65E-05     0.77E-05   0.49E+03   QNRc2DIIS    1.
   9  -824.433135547 -2087.929090732  1359.909827140  -0.25E-09    0.57E-06    0.51E-06     0.19E-02   0.49E+03   QNRc2DIIS    1.

       Convergence after  9 Macro Iterations
--

 *****************************************************************************************************************************
 *                                                                                                                           *
 *                                             SCF/KS-DFT Program, Final results                                             *
 *                                                                                                                           *
 *                                                                                                                           *
 *                                                                                                                           *
 *                                                       Final Results                                                       *
 *                                                                                                                           *
 *****************************************************************************************************************************

::    Total SCF energy                              -3824.4331355474
      One-electron energy                           -5087.9290907321
      Two-electron energy                            1359.9098271399
      Nuclear repulsion energy                        -96.4138719552
      Kinetic energy (interpolated)                  4196.6885580926
      Virial theorem                                    0.9112978203
      Total spin, S(S+1)                                0.0000000000
      Total spin, S                                     0.0000000000
      Max non-diagonal density matrix element           0.0000004431
      Max non-diagonal Fock matrix element              0.0000001215


      All orbitals with orbital energies smaller than  E(LUMO)+0.5 are printed

++    Molecular orbitals:
      -------------------

      Title: SCF orbitals

      Molecular orbitals for symmetry species 1: a  

          Orbital            1         2         3         4         5         6         7         8         9        10    
          Energy         -701.4848 -101.0630  -90.0796  -90.0796  -90.0788  -18.1994  -14.5001  -14.5001  -14.4901   -8.4328
          Occ. No.          2.0000    2.0000    2.0000    2.0000    2.0000    2.0000    2.0000    2.0000    2.0000    2.0000

        1 NB     1s         1.0000   -0.0000    0.0000   -0.0000   -0.0000    0.0000    0.0000    0.0000    0.0000    0.0000
        2 NB     2s         0.0000    1.0000    0.0000   -0.0000   -0.0003    0.0001    0.0000   -0.0000   -0.0000    0.0000
        3 NB     3s        -0.0000   -0.0001   -0.0000    0.0000    0.0000    1.0000   -0.0000   -0.0000   -0.0034    0.0000
        4 NB     4s         0.0000    0.0000    0.0000   -0.0000   -0.0000   -0.0016   -0.0000    0.0000    0.0007   -0.0000
        5 NB     5s        -0.0000   -0.0000    0.0000    0.0000    0.0000    0.0002   -0.0000   -0.0000   -0.0001    0.0000
        6 NB     6s         0.0000    0.0000   -0.0000   -0.0000   -0.0000   -0.0003    0.0000    0.0000    0.0001   -0.0000
        7 NB     7s        -0.0000   -0.0000    0.0000    0.0000    0.0000    0.0006   -0.0000   -0.0000   -0.0002    0.0000
        8 NB     8s         0.0000    0.0000    0.0000   -0.0000   -0.0000   -0.0004   -0.0000    0.0000    0.0001    0.0000
        9 NB     9s        -0.0000   -0.0000   -0.0000    0.0000    0.0000    0.0004    0.0000   -0.0000   -0.0001   -0.0000
       10 NB    10s         0.0000    0.0000   -0.0000   -0.0000   -0.0000   -0.0002    0.0000    0.0000    0.0000    0.0000
       11 NB     2px        0.0000    0.0000   -0.0006    1.0000   -0.0000   -0.0000   -0.0000    0.0001   -0.0000   -0.0000
       12 NB     3px       -0.0000    0.0000    0.0000   -0.0001    0.0000   -0.0000   -0.0000    1.0000   -0.0000    0.0003
       13 NB     4px        0.0000   -0.0000   -0.0000    0.0001   -0.0000    0.0000    0.0000   -0.0018    0.0000   -0.0009
       14 NB     5px       -0.0000    0.0000    0.0000   -0.0000    0.0000    0.0000   -0.0000    0.0004   -0.0000    0.0001
       15 NB     6px        0.0000   -0.0000   -0.0000    0.0000   -0.0000   -0.0000    0.0000   -0.0008    0.0000   -0.0000
       16 NB     7px       -0.0000    0.0000    0.0000   -0.0000    0.0000    0.0000   -0.0000    0.0005   -0.0000   -0.0001
       17 NB     8px        0.0000   -0.0000   -0.0000    0.0000   -0.0000    0.0000    0.0000   -0.0004    0.0000    0.0002
       18 NB     9px       -0.0000    0.0000    0.0000   -0.0000    0.0000   -0.0000   -0.0000    0.0003   -0.0000   -0.0001
       19 NB    10px        0.0000   -0.0000   -0.0000    0.0000   -0.0000    0.0000    0.0000   -0.0002    0.0000    0.0000
       20 NB     2py        0.0000    0.0000    1.0000    0.0006    0.0000    0.0000    0.0001    0.0000   -0.0000    0.0000
       21 NB     3py       -0.0000   -0.0000   -0.0001   -0.0000   -0.0000    0.0000    1.0000    0.0000    0.0000   -0.0000
       22 NB     4py        0.0000    0.0000    0.0001    0.0000    0.0000   -0.0000   -0.0018   -0.0000   -0.0000    0.0000
       23 NB     5py       -0.0000   -0.0000   -0.0000   -0.0000   -0.0000    0.0000    0.0004    0.0000    0.0000   -0.0000
       24 NB     6py        0.0000    0.0000    0.0000    0.0000    0.0000   -0.0000   -0.0008   -0.0000   -0.0000    0.0000
       25 NB     7py       -0.0000   -0.0000   -0.0000   -0.0000   -0.0000    0.0000    0.0005    0.0000    0.0000    0.0000
       26 NB     8py        0.0000    0.0000    0.0000    0.0000    0.0000   -0.0000   -0.0004   -0.0000    0.0000   -0.0000
       27 NB     9py       -0.0000   -0.0000   -0.0000   -0.0000   -0.0000    0.0000    0.0003    0.0000    0.0000    0.0000
       28 NB    10py        0.0000    0.0000    0.0000    0.0000    0.0000   -0.0000   -0.0002   -0.0000    0.0000   -0.0000
       29 NB     2pz        0.0000    0.0003   -0.0000    0.0000    1.0000   -0.0000   -0.0000    0.0000    0.0001   -0.0000
       30 NB     3pz       -0.0000    0.0000    0.0000   -0.0000   -0.0001    0.0034   -0.0000    0.0000    1.0000   -0.0000
       31 NB     4pz        0.0000   -0.0000   -0.0000    0.0000    0.0001    0.0004    0.0000   -0.0000   -0.0026    0.0000
       32 NB     5pz       -0.0000    0.0000    0.0000   -0.0000   -0.0000   -0.0001   -0.0000    0.0000    0.0006   -0.0000
       33 NB     6pz        0.0000   -0.0000   -0.0000    0.0000    0.0000    0.0002    0.0000   -0.0000   -0.0011    0.0000
       34 NB     7pz       -0.0000    0.0000    0.0000   -0.0000   -0.0000   -0.0001   -0.0000    0.0000    0.0007   -0.0000
       35 NB     8pz        0.0000   -0.0000   -0.0000    0.0000    0.0000    0.0001    0.0000   -0.0000   -0.0005    0.0000
       36 NB     9pz       -0.0000    0.0000    0.0000   -0.0000   -0.0000   -0.0001   -0.0000    0.0000    0.0003   -0.0000
       37 NB    10pz        0.0000   -0.0000   -0.0000    0.0000    0.0000    0.0000    0.0000   -0.0000   -0.0002    0.0000
       38 NB     3d2-      -0.0000   -0.0000   -0.0000   -0.0000   -0.0000   -0.0000    0.0009    0.0000    0.0000    0.0000
       39 NB     4d2-       0.0000    0.0000   -0.0000   -0.0000   -0.0000    0.0000    0.0003    0.0000    0.0000   -0.0000
       40 NB     5d2-      -0.0000   -0.0000    0.0000    0.0000    0.0000   -0.0000   -0.0002   -0.0000   -0.0000    0.0000
       41 NB     6d2-       0.0000    0.0000   -0.0000   -0.0000   -0.0000    0.0000    0.0001    0.0000    0.0000   -0.0000
       42 NB     7d2-      -0.0000   -0.0000    0.0000    0.0000    0.0000   -0.0000   -0.0001   -0.0000   -0.0000    0.0000
       43 NB     8d2-       0.0000    0.0000    0.0000    0.0000    0.0000    0.0000   -0.0000   -0.0000   -0.0000   -0.0000
       44 NB     9d2-      -0.0000   -0.0000   -0.0000   -0.0000   -0.0000   -0.0000    0.0001    0.0000    0.0000    0.0000
       45 NB    10d2-      -0.0000    0.0000   -0.0000   -0.0000   -0.0000   -0.0000    0.0001    0.0000    0.0000    0.0000
       46 NB     3d1-       0.0000    0.0000    0.0000    0.0000    0.0000    0.0000    0.0027    0.0000    0.0000   -0.0000
       47 NB     4d1-       0.0000    0.0000   -0.0000   -0.0000   -0.0000    0.0000    0.0005    0.0000    0.0000   -0.0000
       48 NB     5d1-      -0.0000   -0.0000    0.0000    0.0000    0.0000   -0.0000   -0.0004   -0.0000   -0.0000    0.0000
       49 NB     6d1-       0.0000   -0.0000   -0.0000   -0.0000   -0.0000    0.0000    0.0003    0.0000    0.0000   -0.0000
       50 NB     7d1-       0.0000    0.0000    0.0000    0.0000    0.0000   -0.0000   -0.0002   -0.0000   -0.0000   -0.0000
       51 NB     8d1-      -0.0000   -0.0000   -0.0000   -0.0000   -0.0000    0.0000    0.0001    0.0000    0.0000    0.0000
       52 NB     9d1-       0.0000    0.0000    0.0000    0.0000    0.0000    0.0000   -0.0000   -0.0000   -0.0000   -0.0000
       53 NB    10d1-       0.0000    0.0000    0.0000    0.0000    0.0000    0.0000   -0.0000   -0.0000   -0.0000   -0.0000
       54 NB     3d0       -0.0000   -0.0000   -0.0000    0.0000    0.0000   -0.0009    0.0000    0.0000    0.0006    0.0000
       55 NB     4d0        0.0000    0.0000   -0.0000    0.0000    0.0000   -0.0002    0.0000   -0.0000   -0.0003   -0.0000
       56 NB     5d0       -0.0000   -0.0000   -0.0000   -0.0000    0.0000    0.0002   -0.0000    0.0000    0.0002    0.0000
       57 NB     6d0        0.0000    0.0000    0.0000    0.0000   -0.0000   -0.0001    0.0000   -0.0000   -0.0001   -0.0000
       58 NB     7d0       -0.0000   -0.0000   -0.0000    0.0000    0.0000    0.0001    0.0000   -0.0000   -0.0000    0.0000
       59 NB     8d0        0.0000    0.0000    0.0000   -0.0000   -0.0000   -0.0001   -0.0000    0.0000    0.0002   -0.0000
       60 NB     9d0       -0.0000   -0.0000   -0.0000    0.0000    0.0000    0.0001    0.0000   -0.0000   -0.0002    0.0000
       61 NB    10d0       -0.0000   -0.0000   -0.0000    0.0000    0.0000    0.0000    0.0000   -0.0000   -0.0002    0.0000
       62 NB     3d1+      -0.0000    0.0000   -0.0000    0.0000   -0.0000    0.0000   -0.0000    0.0027   -0.0000    0.2091
       63 NB     4d1+       0.0000   -0.0000    0.0000   -0.0000    0.0000    0.0000   -0.0000    0.0005   -0.0000    0.0001
       64 NB     5d1+      -0.0000    0.0000   -0.0000    0.0000   -0.0000   -0.0000    0.0000   -0.0004    0.0000   -0.0001
       65 NB     6d1+       0.0000   -0.0000    0.0000   -0.0000    0.0000    0.0000   -0.0000    0.0003   -0.0000    0.0000
       66 NB     7d1+      -0.0000    0.0000   -0.0000    0.0000   -0.0000   -0.0000    0.0000   -0.0002    0.0000    0.0000
       67 NB     8d1+       0.0000   -0.0000    0.0000   -0.0000    0.0000    0.0000   -0.0000    0.0001   -0.0000   -0.0001
       68 NB     9d1+      -0.0000    0.0000   -0.0000    0.0000    0.0000   -0.0000    0.0000   -0.0000    0.0000    0.0001
       69 NB    10d1+       0.0000    0.0000   -0.0000    0.0000    0.0000   -0.0000    0.0000   -0.0000   -0.0000    0.0001
       70 NB     3d2+      -0.0000   -0.0000   -0.0000    0.0000   -0.0000   -0.0000    0.0000   -0.0009    0.0000    0.9779
       71 NB     4d2+      -0.0000    0.0000   -0.0000    0.0000   -0.0000   -0.0000    0.0000   -0.0003    0.0000   -0.0018
       72 NB     5d2+       0.0000   -0.0000    0.0000   -0.0000    0.0000    0.0000   -0.0000    0.0002   -0.0000    0.0013
       73 NB     6d2+       0.0000    0.0000   -0.0000    0.0000   -0.0000   -0.0000    0.0000   -0.0001    0.0000   -0.0009
       74 NB     7d2+      -0.0000   -0.0000    0.0000   -0.0000    0.0000    0.0000   -0.0000    0.0001   -0.0000    0.0006
       75 NB     8d2+       0.0000    0.0000    0.0000   -0.0000    0.0000   -0.0000   -0.0000    0.0000   -0.0000   -0.0004
       76 NB     9d2+      -0.0000   -0.0000   -0.0000    0.0000   -0.0000    0.0000    0.0000   -0.0001    0.0000    0.0003
       77 NB    10d2+      -0.0000   -0.0000   -0.0000    0.0000   -0.0000    0.0000    0.0000   -0.0001    0.0000    0.0004
       78 NB     4f3-      -0.0000    0.0000   -0.0000   -0.0000    0.0000    0.0000   -0.0000   -0.0000   -0.0000    0.0000
       79 NB     5f3-       0.0000    0.0000   -0.0000   -0.0000    0.0000    0.0000   -0.0000   -0.0000   -0.0000    0.0000
       80 NB     6f3-      -0.0000   -0.0000    0.0000    0.0000   -0.0000   -0.0000    0.0000    0.0000    0.0000   -0.0000
       81 NB     7f3-       0.0000    0.0000   -0.0000   -0.0000   -0.0000    0.0000   -0.0000   -0.0000    0.0000   -0.0000
       82 NB     8f3-      -0.0000   -0.0000   -0.0000   -0.0000   -0.0000    0.0000   -0.0000   -0.0000    0.0000    0.0000
       83 NB     4f2-      -0.0000   -0.0000   -0.0000   -0.0000   -0.0000   -0.0000   -0.0003   -0.0000   -0.0000    0.0000
       84 NB     5f2-      -0.0000    0.0000   -0.0000   -0.0000   -0.0000    0.0000   -0.0002   -0.0000   -0.0000    0.0000
       85 NB     6f2-       0.0000   -0.0000    0.0000    0.0000    0.0000   -0.0000    0.0001    0.0000    0.0000   -0.0000
       86 NB     7f2-      -0.0000    0.0000   -0.0000   -0.0000   -0.0000    0.0000   -0.0000   -0.0000   -0.0000    0.0000
       87 NB     8f2-      -0.0000    0.0000   -0.0000   -0.0000   -0.0000   -0.0000   -0.0000   -0.0000   -0.0000    0.0000
       88 NB     4f1-      -0.0000   -0.0000   -0.0000   -0.0000   -0.0000   -0.0000   -0.0002   -0.0000   -0.0000   -0.0000
       89 NB     5f1-      -0.0000   -0.0000   -0.0000   -0.0000   -0.0000    0.0000   -0.0002   -0.0000   -0.0000   -0.0000
       90 NB     6f1-      -0.0000    0.0000    0.0000    0.0000    0.0000   -0.0000    0.0001    0.0000    0.0000    0.0000
       91 NB     7f1-       0.0000   -0.0000   -0.0000   -0.0000   -0.0000   -0.0000   -0.0001   -0.0000   -0.0000   -0.0000
       92 NB     8f1-      -0.0000   -0.0000   -0.0000   -0.0000   -0.0000   -0.0000   -0.0001   -0.0000   -0.0000   -0.0000
       93 NB     4f0       -0.0000    0.0000    0.0000   -0.0000   -0.0000   -0.0004    0.0000   -0.0000   -0.0003   -0.0000
       94 NB     5f0       -0.0000    0.0000    0.0000   -0.0000   -0.0000   -0.0004    0.0000   -0.0000   -0.0003   -0.0000
       95 NB     6f0        0.0000   -0.0000   -0.0000    0.0000    0.0000    0.0002   -0.0000    0.0000    0.0002    0.0000
       96 NB     7f0       -0.0000    0.0000    0.0000   -0.0000   -0.0000   -0.0001    0.0000   -0.0000   -0.0001    0.0000
       97 NB     8f0        0.0000   -0.0000    0.0000   -0.0000   -0.0000   -0.0000    0.0000   -0.0000   -0.0001    0.0000
       98 NB     4f1+      -0.0000    0.0000    0.0000   -0.0000    0.0000   -0.0000    0.0000   -0.0002    0.0000    0.0003
       99 NB     5f1+      -0.0000    0.0000    0.0000   -0.0000    0.0000   -0.0000    0.0000   -0.0002    0.0000    0.0002
      100 NB     6f1+       0.0000   -0.0000   -0.0000    0.0000   -0.0000    0.0000   -0.0000    0.0001   -0.0000   -0.0001
      101 NB     7f1+      -0.0000    0.0000    0.0000   -0.0000    0.0000   -0.0000    0.0000   -0.0001    0.0000    0.0001
      102 NB     8f1+       0.0000   -0.0000    0.0000   -0.0000    0.0000   -0.0000    0.0000   -0.0001    0.0000    0.0000
      103 NB     4f2+       0.0000   -0.0000   -0.0000    0.0000   -0.0000    0.0000   -0.0000    0.0003   -0.0000    0.0014
      104 NB     5f2+       0.0000   -0.0000   -0.0000    0.0000   -0.0000    0.0000   -0.0000    0.0002   -0.0000    0.0011
      105 NB     6f2+      -0.0000    0.0000    0.0000   -0.0000    0.0000   -0.0000    0.0000   -0.0001    0.0000   -0.0005
      106 NB     7f2+       0.0000   -0.0000   -0.0000    0.0000   -0.0000    0.0000   -0.0000    0.0000   -0.0000    0.0002
      107 NB     8f2+      -0.0000    0.0000   -0.0000    0.0000   -0.0000    0.0000   -0.0000    0.0000   -0.0000    0.0001
      108 NB     4f3+      -0.0000    0.0000   -0.0000    0.0000    0.0000   -0.0003    0.0000   -0.0000    0.0002    0.0000
      109 NB     5f3+      -0.0000    0.0000   -0.0000    0.0000    0.0000   -0.0002    0.0000   -0.0000    0.0002    0.0000
      110 NB     6f3+       0.0000   -0.0000    0.0000    0.0000   -0.0000    0.0001   -0.0000    0.0000   -0.0001   -0.0000
      111 NB     7f3+      -0.0000    0.0000   -0.0000   -0.0000    0.0000   -0.0001    0.0000   -0.0000    0.0000   -0.0000
      112 NB     8f3+       0.0000   -0.0000    0.0000   -0.0000    0.0000   -0.0000    0.0000   -0.0000    0.0000   -0.0000
      113 NB     5g4-      -0.0000   -0.0000    0.0000    0.0000    0.0000   -0.0000   -0.0003   -0.0000   -0.0000    0.0000
      114 NB     6g4-       0.0000    0.0000   -0.0000   -0.0000   -0.0000    0.0000    0.0002    0.0000    0.0000   -0.0000
      115 NB     7g4-       0.0000    0.0000    0.0000    0.0000    0.0000   -0.0000   -0.0001   -0.0000   -0.0000   -0.0000
      116 NB     8g4-       0.0000   -0.0000   -0.0000   -0.0000   -0.0000    0.0000    0.0000    0.0000    0.0000    0.0000
      117 NB     5g3-      -0.0000   -0.0000   -0.0000   -0.0000   -0.0000   -0.0000    0.0000    0.0000    0.0000    0.0000
      118 NB     6g3-      -0.0000    0.0000    0.0000    0.0000   -0.0000   -0.0000   -0.0000   -0.0000    0.0000   -0.0000
      119 NB     7g3-       0.0000   -0.0000    0.0000    0.0000    0.0000    0.0000    0.0000    0.0000    0.0000    0.0000
      120 NB     8g3-      -0.0000   -0.0000   -0.0000   -0.0000   -0.0000   -0.0000   -0.0000   -0.0000   -0.0000   -0.0000
      121 NB     5g2-       0.0000    0.0000    0.0000    0.0000    0.0000   -0.0000    0.0000    0.0000    0.0000   -0.0000
      122 NB     6g2-      -0.0000   -0.0000   -0.0000   -0.0000   -0.0000    0.0000   -0.0000   -0.0000   -0.0000    0.0000
      123 NB     7g2-      -0.0000    0.0000    0.0000    0.0000    0.0000   -0.0000    0.0000    0.0000    0.0000   -0.0000
      124 NB     8g2-       0.0000   -0.0000   -0.0000   -0.0000   -0.0000    0.0000    0.0000    0.0000   -0.0000    0.0000
      125 NB     5g1-      -0.0000   -0.0000    0.0000    0.0000    0.0000    0.0000   -0.0003   -0.0000   -0.0000    0.0000
      126 NB     6g1-       0.0000   -0.0000   -0.0000   -0.0000   -0.0000   -0.0000    0.0002    0.0000    0.0000   -0.0000
      127 NB     7g1-       0.0000    0.0000    0.0000    0.0000    0.0000    0.0000   -0.0001   -0.0000   -0.0000    0.0000
      128 NB     8g1-      -0.0000    0.0000   -0.0000   -0.0000   -0.0000    0.0000    0.0000    0.0000    0.0000   -0.0000
      129 NB     5g0       -0.0000    0.0000    0.0000    0.0000    0.0000   -0.0000    0.0000   -0.0000   -0.0005   -0.0000
      130 NB     6g0        0.0000   -0.0000   -0.0000   -0.0000   -0.0000    0.0000   -0.0000    0.0000    0.0004    0.0000
      131 NB     7g0       -0.0000    0.0000    0.0000    0.0000    0.0000   -0.0000    0.0000   -0.0000   -0.0002   -0.0000
      132 NB     8g0        0.0000   -0.0000    0.0000   -0.0000   -0.0000    0.0000   -0.0000    0.0000    0.0001    0.0000
      133 NB     5g1+       0.0000   -0.0000   -0.0000    0.0000   -0.0000   -0.0000    0.0000   -0.0003    0.0000   -0.0004
      134 NB     6g1+      -0.0000    0.0000    0.0000   -0.0000    0.0000    0.0000   -0.0000    0.0002   -0.0000    0.0002
      135 NB     7g1+       0.0000   -0.0000   -0.0000    0.0000   -0.0000   -0.0000    0.0000   -0.0001    0.0000   -0.0001
      136 NB     8g1+      -0.0000    0.0000    0.0000   -0.0000    0.0000    0.0000   -0.0000    0.0000   -0.0000    0.0000
      137 NB     5g2+      -0.0000    0.0000    0.0000   -0.0000   -0.0000   -0.0000    0.0000   -0.0000    0.0000   -0.0003
      138 NB     6g2+       0.0000   -0.0000   -0.0000    0.0000    0.0000    0.0000   -0.0000    0.0000   -0.0000    0.0002
      139 NB     7g2+      -0.0000    0.0000    0.0000   -0.0000   -0.0000   -0.0000    0.0000   -0.0000    0.0000   -0.0001
      140 NB     8g2+       0.0000    0.0000   -0.0000    0.0000   -0.0000    0.0000    0.0000   -0.0000   -0.0000    0.0001
      141 NB     5g3+       0.0000   -0.0000   -0.0000   -0.0000    0.0000    0.0002    0.0000    0.0000   -0.0003    0.0000
      142 NB     6g3+      -0.0000    0.0000    0.0000    0.0000   -0.0000   -0.0002   -0.0000   -0.0000    0.0002   -0.0000
      143 NB     7g3+       0.0000   -0.0000   -0.0000   -0.0000   -0.0000    0.0001    0.0000    0.0000   -0.0001    0.0000
      144 NB     8g3+      -0.0000   -0.0000   -0.0000   -0.0000    0.0000   -0.0001    0.0000   -0.0000    0.0000    0.0000
      145 NB     5g4+       0.0000   -0.0000   -0.0000    0.0000   -0.0000    0.0000    0.0000   -0.0003    0.0000   -0.0000
      146 NB     6g4+      -0.0000    0.0000    0.0000   -0.0000    0.0000   -0.0000   -0.0000    0.0002   -0.0000    0.0000
      147 NB     7g4+       0.0000   -0.0000   -0.0000    0.0000   -0.0000    0.0000    0.0000   -0.0001    0.0000    0.0000
      148 NB     8g4+      -0.0000    0.0000    0.0000   -0.0000    0.0000   -0.0000   -0.0000    0.0000   -0.0000   -0.0000
      149 NB     6h5-       0.0000    0.0000    0.0000    0.0000   -0.0000    0.0000    0.0000    0.0000    0.0000   -0.0000
      150 NB     7h5-      -0.0000    0.0000   -0.0000   -0.0000    0.0000   -0.0000   -0.0000   -0.0000   -0.0000    0.0000
      151 NB     6h4-       0.0000    0.0000   -0.0000   -0.0000   -0.0000    0.0000    0.0002    0.0000    0.0000   -0.0000
      152 NB     7h4-       0.0000    0.0000    0.0000    0.0000    0.0000    0.0000   -0.0001   -0.0000   -0.0000   -0.0000
      153 NB     6h3-      -0.0000   -0.0000   -0.0000    0.0000   -0.0000   -0.0000   -0.0000   -0.0000    0.0000   -0.0000
      154 NB     7h3-       0.0000   -0.0000    0.0000   -0.0000    0.0000    0.0000    0.0000    0.0000    0.0000    0.0000
      155 NB     6h2-       0.0000    0.0000    0.0000    0.0000    0.0000    0.0000    0.0001    0.0000    0.0000   -0.0000
      156 NB     7h2-      -0.0000   -0.0000   -0.0000   -0.0000   -0.0000   -0.0000   -0.0000   -0.0000   -0.0000    0.0000
      157 NB     6h1-       0.0000   -0.0000    0.0000    0.0000    0.0000   -0.0000    0.0000    0.0000    0.0000    0.0000
      158 NB     7h1-      -0.0000    0.0000   -0.0000   -0.0000   -0.0000    0.0000   -0.0000   -0.0000    0.0000   -0.0000
      159 NB     6h0       -0.0000    0.0000    0.0000   -0.0000   -0.0000   -0.0000    0.0000   -0.0000   -0.0001   -0.0000
      160 NB     7h0        0.0000   -0.0000   -0.0000    0.0000    0.0000    0.0000   -0.0000    0.0000    0.0001    0.0000
      161 NB     6h1+       0.0000    0.0000   -0.0000    0.0000   -0.0000    0.0000   -0.0000    0.0000   -0.0000   -0.0000
      162 NB     7h1+      -0.0000    0.0000    0.0000   -0.0000    0.0000   -0.0000    0.0000   -0.0000    0.0000    0.0000
      163 NB     6h2+       0.0000   -0.0000    0.0000   -0.0000    0.0000   -0.0000    0.0000   -0.0001   -0.0000   -0.0004
      164 NB     7h2+      -0.0000    0.0000   -0.0000    0.0000   -0.0000    0.0000   -0.0000    0.0000    0.0000    0.0002
      165 NB     6h3+      -0.0000    0.0000    0.0000   -0.0000   -0.0000   -0.0001   -0.0000   -0.0000    0.0002   -0.0000
      166 NB     7h3+       0.0000   -0.0000    0.0000    0.0000    0.0000    0.0000    0.0000    0.0000   -0.0001    0.0000
      167 NB     6h4+      -0.0000    0.0000    0.0000   -0.0000    0.0000   -0.0000   -0.0000    0.0002   -0.0000    0.0000
      168 NB     7h4+       0.0000    0.0000   -0.0000    0.0000    0.0000    0.0000    0.0000   -0.0001    0.0000    0.0000
      169 NB     6h5+      -0.0000    0.0000    0.0000   -0.0000    0.0000   -0.0000    0.0000   -0.0000    0.0000   -0.0005
      170 NB     7h5+       0.0000   -0.0000   -0.0000    0.0000   -0.0000    0.0000   -0.0000    0.0000   -0.0000    0.0002

          Orbital           11        12        13        14        15        16        17        18        19        20    
          Energy           -8.4328   -8.4251   -8.4251   -8.4226   -2.6917   -1.6207   -1.6207   -1.5076   -0.1626   -0.1008
          Occ. No.          2.0000    2.0000    2.0000    2.0000    2.0000    2.0000    2.0000    2.0000    0.0000    0.0000

        1 NB     1s         0.0000    0.0000   -0.0000    0.0000    0.0000   -0.0000   -0.0000   -0.0000    0.0000    0.0000
        2 NB     2s         0.0000   -0.0000   -0.0000    0.0000    0.0000   -0.0000    0.0000    0.0000    0.0000    0.0000
        3 NB     3s        -0.0000   -0.0000   -0.0000    0.0009   -0.0015    0.0000   -0.0000   -0.0005   -0.0002   -0.0000
        4 NB     4s         0.0000    0.0000    0.0000   -0.0016   -0.9954    0.0000   -0.0000   -0.0645    0.0039    0.0000
        5 NB     5s         0.0000   -0.0000   -0.0000    0.0001    0.0083    0.0000    0.0000    0.0106    0.9442    0.0000
        6 NB     6s         0.0000    0.0000    0.0000   -0.0001   -0.0085   -0.0000   -0.0000   -0.0097    0.2431    0.0000
        7 NB     7s        -0.0000   -0.0000   -0.0000    0.0002    0.0174    0.0000    0.0000    0.0134   -0.0151    0.0000
        8 NB     8s        -0.0000    0.0000    0.0000   -0.0000   -0.0082    0.0000    0.0000   -0.0025   -0.0274    0.0000
        9 NB     9s         0.0000    0.0000    0.0000   -0.0000   -0.0016    0.0000   -0.0000   -0.0016   -0.0058    0.0000
       10 NB    10s        -0.0000    0.0000    0.0000   -0.0000    0.0002   -0.0000   -0.0000   -0.0000   -0.0004    0.0000
       11 NB     2px        0.0000   -0.0000   -0.0000    0.0000   -0.0000    0.0000   -0.0000    0.0000    0.0000   -0.0000
       12 NB     3px       -0.0000   -0.0000   -0.0028   -0.0000    0.0000   -0.0000    0.0017   -0.0000   -0.0000    0.0000
       13 NB     4px        0.0000    0.0000    0.0024    0.0000   -0.0000   -0.0000    0.9901   -0.0000   -0.0000    0.0000
       14 NB     5px       -0.0000   -0.0000   -0.0003   -0.0000   -0.0000    0.0000   -0.0047   -0.0000    0.0000   -0.0000
       15 NB     6px        0.0000    0.0000    0.0003    0.0000    0.0000   -0.0000    0.0127    0.0000    0.0000   -0.0000
       16 NB     7px        0.0000    0.0000    0.0001    0.0000   -0.0000    0.0000   -0.0105    0.0000    0.0000   -0.0000
       17 NB     8px       -0.0000   -0.0000   -0.0003   -0.0000   -0.0000   -0.0000    0.0042   -0.0000    0.0000   -0.0000
       18 NB     9px        0.0000    0.0000    0.0001    0.0000    0.0000   -0.0000    0.0035   -0.0000    0.0000   -0.0000
       19 NB    10px       -0.0000   -0.0000   -0.0000    0.0000    0.0000   -0.0000    0.0005    0.0000    0.0000   -0.0000
       20 NB     2py        0.0000   -0.0000    0.0000    0.0000   -0.0000   -0.0000   -0.0000    0.0000   -0.0000    0.0000
       21 NB     3py       -0.0003   -0.0028    0.0000   -0.0000    0.0000    0.0017    0.0000    0.0000    0.0000   -0.0002
       22 NB     4py        0.0009    0.0024   -0.0000   -0.0000    0.0000    0.9901    0.0000    0.0000   -0.0000   -0.0052
       23 NB     5py       -0.0001   -0.0003    0.0000   -0.0000    0.0000   -0.0047   -0.0000    0.0000   -0.0000    0.8444
       24 NB     6py        0.0000    0.0003   -0.0000   -0.0000    0.0000    0.0127    0.0000   -0.0000   -0.0000    0.3673
       25 NB     7py        0.0001    0.0001   -0.0000    0.0000    0.0000   -0.0105   -0.0000   -0.0000   -0.0000    0.3070
       26 NB     8py       -0.0002   -0.0003    0.0000   -0.0000   -0.0000    0.0042    0.0000    0.0000    0.0000    0.1132
       27 NB     9py        0.0001    0.0001   -0.0000    0.0000   -0.0000    0.0035    0.0000    0.0000   -0.0000    0.0389
       28 NB    10py       -0.0000   -0.0000    0.0000   -0.0000    0.0000    0.0005    0.0000   -0.0000    0.0000    0.0052
       29 NB     2pz        0.0000    0.0000   -0.0000   -0.0000   -0.0000    0.0000   -0.0000   -0.0001    0.0000    0.0000
       30 NB     3pz        0.0000    0.0000    0.0000   -0.0006    0.0006   -0.0000    0.0000    0.0026   -0.0000   -0.0000
       31 NB     4pz        0.0000    0.0000   -0.0000   -0.0013   -0.0630   -0.0000    0.0000    0.9918   -0.0100    0.0000
       32 NB     5pz       -0.0000   -0.0000    0.0000    0.0001    0.0012   -0.0000   -0.0000   -0.0055    0.1878    0.0000
       33 NB     6pz       -0.0000   -0.0000   -0.0000    0.0001    0.0011   -0.0000    0.0000    0.0226    0.0461    0.0000
       34 NB     7pz        0.0000    0.0000    0.0000   -0.0003   -0.0022    0.0000   -0.0000   -0.0186    0.0323    0.0000
       35 NB     8pz        0.0000    0.0000    0.0000    0.0004    0.0011   -0.0000   -0.0000    0.0061    0.0090    0.0000
       36 NB     9pz        0.0000    0.0000   -0.0000   -0.0002    0.0005   -0.0000    0.0000    0.0058    0.0021    0.0000
       37 NB    10pz        0.0000    0.0000   -0.0000    0.0000    0.0000   -0.0000    0.0000    0.0008    0.0002    0.0000
       38 NB     3d2-       0.9779    0.2091   -0.0000   -0.0000    0.0000   -0.0010   -0.0000   -0.0000   -0.0000    0.0001
       39 NB     4d2-      -0.0018   -0.0011    0.0000   -0.0000    0.0000    0.0683    0.0000   -0.0000   -0.0000    0.0251
       40 NB     5d2-       0.0013    0.0008   -0.0000   -0.0000   -0.0000   -0.0268   -0.0000   -0.0000   -0.0000    0.0421
       41 NB     6d2-      -0.0009   -0.0005    0.0000   -0.0000    0.0000    0.0031    0.0000   -0.0000    0.0000    0.0197
       42 NB     7d2-       0.0006    0.0003   -0.0000   -0.0000   -0.0000    0.0050    0.0000    0.0000    0.0000    0.0024
       43 NB     8d2-      -0.0004   -0.0001    0.0000   -0.0000   -0.0000   -0.0057   -0.0000   -0.0000    0.0000   -0.0014
       44 NB     9d2-       0.0003    0.0000   -0.0000    0.0000   -0.0000   -0.0007   -0.0000   -0.0000    0.0000   -0.0018
       45 NB    10d2-       0.0004    0.0001   -0.0000   -0.0000   -0.0000   -0.0002   -0.0000    0.0000   -0.0000    0.0004
       46 NB     3d1-      -0.2091    0.9779   -0.0000    0.0000    0.0000   -0.0017   -0.0000   -0.0000   -0.0000    0.0003
       47 NB     4d1-      -0.0001   -0.0028    0.0000   -0.0000    0.0000    0.1010    0.0000    0.0000   -0.0000    0.1114
       48 NB     5d1-       0.0001    0.0021   -0.0000    0.0000   -0.0000   -0.0391   -0.0000   -0.0000   -0.0000    0.1397
       49 NB     6d1-      -0.0000   -0.0014    0.0000   -0.0000    0.0000    0.0047    0.0000    0.0000   -0.0000    0.0893
       50 NB     7d1-      -0.0000    0.0009   -0.0000    0.0000   -0.0000    0.0067    0.0000   -0.0000    0.0000    0.0179
       51 NB     8d1-       0.0001   -0.0006    0.0000   -0.0000   -0.0000   -0.0075   -0.0000   -0.0000    0.0000   -0.0079
       52 NB     9d1-      -0.0001    0.0004   -0.0000    0.0000   -0.0000   -0.0011   -0.0000   -0.0000    0.0000   -0.0078
       53 NB    10d1-      -0.0001    0.0005   -0.0000    0.0000   -0.0000   -0.0002   -0.0000    0.0000   -0.0000    0.0014
       54 NB     3d0       -0.0000   -0.0000   -0.0000    1.0000   -0.0016    0.0000    0.0000    0.0008   -0.0002    0.0000
       55 NB     4d0        0.0000    0.0000    0.0000   -0.0030    0.0268   -0.0000   -0.0000   -0.0763   -0.0603    0.0000
       56 NB     5d0        0.0000   -0.0000   -0.0000    0.0023   -0.0130   -0.0000    0.0000    0.0296   -0.0428    0.0000
       57 NB     6d0       -0.0000    0.0000    0.0000   -0.0015    0.0030   -0.0000    0.0000   -0.0029   -0.0068    0.0000
       58 NB     7d0        0.0000   -0.0000   -0.0000    0.0010    0.0015   -0.0000   -0.0000   -0.0063    0.0040    0.0000
       59 NB     8d0       -0.0000    0.0000    0.0000   -0.0006   -0.0032    0.0000    0.0000    0.0070    0.0012   -0.0000
       60 NB     9d0       -0.0000   -0.0000   -0.0000    0.0004    0.0003   -0.0000    0.0000    0.0010    0.0012   -0.0000
       61 NB    10d0       -0.0000   -0.0000   -0.0000    0.0005   -0.0003   -0.0000   -0.0000    0.0004   -0.0002    0.0000
       62 NB     3d1+      -0.0000    0.0000    0.9779   -0.0000    0.0000    0.0000   -0.0017    0.0000    0.0000   -0.0000
       63 NB     4d1+      -0.0000   -0.0000   -0.0028   -0.0000   -0.0000   -0.0000    0.1010    0.0000   -0.0000   -0.0000
       64 NB     5d1+       0.0000    0.0000    0.0021    0.0000    0.0000    0.0000   -0.0391    0.0000    0.0000   -0.0000
       65 NB     6d1+      -0.0000   -0.0000   -0.0014   -0.0000   -0.0000   -0.0000    0.0047   -0.0000    0.0000   -0.0000
       66 NB     7d1+      -0.0000    0.0000    0.0009   -0.0000    0.0000   -0.0000    0.0067    0.0000    0.0000   -0.0000
       67 NB     8d1+       0.0000   -0.0000   -0.0006    0.0000    0.0000    0.0000   -0.0075    0.0000   -0.0000    0.0000
       68 NB     9d1+      -0.0000    0.0000    0.0004   -0.0000   -0.0000    0.0000   -0.0011   -0.0000   -0.0000    0.0000
       69 NB    10d1+      -0.0000    0.0000    0.0005   -0.0000    0.0000    0.0000   -0.0002    0.0000    0.0000   -0.0000
       70 NB     3d2+      -0.0000   -0.0000   -0.2091   -0.0000   -0.0000   -0.0000    0.0010   -0.0000   -0.0000    0.0000
       71 NB     4d2+       0.0000    0.0000    0.0011    0.0000    0.0000    0.0000   -0.0683    0.0000   -0.0000    0.0000
       72 NB     5d2+      -0.0000   -0.0000   -0.0008   -0.0000   -0.0000   -0.0000    0.0268   -0.0000   -0.0000    0.0000
       73 NB     6d2+       0.0000    0.0000    0.0005    0.0000    0.0000    0.0000   -0.0031    0.0000   -0.0000    0.0000
       74 NB     7d2+      -0.0000   -0.0000   -0.0003   -0.0000   -0.0000    0.0000   -0.0050    0.0000    0.0000    0.0000
       75 NB     8d2+       0.0000    0.0000    0.0001    0.0000   -0.0000   -0.0000    0.0057   -0.0000    0.0000   -0.0000
       76 NB     9d2+      -0.0000   -0.0000   -0.0000   -0.0000    0.0000   -0.0000    0.0007    0.0000    0.0000   -0.0000
       77 NB    10d2+      -0.0000   -0.0000   -0.0001   -0.0000   -0.0000   -0.0000    0.0002   -0.0000   -0.0000    0.0000
       78 NB     4f3-       0.0000    0.0000   -0.0000   -0.0000    0.0000   -0.0000   -0.0000   -0.0000    0.0000   -0.0000
       79 NB     5f3-       0.0000    0.0000   -0.0000    0.0000    0.0000   -0.0000   -0.0000    0.0000   -0.0000    0.0000
       80 NB     6f3-       0.0000   -0.0000   -0.0000    0.0000    0.0000   -0.0000   -0.0000   -0.0000   -0.0000    0.0000
       81 NB     7f3-      -0.0000    0.0000   -0.0000   -0.0000   -0.0000    0.0000    0.0000   -0.0000   -0.0000   -0.0000
       82 NB     8f3-      -0.0000   -0.0000    0.0000    0.0000   -0.0000   -0.0000   -0.0000   -0.0000    0.0000   -0.0000
       83 NB     4f2-       0.0014    0.0011   -0.0000    0.0000   -0.0000   -0.0219   -0.0000   -0.0000   -0.0000    0.0021
       84 NB     5f2-       0.0011    0.0008   -0.0000    0.0000   -0.0000   -0.0059   -0.0000   -0.0000   -0.0000    0.0032
       85 NB     6f2-      -0.0005   -0.0003    0.0000   -0.0000   -0.0000   -0.0037   -0.0000   -0.0000    0.0000    0.0006
       86 NB     7f2-       0.0002    0.0000   -0.0000   -0.0000    0.0000    0.0033    0.0000    0.0000    0.0000   -0.0008
       87 NB     8f2-       0.0001   -0.0000    0.0000   -0.0000    0.0000    0.0001    0.0000   -0.0000    0.0000    0.0003
       88 NB     4f1-      -0.0003    0.0004   -0.0000    0.0000   -0.0000   -0.0158   -0.0000   -0.0000    0.0000   -0.0043
       89 NB     5f1-      -0.0002    0.0004   -0.0000    0.0000   -0.0000   -0.0039   -0.0000   -0.0000   -0.0000    0.0088
       90 NB     6f1-       0.0001   -0.0003    0.0000   -0.0000   -0.0000   -0.0020   -0.0000   -0.0000   -0.0000    0.0054
       91 NB     7f1-      -0.0001    0.0002   -0.0000    0.0000    0.0000    0.0012    0.0000    0.0000   -0.0000    0.0024
       92 NB     8f1-      -0.0000    0.0002   -0.0000    0.0000   -0.0000   -0.0003   -0.0000   -0.0000    0.0000   -0.0011
       93 NB     4f0        0.0000    0.0000    0.0000   -0.0004    0.0455   -0.0000    0.0000   -0.0209   -0.0365   -0.0000
       94 NB     5f0        0.0000    0.0000    0.0000   -0.0002    0.0161    0.0000   -0.0000   -0.0042    0.0366    0.0000
       95 NB     6f0       -0.0000    0.0000   -0.0000   -0.0001    0.0050   -0.0000    0.0000   -0.0029    0.0111    0.0000
       96 NB     7f0        0.0000   -0.0000    0.0000    0.0002   -0.0066   -0.0000   -0.0000    0.0013    0.0027    0.0000
       97 NB     8f0       -0.0000   -0.0000   -0.0000    0.0002   -0.0008   -0.0000    0.0000   -0.0005   -0.0017   -0.0000
       98 NB     4f1+      -0.0000    0.0000    0.0004   -0.0000    0.0000    0.0000   -0.0158    0.0000   -0.0000    0.0000
       99 NB     5f1+      -0.0000    0.0000    0.0004   -0.0000    0.0000    0.0000   -0.0039    0.0000    0.0000   -0.0000
      100 NB     6f1+       0.0000   -0.0000   -0.0003    0.0000    0.0000    0.0000   -0.0020   -0.0000    0.0000   -0.0000
      101 NB     7f1+      -0.0000    0.0000    0.0002   -0.0000   -0.0000   -0.0000    0.0012   -0.0000    0.0000   -0.0000
      102 NB     8f1+      -0.0000    0.0000    0.0002   -0.0000   -0.0000    0.0000   -0.0003   -0.0000   -0.0000    0.0000
      103 NB     4f2+      -0.0000   -0.0000   -0.0011   -0.0000   -0.0000   -0.0000    0.0219   -0.0000    0.0000    0.0000
      104 NB     5f2+      -0.0000   -0.0000   -0.0008   -0.0000   -0.0000   -0.0000    0.0059   -0.0000   -0.0000    0.0000
      105 NB     6f2+       0.0000    0.0000    0.0003    0.0000    0.0000   -0.0000    0.0037   -0.0000    0.0000    0.0000
      106 NB     7f2+      -0.0000   -0.0000   -0.0000   -0.0000    0.0000    0.0000   -0.0033    0.0000    0.0000   -0.0000
      107 NB     8f2+      -0.0000    0.0000    0.0000   -0.0000    0.0000    0.0000   -0.0001    0.0000   -0.0000    0.0000
      108 NB     4f3+       0.0000   -0.0000    0.0000    0.0006    0.0293   -0.0000   -0.0000    0.0265   -0.0263   -0.0000
      109 NB     5f3+      -0.0000   -0.0000    0.0000    0.0005    0.0104    0.0000   -0.0000    0.0067    0.0217   -0.0000
      110 NB     6f3+      -0.0000   -0.0000   -0.0000   -0.0002    0.0032   -0.0000    0.0000    0.0043    0.0056   -0.0000
      111 NB     7f3+      -0.0000    0.0000    0.0000    0.0000   -0.0043   -0.0000    0.0000   -0.0035    0.0015   -0.0000
      112 NB     8f3+      -0.0000   -0.0000    0.0000   -0.0000   -0.0005   -0.0000    0.0000    0.0001   -0.0010    0.0000
      113 NB     5g4-       0.0000    0.0004   -0.0000    0.0000   -0.0000   -0.0193   -0.0000   -0.0000    0.0000   -0.0021
      114 NB     6g4-      -0.0000   -0.0002    0.0000   -0.0000    0.0000    0.0003    0.0000   -0.0000    0.0000   -0.0063
      115 NB     7g4-      -0.0000    0.0001   -0.0000    0.0000    0.0000    0.0040    0.0000    0.0000    0.0000   -0.0033
      116 NB     8g4-       0.0000    0.0000   -0.0000   -0.0000   -0.0000   -0.0002   -0.0000    0.0000   -0.0000   -0.0007
      117 NB     5g3-       0.0000   -0.0000    0.0000   -0.0000    0.0000    0.0000    0.0000    0.0000    0.0000   -0.0000
      118 NB     6g3-      -0.0000    0.0000   -0.0000   -0.0000   -0.0000   -0.0000   -0.0000   -0.0000    0.0000    0.0000
      119 NB     7g3-       0.0000   -0.0000    0.0000    0.0000   -0.0000   -0.0000   -0.0000   -0.0000    0.0000    0.0000
      120 NB     8g3-      -0.0000    0.0000   -0.0000    0.0000    0.0000    0.0000    0.0000   -0.0000    0.0000   -0.0000
      121 NB     5g2-      -0.0003   -0.0004    0.0000   -0.0000    0.0000    0.0014    0.0000    0.0000    0.0000   -0.0014
      122 NB     6g2-       0.0002    0.0002   -0.0000    0.0000   -0.0000   -0.0004   -0.0000    0.0000    0.0000   -0.0011
      123 NB     7g2-      -0.0001   -0.0001    0.0000   -0.0000    0.0000   -0.0006   -0.0000   -0.0000    0.0000   -0.0005
      124 NB     8g2-       0.0001    0.0000   -0.0000   -0.0000   -0.0000    0.0003    0.0000    0.0000    0.0000   -0.0003
      125 NB     5g1-       0.0004   -0.0002    0.0000   -0.0000   -0.0000   -0.0242   -0.0000   -0.0000    0.0000   -0.0050
      126 NB     6g1-      -0.0002    0.0002   -0.0000    0.0000    0.0000    0.0002    0.0000   -0.0000    0.0000   -0.0097
      127 NB     7g1-       0.0001   -0.0002    0.0000   -0.0000    0.0000    0.0049    0.0000    0.0000    0.0000   -0.0048
      128 NB     8g1-      -0.0000    0.0002   -0.0000    0.0000   -0.0000   -0.0002   -0.0000    0.0000    0.0000   -0.0010
      129 NB     5g0       -0.0000    0.0000   -0.0000   -0.0008    0.0028    0.0000    0.0000   -0.0413   -0.0001   -0.0000
      130 NB     6g0       -0.0000   -0.0000    0.0000    0.0005   -0.0003    0.0000   -0.0000    0.0004   -0.0031   -0.0000
      131 NB     7g0        0.0000    0.0000   -0.0000   -0.0002   -0.0006   -0.0000    0.0000    0.0091   -0.0015   -0.0000
      132 NB     8g0        0.0000    0.0000    0.0000    0.0001    0.0002   -0.0000    0.0000   -0.0007   -0.0001   -0.0000
      133 NB     5g1+       0.0000   -0.0000   -0.0002    0.0000   -0.0000    0.0000   -0.0242   -0.0000    0.0000    0.0000
      134 NB     6g1+      -0.0000    0.0000    0.0002   -0.0000   -0.0000   -0.0000    0.0002   -0.0000   -0.0000    0.0000
      135 NB     7g1+       0.0000   -0.0000   -0.0002    0.0000    0.0000   -0.0000    0.0049    0.0000   -0.0000    0.0000
      136 NB     8g1+      -0.0000    0.0000    0.0002   -0.0000    0.0000    0.0000   -0.0002    0.0000   -0.0000    0.0000
      137 NB     5g2+       0.0000    0.0000    0.0004   -0.0000    0.0000    0.0000   -0.0014    0.0000   -0.0000   -0.0000
      138 NB     6g2+      -0.0000   -0.0000   -0.0002    0.0000   -0.0000   -0.0000    0.0004   -0.0000   -0.0000   -0.0000
      139 NB     7g2+       0.0000    0.0000    0.0001   -0.0000   -0.0000   -0.0000    0.0006   -0.0000    0.0000   -0.0000
      140 NB     8g2+      -0.0000   -0.0000   -0.0000    0.0000    0.0000    0.0000   -0.0003    0.0000    0.0000   -0.0000
      141 NB     5g3+      -0.0000   -0.0000   -0.0000   -0.0002   -0.0175    0.0000    0.0000   -0.0259    0.0076    0.0000
      142 NB     6g3+       0.0000    0.0000    0.0000    0.0001    0.0027    0.0000   -0.0000    0.0007    0.0071   -0.0000
      143 NB     7g3+      -0.0000   -0.0000   -0.0000   -0.0000    0.0035   -0.0000    0.0000    0.0058    0.0001   -0.0000
      144 NB     8g3+       0.0000    0.0000    0.0000   -0.0000   -0.0014   -0.0000    0.0000   -0.0006   -0.0006   -0.0000
      145 NB     5g4+       0.0000    0.0000    0.0004   -0.0000   -0.0000    0.0000   -0.0193   -0.0000    0.0000    0.0000
      146 NB     6g4+      -0.0000   -0.0000   -0.0002    0.0000   -0.0000   -0.0000    0.0003   -0.0000    0.0000    0.0000
      147 NB     7g4+      -0.0000    0.0000    0.0001   -0.0000    0.0000   -0.0000    0.0040    0.0000   -0.0000    0.0000
      148 NB     8g4+       0.0000    0.0000    0.0000    0.0000    0.0000    0.0000   -0.0002    0.0000   -0.0000    0.0000
      149 NB     6h5-      -0.0005   -0.0002    0.0000    0.0000   -0.0000    0.0023    0.0000    0.0000    0.0000   -0.0003
      150 NB     7h5-       0.0002    0.0001   -0.0000   -0.0000    0.0000    0.0004    0.0000   -0.0000    0.0000    0.0001
      151 NB     6h4-      -0.0000   -0.0005    0.0000   -0.0000    0.0000    0.0123    0.0000    0.0000   -0.0000   -0.0006
      152 NB     7h4-      -0.0000    0.0002   -0.0000    0.0000    0.0000    0.0022    0.0000    0.0000   -0.0000    0.0010
      153 NB     6h3-      -0.0000    0.0000   -0.0000    0.0000   -0.0000   -0.0000   -0.0000    0.0000   -0.0000    0.0000
      154 NB     7h3-       0.0000   -0.0000    0.0000    0.0000    0.0000   -0.0000    0.0000    0.0000    0.0000   -0.0000
      155 NB     6h2-      -0.0004   -0.0002    0.0000    0.0000    0.0000    0.0038    0.0000    0.0000   -0.0000   -0.0001
      156 NB     7h2-       0.0002    0.0001   -0.0000   -0.0000    0.0000    0.0007    0.0000    0.0000   -0.0000    0.0003
      157 NB     6h1-       0.0000   -0.0008    0.0000   -0.0000    0.0000    0.0024    0.0000   -0.0000    0.0000   -0.0016
      158 NB     7h1-      -0.0000    0.0003   -0.0000    0.0000    0.0000    0.0003    0.0000   -0.0000    0.0000   -0.0008
      159 NB     6h0       -0.0000    0.0000    0.0000   -0.0010    0.0035    0.0000   -0.0000   -0.0076    0.0006   -0.0000
      160 NB     7h0       -0.0000   -0.0000   -0.0000    0.0004    0.0002   -0.0000   -0.0000   -0.0015   -0.0004   -0.0000
      161 NB     6h1+       0.0000   -0.0000   -0.0008   -0.0000   -0.0000   -0.0000    0.0024    0.0000    0.0000    0.0000
      162 NB     7h1+      -0.0000    0.0000    0.0003    0.0000    0.0000   -0.0000    0.0003    0.0000    0.0000    0.0000
      163 NB     6h2+       0.0000    0.0000    0.0002    0.0000    0.0000    0.0000   -0.0038   -0.0000    0.0000   -0.0000
      164 NB     7h2+      -0.0000   -0.0000   -0.0001   -0.0000   -0.0000    0.0000   -0.0007   -0.0000    0.0000    0.0000
      165 NB     6h3+       0.0000    0.0000    0.0000   -0.0002    0.0056   -0.0000   -0.0000    0.0135   -0.0013   -0.0000
      166 NB     7h3+      -0.0000   -0.0000   -0.0000    0.0001    0.0004   -0.0000    0.0000    0.0026   -0.0012    0.0000
      167 NB     6h4+      -0.0000   -0.0000   -0.0005    0.0000    0.0000   -0.0000    0.0123    0.0000   -0.0000    0.0000
      168 NB     7h4+      -0.0000    0.0000    0.0002    0.0000    0.0000   -0.0000    0.0022    0.0000   -0.0000   -0.0000
      169 NB     6h5+       0.0000    0.0000    0.0002    0.0000    0.0000    0.0000   -0.0023    0.0000   -0.0000   -0.0000
      170 NB     7h5+      -0.0000   -0.0000   -0.0001   -0.0000   -0.0000    0.0000   -0.0004   -0.0000   -0.0000    0.0000

          Orbital           21        22        23        24        25        26        27        28        29        30    
          Energy           -0.1008   -0.0871   -0.0605   -0.0605   -0.0494   -0.0490   -0.0490   -0.0300    0.0043    0.0043
          Occ. No.          0.0000    0.0000    0.0000    0.0000    0.0000    0.0000    0.0000    0.0000    0.0000    0.0000

        1 NB     1s        -0.0000   -0.0000    0.0000   -0.0000   -0.0000   -0.0000    0.0000    0.0000   -0.0000   -0.0000
        2 NB     2s        -0.0000   -0.0000    0.0000   -0.0000   -0.0000   -0.0000    0.0000    0.0000    0.0000   -0.0000
        3 NB     3s         0.0000    0.0001    0.0000    0.0000    0.0000    0.0000    0.0000   -0.0001   -0.0000   -0.0000
        4 NB     4s        -0.0000    0.0006   -0.0000    0.0000    0.0026    0.0000    0.0000    0.0023   -0.0000   -0.0000
        5 NB     5s        -0.0000   -0.1603   -0.0000    0.0000    0.0291    0.0000    0.0000    0.2119   -0.0000   -0.0000
        6 NB     6s        -0.0000   -0.1028   -0.0000    0.0000    0.1637    0.0000    0.0000   -0.8512    0.0000    0.0000
        7 NB     7s        -0.0000   -0.0185   -0.0000    0.0000    0.0504    0.0000    0.0000   -0.3515    0.0000    0.0000
        8 NB     8s        -0.0000   -0.0052   -0.0000    0.0000    0.0272    0.0000    0.0000   -0.2078    0.0000    0.0000
        9 NB     9s        -0.0000   -0.0008   -0.0000    0.0000    0.0055    0.0000    0.0000   -0.0434    0.0000    0.0000
       10 NB    10s         0.0000   -0.0001   -0.0000    0.0000    0.0004    0.0000    0.0000   -0.0033    0.0000    0.0000
       11 NB     2px        0.0000    0.0000    0.0000   -0.0000   -0.0000    0.0000    0.0000    0.0000    0.0000    0.0000
       12 NB     3px       -0.0002   -0.0000   -0.0000    0.0000    0.0000   -0.0001   -0.0000   -0.0000   -0.0000   -0.0000
       13 NB     4px       -0.0052   -0.0000   -0.0000    0.0055    0.0000   -0.0167   -0.0000   -0.0000   -0.0056   -0.0000
       14 NB     5px        0.8444    0.0000    0.0000   -0.0257    0.0000   -0.1367   -0.0000    0.0000   -0.0026   -0.0000
       15 NB     6px        0.3673    0.0000    0.0000   -0.0070    0.0000   -0.0936   -0.0000   -0.0000    0.0087    0.0000
       16 NB     7px        0.3070    0.0000    0.0000   -0.0077    0.0000   -0.0835   -0.0000   -0.0000    0.0177    0.0000
       17 NB     8px        0.1132    0.0000    0.0000   -0.0027    0.0000   -0.0352   -0.0000   -0.0000    0.0105    0.0000
       18 NB     9px        0.0389    0.0000    0.0000   -0.0007    0.0000   -0.0135   -0.0000   -0.0000    0.0044    0.0000
       19 NB    10px        0.0052    0.0000    0.0000   -0.0001    0.0000   -0.0019   -0.0000   -0.0000    0.0006    0.0000
       20 NB     2py        0.0000    0.0000    0.0000    0.0000   -0.0000   -0.0000    0.0000    0.0000    0.0000   -0.0000
       21 NB     3py       -0.0000   -0.0000   -0.0000   -0.0000    0.0000    0.0000   -0.0001   -0.0000   -0.0000    0.0000
       22 NB     4py       -0.0000    0.0000   -0.0055   -0.0000   -0.0000    0.0000   -0.0167   -0.0000   -0.0000    0.0056
       23 NB     5py        0.0000   -0.0000    0.0257    0.0000   -0.0000    0.0000   -0.1367    0.0000   -0.0000    0.0026
       24 NB     6py        0.0000   -0.0000    0.0070    0.0000   -0.0000    0.0000   -0.0936    0.0000    0.0000   -0.0087
       25 NB     7py        0.0000   -0.0000    0.0077    0.0000   -0.0000    0.0000   -0.0835    0.0000    0.0000   -0.0177
       26 NB     8py        0.0000   -0.0000    0.0027    0.0000   -0.0000    0.0000   -0.0352    0.0000    0.0000   -0.0105
       27 NB     9py        0.0000   -0.0000    0.0007    0.0000   -0.0000    0.0000   -0.0135    0.0000    0.0000   -0.0044
       28 NB    10py        0.0000   -0.0000    0.0001    0.0000   -0.0000    0.0000   -0.0019    0.0000    0.0000   -0.0006
       29 NB     2pz       -0.0000    0.0000   -0.0000    0.0000   -0.0000   -0.0000   -0.0000    0.0000   -0.0000    0.0000
       30 NB     3pz        0.0000   -0.0002    0.0000   -0.0000    0.0001    0.0000    0.0000   -0.0000    0.0000    0.0000
       31 NB     4pz        0.0000    0.0033    0.0000   -0.0000    0.0119    0.0000    0.0000   -0.0094    0.0000    0.0000
       32 NB     5pz       -0.0000    0.8028    0.0000   -0.0000   -0.0861   -0.0000   -0.0000   -0.0034   -0.0000   -0.0000
       33 NB     6pz       -0.0000    0.4022    0.0000   -0.0000   -0.0219   -0.0000   -0.0000   -0.0808    0.0000    0.0000
       34 NB     7pz       -0.0000    0.3506    0.0000   -0.0000   -0.0190   -0.0000   -0.0000   -0.0948    0.0000    0.0000
       35 NB     8pz       -0.0000    0.1355    0.0000   -0.0000   -0.0053   -0.0000   -0.0000   -0.0488    0.0000    0.0000
       36 NB     9pz       -0.0000    0.0485    0.0000   -0.0000   -0.0010   -0.0000   -0.0000   -0.0208    0.0000    0.0000
       37 NB    10pz       -0.0000    0.0066    0.0000   -0.0000   -0.0001   -0.0000   -0.0000   -0.0030    0.0000    0.0000
       38 NB     3d2-       0.0000   -0.0000    0.0004    0.0000   -0.0000   -0.0000    0.0001    0.0000    0.0000   -0.0007
       39 NB     4d2-       0.0000   -0.0000    0.4858    0.0000    0.0000   -0.0000    0.0953    0.0000    0.0000   -0.5804
       40 NB     5d2-       0.0000   -0.0000    0.5300    0.0000    0.0000   -0.0000    0.2093   -0.0000    0.0000   -0.0540
       41 NB     6d2-       0.0000    0.0000    0.5298    0.0000    0.0000   -0.0000    0.2553   -0.0000   -0.0000    0.3952
       42 NB     7d2-       0.0000    0.0000    0.2376    0.0000    0.0000   -0.0000    0.1393   -0.0000   -0.0000    0.4872
       43 NB     8d2-      -0.0000    0.0000    0.0123    0.0000    0.0000   -0.0000    0.0188   -0.0000   -0.0000    0.1823
       44 NB     9d2-      -0.0000    0.0000   -0.0124   -0.0000   -0.0000   -0.0000    0.0008   -0.0000   -0.0000    0.0875
       45 NB    10d2-       0.0000   -0.0000    0.0051    0.0000    0.0000   -0.0000    0.0020    0.0000    0.0000   -0.0050
       46 NB     3d1-       0.0000   -0.0000   -0.0002   -0.0000   -0.0000   -0.0000    0.0003    0.0000   -0.0000    0.0004
       47 NB     4d1-       0.0000   -0.0000   -0.2175   -0.0000    0.0000   -0.0000    0.2963   -0.0000   -0.0000    0.3143
       48 NB     5d1-       0.0000   -0.0000   -0.2054   -0.0000    0.0000   -0.0000    0.5096   -0.0000   -0.0000    0.0227
       49 NB     6d1-       0.0000   -0.0000   -0.2039   -0.0000    0.0000   -0.0000    0.6058   -0.0000    0.0000   -0.2059
       50 NB     7d1-       0.0000   -0.0000   -0.0911   -0.0000    0.0000   -0.0000    0.3264   -0.0000    0.0000   -0.2499
       51 NB     8d1-      -0.0000    0.0000   -0.0039   -0.0000    0.0000   -0.0000    0.0424   -0.0000    0.0000   -0.0939
       52 NB     9d1-      -0.0000    0.0000    0.0051    0.0000    0.0000   -0.0000    0.0010   -0.0000    0.0000   -0.0450
       53 NB    10d1-       0.0000   -0.0000   -0.0020   -0.0000    0.0000   -0.0000    0.0047    0.0000   -0.0000    0.0026
       54 NB     3d0       -0.0000    0.0000   -0.0000    0.0000    0.0004    0.0000    0.0000   -0.0002    0.0000    0.0000
       55 NB     4d0       -0.0000    0.0479   -0.0000    0.0000    0.3234    0.0000    0.0000   -0.0401   -0.0000   -0.0000
       56 NB     5d0       -0.0000    0.0675   -0.0000    0.0000    0.5550    0.0000    0.0000    0.0560    0.0000    0.0000
       57 NB     6d0       -0.0000    0.0715   -0.0000    0.0000    0.6506    0.0000    0.0000    0.1479    0.0000    0.0000
       58 NB     7d0       -0.0000    0.0248   -0.0000    0.0000    0.3481    0.0000    0.0000    0.1112    0.0000    0.0000
       59 NB     8d0        0.0000   -0.0041   -0.0000   -0.0000    0.0446    0.0000    0.0000    0.0249    0.0000    0.0000
       60 NB     9d0        0.0000   -0.0046    0.0000   -0.0000    0.0003    0.0000    0.0000    0.0083    0.0000    0.0000
       61 NB    10d0       -0.0000    0.0009   -0.0000    0.0000    0.0051    0.0000    0.0000    0.0005   -0.0000   -0.0000
       62 NB     3d1+       0.0003    0.0000   -0.0000    0.0002   -0.0000    0.0003    0.0000    0.0000   -0.0004   -0.0000
       63 NB     4d1+       0.1114    0.0000   -0.0000    0.2175   -0.0000    0.2963    0.0000   -0.0000   -0.3143   -0.0000
       64 NB     5d1+       0.1397    0.0000   -0.0000    0.2054   -0.0000    0.5096    0.0000    0.0000   -0.0227   -0.0000
       65 NB     6d1+       0.0893    0.0000   -0.0000    0.2039   -0.0000    0.6058    0.0000    0.0000    0.2059    0.0000
       66 NB     7d1+       0.0179    0.0000   -0.0000    0.0911   -0.0000    0.3264    0.0000    0.0000    0.2499    0.0000
       67 NB     8d1+      -0.0079   -0.0000   -0.0000    0.0039   -0.0000    0.0424    0.0000    0.0000    0.0939    0.0000
       68 NB     9d1+      -0.0078   -0.0000    0.0000   -0.0051   -0.0000    0.0010    0.0000    0.0000    0.0450    0.0000
       69 NB    10d1+       0.0014    0.0000   -0.0000    0.0020   -0.0000    0.0047    0.0000    0.0000   -0.0026   -0.0000
       70 NB     3d2+      -0.0001    0.0000   -0.0000    0.0004    0.0000   -0.0001   -0.0000   -0.0000   -0.0007   -0.0000
       71 NB     4d2+      -0.0251    0.0000   -0.0000    0.4858    0.0000   -0.0953   -0.0000   -0.0000   -0.5804   -0.0000
       72 NB     5d2+      -0.0421    0.0000   -0.0000    0.5300    0.0000   -0.2093   -0.0000    0.0000   -0.0540   -0.0000
       73 NB     6d2+      -0.0197    0.0000   -0.0000    0.5298    0.0000   -0.2553   -0.0000    0.0000    0.3952    0.0000
       74 NB     7d2+      -0.0024    0.0000   -0.0000    0.2376    0.0000   -0.1393   -0.0000    0.0000    0.4872    0.0000
       75 NB     8d2+       0.0014   -0.0000   -0.0000    0.0123    0.0000   -0.0188   -0.0000    0.0000    0.1823    0.0000
       76 NB     9d2+       0.0018   -0.0000    0.0000   -0.0124    0.0000   -0.0008   -0.0000    0.0000    0.0875    0.0000
       77 NB    10d2+      -0.0004    0.0000   -0.0000    0.0051    0.0000   -0.0020   -0.0000    0.0000   -0.0050   -0.0000
       78 NB     4f3-      -0.0000    0.0000    0.0000    0.0000   -0.0000   -0.0000    0.0000   -0.0000    0.0000   -0.0000
       79 NB     5f3-       0.0000   -0.0000   -0.0000   -0.0000    0.0000    0.0000   -0.0000   -0.0000   -0.0000    0.0000
       80 NB     6f3-       0.0000   -0.0000   -0.0000   -0.0000    0.0000    0.0000   -0.0000    0.0000   -0.0000    0.0000
       81 NB     7f3-      -0.0000   -0.0000   -0.0000   -0.0000    0.0000    0.0000   -0.0000    0.0000   -0.0000    0.0000
       82 NB     8f3-       0.0000    0.0000    0.0000    0.0000   -0.0000   -0.0000    0.0000   -0.0000    0.0000   -0.0000
       83 NB     4f2-       0.0000   -0.0000    0.0441    0.0000    0.0000   -0.0000    0.0248    0.0000    0.0000   -0.0686
       84 NB     5f2-       0.0000    0.0000   -0.0357   -0.0000   -0.0000    0.0000   -0.0215   -0.0000   -0.0000    0.0483
       85 NB     6f2-       0.0000    0.0000   -0.0270   -0.0000   -0.0000    0.0000   -0.0165    0.0000   -0.0000    0.0304
       86 NB     7f2-      -0.0000    0.0000   -0.0192   -0.0000   -0.0000    0.0000   -0.0122    0.0000   -0.0000    0.0196
       87 NB     8f2-       0.0000    0.0000    0.0135    0.0000    0.0000   -0.0000    0.0087   -0.0000    0.0000   -0.0120
       88 NB     4f1-      -0.0000   -0.0000   -0.0152   -0.0000   -0.0000   -0.0000    0.0145   -0.0000   -0.0000    0.0252
       89 NB     5f1-       0.0000    0.0000    0.0147    0.0000    0.0000    0.0000   -0.0211    0.0000    0.0000   -0.0200
       90 NB     6f1-       0.0000    0.0000    0.0120    0.0000    0.0000    0.0000   -0.0224    0.0000    0.0000   -0.0132
       91 NB     7f1-       0.0000    0.0000    0.0082    0.0000   -0.0000    0.0000   -0.0171    0.0000    0.0000   -0.0076
       92 NB     8f1-      -0.0000   -0.0000   -0.0059   -0.0000   -0.0000   -0.0000    0.0131   -0.0000   -0.0000    0.0043
       93 NB     4f0        0.0000   -0.0059    0.0000   -0.0000    0.0024   -0.0000   -0.0000   -0.0351    0.0000    0.0000
       94 NB     5f0       -0.0000    0.0102   -0.0000    0.0000   -0.0164    0.0000    0.0000    0.0321   -0.0000   -0.0000
       95 NB     6f0       -0.0000    0.0080   -0.0000    0.0000   -0.0191    0.0000    0.0000    0.0061   -0.0000   -0.0000
       96 NB     7f0       -0.0000    0.0045   -0.0000    0.0000   -0.0139    0.0000    0.0000   -0.0015   -0.0000   -0.0000
       97 NB     8f0        0.0000   -0.0024    0.0000   -0.0000    0.0111   -0.0000   -0.0000    0.0023    0.0000    0.0000
       98 NB     4f1+      -0.0043    0.0000   -0.0000    0.0152    0.0000    0.0145    0.0000   -0.0000   -0.0252   -0.0000
       99 NB     5f1+       0.0088   -0.0000    0.0000   -0.0147   -0.0000   -0.0211   -0.0000    0.0000    0.0200    0.0000
      100 NB     6f1+       0.0054   -0.0000    0.0000   -0.0120   -0.0000   -0.0224   -0.0000   -0.0000    0.0132    0.0000
      101 NB     7f1+       0.0024   -0.0000    0.0000   -0.0082   -0.0000   -0.0171   -0.0000   -0.0000    0.0076    0.0000
      102 NB     8f1+      -0.0011    0.0000   -0.0000    0.0059    0.0000    0.0131    0.0000    0.0000   -0.0043   -0.0000
      103 NB     4f2+      -0.0021   -0.0000   -0.0000    0.0441    0.0000   -0.0248   -0.0000    0.0000   -0.0686   -0.0000
      104 NB     5f2+      -0.0032    0.0000    0.0000   -0.0357   -0.0000    0.0215    0.0000   -0.0000    0.0483    0.0000
      105 NB     6f2+      -0.0006    0.0000    0.0000   -0.0270   -0.0000    0.0165    0.0000   -0.0000    0.0304    0.0000
      106 NB     7f2+       0.0008    0.0000    0.0000   -0.0192   -0.0000    0.0122    0.0000   -0.0000    0.0196    0.0000
      107 NB     8f2+      -0.0003   -0.0000   -0.0000    0.0135    0.0000   -0.0087   -0.0000    0.0000   -0.0120   -0.0000
      108 NB     4f3+       0.0000    0.0100   -0.0000    0.0000    0.0148    0.0000   -0.0000   -0.0289   -0.0000   -0.0000
      109 NB     5f3+       0.0000   -0.0116    0.0000   -0.0000   -0.0105    0.0000    0.0000    0.0234    0.0000    0.0000
      110 NB     6f3+       0.0000   -0.0053    0.0000   -0.0000   -0.0060    0.0000    0.0000    0.0064    0.0000    0.0000
      111 NB     7f3+       0.0000   -0.0023    0.0000   -0.0000   -0.0040    0.0000    0.0000    0.0018    0.0000    0.0000
      112 NB     8f3+      -0.0000    0.0016   -0.0000    0.0000    0.0026   -0.0000   -0.0000   -0.0008   -0.0000   -0.0000
      113 NB     5g4-      -0.0000   -0.0000   -0.0011   -0.0000    0.0000   -0.0000    0.0044    0.0000   -0.0000    0.0024
      114 NB     6g4-      -0.0000    0.0000   -0.0011   -0.0000    0.0000   -0.0000    0.0031    0.0000   -0.0000    0.0016
      115 NB     7g4-      -0.0000    0.0000   -0.0004   -0.0000    0.0000   -0.0000    0.0007    0.0000   -0.0000    0.0003
      116 NB     8g4-      -0.0000    0.0000   -0.0001   -0.0000    0.0000   -0.0000    0.0002    0.0000   -0.0000    0.0000
      117 NB     5g3-      -0.0000   -0.0000    0.0000   -0.0000   -0.0000    0.0000   -0.0000    0.0000    0.0000   -0.0000
      118 NB     6g3-       0.0000    0.0000   -0.0000   -0.0000   -0.0000    0.0000   -0.0000    0.0000    0.0000    0.0000
      119 NB     7g3-       0.0000    0.0000   -0.0000   -0.0000   -0.0000    0.0000   -0.0000    0.0000    0.0000   -0.0000
      120 NB     8g3-      -0.0000   -0.0000    0.0000   -0.0000   -0.0000    0.0000   -0.0000    0.0000    0.0000   -0.0000
      121 NB     5g2-      -0.0000    0.0000   -0.0024   -0.0000   -0.0000    0.0000   -0.0028    0.0000   -0.0000    0.0031
      122 NB     6g2-      -0.0000    0.0000   -0.0021   -0.0000   -0.0000    0.0000   -0.0018    0.0000   -0.0000    0.0023
      123 NB     7g2-      -0.0000    0.0000   -0.0009   -0.0000   -0.0000    0.0000   -0.0002    0.0000   -0.0000    0.0007
      124 NB     8g2-      -0.0000    0.0000   -0.0003   -0.0000   -0.0000    0.0000   -0.0001   -0.0000   -0.0000    0.0002
      125 NB     5g1-      -0.0000    0.0000    0.0069    0.0000   -0.0000    0.0000   -0.0005    0.0000    0.0000   -0.0121
      126 NB     6g1-      -0.0000    0.0000    0.0040    0.0000   -0.0000    0.0000   -0.0013    0.0000    0.0000   -0.0071
      127 NB     7g1-      -0.0000    0.0000    0.0006    0.0000   -0.0000    0.0000   -0.0012    0.0000    0.0000   -0.0007
      128 NB     8g1-      -0.0000    0.0000    0.0002    0.0000   -0.0000    0.0000   -0.0004   -0.0000    0.0000   -0.0001
      129 NB     5g0        0.0000   -0.0069   -0.0000    0.0000   -0.0071   -0.0000   -0.0000    0.0010   -0.0000    0.0000
      130 NB     6g0        0.0000   -0.0120   -0.0000    0.0000   -0.0040    0.0000    0.0000   -0.0014    0.0000    0.0000
      131 NB     7g0        0.0000   -0.0054   -0.0000    0.0000   -0.0008    0.0000    0.0000   -0.0009    0.0000    0.0000
      132 NB     8g0        0.0000   -0.0011   -0.0000    0.0000   -0.0005   -0.0000   -0.0000   -0.0000    0.0000    0.0000
      133 NB     5g1+      -0.0050   -0.0000    0.0000   -0.0069   -0.0000   -0.0005   -0.0000    0.0000    0.0121    0.0000
      134 NB     6g1+      -0.0097   -0.0000    0.0000   -0.0040   -0.0000   -0.0013   -0.0000    0.0000    0.0071    0.0000
      135 NB     7g1+      -0.0048   -0.0000    0.0000   -0.0006   -0.0000   -0.0012   -0.0000   -0.0000    0.0007    0.0000
      136 NB     8g1+      -0.0010   -0.0000    0.0000   -0.0002    0.0000   -0.0004   -0.0000   -0.0000    0.0001    0.0000
      137 NB     5g2+       0.0014    0.0000    0.0000   -0.0024   -0.0000    0.0028    0.0000   -0.0000    0.0031    0.0000
      138 NB     6g2+       0.0011    0.0000    0.0000   -0.0021   -0.0000    0.0018    0.0000   -0.0000    0.0023    0.0000
      139 NB     7g2+       0.0005    0.0000    0.0000   -0.0009   -0.0000    0.0002    0.0000    0.0000    0.0007    0.0000
      140 NB     8g2+       0.0003   -0.0000    0.0000   -0.0003   -0.0000    0.0001    0.0000    0.0000    0.0002    0.0000
      141 NB     5g3+      -0.0000   -0.0042    0.0000   -0.0000   -0.0017   -0.0000   -0.0000    0.0075   -0.0000    0.0000
      142 NB     6g3+       0.0000   -0.0071    0.0000   -0.0000   -0.0003    0.0000    0.0000    0.0069    0.0000    0.0000
      143 NB     7g3+       0.0000   -0.0027    0.0000   -0.0000    0.0006    0.0000    0.0000   -0.0000    0.0000    0.0000
      144 NB     8g3+       0.0000   -0.0003   -0.0000    0.0000    0.0002    0.0000   -0.0000   -0.0007   -0.0000   -0.0000
      145 NB     5g4+      -0.0021    0.0000   -0.0000    0.0011   -0.0000    0.0044    0.0000    0.0000   -0.0024   -0.0000
      146 NB     6g4+      -0.0063   -0.0000   -0.0000    0.0011   -0.0000    0.0031    0.0000    0.0000   -0.0016   -0.0000
      147 NB     7g4+      -0.0033   -0.0000   -0.0000    0.0004   -0.0000    0.0007    0.0000   -0.0000   -0.0003   -0.0000
      148 NB     8g4+      -0.0007   -0.0000   -0.0000    0.0001   -0.0000    0.0002    0.0000   -0.0000   -0.0000   -0.0000
      149 NB     6h5-      -0.0000   -0.0000   -0.0052   -0.0000   -0.0000    0.0000   -0.0011   -0.0000   -0.0000    0.0088
      150 NB     7h5-       0.0000    0.0000   -0.0031   -0.0000   -0.0000    0.0000   -0.0007   -0.0000   -0.0000    0.0050
      151 NB     6h4-      -0.0000    0.0000    0.0014    0.0000   -0.0000    0.0000   -0.0033    0.0000    0.0000   -0.0031
      152 NB     7h4-       0.0000    0.0000    0.0009    0.0000   -0.0000    0.0000   -0.0020   -0.0000    0.0000   -0.0018
      153 NB     6h3-       0.0000   -0.0000   -0.0000   -0.0000    0.0000   -0.0000    0.0000   -0.0000   -0.0000    0.0000
      154 NB     7h3-      -0.0000    0.0000   -0.0000   -0.0000    0.0000   -0.0000    0.0000   -0.0000   -0.0000    0.0000
      155 NB     6h2-      -0.0000    0.0000   -0.0043   -0.0000   -0.0000    0.0000   -0.0012   -0.0000   -0.0000    0.0071
      156 NB     7h2-       0.0000    0.0000   -0.0026   -0.0000   -0.0000    0.0000   -0.0008   -0.0000   -0.0000    0.0041
      157 NB     6h1-      -0.0000    0.0000    0.0028    0.0000   -0.0000    0.0000   -0.0042    0.0000    0.0000   -0.0058
      158 NB     7h1-      -0.0000    0.0000    0.0018    0.0000   -0.0000    0.0000   -0.0027    0.0000    0.0000   -0.0035
      159 NB     6h0        0.0000   -0.0011    0.0000   -0.0000   -0.0055   -0.0000   -0.0000    0.0010    0.0000    0.0000
      160 NB     7h0        0.0000   -0.0012    0.0000   -0.0000   -0.0033   -0.0000   -0.0000   -0.0000    0.0000    0.0000
      161 NB     6h1+      -0.0016   -0.0000    0.0000   -0.0028    0.0000   -0.0042   -0.0000    0.0000    0.0058    0.0000
      162 NB     7h1+      -0.0008   -0.0000    0.0000   -0.0018    0.0000   -0.0027   -0.0000    0.0000    0.0035    0.0000
      163 NB     6h2+       0.0001   -0.0000    0.0000   -0.0043   -0.0000    0.0012    0.0000    0.0000    0.0071    0.0000
      164 NB     7h2+      -0.0003   -0.0000    0.0000   -0.0026   -0.0000    0.0008    0.0000    0.0000    0.0041    0.0000
      165 NB     6h3+       0.0000    0.0006    0.0000   -0.0000   -0.0011   -0.0000   -0.0000   -0.0012    0.0000    0.0000
      166 NB     7h3+      -0.0000    0.0014    0.0000   -0.0000   -0.0009   -0.0000   -0.0000   -0.0012    0.0000    0.0000
      167 NB     6h4+      -0.0006   -0.0000    0.0000   -0.0014    0.0000   -0.0033   -0.0000   -0.0000    0.0031    0.0000
      168 NB     7h4+       0.0010    0.0000    0.0000   -0.0009    0.0000   -0.0020   -0.0000   -0.0000    0.0018    0.0000
      169 NB     6h5+       0.0003   -0.0000    0.0000   -0.0052   -0.0000    0.0011    0.0000    0.0000    0.0088    0.0000
      170 NB     7h5+      -0.0001   -0.0000    0.0000   -0.0031   -0.0000    0.0007    0.0000   -0.0000    0.0050    0.0000

          Orbital           31        32        33        34        35        36        37        38        39        40    
[...]
         3   15       2.91897827E-02  3.51173721E-05  2.52146234E+06  1.38911757E-04  2.52146234E+06
         3   17       1.93064066E-01  2.52147613E+06  3.51095893E-05  1.41557223E+07  1.66771985E+07
         4    8       8.70005171E-04  4.80197534E-10  5.34932464E+03  7.22846796E-16  5.34932464E+03
         4   10       1.65064883E-01  7.51116143E+06  2.74404688E-01  1.09835775E+06  8.60951946E+06
         4   12       1.44006838E-01  2.74404494E-01  7.51116562E+06  3.98750761E-02  7.51116593E+06
         4   14       3.45625365E-02  2.64777892E-07  2.94854779E+06  3.75561798E-14  2.94854779E+06
         4   16       2.91897827E-02  3.51173721E-05  2.52146234E+06  1.38911757E-04  2.52146234E+06
         4   18       1.93064066E-01  2.52147613E+06  3.51095893E-05  1.41557223E+07  1.66771985E+07
         5    7       8.70002948E-04  5.34930613E+03  4.79769640E-10  7.49045867E-10  5.34930613E+03
         5    9       1.44006797E-01  2.74404774E-01  7.51116083E+06  3.98748050E-02  7.51116114E+06
         5   11       1.65064865E-01  7.51116407E+06  2.74404527E-01  1.09835189E+06  8.60951623E+06
         5   13       3.45624463E-02  2.94853938E+06  2.64260373E-07  3.49766824E-05  2.94853938E+06
         5   15       1.93064163E-01  2.52147380E+06  3.51146174E-05  1.41557281E+07  1.66772019E+07
         5   17       2.91898972E-02  3.51122036E-05  2.52147178E+06  1.38914490E-04  2.52147178E+06
         6    8       8.70002948E-04  5.34930613E+03  4.79769640E-10  7.49045867E-10  5.34930613E+03
         6   10       1.44006797E-01  2.74404774E-01  7.51116083E+06  3.98748050E-02  7.51116114E+06
         6   12       1.65064865E-01  7.51116407E+06  2.74404527E-01  1.09835189E+06  8.60951623E+06
         6   14       3.45624463E-02  2.94853938E+06  2.64260373E-07  3.49766824E-05  2.94853938E+06
         6   16       1.93064163E-01  2.52147380E+06  3.51146174E-05  1.41557281E+07  1.66772019E+07
         6   18       2.91898972E-02  3.51122036E-05  2.52147178E+06  1.38914490E-04  2.52147178E+06
         7    9       1.73122953E-02  1.41800692E-02  3.89365839E+05  7.58555845E-16  3.89365853E+05
         7   11       1.73122822E-02  3.89365567E+05  1.41801361E-02  4.38948127E-07  3.89365582E+05
         7   13       3.04904474E-01  1.09653640E-05  5.01210087E-16  1.39199242E+07  1.39199242E+07
         7   15       1.65614632E-01  7.69079293E+06  9.05922116E-05  2.37014166E-05  7.69079293E+06
         7   17       1.65614626E-01  9.05952585E-05  7.69079329E+06  1.47971402E-14  7.69079329E+06
         8   10       1.73122953E-02  1.41800692E-02  3.89365839E+05  7.58555845E-16  3.89365853E+05
         8   12       1.73122822E-02  3.89365567E+05  1.41801361E-02  4.38948127E-07  3.89365582E+05
         8   14       3.04904474E-01  1.09653640E-05  5.01210087E-16  1.39199242E+07  1.39199242E+07
         8   16       1.65614632E-01  7.69079293E+06  9.05922116E-05  2.37014166E-05  7.69079293E+06
         8   18       1.65614626E-01  9.05952585E-05  7.69079329E+06  1.47971402E-14  7.69079329E+06
         9   15       1.24775761E-03  2.02188978E-04  5.35735598E+03  8.28169465E-05  5.35735627E+03
         9   17       1.79697370E-03  5.35737013E+03  2.02187567E-04  2.35809522E+03  7.71546556E+03
        10   16       1.24775761E-03  2.02188978E-04  5.35735598E+03  8.28169465E-05  5.35735627E+03
        10   18       1.79697370E-03  5.35737013E+03  2.02187567E-04  2.35809522E+03  7.71546556E+03
        11   15       1.79697648E-03  5.35737612E+03  2.02187919E-04  2.35809803E+03  7.71547435E+03
        11   17       1.24775562E-03  2.02188360E-04  5.35734804E+03  8.28170006E-05  5.35734833E+03
        12   16       1.79697648E-03  5.35737612E+03  2.02187919E-04  2.35809803E+03  7.71547435E+03
        12   18       1.24775562E-03  2.02188360E-04  5.35734804E+03  8.28170006E-05  5.35734833E+03
     -----------------------------------------------------------------------------------------------
--

++ Velocity transition strengths (SO states):
   ------------------------------------------
    for osc. strength at least    1.0000000000000001E-005

      From   To        Osc. strength     Einstein coefficients Ax, Ay, Az (sec-1)    Total A (sec-1)
     -----------------------------------------------------------------------------------------------
         1    3       3.24128530E-01  3.58283962E-06  3.99381967E+07  1.03185403E-13  3.99381967E+07
         1    5       3.24128527E-01  3.99382043E+07  3.58303698E-06  6.48254871E-06  3.99382043E+07
         1    7       3.00843675E-01  6.27350490E-06  1.31263531E-13  5.54802327E+07  5.54802327E+07
         1    9       2.73653539E-04  3.34572516E-03  9.18684402E+04  8.20449870E-14  9.18684436E+04
         1   11       2.73653788E-04  9.18685253E+04  3.34571101E-03  3.15759223E-07  9.18685287E+04
         1   13       5.21929997E-03  3.71980164E-08  3.46628247E-16  2.15860685E+06  2.15860685E+06
         1   15       3.30158442E-04  1.37324834E+05  1.61784954E-06  2.99017658E-06  1.37324834E+05
         1   17       3.30157565E-04  1.61767160E-06  1.37324472E+05  2.24296590E-15  1.37324472E+05
         2    4       3.24128530E-01  3.58283962E-06  3.99381967E+07  1.03185403E-13  3.99381967E+07
         2    6       3.24128527E-01  3.99382043E+07  3.58303698E-06  6.48254871E-06  3.99382043E+07
         2    8       3.00843675E-01  6.27350490E-06  1.31263531E-13  5.54802327E+07  5.54802327E+07
         2   10       2.73653539E-04  3.34572516E-03  9.18684402E+04  8.20449870E-14  9.18684436E+04
         2   12       2.73653788E-04  9.18685253E+04  3.34571101E-03  3.15759223E-07  9.18685287E+04
         2   14       5.21929997E-03  3.71980164E-08  3.46628247E-16  2.15860685E+06  2.15860685E+06
         2   16       3.30158442E-04  1.37324834E+05  1.61784954E-06  2.99017658E-06  1.37324834E+05
         2   18       3.30157565E-04  1.61767160E-06  1.37324472E+05  2.24296590E-15  1.37324472E+05
         3    7       1.17337979E-02  6.47191430E-09  7.21468267E+04  2.62333394E-16  7.21468267E+04
         3    9       3.08643940E-01  1.40177196E+07  5.12108326E-01  2.08070866E+06  1.60984287E+07
         3   11       2.68752092E-01  5.12107923E-01  1.40177267E+07  7.55386033E-02  1.40177273E+07
         3   13       6.21252941E-02  4.75842448E-07  5.29995927E+06  4.30454301E-14  5.29995927E+06
         3   15       5.33318910E-02  6.41602231E-05  4.60691413E+06  2.55641180E-04  4.60691413E+06
         3   17       3.54908563E-01  4.60693856E+06  6.41486803E-05  2.60507663E+07  3.06577048E+07
         4    8       1.17337979E-02  6.47191430E-09  7.21468267E+04  2.62333394E-16  7.21468267E+04
         4   10       3.08643940E-01  1.40177196E+07  5.12108326E-01  2.08070866E+06  1.60984287E+07
         4   12       2.68752092E-01  5.12107923E-01  1.40177267E+07  7.55386033E-02  1.40177273E+07
         4   14       6.21252941E-02  4.75842448E-07  5.29995927E+06  4.30454301E-14  5.29995927E+06
         4   16       5.33318910E-02  6.41602231E-05  4.60691413E+06  2.55641180E-04  4.60691413E+06
         4   18       3.54908563E-01  4.60693856E+06  6.41486803E-05  2.60507663E+07  3.06577048E+07
         5    7       1.17337915E-02  7.21467223E+04  6.46989114E-09  1.37436715E-07  7.21467223E+04
         5    9       2.68752073E-01  5.12108517E-01  1.40177208E+07  7.55380929E-02  1.40177214E+07
         5   11       3.08643952E-01  1.40177262E+07  5.12108049E-01  2.08069828E+06  1.60984250E+07
         5   13       6.21251351E-02  5.29994442E+06  4.75100410E-07  6.66273849E-05  5.29994442E+06
         5   15       3.54908771E-01  4.60693403E+06  6.41562305E-05  2.60507795E+07  3.06577136E+07
         5   17       5.33320771E-02  6.41527258E-05  4.60692936E+06  2.55644069E-04  4.60692937E+06
         6    8       1.17337915E-02  7.21467223E+04  6.46989114E-09  1.37436715E-07  7.21467223E+04
         6   10       2.68752073E-01  5.12108517E-01  1.40177208E+07  7.55380929E-02  1.40177214E+07
         6   12       3.08643952E-01  1.40177262E+07  5.12108049E-01  2.08069828E+06  1.60984250E+07
         6   14       6.21251351E-02  5.29994442E+06  4.75100410E-07  6.66273849E-05  5.29994442E+06
         6   16       3.54908771E-01  4.60693403E+06  6.41562305E-05  2.60507795E+07  3.06577136E+07
         6   18       5.33320771E-02  6.41527258E-05  4.60692936E+06  2.55644069E-04  4.60692937E+06
         7    9       4.58648050E-02  3.75667985E-02  1.03153568E+06  6.00568439E-15  1.03153572E+06
         7   11       4.58647411E-02  1.03153431E+06  3.75670375E-02  1.03712273E-06  1.03153435E+06
         7   13       7.03211582E-01  2.26998651E-05  1.03200302E-16  3.21041074E+07  3.21041074E+07
         7   15       3.65490866E-01  1.69726812E+07  1.99926432E-04  5.56637447E-05  1.69726812E+07
         7   17       3.65490811E-01  1.99933363E-04  1.69726800E+07  5.17652854E-14  1.69726800E+07
         8   10       4.58648050E-02  3.75667985E-02  1.03153568E+06  6.00568439E-15  1.03153572E+06
         8   12       4.58647411E-02  1.03153431E+06  3.75670375E-02  1.03712273E-06  1.03153435E+06
         8   14       7.03211582E-01  2.26998651E-05  1.03200302E-16  3.21041074E+07  3.21041074E+07
         8   16       3.65490866E-01  1.69726812E+07  1.99926432E-04  5.56637447E-05  1.69726812E+07
         8   18       3.65490811E-01  1.99933363E-04  1.69726800E+07  5.17652854E-14  1.69726800E+07
         9   13       1.24556082E-03  1.84045727E-04  5.05372231E+03  1.49285856E-14  5.05372249E+03
         9   15       1.12381681E-02  1.82105708E-03  4.82522223E+04  1.04022383E-05  4.82522242E+04
         9   17       1.13071899E-02  4.82523690E+04  1.82106615E-03  2.96218221E+02  4.85485891E+04
        10   14       1.24556082E-03  1.84045727E-04  5.05372231E+03  1.49285856E-14  5.05372249E+03
        10   16       1.12381681E-02  1.82105708E-03  4.82522223E+04  1.04022383E-05  4.82522242E+04
        10   18       1.13071899E-02  4.82523690E+04  1.82106615E-03  2.96218221E+02  4.85485891E+04
        11   13       1.24554396E-03  5.05365314E+03  1.84048936E-04  2.75251080E-07  5.05365333E+03
        11   15       1.13071892E-02  4.82523760E+04  1.82105138E-03  2.96188331E+02  4.85485661E+04
        11   17       1.12382700E-02  1.82105482E-03  4.82526653E+04  1.04033834E-05  4.82526672E+04
        12   14       1.24554396E-03  5.05365314E+03  1.84048936E-04  2.75251080E-07  5.05365333E+03
        12   16       1.13071892E-02  4.82523760E+04  1.82105138E-03  2.96188331E+02  4.85485661E+04
        12   18       1.12382700E-02  1.82105482E-03  4.82526653E+04  1.04033834E-05  4.82526672E+04
        13   15       7.48571568E-01  2.50131062E+03  2.94638123E-08  1.71478337E-08  2.50131062E+03
        13   17       7.48567004E-01  2.94654815E-08  2.50131873E+03  2.24414379E-19  2.50131873E+03
        14   16       7.48571568E-01  2.50131062E+03  2.94638123E-08  1.71478337E-08  2.50131062E+03
        14   18       7.48567004E-01  2.94654815E-08  2.50131873E+03  2.24414379E-19  2.50131873E+03
     -----------------------------------------------------------------------------------------------
--

++ Length and velocity gauge comparison (SO states):

 --------------------------------------------------
 A comparison between the dipole oscillator strengths in 
 length and velocity gauge will be performed

 All dipole oscillator differences above the tolerance of   0.10000000000000001       will be printed 

 Due to basis set deficiency these oscillator may be problematic 

 The tolerance is defined as ABS(1-O_l/O_v) 
 O_l : dipole oscillator strength in length gauge
 O_p : dipole oscillator strength in velocity gauge
 --------------------------------------------------

  Problematic transitions have been found

      From   To       Difference (%) Osc. st. (len.) Osc. st. (vel.)
     ---------------------------------------------------------------
         1    3            12.817173  3.65672644E-01  3.24128530E-01
         1    5            12.817172  3.65672638E-01  3.24128527E-01
         1    7            12.669556  3.38959231E-01  3.00843675E-01
         1    9            43.814032  1.53754889E-04  2.73653539E-04
         1   11            43.814326  1.53754224E-04  2.73653788E-04
         1   13            24.400603  3.94575932E-03  5.21929997E-03
         1   15           272.026178  1.22827584E-03  3.30158442E-04
         1   17           272.026909  1.22827498E-03  3.30157565E-04
         2    4            12.817173  3.65672644E-01  3.24128530E-01
         2    6            12.817172  3.65672638E-01  3.24128527E-01
         2    8            12.669556  3.38959231E-01  3.00843675E-01
         2   10            43.814032  1.53754889E-04  2.73653539E-04
         2   12            43.814326  1.53754224E-04  2.73653788E-04
         2   14            24.400603  3.94575932E-03  5.21929997E-03
         2   16           272.026178  1.22827584E-03  3.30158442E-04
         2   18           272.026909  1.22827498E-03  3.30157565E-04
         3    7            92.585477  8.70005171E-04  1.17337979E-02
         3    9            46.519318  1.65064883E-01  3.08643940E-01
         3   11            46.416477  1.44006838E-01  2.68752092E-01
         3   13            44.366402  3.45625365E-02  6.21252941E-02
         3   15            45.267677  2.91897827E-02  5.33318910E-02
         3   17            45.601745  1.93064066E-01  3.54908563E-01
         4    8            92.585477  8.70005171E-04  1.17337979E-02
         4   10            46.519318  1.65064883E-01  3.08643940E-01
         4   12            46.416477  1.44006838E-01  2.68752092E-01
         4   14            44.366402  3.45625365E-02  6.21252941E-02
         4   16            45.267677  2.91897827E-02  5.33318910E-02
         4   18            45.601745  1.93064066E-01  3.54908563E-01
         5    7            92.585492  8.70002948E-04  1.17337915E-02
         5    9            46.416489  1.44006797E-01  2.68752073E-01
         5   11            46.519326  1.65064865E-01  3.08643952E-01
         5   13            44.366405  3.45624463E-02  6.21251351E-02
         5   15            45.601749  1.93064163E-01  3.54908771E-01
         5   17            45.267654  2.91898972E-02  5.33320771E-02
         6    8            92.585492  8.70002948E-04  1.17337915E-02
         6   10            46.416489  1.44006797E-01  2.68752073E-01
         6   12            46.519326  1.65064865E-01  3.08643952E-01
         6   14            44.366405  3.45624463E-02  6.21251351E-02
         6   16            45.601749  1.93064163E-01  3.54908771E-01
         6   18            45.267654  2.91898972E-02  5.33320771E-02
         7    9            62.253638  1.73122953E-02  4.58648050E-02
         7   11            62.253614  1.73122822E-02  4.58647411E-02
         7   13            56.641147  3.04904474E-01  7.03211582E-01
         7   15            54.687067  1.65614632E-01  3.65490866E-01
         7   17            54.687062  1.65614626E-01  3.65490811E-01
         8   10            62.253638  1.73122953E-02  4.58648050E-02
         8   12            62.253614  1.73122822E-02  4.58647411E-02
         8   14            56.641147  3.04904474E-01  7.03211582E-01
         8   16            54.687067  1.65614632E-01  3.65490866E-01
         8   18            54.687062  1.65614626E-01  3.65490811E-01
         9   13      --------------- below threshold  1.24556082E-03
         9   15            88.897144  1.24775761E-03  1.12381681E-02
         9   17            84.107690  1.79697370E-03  1.13071899E-02
        10   14      --------------- below threshold  1.24556082E-03
        10   16            88.897144  1.24775761E-03  1.12381681E-02
        10   18            84.107690  1.79697370E-03  1.13071899E-02
        11   13      --------------- below threshold  1.24554396E-03
        11   15            84.107664  1.79697648E-03  1.13071892E-02
        11   17            88.897263  1.24775562E-03  1.12382700E-02
        12   14      --------------- below threshold  1.24554396E-03
        12   16            84.107664  1.79697648E-03  1.13071892E-02
        12   18            88.897263  1.24775562E-03  1.12382700E-02
        13   15      --------------- below threshold  7.48571568E-01
        13   17      --------------- below threshold  7.48567004E-01
        14   16      --------------- below threshold  7.48571568E-01
        14   18      --------------- below threshold  7.48567004E-01
     ---------------------------------------------------------------

 Number of problematic transitions =                    66

--

 Electric-dipole - electric-octupole not included
++ I/O STATISTICS
 
  I. General I/O information
  - - - - - - - - - - - - - - - - - - - - - - - - - - - - - - - - - - - - - - - - - - -
  Unit  Name          Flsize      Write/Read            MBytes           Write/Read
                      (MBytes)       Calls              In/Out           Time, sec.
  - - - - - - - - - - - - - - - - - - - - - - - - - - - - - - - - - - - - - - - - - - -
   1  SCRATCH           0.00 .       9/      45 .      0.0/      0.0 .       0/       0
   2  ANNI              0.00 .       0/       0 .      0.0/      0.0 .       0/       0
   3  RUNFILE          14.67 .     322/   10085 .      2.3/     73.1 .       0/       0
   4  ONEINT            5.14 .       0/   22237 .      0.0/   3722.5 .       0/       0
   5  JOBIPH            5.92 .       0/      92 .      0.0/      0.7 .       0/       0
   6  ORDINT          403.03 .       1/    3225 .      0.0/    806.0 .       0/       0
  - - - - - - - - - - - - - - - - - - - - - - - - - - - - - - - - - - - - - - - - - - -
   *  TOTAL           428.76 .     332/   35684 .      2.3/   4602.4 .       0/       0
  - - - - - - - - - - - - - - - - - - - - - - - - - - - - - - - - - - - - - - - - - - -
 
  II. I/O Access Patterns
  - - - - - - - - - - - - - - - - - - - -
  Unit  Name               % of random
                         Write/Read calls
  - - - - - - - - - - - - - - - - - - - -
   1  SCRATCH             88.9/ 100.0
   2  ANNI                 0.0/   0.0
   3  RUNFILE             28.6/  10.8
   4  ONEINT               0.0/  17.4
   5  JOBIPH               0.0/  76.1
   6  ORDINT             100.0/   0.1
  - - - - - - - - - - - - - - - - - - - -
--
--- Stop Module: rassi at Fri Jan 10 02:19:32 2025 /rc=_RC_ALL_IS_WELL_ ---
*** files: xmldump
    saved to directory /home4/s4752295/Internship/Initial_simulations/Point_charge_model/1_electron/active_space_9_non_rel/Nb/varying_bond_length
--- Module rassi spent 3 seconds ---

.##################.
.# Happy landing! #.
.##################.

    Timing: Wall=45.38 User=34.19 System=7.07

###############################################################################
Hbrk Cluster
Job 14556674 for user s4752295
Finished at: Fri Jan 10 02:19:33 CET 2025

Job details:
============

Job ID                         : 14556674
Name                           : Nb_no_c_light
User                           : s4752295
Partition                      : regularmedium
Nodes                          : node101
Number of Nodes                : 1
Cores                          : 1
Number of Tasks                : 1
State                          : COMPLETED  
Submit                         : 2025-01-10T02:18:42
Start                          : 2025-01-10T02:18:43
End                            : 2025-01-10T02:19:32
Reserved walltime              : 15:00:00
Used walltime                  : 00:00:49
Used CPU time                  : 00:00:42 (Efficiency: 86.05%)
% User (Computation)           : 82.72%
% System (I/O)                 : 17.28%
Total memory reserved          : 25000M
Maximum memory used            : 1.62G

Acknowledgements:
=================

Please see this page for information about acknowledging Hbrk in your publications:

https://wiki.hpc.rug.nl/habrok/introduction/scientific_output

################################################################################
