   This run of MOLCAS is using the pymolcas driver

                             OPE
                             OPE          NMOL  CASOP  ENMOLC A   SO
                 OPE        NMOLC        AS  OP EN  MO LC     AS  OP
                OPENM       OL CA        SO  PE NM  OL CA     SOP EN
                OP EN      MO   LC       AS  OP ENMOL  CASO   PENMOL
                OP  EN     MO   LC       AS  OP EN     MO     LC ASO
               OP   E  NMOL  C  AS       OP  EN MO     LC     AS  OP
               OP  E   NMO   LC AS        OPEN  MO     LCASOP EN   M
               O  PEN   MO  LCA  SO
            OPE   NMO   L   CAS    OP
        OPENMOL  CASOP     ENMOL   CASOPE
     OPENMOLCA   SOPENMOLCASOPEN   MOLCASOPE
    OPENMOLCAS   OP           EN   MOL    CAS
    OPENMOLCAS       OP  ENM        O     LCA
    OPENMOLCAS    OPEN  MOLCASO     P  E  NMO
    OPENMOLCAS     OP               E  N  MOL
    OPENMOLCA   SO           PENM   O  L  CAS    OPEN    MO    LCAS
    OPENMOLCA   SOP           ENM   O  L  CAS   OP  EN  MOLC  AS   O
    OPENMOLCA   SOPE           NM      O  LCA   S      OP  EN MO
    OPENMOLC                AS         O  PEN   M      OL  CA  SOPE
    OPENMO        LCASOPE  NMOL        C  ASO   P      ENMOLC     AS
    OPE     NMO      LCA  SO     P     E   NM   OL  CA SO  PE N   MO
          OPENMOLCA            SOPE   NMO        LCAS  O    P  ENMO
     OPENMOLCASOPENMOLCASOPENMOLCASOPENMOLCA
        OPENMOLCASOPENMOLCASOPENMOLCASOPE
            OPENMOLCASOPENMOLCASOPENM
               OPENMOLCASOPENMOLCA        version: o91e1abe7de707b ?
                   OPENMOLCASO
                       OPE                tag:

 OpenMolcas is free software; you can redistribute it and/or modify it
 under the terms of the GNU Lesser General Public License version 2.1.
 OpenMolcas is distributed in the hope that it will be useful, but it
 is provided "as is" and without any express or implied warranties.
 For more details see the full text of the license in the file
 LICENSE or in <http://www.gnu.org/licenses/>.

                 Copyright (C) The OpenMolcas Authors
           For the author list and the recommended citation,
                   consult the file CONTRIBUTORS.md

           *************************************************
           * pymolcas version py2.10                       *
           *   build 3068ae8b88c9345ec6cfef6fef7f1169      *
           *   (after the EMIL interpreter by V. Veryazov) *
           *************************************************

configuration info
------------------
Host name: login1 (Linux)
C Compiler ID: GNU
C flags: -std=gnu99
Fortran Compiler ID: GNU
Fortran flags: -fno-aggressive-loop-optimizations -cpp -fdefault-integer-8 -fmax-stack-var-size=1048576
Definitions: _MOLCAS_;_I8_;_LINUX_;_MKL_
Parallel: OFF (GA=OFF)


   ----------------------------------------------------------------------------------------------------------------------------------------------
  |
  |           Project: rhenium_so_cf
  |    Submitted from: /home4/s4752295/Internship/Initial_simulations/Point_charge_model/1_electron/active_space_9_non_rel/Re/varying_bond_length
  |      Scratch area: /tmp/rhenium_so_cf
  |   Save outputs to: /home4/s4752295/Internship/Initial_simulations/Point_charge_model/1_electron/active_space_9_non_rel/Re/varying_bond_length
  |            Molcas: /home4/s4752295/Internship/Molcas/recomp_try/OpenMolcas-master/build
  |
  | Scratch area is empty
  |
  |    MOLCAS_DRIVER = /home4/s4752295/Internship/Molcas/bin/pymolcas
  |    MOLCAS_NPROCS = 1
  |    MOLCAS_SOURCE = /home4/s4752295/Internship/Molcas/recomp_try/OpenMolcas-master
  | MOLCAS_STRUCTURE = 0
  |
   ----------------------------------------------------------------------------------------------------------------------------------------------

++ ---------   Input file   ---------

&SEWARD
AMFi

CLIG
$R

Basis Set
Re.ano-rcc.Roos.24s21p15d11f4g2h.11s10p9d8f4g2h.
Spherical d
Re            0.0       0.0     0.0
End of Basis

Xfield

4
0.000000,  0.00000,  0.3150     -1.0
0.272798,  0.00000, -0.1575     -1.0
-0.136399,  0.23625, -0.1575    -1.0
-0.136399, -0.23625, -0.1575    -1.0

End of input

&SCF
Occupied
34
Iterations
   50  100
End of Input

&RASSCF
LumOrb
Symmetry
1
Spin
2
Nactel
1 0 0
CIRoot
9 9 1
inactive
34
ras2
9
End of Input

>>> COPY rhenium_so_cf.JobIph $SLURM_SUBMIT_DIR/rhenium_so_cf.doublet.JobIph

>>> COPY $SLURM_SUBMIT_DIR/rhenium_so_cf.doublet.JobIph ./JOB002

&RASSI
NROFJobIph
1 All
SpinOrbit
End of Input

EOF

-- ----------------------------------

--- Start Module: seward at Thu Jan  9 20:42:42 2025 ---

()()()()()()()()()()()()()()()()()()()()()()()()()()()()()()()()()()()()()()()()()()()()()()()()()()

                                              &SEWARD

                                   only a single process is used
                       available to each process: 4.1 GB of memory, 1 thread?
                                            pid: 195355
()()()()()()()()()()()()()()()()()()()()()()()()()()()()()()()()()()()()()()()()()()()()()()()()()()

 The speed of LIGHT in this CALCULATION =   137.03599917700001     
               SEWARD will generate:
                  Multipole Moment integrals up to order  2
                  Kinetic Energy integrals
                  Nuclear Attraction integrals (point charge)
                  One-Electron Hamiltonian integrals
                  Velocity integrals
                  Relativistic Douglas-Kroll-Hess integrals:
                    - Parametrization         : EXP
                    - DKH order of Hamiltonian: 2
                    - DKH order of Properties : 0
                         - multipole moment operators
                         - electric potential operators
                         - contact operators
                  External field from     4 point(s) added to the one-electron Hamiltonian
                  Orbital angular momentum around ( 0.0000  0.0000  0.0000 )
                  Velocity quadrupole around ( 0.0000  0.0000  0.0000 )
                  Atomic mean-field integrals
                  Two-Electron Repulsion integrals

                   Integrals are discarded if absolute value <: 0.10E-13
                   Integral cutoff threshold is set to       <: 0.10E-15

++    Symmetry information:
      ---------------------

                    Character Table for C1 

                             E  
                    a        1  x, y, xy, Rz, z, xz, Ry, yz, Rx, I
--


++    Basis set information:
      ----------------------


      Basis set label: RE.ANO-RCC.ROOS.24S21P15D11F4G2H.11S10P9D8F4G2H......

      Electronic valence basis set:
      ------------------
      Associated Effective Charge  75.000000 au
      Associated Actual Charge     75.000000 au
      Nuclear Model: Point charge

      Shell  nPrim  nBasis  Cartesian Spherical Contaminant
         s      24      11        X                  
         p      21      10        X                  
         d      15       9                 X         
         f      11       8                 X         
         g       4       4                 X         
         h       2       2                 X         
--


++    Molecular structure info:
      -------------------------

                    ************************************************ 
                    **** Cartesian Coordinates / Bohr, Angstrom **** 
                    ************************************************ 

     Center  Label                x              y              z                     x              y              z
        1      RE               0.000000       0.000000       0.000000              0.000000       0.000000       0.000000
--


++    Operator info:
      --------------


  Net charge from external field:   -4.0000000000000000     
--


            Nuclear Potential Energy              0.00000000 au

                    Nuclear-External Field Potential Energy    -952.38095453 au
                    External Field Potential Energy              11.84778037 au 


            Total Nuclear Potential Energy           -952.38095453 au


      Basis set specifications :
      Symmetry species         a  
      Basis functions          200

 Sorry, Molden does not know how to handle
 functions with angular momentum larger than g
Note: The following floating-point exceptions are signalling: IEEE_UNDERFLOW_FLAG IEEE_DENORMAL
--- Stop Module: seward at Thu Jan  9 20:43:01 2025 /rc=_RC_ALL_IS_WELL_ ---
*** files: rhenium_so_cf.GssOrb xmldump
    saved to directory /home4/s4752295/Internship/Initial_simulations/Point_charge_model/1_electron/active_space_9_non_rel/Re/varying_bond_length
--- Module seward spent 18 seconds ---

*** symbolic link created: INPORB -> rhenium_so_cf.GssOrb
--- Start Module: scf at Thu Jan  9 20:43:01 2025 ---

()()()()()()()()()()()()()()()()()()()()()()()()()()()()()()()()()()()()()()()()()()()()()()()()()()

                                                &SCF

                                   only a single process is used
                       available to each process: 4.1 GB of memory, 1 thread?
                                            pid: 195550
()()()()()()()()()()()()()()()()()()()()()()()()()()()()()()()()()()()()()()()()()()()()()()()()()()

++    Input section:
      --------------

      Header of the integral files:
      
       Integrals generated by seward 4.2.0  , Thu Jan  9 20:42:42 2025


      Cartesian coordinates in Angstrom:
      -----------------------------------------------------
      No.  Label        X            Y            Z        
      -----------------------------------------------------
       1   RE         0.00000000   0.00000000   0.00000000
      -----------------------------------------------------
      Nuclear repulsion energy = -952.38095453
--

++    Orbital specifications:
      -----------------------

      Symmetry species               1
                                     a
      Frozen orbitals                0
      Occupied orbitals             34
      Secondary orbitals           166
      Deleted orbitals               0
      Total number of orbitals     200
      Number of basis functions    200
--

      Molecular charge                           7.000

++    Optimization specifications:
      ----------------------------

      SCF Algorithm: Conventional
      Minimized density differences are used
      Number of density matrices in core                5
      Maximum number of NDDO SCF iterations            50
      Maximum number of HF SCF iterations             100
      Threshold for SCF energy change            0.10E-08
      Threshold for density matrix               0.10E-03
      Threshold for Fock matrix                  0.15E-03
      Threshold for linear dependence            0.10E-08
      Threshold at which DIIS is turned on       0.15E+00
      Threshold at which QNR/C2DIIS is turned on 0.75E-01
      Threshold for Norm(delta) (QNR/C2DIIS)     0.20E-04
      DIIS extrapolation of the SCF procedure
      All orbitals punched on: SCFORB
--

      Detected guessorb starting orbitals                                             


++ Convergence information
                                   SCF        iterations: Energy and convergence statistics

Iter     Tot. SCF        One-elec.       Two-elec.     Energy      Max Dij or  Max Fij      DNorm      TNorm      AccCon     Time
         Energy          Energy          Energy        Change      Delta Norm                                                in Sec.

 The total and one-electron energies are shifted by a value of     16000. a.u.

   1  -961.684303590 -5942.433616356  5933.130267300   0.00E+00    0.34E+00*   0.17E+01*    0.12E+02   0.16E+04   None         1.
   2  -873.758625596 -4452.799347207  4531.421676145   0.88E+02*   0.39E+00*   0.52E+00*    0.81E+01   0.14E+04   EDIIS        1.
   3  -970.760335852 -5489.645519352  5471.266138034  -0.97E+02*   0.22E+00*   0.64E+00*    0.41E+01   0.15E+04   EDIIS        1.
   4  -971.565400394 -5762.688498127  5743.504052267  -0.81E+00*   0.33E+00*   0.27E+00*    0.80E+00   0.15E+04   EDIIS        1.
   5  -973.082855503 -5600.452956408  5579.751055438  -0.15E+01*   0.15E+00*   0.15E+00*    0.71E+00   0.15E+04   EDIIS        1.
   6  -972.918503683 -5683.545641635  5663.008092485   0.16E+00*   0.82E-01*   0.72E-01*    0.25E+00   0.15E+04   EDIIS        1.
   7  -973.185172423 -5637.236453794  5616.432235904  -0.27E+00*   0.21E+00*   0.65E-01*    0.71E-01   0.15E+04   EDIIS        1.
   8  -973.176812737 -5608.025056584  5587.229198381   0.84E-02*   0.98E-01*   0.33E-01*    0.38E-01   0.15E+04   EDIIS        1.
   9  -973.208668632 -5628.299363849  5607.471649751  -0.32E-01*   0.95E-01*   0.31E-01*    0.42E-01   0.15E+04   c2DIIS       1.
  10  -973.217522108 -5624.647062457  5603.810494882  -0.89E-02*   0.93E-01*   0.18E+00*    0.16E-01   0.15E+04   c2DIIS       1.
  11  -973.248859254 -5618.326771494  5597.458866774  -0.31E-01*   0.56E-01*   0.34E-01*    0.15E+00   0.15E+04   c2DIIS       1.
  12  -973.245026397 -5618.489534883  5597.625463020   0.38E-02*   0.37E-01*   0.12E-01*    0.44E-01   0.15E+04   QNRc2DIIS    1.
  13  -973.248079511 -5620.935335424  5600.068210446  -0.31E-02*   0.17E+00*   0.19E-01*    0.30E-01   0.15E+04   QNRc2DIIS    1.
  14  -973.256862963 -5617.852208641  5596.976300211  -0.88E-02*   0.14E+00*   0.16E-01*    0.44E-01   0.15E+04   QNRc2DIIS    1.
  15  -973.260465008 -5617.357018584  5596.477508109  -0.36E-02*   0.47E-01*   0.96E-02*    0.40E-01   0.15E+04   QNRc2DIIS    1.
  16  -973.261175348 -5615.892400024  5595.012179209  -0.71E-03*   0.45E-01*   0.33E-02*    0.32E-01   0.15E+04   QNRc2DIIS    1.
  17  -973.261384822 -5615.397053779  5594.516623491  -0.21E-03*   0.21E-01*   0.14E-02*    0.13E-01   0.15E+04   QNRc2DIIS    1.
  18  -973.261414066 -5615.274925239  5594.394465706  -0.29E-04*   0.97E-02*   0.90E-03*    0.58E-02   0.15E+04   QNRc2DIIS    1.
  19  -973.261438571 -5615.279523512  5594.399039474  -0.25E-04*   0.58E-03*   0.94E-04     0.16E-02   0.15E+04   QNRc2DIIS    1.
  20  -973.261438852 -5615.261825353  5594.381341034  -0.28E-06*   0.41E-03*   0.89E-04     0.78E-03   0.15E+04   QNRc2DIIS    1.
  21  -973.261438958 -5615.259640269  5594.379155843  -0.11E-06*   0.22E-03*   0.33E-04     0.38E-03   0.15E+04   QNRc2DIIS    1.
  22  -973.261438986 -5615.259838067  5594.379353613  -0.28E-07*   0.16E-03*   0.30E-04     0.16E-03   0.15E+04   QNRc2DIIS    1.
  23  -973.261439002 -5615.260793337  5594.380308868  -0.16E-07*   0.38E-03*   0.29E-04     0.42E-04   0.15E+04   QNRc2DIIS    1.
  24  -973.261439040 -5615.259754025  5594.379269518  -0.37E-07*   0.44E-03*   0.25E-04     0.35E-03   0.15E+04   QNRc2DIIS    1.
  25  -973.261439072 -5615.259790498  5594.379305959  -0.32E-07*   0.50E-03*   0.22E-04     0.50E-02   0.15E+04   QNRc2DIIS    1.
  26  -973.261439102 -5615.260251855  5594.379767286  -0.30E-07*   0.61E-03*   0.33E-04     0.25E-02   0.15E+04   QNRc2DIIS    1.
  27  -973.261439140 -5615.261352290  5594.380867683  -0.38E-07*   0.80E-03*   0.45E-04     0.68E-03   0.15E+04   QNRc2DIIS    1.
  28  -973.261439193 -5615.262548517  5594.382063858  -0.52E-07*   0.13E-02*   0.56E-04     0.74E-02   0.15E+04   QNRc2DIIS    1.
  29  -973.261439276 -5615.263941242  5594.383456500  -0.83E-07*   0.28E-02*   0.66E-04     0.62E-01   0.15E+04   QNRc2DIIS    1.
  30  -973.261439444 -5615.266078565  5594.385593655  -0.17E-06*   0.90E-02*   0.82E-04     0.95E-02   0.15E+04   QNRc2DIIS    1.
  31  -973.261440040 -5615.269991448  5594.389505941  -0.60E-06*   0.17E-01*   0.17E-03*    0.97E-01   0.15E+04   QNRc2DIIS    1.
  32  -973.261440020 -5615.272823321  5594.392337834   0.20E-07*   0.51E-01*   0.39E-03*    0.18E-01   0.15E+04   QNRc2DIIS    1.
  33  -973.261437083 -5615.228104490  5594.347621940   0.29E-05*   0.12E+00*   0.17E-03*    0.24E-02   0.15E+04   QNRc2DIIS    1.
  34  -973.261467476 -5615.171153453  5594.290640510  -0.30E-04*   0.12E+00*   0.84E-03*    0.34E-02   0.15E+04   QNRc2DIIS    1.
  35  -973.261438131 -5615.248187377  5594.367703780   0.29E-04*   0.37E-02*   0.71E-04     0.39E-01   0.15E+04   QNRc2DIIS    1.
  36  -973.261438050 -5615.253384700  5594.372901184   0.81E-07*   0.12E-02*   0.45E-04     0.24E-01   0.15E+04   QNRc2DIIS    1.
  37  -973.261438024 -5615.252483882  5594.372000392   0.26E-07*   0.11E-01*   0.49E-04     0.62E-02   0.15E+04   QNRc2DIIS    1.
  38  -973.261438380 -5615.238716443  5594.358232596  -0.36E-06*   0.17E-01*   0.12E-03     0.27E-02   0.15E+04   QNRc2DIIS    1.
  39  -973.261438052 -5615.264654808  5594.384171290   0.33E-06*   0.20E-02*   0.13E-04     0.14E-02   0.15E+04   QNRc2DIIS    1.
  40  -973.261438038 -5615.263838269  5594.383354765   0.15E-07*   0.75E-03*   0.86E-05     0.46E-02   0.15E+04   QNRc2DIIS    1.
  41  -973.261438037 -5615.261446409  5594.380962905   0.20E-09    0.94E-04*   0.37E-05     0.51E-02   0.15E+04   QNRc2DIIS    1.
  42  -973.261438038 -5615.262082484  5594.381598980  -0.23E-09    0.63E-05    0.54E-06     0.13E-02   0.15E+04   QNRc2DIIS    1.

       Convergence after 42 Macro Iterations
--

 *****************************************************************************************************************************
 *                                                                                                                           *
 *                                             SCF/KS-DFT Program, Final results                                             *
 *                                                                                                                           *
 *                                                                                                                           *
 *                                                                                                                           *
 *                                                       Final Results                                                       *
 *                                                                                                                           *
 *****************************************************************************************************************************

::    Total SCF energy                             -16973.2614380376
      One-electron energy                          -21615.2620824837
      Two-electron energy                            5594.3815989795
      Nuclear repulsion energy                       -952.3809545333
      Kinetic energy (interpolated)                 23419.9094959592
      Virial theorem                                    0.7247364231
      Total spin, S(S+1)                                0.0000000000
      Total spin, S                                     0.0000000000
      Max non-diagonal density matrix element           0.0000088307
      Max non-diagonal Fock matrix element              0.0000025821


      All orbitals with orbital energies smaller than  E(LUMO)+0.5 are printed

++    Molecular orbitals:
      -------------------

      Title: SCF orbitals

      Molecular orbitals for symmetry species 1: a  

          Some orbital energies have been scaled by powers of 10, the power is written right after the orbital index


          Orbital            1 (1)     2         3         4         5         6         7         8         9        10    
          Energy         -264.2407 -463.1063 -405.7953 -405.7953 -405.7471 -108.3655  -91.1752  -91.1752  -90.7492  -70.9026
          Occ. No.          2.0000    2.0000    2.0000    2.0000    2.0000    2.0000    2.0000    2.0000    2.0000    2.0000

        1 RE     1s         1.0000    0.0000    0.0000   -0.0000   -0.0000   -0.0000   -0.0000    0.0000    0.0000   -0.0000
        2 RE     2s        -0.0000    1.0000    0.0000   -0.0000   -0.0023    0.0003    0.0000   -0.0000   -0.0002    0.0000
        3 RE     3s         0.0000   -0.0003   -0.0000    0.0000    0.0001    0.9997    0.0000   -0.0000   -0.0228    0.0000
        4 RE     4s        -0.0000    0.0001    0.0000   -0.0000   -0.0000   -0.0015   -0.0000    0.0000    0.0011   -0.0000
        5 RE     5s         0.0000   -0.0000   -0.0000    0.0000    0.0000    0.0007    0.0000   -0.0000   -0.0004    0.0000
        6 RE     6s        -0.0000    0.0000    0.0000   -0.0000   -0.0000   -0.0002   -0.0000    0.0000    0.0001   -0.0000
        7 RE     7s         0.0000   -0.0000   -0.0000    0.0000    0.0000    0.0004    0.0000   -0.0000   -0.0002    0.0000
        8 RE     8s        -0.0000    0.0000    0.0000   -0.0000   -0.0000   -0.0008   -0.0000    0.0000    0.0004   -0.0000
        9 RE     9s         0.0000   -0.0000   -0.0000    0.0000    0.0000    0.0010    0.0000   -0.0000   -0.0005    0.0000
       10 RE    10s        -0.0000    0.0000    0.0000   -0.0000   -0.0000   -0.0008   -0.0000    0.0000    0.0003   -0.0000
       11 RE    11s         0.0000   -0.0001   -0.0000    0.0000    0.0000    0.0016    0.0000   -0.0000   -0.0006    0.0000
       12 RE     2px       -0.0000   -0.0000   -0.5320   -0.8467    0.0000    0.0000   -0.0001   -0.0003    0.0000   -0.0001
       13 RE     3px        0.0000   -0.0000    0.0002    0.0003   -0.0000   -0.0000   -0.4409   -0.8968    0.0000   -0.0003
       14 RE     4px       -0.0000    0.0000   -0.0000   -0.0001    0.0000   -0.0000    0.0004    0.0009   -0.0000   -0.0004
       15 RE     5px        0.0000   -0.0000    0.0000    0.0000    0.0000    0.0000   -0.0002   -0.0005   -0.0000    0.0001
       16 RE     6px       -0.0000    0.0000   -0.0000   -0.0000    0.0000   -0.0000    0.0001    0.0002   -0.0000   -0.0001
       17 RE     7px        0.0000   -0.0000    0.0000    0.0000   -0.0000    0.0000   -0.0004   -0.0007    0.0000    0.0001
       18 RE     8px       -0.0000    0.0000   -0.0000   -0.0000    0.0000   -0.0000    0.0004    0.0008   -0.0000   -0.0002
       19 RE     9px        0.0000   -0.0000    0.0000    0.0000   -0.0000    0.0000   -0.0004   -0.0008    0.0000    0.0001
       20 RE    10px       -0.0000    0.0000   -0.0000   -0.0000    0.0000   -0.0000    0.0004    0.0009   -0.0000   -0.0001
       21 RE    11px        0.0000   -0.0000    0.0000    0.0001   -0.0000    0.0000   -0.0006   -0.0012    0.0000    0.0001
       22 RE     2py        0.0000    0.0000    0.8467   -0.5320    0.0000    0.0000    0.0003   -0.0001    0.0000   -0.0001
       23 RE     3py       -0.0000    0.0000   -0.0003    0.0002   -0.0000   -0.0000    0.8968   -0.4409    0.0000   -0.0004
       24 RE     4py        0.0000   -0.0000    0.0001   -0.0000    0.0000   -0.0000   -0.0009    0.0004   -0.0000   -0.0004
       25 RE     5py        0.0000   -0.0000   -0.0000    0.0000    0.0000    0.0000    0.0005   -0.0002   -0.0000    0.0001
       26 RE     6py       -0.0000    0.0000    0.0000   -0.0000    0.0000   -0.0000   -0.0002    0.0001   -0.0000   -0.0001
       27 RE     7py       -0.0000   -0.0000   -0.0000    0.0000   -0.0000    0.0000    0.0007   -0.0004    0.0000    0.0002
       28 RE     8py        0.0000   -0.0000    0.0000   -0.0000    0.0000   -0.0000   -0.0008    0.0004   -0.0000   -0.0002
       29 RE     9py       -0.0000    0.0000   -0.0000    0.0000   -0.0000    0.0000    0.0008   -0.0004    0.0000    0.0001
       30 RE    10py        0.0000   -0.0000    0.0000   -0.0000    0.0000   -0.0000   -0.0009    0.0004   -0.0000   -0.0001
       31 RE    11py       -0.0000    0.0000   -0.0001    0.0000   -0.0000    0.0000    0.0012   -0.0006    0.0000    0.0001
       32 RE     2pz        0.0000    0.0023   -0.0000    0.0000    1.0000   -0.0001   -0.0000    0.0000    0.0005   -0.0000
       33 RE     3pz       -0.0000    0.0002    0.0000   -0.0000   -0.0004    0.0227   -0.0000    0.0000    0.9996    0.0000
       34 RE     4pz        0.0000   -0.0001   -0.0000    0.0000    0.0001    0.0005    0.0000   -0.0000   -0.0026   -0.0000
       35 RE     5pz       -0.0000    0.0000    0.0000   -0.0000   -0.0000   -0.0002   -0.0000    0.0000    0.0011    0.0000
       36 RE     6pz        0.0000   -0.0000   -0.0000    0.0000    0.0000    0.0001    0.0000   -0.0000   -0.0005   -0.0000
       37 RE     7pz       -0.0000    0.0000    0.0000   -0.0000   -0.0001   -0.0003   -0.0000    0.0000    0.0015    0.0000
       38 RE     8pz        0.0000   -0.0000   -0.0000    0.0000    0.0001    0.0003    0.0000   -0.0000   -0.0017   -0.0000
       39 RE     9pz       -0.0000    0.0000    0.0000   -0.0000   -0.0001   -0.0003   -0.0000    0.0000    0.0016    0.0000
       40 RE    10pz        0.0000   -0.0000   -0.0000    0.0000    0.0001    0.0003    0.0000   -0.0000   -0.0017   -0.0000
       41 RE    11pz       -0.0000    0.0000    0.0000   -0.0000   -0.0001   -0.0005   -0.0000    0.0000    0.0022    0.0000
       42 RE     3d2-      -0.0000   -0.0000    0.0001   -0.0001    0.0000   -0.0000    0.0161   -0.0079    0.0000   -0.6335
       43 RE     4d2-       0.0000   -0.0000   -0.0000    0.0000   -0.0000    0.0000    0.0019   -0.0009    0.0000    0.0000
       44 RE     5d2-      -0.0000    0.0000    0.0000   -0.0000    0.0000   -0.0000   -0.0005    0.0002   -0.0000   -0.0001
       45 RE     6d2-       0.0000   -0.0000   -0.0000    0.0000   -0.0000    0.0000    0.0006   -0.0003    0.0000    0.0001
       46 RE     7d2-      -0.0000    0.0000    0.0000   -0.0000    0.0000   -0.0000   -0.0009    0.0004   -0.0000   -0.0002
       47 RE     8d2-       0.0000   -0.0000   -0.0000    0.0000   -0.0000    0.0000    0.0011   -0.0005    0.0000    0.0003
       48 RE     9d2-      -0.0000   -0.0000    0.0000   -0.0000    0.0000   -0.0000   -0.0010    0.0005   -0.0000   -0.0003
       49 RE    10d2-       0.0000    0.0000   -0.0000    0.0000   -0.0000    0.0000    0.0012   -0.0006    0.0000    0.0005
       50 RE    11d2-      -0.0000   -0.0000   -0.0000    0.0000    0.0000   -0.0000   -0.0008    0.0004   -0.0000   -0.0005
       51 RE     3d1-      -0.0000   -0.0000    0.0003   -0.0002    0.0000   -0.0000    0.0271   -0.0133    0.0000    0.3864
       52 RE     4d1-       0.0000    0.0000   -0.0001    0.0001   -0.0000   -0.0000    0.0026   -0.0013    0.0000    0.0004
       53 RE     5d1-      -0.0000   -0.0000    0.0000   -0.0000    0.0000    0.0000   -0.0006    0.0003   -0.0000   -0.0000
       54 RE     6d1-       0.0000    0.0000   -0.0000    0.0000   -0.0000   -0.0000    0.0008   -0.0004    0.0000    0.0000
       55 RE     7d1-      -0.0000   -0.0000    0.0000   -0.0000    0.0000    0.0000   -0.0012    0.0006   -0.0000   -0.0000
       56 RE     8d1-       0.0000    0.0000   -0.0000    0.0000   -0.0000   -0.0000    0.0015   -0.0007    0.0000    0.0000
       57 RE     9d1-      -0.0000   -0.0000    0.0000   -0.0000    0.0000    0.0000   -0.0013    0.0007   -0.0000    0.0000
       58 RE    10d1-       0.0000    0.0000   -0.0001    0.0000   -0.0000   -0.0000    0.0017   -0.0008    0.0000   -0.0001
       59 RE    11d1-      -0.0000   -0.0000    0.0001   -0.0000    0.0000    0.0000   -0.0012    0.0006   -0.0000    0.0002
       60 RE     3d0       -0.0000   -0.0001    0.0000   -0.0000    0.0001   -0.0069    0.0000   -0.0000   -0.0141    0.0000
       61 RE     4d0        0.0000    0.0000    0.0000   -0.0000   -0.0000   -0.0010    0.0000   -0.0000   -0.0027   -0.0000
       62 RE     5d0       -0.0000   -0.0000   -0.0000    0.0000    0.0000    0.0002   -0.0000    0.0000    0.0006    0.0000
       63 RE     6d0        0.0000    0.0000    0.0000   -0.0000   -0.0000   -0.0003    0.0000   -0.0000   -0.0008   -0.0000
       64 RE     7d0       -0.0000   -0.0000   -0.0000    0.0000    0.0000    0.0005   -0.0000    0.0000    0.0012    0.0000
       65 RE     8d0        0.0000    0.0000    0.0000   -0.0000   -0.0000   -0.0006    0.0000   -0.0000   -0.0015   -0.0000
       66 RE     9d0       -0.0000   -0.0000   -0.0000    0.0000    0.0000    0.0006   -0.0000    0.0000    0.0013    0.0000
       67 RE    10d0        0.0000    0.0000    0.0000   -0.0000   -0.0001   -0.0007    0.0000   -0.0000   -0.0016   -0.0000
       68 RE    11d0       -0.0000   -0.0000   -0.0000    0.0000    0.0001    0.0006   -0.0000    0.0000    0.0008    0.0000
       69 RE     3d1+      -0.0000   -0.0000   -0.0002   -0.0003    0.0000   -0.0000   -0.0133   -0.0271    0.0000    0.3490
       70 RE     4d1+       0.0000    0.0000    0.0001    0.0001   -0.0000   -0.0000   -0.0013   -0.0026    0.0000    0.0003
       71 RE     5d1+      -0.0000   -0.0000   -0.0000   -0.0000    0.0000    0.0000    0.0003    0.0006   -0.0000   -0.0000
       72 RE     6d1+       0.0000    0.0000    0.0000    0.0000   -0.0000   -0.0000   -0.0004   -0.0008    0.0000    0.0000
       73 RE     7d1+      -0.0000   -0.0000   -0.0000   -0.0000    0.0000    0.0000    0.0006    0.0012   -0.0000   -0.0000
       74 RE     8d1+       0.0000    0.0000    0.0000    0.0000   -0.0000   -0.0000   -0.0007   -0.0015    0.0000    0.0000
       75 RE     9d1+      -0.0000   -0.0000   -0.0000   -0.0000    0.0000    0.0000    0.0007    0.0013   -0.0000    0.0000
       76 RE    10d1+       0.0000    0.0000    0.0000    0.0001   -0.0000   -0.0000   -0.0008   -0.0017    0.0000   -0.0001
       77 RE    11d1+      -0.0000   -0.0000   -0.0000   -0.0001    0.0000    0.0000    0.0006    0.0012   -0.0000    0.0002
       78 RE     3d2+       0.0000   -0.0000    0.0001    0.0001   -0.0000   -0.0000    0.0079    0.0161   -0.0000    0.5723
       79 RE     4d2+      -0.0000    0.0000   -0.0000   -0.0000    0.0000   -0.0000    0.0009    0.0019   -0.0000   -0.0000
       80 RE     5d2+       0.0000   -0.0000    0.0000    0.0000   -0.0000    0.0000   -0.0002   -0.0005    0.0000    0.0001
       81 RE     6d2+      -0.0000    0.0000   -0.0000   -0.0000    0.0000   -0.0000    0.0003    0.0006   -0.0000   -0.0001
       82 RE     7d2+       0.0000   -0.0000    0.0000    0.0000   -0.0000    0.0000   -0.0004   -0.0009    0.0000    0.0002
       83 RE     8d2+      -0.0000    0.0000   -0.0000   -0.0000    0.0000   -0.0000    0.0005    0.0011   -0.0000   -0.0003
       84 RE     9d2+       0.0000   -0.0000    0.0000    0.0000   -0.0000    0.0000   -0.0005   -0.0010    0.0000    0.0003
       85 RE    10d2+      -0.0000    0.0000   -0.0000   -0.0000    0.0000   -0.0000    0.0006    0.0012   -0.0000   -0.0005
       86 RE    11d2+       0.0000   -0.0000   -0.0000   -0.0000   -0.0000    0.0000   -0.0004   -0.0008    0.0000    0.0005
       87 RE     4f3-      -0.0000   -0.0000    0.0000    0.0000    0.0000   -0.0000    0.0000    0.0000   -0.0000    0.0000
       88 RE     5f3-      -0.0000    0.0000   -0.0000   -0.0000    0.0000    0.0000    0.0000    0.0000    0.0000   -0.0000
       89 RE     6f3-      -0.0000   -0.0000    0.0000    0.0000    0.0000   -0.0000   -0.0000   -0.0000   -0.0000    0.0000
       90 RE     7f3-       0.0000    0.0000   -0.0000   -0.0000   -0.0000    0.0000    0.0000   -0.0000    0.0000    0.0000
       91 RE     8f3-      -0.0000   -0.0000   -0.0000   -0.0000    0.0000   -0.0000   -0.0000    0.0000   -0.0000   -0.0000
       92 RE     9f3-       0.0000    0.0000    0.0000    0.0000    0.0000    0.0000    0.0000   -0.0000    0.0000    0.0000
       93 RE    10f3-      -0.0000   -0.0000   -0.0000   -0.0000   -0.0000   -0.0000    0.0000    0.0000   -0.0000   -0.0000
       94 RE    11f3-       0.0000    0.0000    0.0000    0.0000    0.0000   -0.0000   -0.0000   -0.0000    0.0000    0.0000
       95 RE     4f2-       0.0000    0.0000   -0.0000    0.0000   -0.0000   -0.0000   -0.0024    0.0012   -0.0000   -0.0023
       96 RE     5f2-      -0.0000   -0.0000    0.0000   -0.0000   -0.0000    0.0000    0.0015   -0.0007    0.0000    0.0015
       97 RE     6f2-       0.0000    0.0000   -0.0000    0.0000   -0.0000    0.0000   -0.0016    0.0008   -0.0000   -0.0016
       98 RE     7f2-      -0.0000   -0.0000    0.0000   -0.0000    0.0000   -0.0000    0.0012   -0.0006    0.0000    0.0012
       99 RE     8f2-       0.0000    0.0000   -0.0000    0.0000   -0.0000    0.0000   -0.0009    0.0005   -0.0000   -0.0010
      100 RE     9f2-      -0.0000   -0.0000    0.0000   -0.0000    0.0000   -0.0000    0.0005   -0.0003    0.0000    0.0007
      101 RE    10f2-       0.0000    0.0000   -0.0000    0.0000   -0.0000    0.0000   -0.0002    0.0001    0.0000   -0.0005
      102 RE    11f2-      -0.0000   -0.0000    0.0000   -0.0000    0.0000   -0.0000   -0.0005    0.0003   -0.0000    0.0001
      103 RE     4f1-       0.0000    0.0000   -0.0000    0.0000   -0.0000    0.0000   -0.0011    0.0005   -0.0000    0.0009
      104 RE     5f1-       0.0000   -0.0000    0.0000   -0.0000    0.0000   -0.0000    0.0007   -0.0004    0.0000   -0.0005
      105 RE     6f1-       0.0000    0.0000   -0.0000    0.0000   -0.0000    0.0000   -0.0008    0.0004   -0.0000    0.0006
      106 RE     7f1-      -0.0000   -0.0000    0.0000   -0.0000    0.0000   -0.0000    0.0006   -0.0003    0.0000   -0.0005
      107 RE     8f1-       0.0000    0.0000   -0.0000    0.0000   -0.0000    0.0000   -0.0005    0.0003   -0.0000    0.0004
      108 RE     9f1-      -0.0000   -0.0000    0.0000   -0.0000   -0.0000   -0.0000    0.0003   -0.0002    0.0000   -0.0003
      109 RE    10f1-       0.0000    0.0000   -0.0000    0.0000    0.0000    0.0000   -0.0002    0.0001   -0.0000    0.0002
      110 RE    11f1-      -0.0000   -0.0000    0.0000   -0.0000   -0.0000    0.0000   -0.0001    0.0000    0.0000   -0.0001
      111 RE     4f0       -0.0000   -0.0001    0.0000   -0.0000   -0.0000   -0.0049    0.0000   -0.0000   -0.0019    0.0000
      112 RE     5f0        0.0000    0.0000    0.0000   -0.0000    0.0000    0.0031   -0.0000    0.0000    0.0011   -0.0000
      113 RE     6f0       -0.0000   -0.0001    0.0000   -0.0000   -0.0000   -0.0035    0.0000   -0.0000   -0.0012    0.0000
      114 RE     7f0        0.0000    0.0001   -0.0000    0.0000    0.0000    0.0028   -0.0000    0.0000    0.0010   -0.0000
      115 RE     8f0       -0.0000   -0.0001    0.0000   -0.0000   -0.0000   -0.0022    0.0000   -0.0000   -0.0008    0.0000
      116 RE     9f0        0.0000    0.0001   -0.0000    0.0000    0.0000    0.0014   -0.0000    0.0000    0.0005   -0.0000
      117 RE    10f0       -0.0000   -0.0001    0.0000   -0.0000   -0.0000   -0.0008    0.0000    0.0000   -0.0003    0.0000
      118 RE    11f0        0.0000    0.0001   -0.0000    0.0000    0.0000   -0.0007    0.0000   -0.0000   -0.0001   -0.0000
      119 RE     4f1+       0.0000    0.0000    0.0000    0.0000   -0.0000    0.0000    0.0005    0.0011   -0.0000    0.0008
      120 RE     5f1+       0.0000   -0.0000   -0.0000   -0.0000    0.0000   -0.0000   -0.0004   -0.0007   -0.0000   -0.0005
      121 RE     6f1+       0.0000    0.0000    0.0000    0.0000   -0.0000    0.0000    0.0004    0.0008   -0.0000    0.0005
      122 RE     7f1+      -0.0000   -0.0000   -0.0000   -0.0000    0.0000   -0.0000   -0.0003   -0.0006    0.0000   -0.0004
      123 RE     8f1+       0.0000    0.0000    0.0000    0.0000   -0.0000    0.0000    0.0003    0.0005   -0.0000    0.0004
      124 RE     9f1+      -0.0000   -0.0000   -0.0000   -0.0000   -0.0000   -0.0000   -0.0002   -0.0003    0.0000   -0.0003
      125 RE    10f1+       0.0000    0.0000    0.0000    0.0000    0.0000    0.0000    0.0001    0.0002   -0.0000    0.0002
      126 RE    11f1+      -0.0000   -0.0000   -0.0000   -0.0000   -0.0000    0.0000    0.0000    0.0001    0.0000   -0.0001
      127 RE     4f2+      -0.0000   -0.0000   -0.0000   -0.0000    0.0000   -0.0000   -0.0012   -0.0024    0.0000    0.0021
      128 RE     5f2+       0.0000    0.0000    0.0000    0.0000   -0.0000    0.0000    0.0007    0.0015   -0.0000   -0.0013
      129 RE     6f2+      -0.0000   -0.0000   -0.0000   -0.0000    0.0000   -0.0000   -0.0008   -0.0016    0.0000    0.0014
      130 RE     7f2+       0.0000    0.0000    0.0000    0.0000   -0.0000    0.0000    0.0006    0.0012    0.0000   -0.0011
      131 RE     8f2+      -0.0000   -0.0000   -0.0000   -0.0000    0.0000   -0.0000   -0.0005   -0.0009   -0.0000    0.0009
      132 RE     9f2+       0.0000    0.0000    0.0000    0.0000   -0.0000    0.0000    0.0003    0.0005    0.0000   -0.0006
      133 RE    10f2+      -0.0000   -0.0000   -0.0000   -0.0000    0.0000   -0.0000   -0.0001   -0.0002   -0.0000    0.0004
      134 RE    11f2+       0.0000   -0.0000    0.0000    0.0000   -0.0000   -0.0000   -0.0003   -0.0005    0.0000   -0.0000
      135 RE     4f3+      -0.0000   -0.0000   -0.0000    0.0000    0.0000   -0.0032   -0.0000    0.0000    0.0024    0.0000
      136 RE     5f3+       0.0000    0.0000   -0.0000    0.0000   -0.0000    0.0021    0.0000   -0.0000   -0.0015   -0.0000
      137 RE     6f3+      -0.0000   -0.0000   -0.0000    0.0000    0.0000   -0.0023   -0.0000    0.0000    0.0016    0.0000
      138 RE     7f3+       0.0000    0.0000    0.0000   -0.0000   -0.0000    0.0018    0.0000   -0.0000   -0.0012   -0.0000
      139 RE     8f3+      -0.0000   -0.0000   -0.0000    0.0000    0.0000   -0.0015   -0.0000    0.0000    0.0010    0.0000
      140 RE     9f3+       0.0000    0.0000    0.0000   -0.0000   -0.0000    0.0009    0.0000   -0.0000   -0.0005   -0.0000
      141 RE    10f3+      -0.0000   -0.0000   -0.0000    0.0000    0.0000   -0.0005    0.0000    0.0000    0.0002    0.0000
      142 RE    11f3+       0.0000    0.0001    0.0000   -0.0000   -0.0000   -0.0005   -0.0000    0.0000    0.0005   -0.0000
      143 RE     5g4-      -0.0000    0.0000   -0.0000    0.0000    0.0000   -0.0000   -0.0005    0.0002   -0.0000    0.0000
      144 RE     6g4-       0.0000   -0.0000    0.0000   -0.0000   -0.0000    0.0000    0.0004   -0.0002    0.0000   -0.0000
      145 RE     7g4-      -0.0000    0.0000   -0.0000    0.0000    0.0000   -0.0000   -0.0005    0.0002   -0.0000    0.0000
      146 RE     8g4-       0.0000   -0.0000    0.0000   -0.0000   -0.0000    0.0000    0.0003   -0.0002    0.0000   -0.0000
      147 RE     5g3-       0.0000    0.0000   -0.0000   -0.0000   -0.0000    0.0000    0.0000    0.0000    0.0000   -0.0000
      148 RE     6g3-      -0.0000    0.0000   -0.0000   -0.0000    0.0000   -0.0000   -0.0000   -0.0000   -0.0000    0.0000
      149 RE     7g3-       0.0000   -0.0000    0.0000    0.0000   -0.0000    0.0000    0.0000    0.0000    0.0000   -0.0000
      150 RE     8g3-      -0.0000    0.0000   -0.0000   -0.0000    0.0000   -0.0000   -0.0000   -0.0000   -0.0000    0.0000
      151 RE     5g2-      -0.0000    0.0000   -0.0000    0.0000    0.0000    0.0000    0.0001   -0.0001   -0.0000    0.0001
      152 RE     6g2-       0.0000   -0.0000    0.0000   -0.0000   -0.0000    0.0000   -0.0001    0.0001   -0.0000   -0.0001
      153 RE     7g2-      -0.0000    0.0000   -0.0000    0.0000    0.0000   -0.0000    0.0001   -0.0001    0.0000    0.0000
      154 RE     8g2-       0.0000   -0.0000   -0.0000    0.0000   -0.0000    0.0000   -0.0001    0.0000   -0.0000   -0.0000
      155 RE     5g1-       0.0000   -0.0000   -0.0000    0.0000    0.0000   -0.0000   -0.0005    0.0003   -0.0000   -0.0002
      156 RE     6g1-      -0.0000    0.0000    0.0000   -0.0000   -0.0000   -0.0000    0.0005   -0.0002    0.0000    0.0002
      157 RE     7g1-       0.0000   -0.0000   -0.0000    0.0000    0.0000    0.0000   -0.0005    0.0003   -0.0000   -0.0002
      158 RE     8g1-      -0.0000    0.0000    0.0000   -0.0000   -0.0000   -0.0000    0.0004   -0.0002    0.0000    0.0001
      159 RE     5g0       -0.0000   -0.0000    0.0000   -0.0000   -0.0000   -0.0001   -0.0000    0.0000   -0.0011   -0.0000
      160 RE     6g0        0.0000    0.0000   -0.0000    0.0000    0.0000    0.0000    0.0000   -0.0000    0.0010    0.0000
      161 RE     7g0       -0.0000   -0.0000    0.0000   -0.0000   -0.0000   -0.0000    0.0000   -0.0000   -0.0011   -0.0000
      162 RE     8g0        0.0000    0.0000   -0.0000    0.0000    0.0000    0.0000   -0.0000    0.0000    0.0008    0.0000
      163 RE     5g1+       0.0000   -0.0000    0.0000    0.0000    0.0000   -0.0000    0.0003    0.0005   -0.0000   -0.0002
      164 RE     6g1+      -0.0000    0.0000   -0.0000   -0.0000   -0.0000   -0.0000   -0.0002   -0.0005    0.0000    0.0002
      165 RE     7g1+       0.0000   -0.0000    0.0000    0.0000    0.0000    0.0000    0.0003    0.0005   -0.0000   -0.0002
      166 RE     8g1+      -0.0000    0.0000   -0.0000   -0.0000   -0.0000   -0.0000   -0.0002   -0.0004    0.0000    0.0001
      167 RE     5g2+       0.0000   -0.0000   -0.0000   -0.0000   -0.0000    0.0000    0.0001    0.0001   -0.0000   -0.0001
      168 RE     6g2+      -0.0000    0.0000    0.0000    0.0000    0.0000   -0.0000   -0.0001   -0.0001    0.0000    0.0000
      169 RE     7g2+       0.0000   -0.0000   -0.0000   -0.0000   -0.0000    0.0000    0.0001    0.0001   -0.0000   -0.0000
      170 RE     8g2+      -0.0000    0.0000   -0.0000   -0.0000    0.0000   -0.0000   -0.0000   -0.0001    0.0000    0.0000
      171 RE     5g3+       0.0000    0.0000    0.0000   -0.0000   -0.0000    0.0006   -0.0000    0.0000   -0.0007   -0.0000
      172 RE     6g3+      -0.0000   -0.0000   -0.0000    0.0000    0.0000   -0.0005   -0.0000    0.0000    0.0006    0.0000
      173 RE     7g3+       0.0000    0.0000    0.0000   -0.0000   -0.0000    0.0006    0.0000   -0.0000   -0.0007   -0.0000
      174 RE     8g3+      -0.0000   -0.0000   -0.0000    0.0000    0.0000   -0.0004   -0.0000    0.0000    0.0005    0.0000
      175 RE     5g4+      -0.0000    0.0000    0.0000    0.0000    0.0000   -0.0000    0.0002    0.0005   -0.0000    0.0000
      176 RE     6g4+       0.0000   -0.0000   -0.0000   -0.0000   -0.0000    0.0000   -0.0002   -0.0004    0.0000   -0.0000
      177 RE     7g4+      -0.0000    0.0000    0.0000    0.0000    0.0000   -0.0000    0.0002    0.0005   -0.0000    0.0000
      178 RE     8g4+       0.0000   -0.0000   -0.0000   -0.0000   -0.0000    0.0000   -0.0002   -0.0003    0.0000   -0.0000
      179 RE     6h5-      -0.0000   -0.0000    0.0000   -0.0000    0.0000    0.0000    0.0000   -0.0000    0.0000    0.0000
      180 RE     7h5-       0.0000    0.0000   -0.0000    0.0000   -0.0000   -0.0000   -0.0000    0.0000   -0.0000   -0.0000
      181 RE     6h4-       0.0000    0.0000    0.0000   -0.0000    0.0000   -0.0000    0.0001   -0.0000    0.0000   -0.0000
      182 RE     7h4-      -0.0000   -0.0000   -0.0000    0.0000   -0.0000    0.0000   -0.0001    0.0000   -0.0000    0.0000
      183 RE     6h3-       0.0000   -0.0000    0.0000    0.0000   -0.0000    0.0000    0.0000    0.0000   -0.0000   -0.0000
      184 RE     7h3-       0.0000    0.0000   -0.0000   -0.0000    0.0000   -0.0000   -0.0000   -0.0000    0.0000   -0.0000
      185 RE     6h2-      -0.0000   -0.0000    0.0000   -0.0000    0.0000    0.0000    0.0000   -0.0000    0.0000    0.0000
      186 RE     7h2-       0.0000    0.0000   -0.0000    0.0000   -0.0000   -0.0000   -0.0000    0.0000   -0.0000   -0.0000
      187 RE     6h1-       0.0000    0.0000    0.0000   -0.0000    0.0000   -0.0000    0.0000   -0.0000   -0.0000   -0.0000
      188 RE     7h1-      -0.0000   -0.0000   -0.0000    0.0000   -0.0000    0.0000   -0.0000    0.0000   -0.0000    0.0000
      189 RE     6h0       -0.0000    0.0000    0.0000   -0.0000   -0.0000   -0.0000    0.0000   -0.0000   -0.0001   -0.0000
      190 RE     7h0        0.0000   -0.0000   -0.0000    0.0000    0.0000    0.0000   -0.0000    0.0000    0.0001    0.0000
      191 RE     6h1+       0.0000    0.0000   -0.0000   -0.0000    0.0000   -0.0000   -0.0000   -0.0000    0.0000   -0.0000
      192 RE     7h1+      -0.0000   -0.0000    0.0000    0.0000   -0.0000    0.0000    0.0000    0.0000   -0.0000    0.0000
      193 RE     6h2+       0.0000    0.0000    0.0000    0.0000   -0.0000   -0.0000    0.0000    0.0000   -0.0000   -0.0000
      194 RE     7h2+      -0.0000   -0.0000   -0.0000   -0.0000    0.0000    0.0000   -0.0000   -0.0000    0.0000    0.0000
      195 RE     6h3+      -0.0000    0.0000    0.0000   -0.0000    0.0000   -0.0000    0.0000   -0.0000    0.0000   -0.0000
      196 RE     7h3+      -0.0000    0.0000   -0.0000    0.0000   -0.0000    0.0000   -0.0000    0.0000   -0.0001   -0.0000
      197 RE     6h4+      -0.0000    0.0000   -0.0000   -0.0000    0.0000   -0.0000   -0.0000   -0.0001    0.0000   -0.0000
      198 RE     7h4+      -0.0000   -0.0000    0.0000    0.0000   -0.0000    0.0000    0.0000    0.0001   -0.0000    0.0000
      199 RE     6h5+       0.0000    0.0000    0.0000    0.0000   -0.0000   -0.0000    0.0000    0.0000   -0.0000   -0.0000
      200 RE     7h5+      -0.0000   -0.0000   -0.0000   -0.0000    0.0000    0.0000   -0.0000   -0.0000    0.0000    0.0000

          Orbital           11        12        13        14        15        16        17        18        19        20    
          Energy          -70.9026  -70.4142  -70.3764  -70.3764  -23.6247  -18.0532  -18.0532  -17.7068  -10.6824  -10.6824
          Occ. No.          2.0000    2.0000    2.0000    2.0000    2.0000    2.0000    2.0000    2.0000    2.0000    2.0000

        1 RE     1s         0.0000    0.0000    0.0000    0.0000    0.0000    0.0000   -0.0000   -0.0000    0.0000   -0.0000
        2 RE     2s        -0.0000    0.0001    0.0000    0.0000   -0.0001   -0.0000    0.0000    0.0001   -0.0000    0.0000
        3 RE     3s        -0.0000    0.0065   -0.0000   -0.0000    0.0012    0.0000   -0.0000   -0.0006   -0.0000    0.0000
        4 RE     4s         0.0000   -0.0016    0.0000    0.0000    0.9973    0.0000   -0.0000   -0.0527   -0.0000    0.0000
        5 RE     5s        -0.0000    0.0005   -0.0000   -0.0000    0.0211    0.0000   -0.0000   -0.0067    0.0000   -0.0000
        6 RE     6s         0.0000   -0.0001    0.0000    0.0000   -0.0048   -0.0000    0.0000    0.0014   -0.0000    0.0000
        7 RE     7s        -0.0000    0.0002   -0.0000   -0.0000    0.0075    0.0000   -0.0000   -0.0022   -0.0000    0.0000
        8 RE     8s         0.0000   -0.0005    0.0000    0.0000   -0.0129   -0.0000    0.0000    0.0035    0.0000   -0.0000
        9 RE     9s        -0.0000    0.0006   -0.0000   -0.0000    0.0110    0.0000   -0.0000   -0.0026   -0.0000    0.0000
       10 RE    10s         0.0000   -0.0004    0.0000    0.0000   -0.0048   -0.0000    0.0000    0.0010    0.0000   -0.0000
       11 RE    11s        -0.0000    0.0007   -0.0000   -0.0000    0.0036    0.0000   -0.0000   -0.0005   -0.0000    0.0000
       12 RE     2px       -0.0001   -0.0000    0.0003   -0.0003   -0.0000    0.0001    0.0001   -0.0000    0.0000    0.0000
       13 RE     3px       -0.0004   -0.0000    0.0254   -0.0242    0.0000   -0.0005   -0.0005    0.0000    0.0001    0.0001
       14 RE     4px       -0.0004    0.0000   -0.0028    0.0026   -0.0000   -0.6808   -0.7271    0.0000   -0.0008   -0.0010
       15 RE     5px        0.0001    0.0000    0.0009   -0.0009   -0.0000   -0.0145   -0.0155    0.0000    0.0004    0.0004
       16 RE     6px       -0.0001    0.0000   -0.0004    0.0004    0.0000    0.0054    0.0058   -0.0000   -0.0003   -0.0004
       17 RE     7px        0.0002   -0.0000    0.0012   -0.0011   -0.0000   -0.0115   -0.0123    0.0000    0.0006    0.0007
       18 RE     8px       -0.0002    0.0000   -0.0012    0.0011    0.0000    0.0076    0.0081   -0.0000   -0.0003   -0.0003
       19 RE     9px        0.0001   -0.0000    0.0010   -0.0010   -0.0000   -0.0041   -0.0044    0.0000    0.0001    0.0001
       20 RE    10px       -0.0001    0.0000   -0.0011    0.0010    0.0000    0.0024    0.0025   -0.0000   -0.0001   -0.0001
       21 RE    11px        0.0001   -0.0000    0.0011   -0.0010   -0.0000    0.0001    0.0001    0.0000   -0.0000   -0.0001
       22 RE     2py        0.0001   -0.0000   -0.0003   -0.0003    0.0000   -0.0001    0.0001   -0.0000    0.0000   -0.0000
       23 RE     3py        0.0003   -0.0000   -0.0242   -0.0254    0.0000    0.0005   -0.0005    0.0000    0.0001   -0.0001
       24 RE     4py        0.0004    0.0000    0.0026    0.0028   -0.0000    0.7271   -0.6808    0.0000   -0.0010    0.0008
       25 RE     5py       -0.0001   -0.0000   -0.0009   -0.0009   -0.0000    0.0155   -0.0145    0.0000    0.0004   -0.0004
       26 RE     6py        0.0001    0.0000    0.0004    0.0004    0.0000   -0.0058    0.0054   -0.0000   -0.0004    0.0003
       27 RE     7py       -0.0001   -0.0000   -0.0011   -0.0012   -0.0000    0.0123   -0.0115    0.0000    0.0007   -0.0006
       28 RE     8py        0.0002    0.0000    0.0011    0.0012    0.0000   -0.0081    0.0076   -0.0000   -0.0003    0.0003
       29 RE     9py       -0.0001   -0.0000   -0.0010   -0.0010   -0.0000    0.0044   -0.0041    0.0000    0.0001   -0.0001
       30 RE    10py        0.0001    0.0000    0.0010    0.0011    0.0000   -0.0025    0.0024   -0.0000   -0.0001    0.0001
       31 RE    11py       -0.0001   -0.0000   -0.0010   -0.0011   -0.0000   -0.0001    0.0001    0.0000   -0.0001    0.0000
       32 RE     2pz        0.0000   -0.0001    0.0000    0.0000    0.0000    0.0000   -0.0000   -0.0001   -0.0000    0.0000
       33 RE     3pz       -0.0000    0.0141   -0.0000   -0.0000   -0.0009   -0.0000    0.0000    0.0023    0.0000   -0.0000
       34 RE     4pz        0.0000   -0.0035    0.0000    0.0000    0.0525   -0.0000    0.0000    0.9966    0.0000   -0.0000
       35 RE     5pz       -0.0000    0.0011   -0.0000   -0.0000   -0.0028   -0.0000    0.0000    0.0280    0.0000   -0.0000
       36 RE     6pz        0.0000   -0.0005    0.0000    0.0000    0.0011    0.0000   -0.0000   -0.0105   -0.0000    0.0000
       37 RE     7pz       -0.0000    0.0014   -0.0000   -0.0000   -0.0023   -0.0000    0.0000    0.0223    0.0000   -0.0000
       38 RE     8pz        0.0000   -0.0014    0.0000    0.0000    0.0016    0.0000   -0.0000   -0.0148   -0.0000    0.0000
       39 RE     9pz       -0.0000    0.0012   -0.0000   -0.0000   -0.0008   -0.0000    0.0000    0.0079    0.0000   -0.0000
       40 RE    10pz        0.0000   -0.0012    0.0000    0.0000    0.0005    0.0000   -0.0000   -0.0046   -0.0000    0.0000
       41 RE    11pz       -0.0000    0.0012   -0.0000   -0.0000    0.0002    0.0000   -0.0000   -0.0005   -0.0000    0.0000
       42 RE     3d2-       0.5723    0.0000    0.3590    0.3767   -0.0000   -0.0014    0.0014   -0.0000    0.0002   -0.0002
       43 RE     4d2-      -0.0000   -0.0000   -0.0019   -0.0020   -0.0000    0.0304   -0.0285    0.0000   -0.6314    0.5597
       44 RE     5d2-       0.0001    0.0000    0.0005    0.0005   -0.0000   -0.0027    0.0025   -0.0000   -0.0135    0.0120
       45 RE     6d2-      -0.0001   -0.0000   -0.0006   -0.0006    0.0000    0.0031   -0.0029    0.0000    0.0136   -0.0121
       46 RE     7d2-       0.0002    0.0000    0.0008    0.0009   -0.0000   -0.0033    0.0031   -0.0000   -0.0127    0.0113
       47 RE     8d2-      -0.0003   -0.0000   -0.0011   -0.0011    0.0000    0.0026   -0.0025    0.0000    0.0083   -0.0073
       48 RE     9d2-       0.0003    0.0000    0.0010    0.0010   -0.0000   -0.0013    0.0012   -0.0000   -0.0038    0.0033
       49 RE    10d2-      -0.0005   -0.0000   -0.0012   -0.0013   -0.0000    0.0007   -0.0006    0.0000    0.0022   -0.0020
       50 RE    11d2-       0.0005    0.0000    0.0008    0.0008    0.0000    0.0007   -0.0006    0.0000   -0.0001    0.0001
       51 RE     3d1-      -0.3490    0.0000    0.5886    0.6176    0.0000   -0.0018    0.0017   -0.0000   -0.0003    0.0002
       52 RE     4d1-      -0.0003   -0.0000   -0.0024   -0.0026   -0.0000    0.0491   -0.0460    0.0000    0.3997   -0.3544
       53 RE     5d1-       0.0000    0.0000    0.0006    0.0006   -0.0000   -0.0039    0.0037   -0.0000    0.0085   -0.0075
       54 RE     6d1-      -0.0000   -0.0000   -0.0008   -0.0008    0.0000    0.0044   -0.0041    0.0000   -0.0085    0.0075
       55 RE     7d1-       0.0000    0.0000    0.0011    0.0012   -0.0000   -0.0047    0.0044   -0.0000    0.0078   -0.0070
       56 RE     8d1-      -0.0000   -0.0000   -0.0014   -0.0015    0.0000    0.0036   -0.0033    0.0000   -0.0050    0.0044
       57 RE     9d1-      -0.0000    0.0000    0.0013    0.0014   -0.0000   -0.0017    0.0016   -0.0000    0.0023   -0.0020
       58 RE    10d1-       0.0001   -0.0000   -0.0017   -0.0018    0.0000    0.0008   -0.0007    0.0000   -0.0013    0.0011
       59 RE    11d1-      -0.0002    0.0000    0.0012    0.0012   -0.0000    0.0009   -0.0009    0.0000    0.0001   -0.0001
       60 RE     3d0       -0.0000    0.9998   -0.0000   -0.0000    0.0016   -0.0000    0.0000    0.0029    0.0000   -0.0000
       61 RE     4d0        0.0000   -0.0039    0.0000    0.0000   -0.0169    0.0000   -0.0000   -0.0399    0.0000   -0.0000
       62 RE     5d0       -0.0000    0.0009   -0.0000   -0.0000    0.0019   -0.0000    0.0000    0.0041   -0.0000    0.0000
       63 RE     6d0        0.0000   -0.0012    0.0000    0.0000   -0.0023    0.0000   -0.0000   -0.0046    0.0000   -0.0000
       64 RE     7d0       -0.0000    0.0017   -0.0000   -0.0000    0.0027   -0.0000    0.0000    0.0051   -0.0000    0.0000
       65 RE     8d0        0.0000   -0.0022    0.0000    0.0000   -0.0023    0.0000   -0.0000   -0.0042    0.0000   -0.0000
       66 RE     9d0       -0.0000    0.0020   -0.0000   -0.0000    0.0013   -0.0000    0.0000    0.0023   -0.0000    0.0000
       67 RE    10d0        0.0000   -0.0026    0.0000    0.0000   -0.0008    0.0000   -0.0000   -0.0015   -0.0000    0.0000
       68 RE    11d0       -0.0000    0.0019   -0.0000   -0.0000   -0.0006    0.0000   -0.0000   -0.0009   -0.0000    0.0000
       69 RE     3d1+       0.3864    0.0000   -0.6176    0.5886    0.0000    0.0017    0.0018   -0.0000   -0.0002   -0.0003
       70 RE     4d1+       0.0004   -0.0000    0.0026   -0.0024   -0.0000   -0.0460   -0.0491    0.0000    0.3544    0.3997
       71 RE     5d1+      -0.0000    0.0000   -0.0006    0.0006   -0.0000    0.0037    0.0039   -0.0000    0.0075    0.0085
       72 RE     6d1+       0.0000   -0.0000    0.0008   -0.0008    0.0000   -0.0041   -0.0044    0.0000   -0.0075   -0.0085
       73 RE     7d1+      -0.0000    0.0000   -0.0012    0.0011   -0.0000    0.0044    0.0047   -0.0000    0.0070    0.0078
       74 RE     8d1+       0.0000   -0.0000    0.0015   -0.0014    0.0000   -0.0033   -0.0036    0.0000   -0.0044   -0.0050
       75 RE     9d1+       0.0000    0.0000   -0.0014    0.0013   -0.0000    0.0016    0.0017   -0.0000    0.0020    0.0023
       76 RE    10d1+      -0.0001   -0.0000    0.0018   -0.0017    0.0000   -0.0007   -0.0008    0.0000   -0.0011   -0.0013
       77 RE    11d1+       0.0002    0.0000   -0.0012    0.0012   -0.0000   -0.0009   -0.0009    0.0000    0.0001    0.0001
       78 RE     3d2+       0.6335   -0.0000    0.3767   -0.3590    0.0000   -0.0014   -0.0014    0.0000   -0.0002   -0.0002
       79 RE     4d2+      -0.0000   -0.0000   -0.0020    0.0019   -0.0000    0.0285    0.0304   -0.0000    0.5597    0.6314
       80 RE     5d2+       0.0001   -0.0000    0.0005   -0.0005    0.0000   -0.0025   -0.0027    0.0000    0.0120    0.0135
       81 RE     6d2+      -0.0001    0.0000   -0.0006    0.0006   -0.0000    0.0029    0.0031   -0.0000   -0.0121   -0.0136
       82 RE     7d2+       0.0002   -0.0000    0.0009   -0.0008    0.0000   -0.0031   -0.0033    0.0000    0.0113    0.0127
       83 RE     8d2+      -0.0003    0.0000   -0.0011    0.0011   -0.0000    0.0025    0.0026   -0.0000   -0.0073   -0.0083
       84 RE     9d2+       0.0003   -0.0000    0.0010   -0.0010    0.0000   -0.0012   -0.0013    0.0000    0.0033    0.0038
       85 RE    10d2+      -0.0005    0.0000   -0.0013    0.0012    0.0000    0.0006    0.0007   -0.0000   -0.0020   -0.0022
       86 RE    11d2+       0.0005   -0.0000    0.0008   -0.0008   -0.0000    0.0006    0.0007   -0.0000    0.0001    0.0001
       87 RE     4f3-       0.0000    0.0000    0.0000   -0.0000   -0.0000    0.0000    0.0000    0.0000   -0.0000   -0.0000
       88 RE     5f3-      -0.0000   -0.0000   -0.0000    0.0000    0.0000    0.0000    0.0000    0.0000   -0.0000   -0.0000
       89 RE     6f3-       0.0000    0.0000    0.0000   -0.0000   -0.0000   -0.0000   -0.0000    0.0000    0.0000    0.0000
       90 RE     7f3-       0.0000   -0.0000    0.0000   -0.0000   -0.0000    0.0000    0.0000   -0.0000    0.0000    0.0000
       91 RE     8f3-      -0.0000   -0.0000   -0.0000    0.0000   -0.0000    0.0000    0.0000   -0.0000   -0.0000   -0.0000
       92 RE     9f3-       0.0000    0.0000    0.0000   -0.0000   -0.0000   -0.0000   -0.0000   -0.0000    0.0000    0.0000
       93 RE    10f3-      -0.0000   -0.0000   -0.0000    0.0000    0.0000    0.0000    0.0000   -0.0000   -0.0000   -0.0000
       94 RE    11f3-       0.0000    0.0000    0.0000   -0.0000    0.0000    0.0000    0.0000   -0.0000    0.0000    0.0000
       95 RE     4f2-       0.0021    0.0000    0.0044    0.0046   -0.0000   -0.0103    0.0097   -0.0000   -0.0232    0.0205
       96 RE     5f2-      -0.0013   -0.0000   -0.0027   -0.0029    0.0000    0.0040   -0.0037   -0.0000    0.0056   -0.0050
       97 RE     6f2-       0.0014    0.0000    0.0029    0.0031   -0.0000   -0.0029    0.0027   -0.0000   -0.0029    0.0026
       98 RE     7f2-      -0.0011   -0.0000   -0.0022   -0.0023   -0.0000    0.0010   -0.0010    0.0000    0.0001   -0.0001
       99 RE     8f2-       0.0009    0.0000    0.0017    0.0018    0.0000    0.0000   -0.0000   -0.0000    0.0008   -0.0007
      100 RE     9f2-      -0.0006   -0.0000   -0.0010   -0.0011   -0.0000   -0.0006    0.0005   -0.0000   -0.0009    0.0008
      101 RE    10f2-       0.0004    0.0000    0.0005    0.0005    0.0000    0.0008   -0.0008    0.0000    0.0008   -0.0007
      102 RE    11f2-      -0.0000    0.0000    0.0005    0.0005    0.0000   -0.0008    0.0008   -0.0000   -0.0006    0.0006
      103 RE     4f1-      -0.0008    0.0000    0.0009    0.0009   -0.0000   -0.0047    0.0044   -0.0000    0.0093   -0.0083
      104 RE     5f1-       0.0005    0.0000   -0.0005   -0.0006   -0.0000    0.0018   -0.0017   -0.0000   -0.0018    0.0016
      105 RE     6f1-      -0.0005    0.0000    0.0006    0.0006    0.0000   -0.0012    0.0011    0.0000    0.0009   -0.0008
      106 RE     7f1-       0.0004   -0.0000   -0.0004   -0.0005   -0.0000    0.0003   -0.0003   -0.0000    0.0001   -0.0001
      107 RE     8f1-      -0.0004    0.0000    0.0004    0.0004   -0.0000    0.0002   -0.0002   -0.0000   -0.0004    0.0004
      108 RE     9f1-       0.0003   -0.0000   -0.0003   -0.0003    0.0000   -0.0004    0.0004    0.0000    0.0004   -0.0003
      109 RE    10f1-      -0.0002    0.0000    0.0002    0.0002   -0.0000    0.0004   -0.0004   -0.0000   -0.0003    0.0003
      110 RE    11f1-       0.0001   -0.0000   -0.0001   -0.0001    0.0000   -0.0003    0.0003   -0.0000    0.0002   -0.0002
      111 RE     4f0       -0.0000   -0.0027    0.0000    0.0000   -0.0284    0.0000   -0.0000   -0.0091   -0.0000    0.0000
      112 RE     5f0        0.0000    0.0017   -0.0000   -0.0000    0.0117   -0.0000    0.0000    0.0029    0.0000   -0.0000
      113 RE     6f0       -0.0000   -0.0017    0.0000    0.0000   -0.0086    0.0000   -0.0000   -0.0018   -0.0000    0.0000
      114 RE     7f0        0.0000    0.0012   -0.0000   -0.0000    0.0029   -0.0000    0.0000    0.0004   -0.0000    0.0000
      115 RE     8f0       -0.0000   -0.0008    0.0000    0.0000    0.0006   -0.0000    0.0000    0.0002    0.0000   -0.0000
      116 RE     9f0        0.0000    0.0003   -0.0000   -0.0000   -0.0022    0.0000   -0.0000   -0.0005    0.0000   -0.0000
      117 RE    10f0       -0.0000    0.0001    0.0000    0.0000    0.0030   -0.0000    0.0000    0.0007   -0.0000    0.0000
      118 RE    11f0        0.0000   -0.0009    0.0000    0.0000   -0.0027    0.0000   -0.0000   -0.0006    0.0000   -0.0000
      119 RE     4f1+       0.0009   -0.0000   -0.0009    0.0009   -0.0000    0.0044    0.0047   -0.0000    0.0083    0.0093
      120 RE     5f1+      -0.0005    0.0000    0.0006   -0.0005   -0.0000   -0.0017   -0.0018   -0.0000   -0.0016   -0.0018
      121 RE     6f1+       0.0006   -0.0000   -0.0006    0.0006    0.0000    0.0011    0.0012    0.0000    0.0008    0.0009
      122 RE     7f1+      -0.0005   -0.0000    0.0005   -0.0004   -0.0000   -0.0003   -0.0003   -0.0000    0.0001    0.0001
      123 RE     8f1+       0.0004    0.0000   -0.0004    0.0004   -0.0000   -0.0002   -0.0002   -0.0000   -0.0004   -0.0004
      124 RE     9f1+      -0.0003   -0.0000    0.0003   -0.0003    0.0000    0.0004    0.0004    0.0000    0.0003    0.0004
      125 RE    10f1+       0.0002    0.0000   -0.0002    0.0002   -0.0000   -0.0004   -0.0004   -0.0000   -0.0003   -0.0003
      126 RE    11f1+      -0.0001   -0.0000    0.0001   -0.0001    0.0000    0.0003    0.0003   -0.0000    0.0002    0.0002
      127 RE     4f2+       0.0023   -0.0000    0.0046   -0.0044   -0.0000   -0.0097   -0.0103    0.0000    0.0205    0.0232
      128 RE     5f2+      -0.0015    0.0000   -0.0029    0.0027   -0.0000    0.0037    0.0040    0.0000   -0.0050   -0.0056
      129 RE     6f2+       0.0016   -0.0000    0.0031   -0.0029    0.0000   -0.0027   -0.0029    0.0000    0.0026    0.0029
      130 RE     7f2+      -0.0012    0.0000   -0.0023    0.0022    0.0000    0.0010    0.0010   -0.0000   -0.0001   -0.0001
      131 RE     8f2+       0.0010   -0.0000    0.0018   -0.0017   -0.0000    0.0000    0.0000    0.0000   -0.0007   -0.0008
      132 RE     9f2+      -0.0007    0.0000   -0.0011    0.0010   -0.0000   -0.0005   -0.0006   -0.0000    0.0008    0.0009
      133 RE    10f2+       0.0005   -0.0000    0.0005   -0.0005    0.0000    0.0008    0.0008   -0.0000   -0.0007   -0.0008
      134 RE    11f2+      -0.0001   -0.0000    0.0005   -0.0005   -0.0000   -0.0008   -0.0008    0.0000    0.0006    0.0006
      135 RE     4f3+      -0.0000    0.0024   -0.0000   -0.0000   -0.0187    0.0000    0.0000    0.0154   -0.0000    0.0000
      136 RE     5f3+       0.0000   -0.0015    0.0000    0.0000    0.0077    0.0000   -0.0000   -0.0059    0.0000   -0.0000
      137 RE     6f3+      -0.0000    0.0016   -0.0000   -0.0000   -0.0057   -0.0000    0.0000    0.0043   -0.0000    0.0000
      138 RE     7f3+       0.0000   -0.0012    0.0000    0.0000    0.0019    0.0000   -0.0000   -0.0015   -0.0000    0.0000
      139 RE     8f3+      -0.0000    0.0010   -0.0000   -0.0000    0.0004    0.0000   -0.0000   -0.0001    0.0000   -0.0000
      140 RE     9f3+       0.0000   -0.0006    0.0000    0.0000   -0.0015   -0.0000    0.0000    0.0008    0.0000   -0.0000
      141 RE    10f3+      -0.0000    0.0003   -0.0000   -0.0000    0.0020    0.0000   -0.0000   -0.0012   -0.0000    0.0000
      142 RE    11f3+       0.0000    0.0001   -0.0000   -0.0000   -0.0018   -0.0000    0.0000    0.0011    0.0000   -0.0000
      143 RE     5g4-      -0.0000    0.0000    0.0004    0.0004    0.0000   -0.0028    0.0026   -0.0000    0.0003   -0.0002
      144 RE     6g4-       0.0000   -0.0000   -0.0003   -0.0003    0.0000    0.0021   -0.0019    0.0000   -0.0002    0.0002
      145 RE     7g4-      -0.0000    0.0000    0.0003    0.0003   -0.0000   -0.0018    0.0016   -0.0000    0.0002   -0.0002
      146 RE     8g4-       0.0000   -0.0000   -0.0002   -0.0002    0.0000    0.0011   -0.0010    0.0000   -0.0002    0.0001
      147 RE     5g3-      -0.0000   -0.0000    0.0000   -0.0000    0.0000   -0.0000   -0.0000   -0.0000   -0.0000   -0.0000
      148 RE     6g3-       0.0000    0.0000   -0.0000    0.0000    0.0000   -0.0000   -0.0000   -0.0000   -0.0000   -0.0000
      149 RE     7g3-      -0.0000   -0.0000    0.0000   -0.0000    0.0000    0.0000    0.0000    0.0000    0.0000    0.0000
      150 RE     8g3-       0.0000    0.0000   -0.0000    0.0000   -0.0000   -0.0000   -0.0000    0.0000   -0.0000   -0.0000
      151 RE     5g2-      -0.0001    0.0000   -0.0003   -0.0003    0.0000    0.0002   -0.0002   -0.0000    0.0007   -0.0006
      152 RE     6g2-       0.0000    0.0000    0.0003    0.0003   -0.0000   -0.0003    0.0003   -0.0000   -0.0002    0.0002
      153 RE     7g2-      -0.0000   -0.0000   -0.0003   -0.0003   -0.0000    0.0003   -0.0002    0.0000    0.0002   -0.0001
      154 RE     8g2-       0.0000    0.0000    0.0002    0.0002    0.0000   -0.0001    0.0001   -0.0000   -0.0001    0.0001
      155 RE     5g1-       0.0002    0.0000    0.0003    0.0003   -0.0000   -0.0035    0.0032   -0.0000   -0.0015    0.0013
      156 RE     6g1-      -0.0002   -0.0000   -0.0002   -0.0002    0.0000    0.0024   -0.0023    0.0000    0.0011   -0.0010
      157 RE     7g1-       0.0002    0.0000    0.0002    0.0002    0.0000   -0.0020    0.0019   -0.0000   -0.0009    0.0008
      158 RE     8g1-      -0.0001   -0.0000   -0.0001   -0.0001   -0.0000    0.0012   -0.0011    0.0000    0.0005   -0.0005
      159 RE     5g0        0.0000   -0.0012    0.0000    0.0000   -0.0005    0.0000   -0.0000   -0.0080    0.0000   -0.0000
      160 RE     6g0       -0.0000    0.0009   -0.0000   -0.0000    0.0003    0.0000   -0.0000    0.0061   -0.0000    0.0000
      161 RE     7g0        0.0000   -0.0009    0.0000    0.0000   -0.0002    0.0000   -0.0000   -0.0050   -0.0000    0.0000
      162 RE     8g0       -0.0000    0.0006   -0.0000   -0.0000    0.0001   -0.0000    0.0000    0.0030    0.0000   -0.0000
      163 RE     5g1+      -0.0002    0.0000   -0.0003    0.0003   -0.0000    0.0032    0.0035   -0.0000   -0.0013   -0.0015
      164 RE     6g1+       0.0002   -0.0000    0.0002   -0.0002    0.0000   -0.0023   -0.0024    0.0000    0.0010    0.0011
      165 RE     7g1+      -0.0002    0.0000   -0.0002    0.0002    0.0000    0.0019    0.0020   -0.0000   -0.0008   -0.0009
      166 RE     8g1+       0.0001   -0.0000    0.0001   -0.0001   -0.0000   -0.0011   -0.0012    0.0000    0.0005    0.0005
      167 RE     5g2+      -0.0001   -0.0000   -0.0003    0.0003   -0.0000    0.0002    0.0002    0.0000   -0.0006   -0.0007
      168 RE     6g2+       0.0001    0.0000    0.0003   -0.0003    0.0000   -0.0003   -0.0003    0.0000    0.0002    0.0002
      169 RE     7g2+      -0.0000   -0.0000   -0.0003    0.0003   -0.0000    0.0002    0.0003   -0.0000   -0.0001   -0.0002
      170 RE     8g2+       0.0000    0.0000    0.0002   -0.0002   -0.0000   -0.0001   -0.0001    0.0000    0.0001    0.0001
      171 RE     5g3+       0.0000   -0.0003    0.0000    0.0000    0.0036    0.0000   -0.0000   -0.0048   -0.0000    0.0000
      172 RE     6g3+      -0.0000    0.0002   -0.0000   -0.0000   -0.0029   -0.0000    0.0000    0.0037    0.0000   -0.0000
      173 RE     7g3+       0.0000   -0.0002    0.0000    0.0000    0.0026    0.0000   -0.0000   -0.0032   -0.0000    0.0000
      174 RE     8g3+      -0.0000    0.0001   -0.0000   -0.0000   -0.0017   -0.0000    0.0000    0.0019    0.0000   -0.0000
      175 RE     5g4+       0.0000    0.0000   -0.0004    0.0004    0.0000    0.0026    0.0028   -0.0000    0.0002    0.0003
      176 RE     6g4+      -0.0000   -0.0000    0.0003   -0.0003   -0.0000   -0.0019   -0.0021    0.0000   -0.0002   -0.0002
      177 RE     7g4+       0.0000    0.0000   -0.0003    0.0003    0.0000    0.0016    0.0018   -0.0000    0.0002    0.0002
      178 RE     8g4+      -0.0000   -0.0000    0.0002   -0.0002    0.0000   -0.0010   -0.0011    0.0000   -0.0001   -0.0002
      179 RE     6h5-      -0.0000   -0.0000   -0.0000   -0.0000   -0.0000    0.0001   -0.0001    0.0000    0.0007   -0.0006
      180 RE     7h5-       0.0000    0.0000    0.0000    0.0000   -0.0000   -0.0001    0.0001   -0.0000   -0.0008    0.0007
      181 RE     6h4-       0.0000   -0.0000   -0.0000   -0.0000    0.0000    0.0004   -0.0003    0.0000   -0.0003    0.0003
      182 RE     7h4-      -0.0000    0.0000    0.0001    0.0001    0.0000   -0.0005    0.0004   -0.0000    0.0004   -0.0004
      183 RE     6h3-      -0.0000   -0.0000   -0.0000    0.0000   -0.0000   -0.0000   -0.0000   -0.0000   -0.0000   -0.0000
      184 RE     7h3-      -0.0000   -0.0000   -0.0000    0.0000   -0.0000    0.0000    0.0000    0.0000   -0.0000   -0.0000
      185 RE     6h2-      -0.0000   -0.0000   -0.0000   -0.0000    0.0000    0.0002   -0.0002    0.0000    0.0006   -0.0005
      186 RE     7h2-       0.0000    0.0000    0.0000    0.0000   -0.0000   -0.0002    0.0002   -0.0000   -0.0006    0.0006
      187 RE     6h1-       0.0000   -0.0000   -0.0001   -0.0001    0.0000    0.0003   -0.0003   -0.0000   -0.0006    0.0006
      188 RE     7h1-      -0.0000    0.0000    0.0001    0.0001    0.0000   -0.0003    0.0003    0.0000    0.0007   -0.0006
      189 RE     6h0       -0.0000   -0.0001    0.0000    0.0000   -0.0001    0.0000   -0.0000   -0.0009    0.0000   -0.0000
      190 RE     7h0       -0.0000    0.0002   -0.0000   -0.0000    0.0003   -0.0000    0.0000    0.0007    0.0000   -0.0000
      191 RE     6h1+      -0.0000   -0.0000    0.0001   -0.0001    0.0000   -0.0003   -0.0003   -0.0000   -0.0006   -0.0006
      192 RE     7h1+       0.0000    0.0000   -0.0001    0.0001    0.0000    0.0003    0.0003    0.0000    0.0006    0.0007
      193 RE     6h2+      -0.0000    0.0000   -0.0000    0.0000    0.0000    0.0002    0.0002   -0.0000   -0.0005   -0.0006
      194 RE     7h2+       0.0000   -0.0000    0.0000   -0.0000    0.0000   -0.0002   -0.0002    0.0000    0.0006    0.0006
      195 RE     6h3+       0.0000   -0.0000    0.0000    0.0000   -0.0002   -0.0000    0.0000    0.0003   -0.0000    0.0000
      196 RE     7h3+       0.0000    0.0000   -0.0000   -0.0000    0.0004    0.0000   -0.0000   -0.0005   -0.0000    0.0000
      197 RE     6h4+      -0.0000   -0.0000    0.0000   -0.0000    0.0000   -0.0003   -0.0004    0.0000   -0.0003   -0.0003
      198 RE     7h4+       0.0000    0.0000   -0.0001    0.0001    0.0000    0.0004    0.0005   -0.0000    0.0004    0.0004
      199 RE     6h5+      -0.0000    0.0000   -0.0000    0.0000    0.0000    0.0001    0.0001   -0.0000   -0.0006   -0.0007
      200 RE     7h5+       0.0000   -0.0000    0.0000   -0.0000    0.0000   -0.0001   -0.0001    0.0000    0.0007    0.0008

          Orbital           21        22        23        24        25        26        27        28        29        30    
          Energy          -10.1843  -10.1495  -10.1495   -4.3917   -2.8780   -2.8780   -2.8508   -2.2457   -2.1778   -2.0980
          Occ. No.          2.0000    2.0000    2.0000    2.0000    2.0000    2.0000    2.0000    2.0000    2.0000    2.0000

        1 RE     1s        -0.0000    0.0000    0.0000   -0.0000   -0.0000   -0.0000    0.0000   -0.0000    0.0000   -0.0000
        2 RE     2s        -0.0000    0.0000    0.0000    0.0000    0.0000    0.0000   -0.0000    0.0000    0.0000    0.0000
        3 RE     3s         0.0008   -0.0000   -0.0000   -0.0002    0.0000    0.0000    0.0001   -0.0000    0.0008   -0.0000
        4 RE     4s         0.0138   -0.0000   -0.0000   -0.0178    0.0000    0.0000    0.0038   -0.0000    0.0051   -0.0000
        5 RE     5s         0.0098   -0.0000   -0.0000    0.9951    0.0000    0.0000   -0.0392    0.0000   -0.0174    0.0000
        6 RE     6s        -0.0017    0.0000    0.0000    0.0298    0.0000    0.0000   -0.0099    0.0000   -0.0159    0.0000
        7 RE     7s         0.0024   -0.0000   -0.0000   -0.0291    0.0000    0.0000    0.0097   -0.0000    0.0131   -0.0000
        8 RE     8s        -0.0036    0.0000    0.0000    0.0328   -0.0000   -0.0000   -0.0079   -0.0000   -0.0087    0.0000
        9 RE     9s         0.0025   -0.0000   -0.0000   -0.0094    0.0000    0.0000    0.0007   -0.0000    0.0008   -0.0000
       10 RE    10s        -0.0009    0.0000    0.0000    0.0013    0.0000    0.0000   -0.0003   -0.0000   -0.0010    0.0000
       11 RE    11s         0.0004   -0.0000   -0.0000   -0.0026    0.0000    0.0000    0.0003   -0.0000    0.0006   -0.0000
       12 RE     2px        0.0000   -0.0001    0.0001    0.0000   -0.0000    0.0000    0.0000    0.0000    0.0000    0.0000
       13 RE     3px       -0.0000    0.0024   -0.0022   -0.0000    0.0002   -0.0002   -0.0000    0.0000    0.0000    0.0001
       14 RE     4px       -0.0000    0.0555   -0.0511    0.0000    0.0140   -0.0135   -0.0000    0.0000    0.0000    0.0004
       15 RE     5px       -0.0000    0.0201   -0.0185   -0.0000   -0.7166    0.6877    0.0000    0.0000   -0.0000    0.0041
       16 RE     6px        0.0000   -0.0065    0.0060    0.0000   -0.0191    0.0183    0.0000    0.0000   -0.0000   -0.0028
       17 RE     7px       -0.0000    0.0118   -0.0109    0.0000    0.0305   -0.0293   -0.0000   -0.0000    0.0000    0.0013
       18 RE     8px        0.0000   -0.0063    0.0058   -0.0000   -0.0063    0.0061    0.0000   -0.0000    0.0000    0.0004
       19 RE     9px       -0.0000    0.0027   -0.0025    0.0000   -0.0013    0.0012    0.0000    0.0000   -0.0000   -0.0000
       20 RE    10px        0.0000   -0.0014    0.0013    0.0000   -0.0009    0.0009    0.0000    0.0000   -0.0000   -0.0000
       21 RE    11px        0.0000   -0.0004    0.0004    0.0000    0.0001   -0.0001   -0.0000    0.0000   -0.0000   -0.0000
       22 RE     2py        0.0000    0.0001    0.0001    0.0000    0.0000    0.0000    0.0000   -0.0000   -0.0000    0.0000
       23 RE     3py       -0.0000   -0.0022   -0.0024   -0.0000   -0.0002   -0.0002   -0.0000    0.0000   -0.0000    0.0002
       24 RE     4py       -0.0000   -0.0511   -0.0555   -0.0000   -0.0135   -0.0140   -0.0000    0.0000   -0.0000    0.0006
       25 RE     5py       -0.0000   -0.0185   -0.0201   -0.0000    0.6877    0.7166    0.0000   -0.0000   -0.0000    0.0057
       26 RE     6py        0.0000    0.0060    0.0065    0.0000    0.0183    0.0191    0.0000   -0.0000   -0.0000   -0.0039
       27 RE     7py       -0.0000   -0.0109   -0.0118   -0.0000   -0.0293   -0.0305   -0.0000    0.0000    0.0000    0.0018
       28 RE     8py        0.0000    0.0058    0.0063   -0.0000    0.0061    0.0063    0.0000    0.0000    0.0000    0.0006
       29 RE     9py       -0.0000   -0.0025   -0.0027   -0.0000    0.0012    0.0013    0.0000   -0.0000   -0.0000   -0.0000
       30 RE    10py        0.0000    0.0013    0.0014    0.0000    0.0009    0.0009    0.0000   -0.0000   -0.0000   -0.0000
       31 RE    11py        0.0000    0.0004    0.0004    0.0000   -0.0001   -0.0001   -0.0000   -0.0000   -0.0000   -0.0000
       32 RE     2pz        0.0000   -0.0000   -0.0000   -0.0000   -0.0000   -0.0000    0.0000   -0.0000   -0.0000    0.0000
       33 RE     3pz        0.0024   -0.0000   -0.0000    0.0003    0.0000    0.0000   -0.0006    0.0000   -0.0027    0.0000
       34 RE     4pz        0.0382   -0.0000   -0.0000    0.0036    0.0000    0.0000   -0.0239    0.0000   -0.0192    0.0000
       35 RE     5pz        0.0189   -0.0000   -0.0000    0.0425   -0.0000   -0.0000    0.9867   -0.0000    0.1349   -0.0000
       36 RE     6pz       -0.0057    0.0000    0.0000   -0.0061   -0.0000   -0.0000    0.0306    0.0000    0.0322    0.0000
       37 RE     7pz        0.0107   -0.0000   -0.0000    0.0075    0.0000    0.0000   -0.0493   -0.0000   -0.0331   -0.0000
       38 RE     8pz       -0.0060    0.0000    0.0000   -0.0016   -0.0000   -0.0000    0.0108   -0.0000    0.0041   -0.0000
       39 RE     9pz        0.0028   -0.0000   -0.0000    0.0001   -0.0000   -0.0000    0.0015    0.0000   -0.0008    0.0000
       40 RE    10pz       -0.0016    0.0000    0.0000   -0.0002   -0.0000   -0.0000    0.0020    0.0000    0.0026    0.0000
       41 RE    11pz       -0.0004    0.0000    0.0000   -0.0001   -0.0000   -0.0000    0.0000    0.0000   -0.0001    0.0000
       42 RE     3d2-       0.0000    0.0014    0.0015    0.0000    0.0002    0.0002    0.0000    0.0000    0.0000    0.0017
       43 RE     4d2-       0.0000    0.3581    0.3888    0.0000    0.0049    0.0051    0.0000    0.0000    0.0000    0.0173
       44 RE     5d2-       0.0000    0.0126    0.0137   -0.0000    0.0111    0.0116    0.0000   -0.0000   -0.0000    0.0384
       45 RE     6d2-      -0.0000   -0.0130   -0.0141    0.0000   -0.0063   -0.0065   -0.0000    0.0000    0.0000   -0.0190
       46 RE     7d2-       0.0000    0.0123    0.0134   -0.0000    0.0031    0.0032    0.0000   -0.0000   -0.0000    0.0072
       47 RE     8d2-      -0.0000   -0.0082   -0.0089   -0.0000   -0.0012   -0.0012   -0.0000   -0.0000   -0.0000   -0.0024
       48 RE     9d2-       0.0000    0.0038    0.0041    0.0000    0.0006    0.0006    0.0000   -0.0000   -0.0000    0.0016
       49 RE    10d2-      -0.0000   -0.0023   -0.0025    0.0000   -0.0003   -0.0004   -0.0000   -0.0000   -0.0000   -0.0009
       50 RE    11d2-      -0.0000   -0.0004   -0.0004    0.0000   -0.0002   -0.0002   -0.0000    0.0000   -0.0000    0.0000
       51 RE     3d1-       0.0000    0.0020    0.0022    0.0000    0.0004    0.0004    0.0000    0.0000    0.0000   -0.0002
       52 RE     4d1-       0.0000    0.5684    0.6171    0.0000    0.0101    0.0105    0.0000    0.0000    0.0000   -0.0024
       53 RE     5d1-       0.0000    0.0196    0.0213    0.0000    0.0202    0.0211   -0.0000   -0.0000    0.0000    0.0021
       54 RE     6d1-      -0.0000   -0.0201   -0.0218   -0.0000   -0.0133   -0.0139    0.0000    0.0000   -0.0000   -0.0021
       55 RE     7d1-       0.0000    0.0190    0.0207   -0.0000    0.0069    0.0072    0.0000   -0.0000    0.0000    0.0016
       56 RE     8d1-      -0.0000   -0.0125   -0.0136   -0.0000   -0.0020   -0.0020   -0.0000   -0.0000    0.0000   -0.0007
       57 RE     9d1-       0.0000    0.0057    0.0062    0.0000    0.0008    0.0008    0.0000    0.0000    0.0000    0.0003
       58 RE    10d1-      -0.0000   -0.0034   -0.0037    0.0000   -0.0006   -0.0006   -0.0000   -0.0000   -0.0000   -0.0003
       59 RE    11d1-      -0.0000   -0.0005   -0.0005    0.0000   -0.0003   -0.0003   -0.0000    0.0000   -0.0000   -0.0000
       60 RE     3d0        0.0035   -0.0000   -0.0000   -0.0005   -0.0000   -0.0000   -0.0006    0.0000   -0.0030    0.0000
       61 RE     4d0        0.9961   -0.0000   -0.0000   -0.0092   -0.0000   -0.0000   -0.0109    0.0000   -0.0305    0.0000
       62 RE     5d0        0.0309   -0.0000   -0.0000   -0.0035    0.0000    0.0000   -0.0102   -0.0000   -0.0823    0.0000
       63 RE     6d0       -0.0318    0.0000    0.0000    0.0040   -0.0000   -0.0000    0.0059   -0.0000    0.0410   -0.0000
       64 RE     7d0        0.0303   -0.0000   -0.0000   -0.0037    0.0000    0.0000   -0.0027    0.0000   -0.0158   -0.0000
       65 RE     8d0       -0.0204    0.0000    0.0000    0.0020    0.0000    0.0000    0.0015    0.0000    0.0056    0.0000
       66 RE     9d0        0.0095   -0.0000   -0.0000   -0.0008    0.0000    0.0000   -0.0011    0.0000   -0.0038    0.0000
       67 RE    10d0       -0.0057    0.0000    0.0000    0.0008   -0.0000   -0.0000    0.0008    0.0000    0.0023    0.0000
       68 RE    11d0       -0.0007    0.0000    0.0000    0.0002   -0.0000   -0.0000    0.0003    0.0000    0.0000   -0.0000
       69 RE     3d1+       0.0000   -0.0022    0.0020   -0.0000   -0.0004    0.0004    0.0000   -0.0000   -0.0000   -0.0002
       70 RE     4d1+       0.0000   -0.6171    0.5684    0.0000   -0.0105    0.0101    0.0000   -0.0000    0.0000   -0.0017
       71 RE     5d1+       0.0000   -0.0213    0.0196    0.0000   -0.0211    0.0202   -0.0000    0.0000    0.0000    0.0015
       72 RE     6d1+      -0.0000    0.0218   -0.0201   -0.0000    0.0139   -0.0133   -0.0000   -0.0000   -0.0000   -0.0015
       73 RE     7d1+       0.0000   -0.0207    0.0190    0.0000   -0.0072    0.0069    0.0000   -0.0000    0.0000    0.0011
       74 RE     8d1+      -0.0000    0.0136   -0.0125    0.0000    0.0020   -0.0020   -0.0000    0.0000    0.0000   -0.0005
       75 RE     9d1+       0.0000   -0.0062    0.0057    0.0000   -0.0008    0.0008    0.0000   -0.0000    0.0000    0.0002
       76 RE    10d1+      -0.0000    0.0037   -0.0034    0.0000    0.0006   -0.0006   -0.0000    0.0000   -0.0000   -0.0002
[...]
         3   17       2.85477552E-02  3.01219096E+07  3.40514974E+07  2.16627802E+01  6.41734287E+07
         4    6       1.43112045E-05  5.85925457E+01  6.62358437E+01  7.18767501E-07  1.24828390E+02
         4    8       4.18495544E-04  3.84929817E+04  1.37177890E+02  1.76315058E-01  3.86303360E+04
         4   10       1.00377402E-03  1.35691301E+02  3.84947414E+04  5.40621808E+04  9.26926135E+04
         4   12       2.06200065E-04  1.37608207E+05  1.55558711E+05  1.34378905E-01  2.93167053E+05
         4   14       5.09063689E-02  1.09700439E+08  3.94202475E+05  1.74009087E+02  1.10094815E+08
         4   16       7.88261941E-02  3.85771864E+05  1.09536565E+08  6.05624044E+07  1.70484741E+08
         4   18       2.85477552E-02  3.01219096E+07  3.40514974E+07  2.16627802E+01  6.41734287E+07
         5    7       1.34526173E-04  3.15003163E+03  2.80676873E+03  1.35485427E-05  5.95680037E+03
         5    9       1.34691797E-04  2.81182672E+03  3.15570932E+03  1.91970849E-05  5.96753606E+03
         5   11       3.13122415E-03  1.35285241E-03  4.06380929E-01  3.78177109E+06  3.78177150E+06
         5   13       2.37386167E-01  2.38151024E+08  2.12104721E+08  1.56242437E+01  4.50255760E+08
         5   15       2.37440819E-01  2.12164089E+08  2.38217688E+08  2.21269694E+01  4.50381799E+08
         5   17       5.76376129E-01  2.38693819E-02  7.16280442E+00  1.13926620E+09  1.13926621E+09
         6    8       1.34526173E-04  3.15003163E+03  2.80676873E+03  1.35485427E-05  5.95680037E+03
         6   10       1.34691797E-04  2.81182672E+03  3.15570932E+03  1.91970849E-05  5.96753606E+03
         6   12       3.13122415E-03  1.35285241E-03  4.06380929E-01  3.78177109E+06  3.78177150E+06
         6   14       2.37386167E-01  2.38151024E+08  2.12104721E+08  1.56242437E+01  4.50255760E+08
         6   16       2.37440819E-01  2.12164089E+08  2.38217688E+08  2.21269694E+01  4.50381799E+08
         6   18       5.76376129E-01  2.38693819E-02  7.16280442E+00  1.13926620E+09  1.13926621E+09
         7   11       1.67760552E-02  7.00421649E+06  6.24095695E+06  2.09218301E-03  1.32451734E+07
         7   13       7.91519649E-02  1.34350647E+05  4.01145820E+07  6.75080590E+07  1.07756992E+08
         7   15       2.95797105E-02  4.01379269E+07  1.34067592E+05  8.37144036E-01  4.02719953E+07
         7   17       4.82515993E-02  3.64673960E+07  3.24934941E+07  7.68749212E-01  6.89608909E+07
         8   12       1.67760552E-02  7.00421649E+06  6.24095695E+06  2.09218301E-03  1.32451734E+07
         8   14       7.91519649E-02  1.34350647E+05  4.01145820E+07  6.75080590E+07  1.07756992E+08
         8   16       2.95797105E-02  4.01379269E+07  1.34067592E+05  8.37144036E-01  4.02719953E+07
         8   18       4.82515993E-02  3.64673960E+07  3.24934941E+07  7.68749212E-01  6.89608909E+07
         9   11       1.67730459E-02  6.23899486E+06  7.00201406E+06  2.96853883E-03  1.32410089E+07
         9   13       2.95473083E-02  4.00874839E+07  1.33899320E+05  8.36978432E-01  4.02213840E+07
         9   15       7.91560777E-02  1.34342370E+05  4.01122728E+07  6.75112118E+07  1.07757827E+08
         9   17       4.82779444E-02  3.25079698E+07  3.64836460E+07  1.08677040E+00  6.89916169E+07
        10   12       1.67730459E-02  6.23899486E+06  7.00201406E+06  2.96853883E-03  1.32410089E+07
        10   14       2.95473083E-02  4.00874839E+07  1.33899320E+05  8.36978432E-01  4.02213840E+07
        10   16       7.91560777E-02  1.34342370E+05  4.01122728E+07  6.75112118E+07  1.07757827E+08
        10   18       4.82779444E-02  3.25079698E+07  3.64836460E+07  1.08677040E+00  6.89916169E+07
        11   13       2.08965489E-02  8.55632085E+05  7.62052538E+05  3.59407918E-03  1.61768463E+06
        11   15       2.09004691E-02  7.62383017E+05  8.56003048E+05  5.09279511E-03  1.61838607E+06
        11   17       1.99569359E-03  9.74081554E-05  2.93426741E-02  1.88012238E+05  1.88012267E+05
        12   14       2.08965489E-02  8.55632085E+05  7.62052538E+05  3.59407918E-03  1.61768463E+06
        12   16       2.09004691E-02  7.62383017E+05  8.56003048E+05  5.09279511E-03  1.61838607E+06
        12   18       1.99569359E-03  9.74081554E-05  2.93426741E-02  1.88012238E+05  1.88012267E+05
        13   17       3.40897780E-05  1.48530887E+01  1.32286185E+01  5.44553300E-06  2.80817126E+01
        14   18       3.40897780E-05  1.48530887E+01  1.32286185E+01  5.44553300E-06  2.80817126E+01
        15   17       3.40837593E-05  1.31947712E+01  1.48150740E+01  7.68490104E-06  2.80098529E+01
        16   18       3.40837593E-05  1.31947712E+01  1.48150740E+01  7.68490104E-06  2.80098529E+01
     -----------------------------------------------------------------------------------------------
--

++ Velocity transition strengths (SO states):
   ------------------------------------------
    for osc. strength at least    1.0000000000000001E-005

      From   To        Osc. strength     Einstein coefficients Ax, Ay, Az (sec-1)    Total A (sec-1)
     -----------------------------------------------------------------------------------------------
         1    7       2.18207618E-04  6.45431259E+01  1.82787168E+04  1.79928511E+03  2.01425450E+04
         1    9       1.98784079E-04  1.82917436E+04  6.50752718E+01  5.87307735E-03  1.83568247E+04
         1   11       1.95605018E-04  1.47567778E+05  1.30537444E+05  4.17472293E-02  2.78105264E+05
         1   13       6.88600950E-02  3.47689139E+05  9.87400427E+07  4.98363617E+07  1.48924094E+08
         1   15       4.57633091E-02  9.86225394E+07  3.54474700E+05  1.43194437E+02  9.89771573E+07
         1   17       2.22208294E-02  2.65048545E+07  2.34463542E+07  1.41620405E+01  4.99512229E+07
         2    8       2.18207618E-04  6.45431259E+01  1.82787168E+04  1.79928511E+03  2.01425450E+04
         2   10       1.98784079E-04  1.82917436E+04  6.50752718E+01  5.87307735E-03  1.83568247E+04
         2   12       1.95605018E-04  1.47567778E+05  1.30537444E+05  4.17472293E-02  2.78105264E+05
         2   14       6.88600950E-02  3.47689139E+05  9.87400427E+07  4.98363617E+07  1.48924094E+08
         2   16       4.57633091E-02  9.86225394E+07  3.54474700E+05  1.43194437E+02  9.89771573E+07
         2   18       2.22208294E-02  2.65048545E+07  2.34463542E+07  1.41620405E+01  4.99512229E+07
         3    7       1.98782510E-04  1.82841554E+04  6.50469318E+01  5.86993000E-03  1.83492082E+04
         3    9       2.18306553E-04  6.46002343E+01  1.82952478E+04  1.79954528E+03  2.01593933E+04
         3   11       1.96087297E-04  1.30860322E+05  1.47929708E+05  5.94953003E-02  2.78790090E+05
         3   13       4.58435767E-02  9.87906878E+07  3.55067226E+05  1.43168743E+02  9.91458982E+07
         3   15       6.88113539E-02  3.47343675E+05  9.86444766E+07  4.98334117E+07  1.48825232E+08
         3   17       2.21961808E-02  2.34201817E+07  2.64754894E+07  2.02096610E+01  4.98956913E+07
         4    8       1.98782510E-04  1.82841554E+04  6.50469318E+01  5.86993000E-03  1.83492082E+04
         4   10       2.18306553E-04  6.46002343E+01  1.82952478E+04  1.79954528E+03  2.01593933E+04
         4   12       1.96087297E-04  1.30860322E+05  1.47929708E+05  5.94953003E-02  2.78790090E+05
         4   14       4.58435767E-02  9.87906878E+07  3.55067226E+05  1.43168743E+02  9.91458982E+07
         4   16       6.88113539E-02  3.47343675E+05  9.86444766E+07  4.98334117E+07  1.48825232E+08
         4   18       2.21961808E-02  2.34201817E+07  2.64754894E+07  2.02096610E+01  4.98956913E+07
         5    7       1.92186922E-05  4.50021181E+02  4.00981955E+02  8.58837492E-04  8.51003995E+02
         5    9       1.92708439E-05  4.02298996E+02  4.51499784E+02  1.21619890E-03  8.53799996E+02
         5   11       4.16763524E-03  2.32018454E-03  6.95738886E-01  5.03352556E+06  5.03352625E+06
         5   13       2.12908776E-01  2.13595509E+08  1.90234815E+08  1.36333735E+01  4.03830338E+08
         5   15       2.12958411E-01  1.90288614E+08  2.13655920E+08  1.93080243E+01  4.03944553E+08
         5   17       5.00545673E-01  2.33878305E-02  7.01990302E+00  9.89383010E+08  9.89383017E+08
         6    8       1.92186922E-05  4.50021181E+02  4.00981955E+02  8.58837492E-04  8.51003995E+02
         6   10       1.92708439E-05  4.02298996E+02  4.51499784E+02  1.21619890E-03  8.53799996E+02
         6   12       4.16763524E-03  2.32018454E-03  6.95738886E-01  5.03352556E+06  5.03352625E+06
         6   14       2.12908776E-01  2.13595509E+08  1.90234815E+08  1.36333735E+01  4.03830338E+08
         6   16       2.12958411E-01  1.90288614E+08  2.13655920E+08  1.93080243E+01  4.03944553E+08
         6   18       5.00545673E-01  2.33878305E-02  7.01990302E+00  9.89383010E+08  9.89383017E+08
         7   11       1.30990832E-02  5.46905291E+06  4.87308233E+06  4.67867476E-03  1.03421352E+07
         7   13       6.61245742E-02  1.20471295E+05  3.59696902E+07  5.39317346E+07  9.00218960E+07
         7   15       2.65236484E-02  3.59911582E+07  1.20214068E+05  6.68819848E-01  3.61113729E+07
         7   17       3.58155808E-02  2.70686471E+07  2.41189395E+07  6.12037295E-01  5.11875872E+07
         8   12       1.30990832E-02  5.46905291E+06  4.87308233E+06  4.67867476E-03  1.03421352E+07
         8   14       6.61245742E-02  1.20471295E+05  3.59696902E+07  5.39317346E+07  9.00218960E+07
         8   16       2.65236484E-02  3.59911582E+07  1.20214068E+05  6.68819848E-01  3.61113729E+07
         8   18       3.58155808E-02  2.70686471E+07  2.41189395E+07  6.12037295E-01  5.11875872E+07
         9   11       1.30955926E-02  4.87112596E+06  5.46685692E+06  6.61814485E-03  1.03379829E+07
         9   13       2.64935900E-02  3.59445646E+07  1.20058663E+05  6.68636713E-01  3.60646239E+07
         9   15       6.61282964E-02  1.20462925E+05  3.59673454E+07  5.39351754E+07  9.00229838E+07
         9   17       3.58349754E-02  2.41295765E+07  2.70805875E+07  8.65178295E-01  5.12101648E+07
        10   12       1.30955926E-02  4.87112596E+06  5.46685692E+06  6.61814485E-03  1.03379829E+07
        10   14       2.64935900E-02  3.59445646E+07  1.20058663E+05  6.68636713E-01  3.60646239E+07
        10   16       6.61282964E-02  1.20462925E+05  3.59673454E+07  5.39351754E+07  9.00229838E+07
        10   18       3.58349754E-02  2.41295765E+07  2.70805875E+07  8.65178295E-01  5.12101648E+07
        11   13       1.88568931E-03  7.72118867E+04  6.87673004E+04  9.66318526E-05  1.45979187E+05
        11   15       1.88630731E-03  6.88067682E+04  7.72561775E+04  1.36850909E-04  1.46062946E+05
        11   17       5.28698981E-03  1.11844940E-04  3.36676031E-02  4.98083642E+05  4.98083676E+05
        12   14       1.88568931E-03  7.72118867E+04  6.87673004E+04  9.66318526E-05  1.45979187E+05
        12   16       1.88630731E-03  6.88067682E+04  7.72561775E+04  1.36850909E-04  1.46062946E+05
        12   18       5.28698981E-03  1.11844940E-04  3.36676031E-02  4.98083642E+05  4.98083676E+05
        13   17       1.05668595E-04  4.60404886E+01  4.10050940E+01  2.45822627E-05  8.70456071E+01
        14   18       1.05668595E-04  4.60404886E+01  4.10050940E+01  2.45822627E-05  8.70456071E+01
        15   17       1.06020853E-04  4.10437496E+01  4.60838935E+01  3.48308076E-05  8.71276780E+01
        16   18       1.06020853E-04  4.10437496E+01  4.60838935E+01  3.48308076E-05  8.71276780E+01
     -----------------------------------------------------------------------------------------------
--

++ Length and velocity gauge comparison (SO states):

 --------------------------------------------------
 A comparison between the dipole oscillator strengths in 
 length and velocity gauge will be performed

 All dipole oscillator differences above the tolerance of   0.10000000000000001       will be printed 

 Due to basis set deficiency these oscillator may be problematic 

 The tolerance is defined as ABS(1-O_l/O_v) 
 O_l : dipole oscillator strength in length gauge
 O_p : dipole oscillator strength in velocity gauge
 --------------------------------------------------

  Problematic transitions have been found

      From   To       Difference (%) Osc. st. (len.) Osc. st. (vel.)
     ---------------------------------------------------------------
         1    5      ---------------  1.42991434E-05 below threshold
         1    7           360.054710  1.00387442E-03  2.18207618E-04
         1    9           110.483104  4.18406899E-04  1.98784079E-04
         1   13            14.557496  7.88844004E-02  6.88600950E-02
         1   15            11.043033  5.08169665E-02  4.57633091E-02
         1   17            28.614395  2.85791853E-02  2.22208294E-02
         2    6      ---------------  1.42991434E-05 below threshold
         2    8           360.054710  1.00387442E-03  2.18207618E-04
         2   10           110.483104  4.18406899E-04  1.98784079E-04
         2   14            14.557496  7.88844004E-02  6.88600950E-02
         2   16            11.043033  5.08169665E-02  4.57633091E-02
         2   18            28.614395  2.85791853E-02  2.22208294E-02
         3    5      ---------------  1.43112045E-05 below threshold
         3    7           110.529359  4.18495544E-04  1.98782510E-04
         3    9           359.800224  1.00377402E-03  2.18306553E-04
         3   13            11.043624  5.09063689E-02  4.58435767E-02
         3   15            14.554052  7.88261941E-02  6.88113539E-02
         3   17            28.615618  2.85477552E-02  2.21961808E-02
         4    6      ---------------  1.43112045E-05 below threshold
         4    8           110.529359  4.18495544E-04  1.98782510E-04
         4   10           359.800224  1.00377402E-03  2.18306553E-04
         4   14            11.043624  5.09063689E-02  4.58435767E-02
         4   16            14.554052  7.88261941E-02  6.88113539E-02
         4   18            28.615618  2.85477552E-02  2.21961808E-02
         5    7           599.975689  1.34526173E-04  1.92186922E-05
         5    9           598.940833  1.34691797E-04  1.92708439E-05
         5   11            24.868085  3.13122415E-03  4.16763524E-03
         5   13            11.496657  2.37386167E-01  2.12908776E-01
         5   15            11.496333  2.37440819E-01  2.12958411E-01
         5   17            15.149558  5.76376129E-01  5.00545673E-01
         6    8           599.975689  1.34526173E-04  1.92186922E-05
         6   10           598.940833  1.34691797E-04  1.92708439E-05
         6   12            24.868085  3.13122415E-03  4.16763524E-03
         6   14            11.496657  2.37386167E-01  2.12908776E-01
         6   16            11.496333  2.37440819E-01  2.12958411E-01
         6   18            15.149558  5.76376129E-01  5.00545673E-01
         7   11            28.070453  1.67760552E-02  1.30990832E-02
         7   13            19.701285  7.91519649E-02  6.61245742E-02
         7   15            11.522028  2.95797105E-02  2.65236484E-02
         7   17            34.722370  4.82515993E-02  3.58155808E-02
         8   12            28.070453  1.67760552E-02  1.30990832E-02
         8   14            19.701285  7.91519649E-02  6.61245742E-02
         8   16            11.522028  2.95797105E-02  2.65236484E-02
         8   18            34.722370  4.82515993E-02  3.58155808E-02
         9   11            28.081610  1.67730459E-02  1.30955926E-02
         9   13            11.526253  2.95473083E-02  2.64935900E-02
         9   15            19.700767  7.91560777E-02  6.61282964E-02
         9   17            34.722973  4.82779444E-02  3.58349754E-02
        10   12            28.081610  1.67730459E-02  1.30955926E-02
        10   14            11.526253  2.95473083E-02  2.64935900E-02
        10   16            19.700767  7.91560777E-02  6.61282964E-02
        10   18            34.722973  4.82779444E-02  3.58349754E-02
        11   13          1008.164994  2.08965489E-02  1.88568931E-03
        11   15          1008.009761  2.09004691E-02  1.88630731E-03
        11   17            62.252744  1.99569359E-03  5.28698981E-03
        12   14          1008.164994  2.08965489E-02  1.88568931E-03
        12   16          1008.009761  2.09004691E-02  1.88630731E-03
        12   18            62.252744  1.99569359E-03  5.28698981E-03
        13   17            67.738969  3.40897780E-05  1.05668595E-04
        14   18            67.738969  3.40897780E-05  1.05668595E-04
        15   17            67.851834  3.40837593E-05  1.06020853E-04
        16   18            67.851834  3.40837593E-05  1.06020853E-04
     ---------------------------------------------------------------

 Number of problematic transitions =                    62

--

 Electric-dipole - electric-octupole not included
++ I/O STATISTICS
 
  I. General I/O information
  - - - - - - - - - - - - - - - - - - - - - - - - - - - - - - - - - - - - - - - - - - -
  Unit  Name          Flsize      Write/Read            MBytes           Write/Read
                      (MBytes)       Calls              In/Out           Time, sec.
  - - - - - - - - - - - - - - - - - - - - - - - - - - - - - - - - - - - - - - - - - - -
   1  SCRATCH           0.00 .       9/      45 .      0.0/      0.0 .       0/       0
   2  ANNI              0.00 .       0/       0 .      0.0/      0.0 .       0/       0
   3  RUNFILE          15.28 .     322/   10733 .      2.3/     77.8 .       0/       0
   4  ONEINT            6.58 .       0/   28767 .      0.0/   3777.9 .       0/       0
   5  JOBIPH            7.71 .       0/      92 .      0.0/      0.9 .       0/       0
   6  ORDINT          771.03 .       1/    6169 .      0.0/   1542.0 .       0/       0
  - - - - - - - - - - - - - - - - - - - - - - - - - - - - - - - - - - - - - - - - - - -
   *  TOTAL           800.61 .     332/   45806 .      2.3/   5398.7 .       0/       0
  - - - - - - - - - - - - - - - - - - - - - - - - - - - - - - - - - - - - - - - - - - -
 
  II. I/O Access Patterns
  - - - - - - - - - - - - - - - - - - - -
  Unit  Name               % of random
                         Write/Read calls
  - - - - - - - - - - - - - - - - - - - -
   1  SCRATCH             88.9/ 100.0
   2  ANNI                 0.0/   0.0
   3  RUNFILE             28.6/  10.8
   4  ONEINT               0.0/  13.4
   5  JOBIPH               0.0/  76.1
   6  ORDINT             100.0/   0.0
  - - - - - - - - - - - - - - - - - - - -
--
--- Stop Module: rassi at Thu Jan  9 20:45:22 2025 /rc=_RC_ALL_IS_WELL_ ---
*** files: xmldump
    saved to directory /home4/s4752295/Internship/Initial_simulations/Point_charge_model/1_electron/active_space_9_non_rel/Re/varying_bond_length
--- Module rassi spent 5 seconds ---

.##################.
.# Happy landing! #.
.##################.

    Timing: Wall=158.91 User=122.83 System=31.46

###############################################################################
Hbrk Cluster
Job 14549866 for user s4752295
Finished at: Thu Jan  9 20:45:23 CET 2025

Job details:
============

Job ID                         : 14549866
Name                           : Re_no_c_light
User                           : s4752295
Partition                      : regularmedium
Nodes                          : node80
Number of Nodes                : 1
Cores                          : 1
Number of Tasks                : 1
State                          : RUNNING  
Submit                         : 2025-01-09T20:42:38
Start                          : 2025-01-09T20:42:39
End                            : --
Reserved walltime              : 15:00:00
Used walltime                  : 00:02:44
Used CPU time                  : -- 
% User (Computation)           : --
% System (I/O)                 : --
Total memory reserved          : 25000M
Maximum memory used            : --

Acknowledgements:
=================

Please see this page for information about acknowledging Hbrk in your publications:

https://wiki.hpc.rug.nl/habrok/introduction/scientific_output

################################################################################
