   This run of MOLCAS is using the pymolcas driver

                             OPE
                             OPE          NMOL  CASOP  ENMOLC A   SO
                 OPE        NMOLC        AS  OP EN  MO LC     AS  OP
                OPENM       OL CA        SO  PE NM  OL CA     SOP EN
                OP EN      MO   LC       AS  OP ENMOL  CASO   PENMOL
                OP  EN     MO   LC       AS  OP EN     MO     LC ASO
               OP   E  NMOL  C  AS       OP  EN MO     LC     AS  OP
               OP  E   NMO   LC AS        OPEN  MO     LCASOP EN   M
               O  PEN   MO  LCA  SO
            OPE   NMO   L   CAS    OP
        OPENMOL  CASOP     ENMOL   CASOPE
     OPENMOLCA   SOPENMOLCASOPEN   MOLCASOPE
    OPENMOLCAS   OP           EN   MOL    CAS
    OPENMOLCAS       OP  ENM        O     LCA
    OPENMOLCAS    OPEN  MOLCASO     P  E  NMO
    OPENMOLCAS     OP               E  N  MOL
    OPENMOLCA   SO           PENM   O  L  CAS    OPEN    MO    LCAS
    OPENMOLCA   SOP           ENM   O  L  CAS   OP  EN  MOLC  AS   O
    OPENMOLCA   SOPE           NM      O  LCA   S      OP  EN MO
    OPENMOLC                AS         O  PEN   M      OL  CA  SOPE
    OPENMO        LCASOPE  NMOL        C  ASO   P      ENMOLC     AS
    OPE     NMO      LCA  SO     P     E   NM   OL  CA SO  PE N   MO
          OPENMOLCA            SOPE   NMO        LCAS  O    P  ENMO
     OPENMOLCASOPENMOLCASOPENMOLCASOPENMOLCA
        OPENMOLCASOPENMOLCASOPENMOLCASOPE
            OPENMOLCASOPENMOLCASOPENM
               OPENMOLCASOPENMOLCA        version: o91e1abe7de707b ?
                   OPENMOLCASO
                       OPE                tag:

 OpenMolcas is free software; you can redistribute it and/or modify it
 under the terms of the GNU Lesser General Public License version 2.1.
 OpenMolcas is distributed in the hope that it will be useful, but it
 is provided "as is" and without any express or implied warranties.
 For more details see the full text of the license in the file
 LICENSE or in <http://www.gnu.org/licenses/>.

                 Copyright (C) The OpenMolcas Authors
           For the author list and the recommended citation,
                   consult the file CONTRIBUTORS.md

           *************************************************
           * pymolcas version py2.10                       *
           *   build 3068ae8b88c9345ec6cfef6fef7f1169      *
           *   (after the EMIL interpreter by V. Veryazov) *
           *************************************************

configuration info
------------------
Host name: login1 (Linux)
C Compiler ID: GNU
C flags: -std=gnu99
Fortran Compiler ID: GNU
Fortran flags: -fno-aggressive-loop-optimizations -cpp -fdefault-integer-8 -fmax-stack-var-size=1048576
Definitions: _MOLCAS_;_I8_;_LINUX_;_MKL_
Parallel: OFF (GA=OFF)


   ----------------------------------------------------------------------------------------------------------------------------------------------
  |
  |           Project: tantalum_so_cf
  |    Submitted from: /home4/s4752295/Internship/Initial_simulations/Point_charge_model/1_electron/active_space_9_non_rel/Ta/varying_bond_length
  |      Scratch area: /tmp/tantalum_so_cf
  |   Save outputs to: /home4/s4752295/Internship/Initial_simulations/Point_charge_model/1_electron/active_space_9_non_rel/Ta/varying_bond_length
  |            Molcas: /home4/s4752295/Internship/Molcas/recomp_try/OpenMolcas-master/build
  |
  | Scratch area is empty
  |
  |    MOLCAS_DRIVER = /home4/s4752295/Internship/Molcas/bin/pymolcas
  |    MOLCAS_NPROCS = 1
  |    MOLCAS_SOURCE = /home4/s4752295/Internship/Molcas/recomp_try/OpenMolcas-master
  | MOLCAS_STRUCTURE = 0
  |
   ----------------------------------------------------------------------------------------------------------------------------------------------

++ ---------   Input file   ---------

&SEWARD
AMFi

CLIG
$R

Basis Set
Ta.ANO-rcc.Roos.24s21p15d11f4g2h.11s10p9d8f4g2h.
Spherical d
Ta            0.0       0.0     0.0
End of Basis

Xfield
4
0.000000,  0.00000,  0.3150     -1.0
0.272798,  0.00000, -0.1575     -1.0
-0.136399,  0.23625, -0.1575    -1.0
-0.136399, -0.23625, -0.1575    -1.0

End of input

&SCF
Occupied
34
Iterations
   50  100
End of Input

&RASSCF
LumOrb
Symmetry
1
Spin
2
Nactel
1 0 0
CIRoot
9 9 1
inactive
34
ras2
9
Alter
4
1 35 40
1 36 41
1 37 42
1 38 43
End of Input

>>> COPY tantalum_so_cf.JobIph $SLURM_SUBMIT_DIR/tantalum_so_cf.doublet.JobIph

>>> COPY $SLURM_SUBMIT_DIR/tantalum_so_cf.doublet.JobIph ./JOB002

&RASSI
NROFJobIph
1 All
SpinOrbit
End of Input

EOF

-- ----------------------------------

--- Start Module: seward at Thu Jan  9 20:43:24 2025 ---

()()()()()()()()()()()()()()()()()()()()()()()()()()()()()()()()()()()()()()()()()()()()()()()()()()

                                              &SEWARD

                                   only a single process is used
                       available to each process: 4.1 GB of memory, 1 thread?
                                            pid: 196260
()()()()()()()()()()()()()()()()()()()()()()()()()()()()()()()()()()()()()()()()()()()()()()()()()()

 The speed of LIGHT in this CALCULATION =   137.03599917700001     
               SEWARD will generate:
                  Multipole Moment integrals up to order  2
                  Kinetic Energy integrals
                  Nuclear Attraction integrals (point charge)
                  One-Electron Hamiltonian integrals
                  Velocity integrals
                  Relativistic Douglas-Kroll-Hess integrals:
                    - Parametrization         : EXP
                    - DKH order of Hamiltonian: 2
                    - DKH order of Properties : 0
                         - multipole moment operators
                         - electric potential operators
                         - contact operators
                  External field from     4 point(s) added to the one-electron Hamiltonian
                  Orbital angular momentum around ( 0.0000  0.0000  0.0000 )
                  Velocity quadrupole around ( 0.0000  0.0000  0.0000 )
                  Atomic mean-field integrals
                  Two-Electron Repulsion integrals

                   Integrals are discarded if absolute value <: 0.10E-13
                   Integral cutoff threshold is set to       <: 0.10E-15

++    Symmetry information:
      ---------------------

                    Character Table for C1 

                             E  
                    a        1  x, y, xy, Rz, z, xz, Ry, yz, Rx, I
--


++    Basis set information:
      ----------------------


      Basis set label: TA.ANO-RCC.ROOS.24S21P15D11F4G2H.11S10P9D8F4G2H......

      Electronic valence basis set:
      ------------------
      Associated Effective Charge  73.000000 au
      Associated Actual Charge     73.000000 au
      Nuclear Model: Point charge

      Shell  nPrim  nBasis  Cartesian Spherical Contaminant
         s      24      11        X                  
         p      21      10        X                  
         d      15       9                 X         
         f      11       8                 X         
         g       4       4                 X         
         h       2       2                 X         
--


++    Molecular structure info:
      -------------------------

                    ************************************************ 
                    **** Cartesian Coordinates / Bohr, Angstrom **** 
                    ************************************************ 

     Center  Label                x              y              z                     x              y              z
        1      TA               0.000000       0.000000       0.000000              0.000000       0.000000       0.000000
--


++    Operator info:
      --------------


  Net charge from external field:   -4.0000000000000000     
--


            Nuclear Potential Energy              0.00000000 au

                    Nuclear-External Field Potential Energy    -926.98412908 au
                    External Field Potential Energy              11.84778037 au 


            Total Nuclear Potential Energy           -926.98412908 au


      Basis set specifications :
      Symmetry species         a  
      Basis functions          200

 Sorry, Molden does not know how to handle
 functions with angular momentum larger than g
Note: The following floating-point exceptions are signalling: IEEE_UNDERFLOW_FLAG IEEE_DENORMAL
--- Stop Module: seward at Thu Jan  9 20:43:43 2025 /rc=_RC_ALL_IS_WELL_ ---
*** files: tantalum_so_cf.GssOrb xmldump
    saved to directory /home4/s4752295/Internship/Initial_simulations/Point_charge_model/1_electron/active_space_9_non_rel/Ta/varying_bond_length
--- Module seward spent 18 seconds ---

*** symbolic link created: INPORB -> tantalum_so_cf.GssOrb
--- Start Module: scf at Thu Jan  9 20:43:43 2025 ---

()()()()()()()()()()()()()()()()()()()()()()()()()()()()()()()()()()()()()()()()()()()()()()()()()()

                                                &SCF

                                   only a single process is used
                       available to each process: 4.1 GB of memory, 1 thread?
                                            pid: 196436
()()()()()()()()()()()()()()()()()()()()()()()()()()()()()()()()()()()()()()()()()()()()()()()()()()

++    Input section:
      --------------

      Header of the integral files:
      
       Integrals generated by seward 4.2.0  , Thu Jan  9 20:43:24 2025


      Cartesian coordinates in Angstrom:
      -----------------------------------------------------
      No.  Label        X            Y            Z        
      -----------------------------------------------------
       1   TA         0.00000000   0.00000000   0.00000000
      -----------------------------------------------------
      Nuclear repulsion energy = -926.98412908
--

++    Orbital specifications:
      -----------------------

      Symmetry species               1
                                     a
      Frozen orbitals                0
      Occupied orbitals             34
      Secondary orbitals           166
      Deleted orbitals               0
      Total number of orbitals     200
      Number of basis functions    200
--

      Molecular charge                           5.000

++    Optimization specifications:
      ----------------------------

      SCF Algorithm: Conventional
      Minimized density differences are used
      Number of density matrices in core                5
      Maximum number of NDDO SCF iterations            50
      Maximum number of HF SCF iterations             100
      Threshold for SCF energy change            0.10E-08
      Threshold for density matrix               0.10E-03
      Threshold for Fock matrix                  0.15E-03
      Threshold for linear dependence            0.10E-08
      Threshold at which DIIS is turned on       0.15E+00
      Threshold at which QNR/C2DIIS is turned on 0.75E-01
      Threshold for Norm(delta) (QNR/C2DIIS)     0.20E-04
      DIIS extrapolation of the SCF procedure
      All orbitals punched on: SCFORB
--

      Detected guessorb starting orbitals                                             


++ Convergence information
                                   SCF        iterations: Energy and convergence statistics

Iter     Tot. SCF        One-elec.       Two-elec.     Energy      Max Dij or  Max Fij      DNorm      TNorm      AccCon     Time
         Energy          Energy          Energy        Change      Delta Norm                                                in Sec.

 The total and one-electron energies are shifted by a value of     15000. a.u.

   1  -870.412536741 -5596.177946402  5652.749538740   0.00E+00    0.51E+00*   0.16E+01*    0.12E+02   0.15E+04   None         1.
   2  -782.460922698 -4034.474969018  4178.998175399   0.88E+02*   0.49E+00*   0.64E+00*    0.89E+01   0.13E+04   EDIIS        1.
   3  -880.211453140 -4990.772800903  5037.545476842  -0.98E+02*   0.34E+00*   0.54E+00*    0.54E+01   0.14E+04   EDIIS        1.
   4  -884.017185095 -5319.210777439  5362.177721424  -0.38E+01*   0.33E+00*   0.27E+00*    0.20E+01   0.14E+04   EDIIS        1.
   5  -884.719324779 -5143.997734393  5186.262538694  -0.70E+00*   0.14E+00*   0.13E+00*    0.93E+00   0.14E+04   EDIIS        1.
   6  -885.110160051 -5237.766769774  5279.640738803  -0.39E+00*   0.12E+00*   0.73E-01*    0.47E+00   0.14E+04   EDIIS        1.
   7  -885.128117492 -5188.586221000  5230.442232587  -0.18E-01*   0.56E-01*   0.44E-01*    0.15E+00   0.14E+04   EDIIS        1.
   8  -885.181269809 -5216.296473617  5258.099332887  -0.53E-01*   0.27E-01*   0.12E-01*    0.44E-01   0.14E+04   c2DIIS       1.
   9  -885.184210052 -5212.910709220  5254.710628247  -0.29E-02*   0.16E-01*   0.57E-02*    0.13E-01   0.14E+04   QNRc2DIIS    1.
  10  -885.184661421 -5210.754185816  5252.553653474  -0.45E-03*   0.23E-01*   0.63E-02*    0.87E-02   0.14E+04   QNRc2DIIS    1.
  11  -885.185202919 -5211.997098724  5253.796024884  -0.54E-03*   0.54E-02*   0.20E-02*    0.38E-02   0.14E+04   QNRc2DIIS    1.
  12  -885.185250954 -5212.023931914  5253.822810040  -0.48E-04*   0.73E-02*   0.12E-02*    0.26E-02   0.14E+04   QNRc2DIIS    1.
  13  -885.185274243 -5212.047695786  5253.846550622  -0.23E-04*   0.11E-02*   0.43E-03*    0.35E-02   0.14E+04   QNRc2DIIS    1.
  14  -885.185277748 -5212.001956618  5253.800807949  -0.35E-05*   0.18E-02*   0.18E-03*    0.17E-02   0.14E+04   QNRc2DIIS    1.
  15  -885.185279663 -5211.990031816  5253.788881232  -0.19E-05*   0.53E-03*   0.11E-03     0.12E-02   0.14E+04   QNRc2DIIS    1.
  16  -885.185279839 -5211.993575842  5253.792425082  -0.18E-06*   0.26E-03*   0.37E-04     0.49E-03   0.14E+04   QNRc2DIIS    1.
  17  -885.185279892 -5211.993075159  5253.791924346  -0.54E-07*   0.16E-03*   0.17E-04     0.27E-03   0.14E+04   QNRc2DIIS    1.
  18  -885.185279907 -5211.993107081  5253.791956253  -0.15E-07*   0.60E-04*   0.74E-05     0.92E-04   0.14E+04   QNRc2DIIS    1.
  19  -885.185279909 -5211.993274983  5253.792124153  -0.16E-08*   0.21E-04*   0.12E-04     0.12E-03   0.14E+04   QNRc2DIIS    1.
  20  -885.185279910 -5211.993359842  5253.792209010  -0.12E-08*   0.19E-04    0.43E-05     0.90E-04   0.14E+04   QNRc2DIIS    1.
  21  -885.185279911 -5211.993421101  5253.792270269  -0.48E-09    0.48E-04*   0.32E-05     0.22E-03   0.14E+04   QNRc2DIIS    1.
  22  -885.185279911 -5211.993360807  5253.792209974  -0.61E-09    0.17E-04    0.13E-05     0.60E-03   0.14E+04   QNRc2DIIS    1.

       Convergence after 22 Macro Iterations
--

 *****************************************************************************************************************************
 *                                                                                                                           *
 *                                             SCF/KS-DFT Program, Final results                                             *
 *                                                                                                                           *
 *                                                                                                                           *
 *                                                                                                                           *
 *                                                       Final Results                                                       *
 *                                                                                                                           *
 *****************************************************************************************************************************

::    Total SCF energy                             -15885.1852799114
      One-electron energy                          -20211.9933608066
      Two-electron energy                            5253.7922099743
      Nuclear repulsion energy                       -926.9841290791
      Kinetic energy (interpolated)                 21397.0515154529
      Virial theorem                                    0.7424006653
      Total spin, S(S+1)                                0.0000000000
      Total spin, S                                     0.0000000000
      Max non-diagonal density matrix element           0.0000183990
      Max non-diagonal Fock matrix element              0.0000058106


      All orbitals with orbital energies smaller than  E(LUMO)+0.5 are printed

++    Molecular orbitals:
      -------------------

      Title: SCF orbitals

      Molecular orbitals for symmetry species 1: a  

          Some orbital energies have been scaled by powers of 10, the power is written right after the orbital index


          Orbital            1 (1)     2         3         4         5         6         7         8         9        10    
          Energy         -248.4710 -431.1483 -379.0933 -379.0933 -379.0422  -99.4127  -83.6791  -83.6791  -83.2283  -64.6463
          Occ. No.          2.0000    2.0000    2.0000    2.0000    2.0000    2.0000    2.0000    2.0000    2.0000    2.0000

        1 TA     1s         1.0000    0.0000   -0.0000    0.0000   -0.0000   -0.0000    0.0000   -0.0000    0.0000   -0.0000
        2 TA     2s        -0.0000    1.0000   -0.0000    0.0000   -0.0026    0.0003   -0.0000    0.0000   -0.0002    0.0000
        3 TA     3s         0.0000   -0.0003   -0.0000    0.0000    0.0001    0.9996   -0.0000    0.0000   -0.0244   -0.0000
        4 TA     4s        -0.0000    0.0001    0.0000    0.0000   -0.0000   -0.0007    0.0000   -0.0000    0.0010   -0.0000
        5 TA     5s         0.0000   -0.0000    0.0000    0.0000    0.0000    0.0005   -0.0000    0.0000   -0.0004    0.0000
        6 TA     6s        -0.0000    0.0000   -0.0000   -0.0000   -0.0000   -0.0001    0.0000   -0.0000    0.0001    0.0000
        7 TA     7s         0.0000   -0.0000   -0.0000    0.0000    0.0000    0.0003    0.0000   -0.0000   -0.0002    0.0000
        8 TA     8s        -0.0000    0.0000   -0.0000   -0.0000   -0.0000   -0.0006   -0.0000    0.0000    0.0004   -0.0000
        9 TA     9s         0.0000   -0.0000    0.0000    0.0000    0.0000    0.0008    0.0000   -0.0000   -0.0004    0.0000
       10 TA    10s        -0.0000    0.0000   -0.0000   -0.0000   -0.0000   -0.0007   -0.0000    0.0000    0.0003   -0.0000
       11 TA    11s         0.0000   -0.0001   -0.0000    0.0000    0.0000    0.0016    0.0000   -0.0000   -0.0006    0.0000
       12 TA     2px       -0.0000   -0.0000   -0.0007    1.0000   -0.0000    0.0000   -0.0000    0.0003   -0.0000   -0.0001
       13 TA     3px        0.0000   -0.0000    0.0000   -0.0003    0.0000   -0.0000   -0.0008    0.9992   -0.0000   -0.0002
       14 TA     4px       -0.0000    0.0000   -0.0000    0.0001   -0.0000   -0.0000    0.0000   -0.0001    0.0000   -0.0006
       15 TA     5px        0.0000   -0.0000    0.0000   -0.0000    0.0000    0.0000   -0.0000    0.0003   -0.0000    0.0002
       16 TA     6px        0.0000   -0.0000   -0.0000    0.0000   -0.0000    0.0000    0.0000   -0.0001    0.0000   -0.0001
       17 TA     7px       -0.0000    0.0000    0.0000   -0.0000    0.0000   -0.0000   -0.0000    0.0005   -0.0000    0.0002
       18 TA     8px        0.0000   -0.0000   -0.0000    0.0000   -0.0000    0.0000    0.0000   -0.0006    0.0000   -0.0002
       19 TA     9px       -0.0000    0.0000    0.0000   -0.0000    0.0000   -0.0000   -0.0000    0.0007   -0.0000    0.0002
       20 TA    10px        0.0000   -0.0000   -0.0000    0.0000   -0.0000    0.0000    0.0000   -0.0009    0.0000   -0.0002
       21 TA    11px       -0.0000    0.0000    0.0000   -0.0001    0.0000   -0.0000   -0.0000    0.0014   -0.0000    0.0002
       22 TA     2py       -0.0000   -0.0000    1.0000    0.0007   -0.0000    0.0000    0.0003    0.0000   -0.0000    0.0000
       23 TA     3py        0.0000   -0.0000   -0.0003   -0.0000    0.0000   -0.0000    0.9992    0.0008   -0.0000    0.0000
       24 TA     4py       -0.0000    0.0000    0.0001    0.0000   -0.0000   -0.0000   -0.0001   -0.0000    0.0000    0.0000
       25 TA     5py        0.0000   -0.0000   -0.0000   -0.0000    0.0000    0.0000    0.0003    0.0000   -0.0000   -0.0000
       26 TA     6py       -0.0000    0.0000    0.0000    0.0000   -0.0000   -0.0000   -0.0001   -0.0000    0.0000    0.0000
       27 TA     7py        0.0000   -0.0000   -0.0000   -0.0000    0.0000    0.0000    0.0005    0.0000   -0.0000   -0.0000
       28 TA     8py       -0.0000    0.0000    0.0000    0.0000   -0.0000   -0.0000   -0.0006   -0.0000    0.0000    0.0000
       29 TA     9py        0.0000   -0.0000   -0.0000   -0.0000    0.0000    0.0000    0.0007    0.0000   -0.0000   -0.0000
       30 TA    10py       -0.0000    0.0000    0.0000    0.0000   -0.0000   -0.0000   -0.0009   -0.0000    0.0000    0.0000
       31 TA    11py        0.0000   -0.0000   -0.0001   -0.0000    0.0000    0.0000    0.0014    0.0000   -0.0000   -0.0000
       32 TA     2pz        0.0000    0.0026   -0.0000    0.0000    1.0000   -0.0001   -0.0000    0.0000    0.0005    0.0000
       33 TA     3pz       -0.0000    0.0002   -0.0000   -0.0000   -0.0004    0.0242   -0.0000    0.0000    0.9995    0.0000
       34 TA     4pz        0.0000   -0.0001    0.0000   -0.0000    0.0001    0.0004    0.0000   -0.0000   -0.0016    0.0000
       35 TA     5pz       -0.0000    0.0000   -0.0000    0.0000   -0.0000   -0.0002    0.0000   -0.0000    0.0008   -0.0000
       36 TA     6pz        0.0000   -0.0000    0.0000    0.0000    0.0000    0.0001   -0.0000   -0.0000   -0.0003    0.0000
       37 TA     7pz       -0.0000    0.0000   -0.0000   -0.0000   -0.0001   -0.0003    0.0000    0.0000    0.0012   -0.0000
       38 TA     8pz        0.0000   -0.0000    0.0000    0.0000    0.0001    0.0003    0.0000   -0.0000   -0.0013   -0.0000
       39 TA     9pz       -0.0000    0.0000   -0.0000   -0.0000   -0.0001   -0.0003   -0.0000    0.0000    0.0014    0.0000
       40 TA    10pz        0.0000   -0.0000    0.0000    0.0000    0.0001    0.0003    0.0000   -0.0000   -0.0017   -0.0000
       41 TA    11pz       -0.0000    0.0000   -0.0000   -0.0000   -0.0001   -0.0005   -0.0000    0.0000    0.0025    0.0000
       42 TA     3d2-      -0.0000   -0.0000    0.0002    0.0000   -0.0000   -0.0000    0.0203    0.0000   -0.0000    0.0005
       43 TA     4d2-       0.0000    0.0000   -0.0000   -0.0000   -0.0000   -0.0000    0.0022    0.0000   -0.0000    0.0000
       44 TA     5d2-      -0.0000   -0.0000    0.0000    0.0000    0.0000    0.0000   -0.0005   -0.0000    0.0000   -0.0000
       45 TA     6d2-       0.0000    0.0000   -0.0000   -0.0000   -0.0000   -0.0000    0.0008    0.0000   -0.0000    0.0000
       46 TA     7d2-      -0.0000   -0.0000    0.0000    0.0000    0.0000    0.0000   -0.0009   -0.0000    0.0000   -0.0000
       47 TA     8d2-       0.0000    0.0000   -0.0000   -0.0000   -0.0000   -0.0000    0.0013    0.0000   -0.0000   -0.0000
       48 TA     9d2-      -0.0000   -0.0000    0.0000    0.0000    0.0000    0.0000   -0.0012   -0.0000    0.0000    0.0000
       49 TA    10d2-       0.0000    0.0000   -0.0000   -0.0000   -0.0000   -0.0000    0.0016    0.0000   -0.0000   -0.0000
       50 TA    11d2-      -0.0000   -0.0000   -0.0000   -0.0000    0.0000    0.0000   -0.0012   -0.0000    0.0000    0.0000
       51 TA     3d1-       0.0000    0.0000    0.0004    0.0000   -0.0000    0.0000    0.0331    0.0000   -0.0000   -0.0003
       52 TA     4d1-       0.0000   -0.0000   -0.0001   -0.0000    0.0000    0.0000    0.0029    0.0000   -0.0000   -0.0000
       53 TA     5d1-      -0.0000    0.0000    0.0000    0.0000   -0.0000   -0.0000   -0.0006   -0.0000    0.0000    0.0000
       54 TA     6d1-       0.0000   -0.0000   -0.0000   -0.0000    0.0000    0.0000    0.0010    0.0000   -0.0000   -0.0000
       55 TA     7d1-      -0.0000    0.0000    0.0000    0.0000   -0.0000   -0.0000   -0.0012   -0.0000    0.0000    0.0000
       56 TA     8d1-       0.0000   -0.0000   -0.0001   -0.0000    0.0000    0.0000    0.0017    0.0000   -0.0000   -0.0000
       57 TA     9d1-      -0.0000    0.0000    0.0001    0.0000   -0.0000   -0.0000   -0.0016   -0.0000    0.0000    0.0000
       58 TA    10d1-       0.0000   -0.0000   -0.0001   -0.0000    0.0000    0.0000    0.0021    0.0000   -0.0000    0.0000
       59 TA    11d1-      -0.0000    0.0000    0.0001    0.0000   -0.0000   -0.0000   -0.0017   -0.0000    0.0000   -0.0000
       60 TA     3d0       -0.0000   -0.0002   -0.0000    0.0000    0.0001   -0.0079   -0.0000   -0.0000   -0.0178    0.0000
       61 TA     4d0        0.0000    0.0000    0.0000   -0.0000   -0.0000   -0.0010   -0.0000   -0.0000   -0.0028   -0.0000
       62 TA     5d0       -0.0000   -0.0000    0.0000   -0.0000    0.0000    0.0002   -0.0000    0.0000    0.0006    0.0000
       63 TA     6d0        0.0000    0.0000   -0.0000    0.0000   -0.0000   -0.0004    0.0000   -0.0000   -0.0010   -0.0000
       64 TA     7d0       -0.0000   -0.0000    0.0000    0.0000    0.0000    0.0004   -0.0000    0.0000    0.0012    0.0000
       65 TA     8d0        0.0000    0.0000   -0.0000   -0.0000   -0.0000   -0.0006    0.0000   -0.0000   -0.0016   -0.0000
       66 TA     9d0       -0.0000   -0.0000    0.0000    0.0000    0.0000    0.0006   -0.0000    0.0000    0.0015    0.0000
       67 TA    10d0        0.0000    0.0000   -0.0000   -0.0000   -0.0001   -0.0008    0.0000   -0.0000   -0.0019   -0.0000
       68 TA    11d0       -0.0000   -0.0000    0.0000    0.0000    0.0001    0.0007   -0.0000    0.0000    0.0013    0.0000
       69 TA     3d1+       0.0000    0.0000   -0.0000    0.0004   -0.0000    0.0000   -0.0000    0.0331   -0.0000    0.5264
       70 TA     4d1+      -0.0000   -0.0000    0.0000   -0.0001    0.0000    0.0000   -0.0000    0.0029   -0.0000    0.0010
       71 TA     5d1+       0.0000    0.0000   -0.0000    0.0000   -0.0000   -0.0000    0.0000   -0.0006    0.0000   -0.0001
       72 TA     6d1+      -0.0000   -0.0000    0.0000   -0.0000    0.0000    0.0000   -0.0000    0.0010   -0.0000    0.0002
       73 TA     7d1+       0.0000    0.0000   -0.0000    0.0000   -0.0000   -0.0000    0.0000   -0.0012    0.0000   -0.0002
       74 TA     8d1+      -0.0000   -0.0000    0.0000   -0.0001    0.0000    0.0000   -0.0000    0.0017   -0.0000    0.0002
       75 TA     9d1+       0.0000    0.0000   -0.0000    0.0001   -0.0000   -0.0000    0.0000   -0.0016    0.0000   -0.0001
       76 TA    10d1+      -0.0000   -0.0000    0.0000   -0.0001    0.0000    0.0000   -0.0000    0.0021   -0.0000   -0.0000
       77 TA    11d1+       0.0000   -0.0000   -0.0000    0.0001    0.0000   -0.0000    0.0000   -0.0017    0.0000    0.0003
       78 TA     3d2+       0.0000   -0.0000    0.0000   -0.0002    0.0000   -0.0000    0.0000   -0.0203    0.0000    0.8502
       79 TA     4d2+      -0.0000    0.0000   -0.0000    0.0000   -0.0000   -0.0000    0.0000   -0.0022    0.0000    0.0008
       80 TA     5d2+      -0.0000   -0.0000    0.0000   -0.0000    0.0000    0.0000   -0.0000    0.0005   -0.0000   -0.0001
       81 TA     6d2+       0.0000    0.0000   -0.0000    0.0000   -0.0000   -0.0000    0.0000   -0.0008    0.0000    0.0001
       82 TA     7d2+      -0.0000   -0.0000    0.0000   -0.0000    0.0000    0.0000   -0.0000    0.0009   -0.0000   -0.0001
       83 TA     8d2+       0.0000    0.0000   -0.0000    0.0000   -0.0000   -0.0000    0.0000   -0.0013    0.0000   -0.0001
       84 TA     9d2+      -0.0000   -0.0000    0.0000   -0.0000    0.0000    0.0000   -0.0000    0.0012   -0.0000    0.0002
       85 TA    10d2+       0.0000    0.0000   -0.0000    0.0000   -0.0000   -0.0000    0.0000   -0.0016    0.0000   -0.0005
       86 TA    11d2+      -0.0000   -0.0000   -0.0000    0.0000    0.0000    0.0000   -0.0000    0.0012   -0.0000    0.0007
       87 TA     4f3-       0.0000   -0.0000   -0.0000   -0.0000   -0.0000   -0.0000   -0.0000   -0.0000   -0.0000   -0.0000
       88 TA     5f3-       0.0000    0.0000    0.0000    0.0000    0.0000    0.0000    0.0000    0.0000   -0.0000    0.0000
       89 TA     6f3-      -0.0000   -0.0000   -0.0000   -0.0000   -0.0000   -0.0000   -0.0000   -0.0000    0.0000   -0.0000
       90 TA     7f3-       0.0000    0.0000    0.0000    0.0000   -0.0000    0.0000    0.0000    0.0000    0.0000    0.0000
       91 TA     8f3-      -0.0000   -0.0000   -0.0000   -0.0000    0.0000   -0.0000   -0.0000   -0.0000   -0.0000    0.0000
       92 TA     9f3-       0.0000    0.0000    0.0000    0.0000   -0.0000    0.0000    0.0000    0.0000    0.0000   -0.0000
       93 TA    10f3-      -0.0000   -0.0000   -0.0000   -0.0000    0.0000   -0.0000   -0.0000   -0.0000   -0.0000    0.0000
       94 TA    11f3-      -0.0000    0.0000    0.0000    0.0000   -0.0000   -0.0000    0.0000    0.0000    0.0000   -0.0000
       95 TA     4f2-      -0.0000   -0.0000   -0.0000   -0.0000   -0.0000    0.0000   -0.0028   -0.0000    0.0000    0.0000
       96 TA     5f2-       0.0000    0.0000    0.0000    0.0000    0.0000    0.0000    0.0022    0.0000    0.0000   -0.0000
       97 TA     6f2-      -0.0000   -0.0000   -0.0000   -0.0000   -0.0000   -0.0000   -0.0017   -0.0000   -0.0000    0.0000
       98 TA     7f2-       0.0000    0.0000    0.0000    0.0000    0.0000    0.0000    0.0016    0.0000    0.0000   -0.0000
       99 TA     8f2-      -0.0000   -0.0000   -0.0000   -0.0000   -0.0000   -0.0000   -0.0013   -0.0000   -0.0000    0.0000
      100 TA     9f2-       0.0000    0.0000    0.0000    0.0000    0.0000    0.0000    0.0008    0.0000    0.0000   -0.0000
      101 TA    10f2-      -0.0000   -0.0000   -0.0000   -0.0000   -0.0000   -0.0000   -0.0004   -0.0000   -0.0000    0.0000
      102 TA    11f2-       0.0000    0.0000    0.0000    0.0000    0.0000    0.0000   -0.0004   -0.0000    0.0000   -0.0000
      103 TA     4f1-      -0.0000   -0.0000   -0.0000   -0.0000    0.0000   -0.0000   -0.0013   -0.0000    0.0000   -0.0000
      104 TA     5f1-       0.0000    0.0000    0.0000    0.0000   -0.0000    0.0000    0.0010    0.0000   -0.0000    0.0000
      105 TA     6f1-      -0.0000   -0.0000   -0.0000   -0.0000    0.0000   -0.0000   -0.0008   -0.0000    0.0000   -0.0000
      106 TA     7f1-       0.0000    0.0000    0.0000    0.0000   -0.0000    0.0000    0.0008    0.0000   -0.0000    0.0000
      107 TA     8f1-       0.0000   -0.0000   -0.0000   -0.0000    0.0000   -0.0000   -0.0007   -0.0000    0.0000   -0.0000
      108 TA     9f1-      -0.0000    0.0000    0.0000    0.0000   -0.0000    0.0000    0.0005    0.0000   -0.0000    0.0000
      109 TA    10f1-       0.0000   -0.0000   -0.0000   -0.0000    0.0000   -0.0000   -0.0003   -0.0000    0.0000   -0.0000
      110 TA    11f1-      -0.0000    0.0000    0.0000    0.0000   -0.0000   -0.0000    0.0000    0.0000   -0.0000    0.0000
      111 TA     4f0       -0.0000   -0.0001   -0.0000   -0.0000   -0.0000   -0.0052    0.0000   -0.0000   -0.0019    0.0000
      112 TA     5f0        0.0000    0.0001    0.0000    0.0000    0.0000    0.0041   -0.0000    0.0000    0.0015    0.0000
      113 TA     6f0       -0.0000   -0.0001   -0.0000   -0.0000   -0.0000   -0.0034    0.0000   -0.0000   -0.0012   -0.0000
      114 TA     7f0        0.0000    0.0001   -0.0000    0.0000    0.0000    0.0032   -0.0000    0.0000    0.0011    0.0000
      115 TA     8f0       -0.0000   -0.0001    0.0000   -0.0000   -0.0000   -0.0027    0.0000   -0.0000   -0.0009   -0.0000
      116 TA     9f0        0.0000    0.0001   -0.0000    0.0000    0.0000    0.0019   -0.0000    0.0000    0.0007    0.0000
      117 TA    10f0       -0.0000   -0.0001    0.0000   -0.0000   -0.0000   -0.0011    0.0000   -0.0000   -0.0004   -0.0000
      118 TA    11f0        0.0000    0.0001   -0.0000    0.0000    0.0000   -0.0003   -0.0000    0.0000    0.0000   -0.0000
      119 TA     4f1+      -0.0000   -0.0000    0.0000   -0.0000    0.0000   -0.0000    0.0000   -0.0013    0.0000    0.0011
      120 TA     5f1+      -0.0000    0.0000   -0.0000    0.0000   -0.0000    0.0000   -0.0000    0.0010   -0.0000   -0.0009
      121 TA     6f1+      -0.0000   -0.0000    0.0000   -0.0000    0.0000   -0.0000    0.0000   -0.0008    0.0000    0.0007
      122 TA     7f1+       0.0000    0.0000   -0.0000    0.0000   -0.0000    0.0000   -0.0000    0.0008   -0.0000   -0.0007
      123 TA     8f1+      -0.0000   -0.0000    0.0000   -0.0000    0.0000   -0.0000    0.0000   -0.0007    0.0000    0.0006
      124 TA     9f1+       0.0000    0.0000   -0.0000    0.0000   -0.0000    0.0000   -0.0000    0.0005   -0.0000   -0.0005
      125 TA    10f1+      -0.0000   -0.0000    0.0000   -0.0000    0.0000   -0.0000    0.0000   -0.0003    0.0000    0.0003
      126 TA    11f1+       0.0000    0.0000   -0.0000    0.0000   -0.0000   -0.0000   -0.0000    0.0000   -0.0000   -0.0003
      127 TA     4f2+      -0.0000   -0.0000   -0.0000    0.0000   -0.0000   -0.0000   -0.0000    0.0028   -0.0000    0.0032
      128 TA     5f2+       0.0000    0.0000    0.0000   -0.0000    0.0000    0.0000    0.0000   -0.0022    0.0000   -0.0024
      129 TA     6f2+      -0.0000   -0.0000   -0.0000    0.0000   -0.0000   -0.0000   -0.0000    0.0017   -0.0000    0.0019
      130 TA     7f2+       0.0000    0.0000    0.0000   -0.0000    0.0000    0.0000    0.0000   -0.0016    0.0000   -0.0018
      131 TA     8f2+      -0.0000   -0.0000   -0.0000    0.0000   -0.0000   -0.0000   -0.0000    0.0013   -0.0000    0.0015
      132 TA     9f2+       0.0000    0.0000    0.0000   -0.0000    0.0000    0.0000    0.0000   -0.0008    0.0000   -0.0011
      133 TA    10f2+      -0.0000   -0.0000   -0.0000    0.0000   -0.0000   -0.0000   -0.0000    0.0004   -0.0000    0.0007
      134 TA    11f2+       0.0000    0.0000    0.0000   -0.0000    0.0000    0.0000   -0.0000    0.0004   -0.0000   -0.0003
      135 TA     4f3+      -0.0000   -0.0000    0.0000    0.0000    0.0000   -0.0034    0.0000    0.0000    0.0026   -0.0000
      136 TA     5f3+       0.0000    0.0000   -0.0000    0.0000   -0.0000    0.0027   -0.0000    0.0000   -0.0020   -0.0000
      137 TA     6f3+      -0.0000   -0.0000    0.0000   -0.0000    0.0000   -0.0022    0.0000   -0.0000    0.0016    0.0000
      138 TA     7f3+       0.0000    0.0000   -0.0000    0.0000   -0.0000    0.0021   -0.0000    0.0000   -0.0014   -0.0000
      139 TA     8f3+      -0.0000   -0.0000    0.0000   -0.0000    0.0000   -0.0018    0.0000   -0.0000    0.0012    0.0000
      140 TA     9f3+       0.0000    0.0001   -0.0000    0.0000   -0.0000    0.0012   -0.0000    0.0000   -0.0008   -0.0000
      141 TA    10f3+      -0.0000   -0.0001    0.0000   -0.0000    0.0000   -0.0007    0.0000   -0.0000    0.0004    0.0000
      142 TA    11f3+       0.0000    0.0001   -0.0000    0.0000   -0.0000   -0.0002   -0.0000    0.0000    0.0003   -0.0000
      143 TA     5g4-      -0.0000    0.0000   -0.0000   -0.0000    0.0000    0.0000   -0.0004   -0.0000   -0.0000   -0.0000
      144 TA     6g4-       0.0000   -0.0000    0.0000    0.0000   -0.0000   -0.0000    0.0005    0.0000    0.0000    0.0000
      145 TA     7g4-      -0.0000    0.0000   -0.0000   -0.0000    0.0000   -0.0000   -0.0004   -0.0000   -0.0000   -0.0000
      146 TA     8g4-       0.0000   -0.0000    0.0000    0.0000   -0.0000    0.0000    0.0003    0.0000   -0.0000    0.0000
      147 TA     5g3-       0.0000   -0.0000    0.0000    0.0000   -0.0000   -0.0000   -0.0000   -0.0000    0.0000    0.0000
      148 TA     6g3-      -0.0000    0.0000   -0.0000   -0.0000    0.0000   -0.0000   -0.0000    0.0000   -0.0000   -0.0000
      149 TA     7g3-       0.0000   -0.0000    0.0000    0.0000   -0.0000    0.0000    0.0000   -0.0000    0.0000    0.0000
      150 TA     8g3-      -0.0000    0.0000   -0.0000   -0.0000    0.0000   -0.0000    0.0000    0.0000   -0.0000   -0.0000
      151 TA     5g2-      -0.0000    0.0000   -0.0000   -0.0000   -0.0000    0.0000    0.0001    0.0000    0.0000   -0.0000
      152 TA     6g2-       0.0000   -0.0000    0.0000    0.0000    0.0000   -0.0000   -0.0001   -0.0000   -0.0000    0.0000
      153 TA     7g2-      -0.0000    0.0000   -0.0000   -0.0000   -0.0000    0.0000    0.0001    0.0000    0.0000   -0.0000
      154 TA     8g2-       0.0000   -0.0000    0.0000    0.0000    0.0000    0.0000   -0.0001   -0.0000   -0.0000    0.0000
      155 TA     5g1-       0.0000   -0.0000   -0.0000   -0.0000   -0.0000   -0.0000   -0.0005   -0.0000    0.0000    0.0000
      156 TA     6g1-      -0.0000    0.0000    0.0000    0.0000    0.0000    0.0000    0.0005    0.0000   -0.0000   -0.0000
      157 TA     7g1-       0.0000   -0.0000   -0.0000   -0.0000   -0.0000    0.0000   -0.0005   -0.0000    0.0000    0.0000
      158 TA     8g1-      -0.0000    0.0000    0.0000    0.0000    0.0000   -0.0000    0.0003    0.0000   -0.0000   -0.0000
      159 TA     5g0       -0.0000   -0.0000    0.0000    0.0000   -0.0000   -0.0000   -0.0000   -0.0000   -0.0009   -0.0000
      160 TA     6g0        0.0000    0.0000   -0.0000    0.0000    0.0000    0.0000   -0.0000    0.0000    0.0010    0.0000
      161 TA     7g0       -0.0000   -0.0000    0.0000   -0.0000   -0.0000   -0.0000    0.0000   -0.0000   -0.0008   -0.0000
      162 TA     8g0        0.0000    0.0000   -0.0000    0.0000    0.0000    0.0000   -0.0000    0.0000    0.0006    0.0000
      163 TA     5g1+      -0.0000    0.0000    0.0000   -0.0000    0.0000    0.0000    0.0000   -0.0005   -0.0000   -0.0002
      164 TA     6g1+       0.0000   -0.0000   -0.0000    0.0000   -0.0000   -0.0000   -0.0000    0.0005    0.0000    0.0002
      165 TA     7g1+      -0.0000    0.0000    0.0000   -0.0000    0.0000   -0.0000    0.0000   -0.0005    0.0000   -0.0002
      166 TA     8g1+       0.0000   -0.0000   -0.0000    0.0000   -0.0000    0.0000   -0.0000    0.0003   -0.0000    0.0001
      167 TA     5g2+      -0.0000    0.0000   -0.0000    0.0000   -0.0000    0.0000    0.0000   -0.0001    0.0000   -0.0001
      168 TA     6g2+       0.0000   -0.0000    0.0000   -0.0000    0.0000   -0.0000   -0.0000    0.0001   -0.0000    0.0001
      169 TA     7g2+      -0.0000    0.0000   -0.0000    0.0000   -0.0000    0.0000    0.0000   -0.0001    0.0000   -0.0001
      170 TA     8g2+       0.0000   -0.0000    0.0000   -0.0000    0.0000    0.0000   -0.0000    0.0001   -0.0000    0.0000
      171 TA     5g3+       0.0000    0.0000    0.0000    0.0000    0.0000    0.0005   -0.0000   -0.0000   -0.0006    0.0000
      172 TA     6g3+      -0.0000   -0.0000   -0.0000   -0.0000    0.0000   -0.0005    0.0000    0.0000    0.0006   -0.0000
      173 TA     7g3+       0.0000    0.0000    0.0000    0.0000   -0.0000    0.0004   -0.0000   -0.0000   -0.0005    0.0000
      174 TA     8g3+      -0.0000   -0.0000   -0.0000   -0.0000    0.0000   -0.0003    0.0000    0.0000    0.0004   -0.0000
      175 TA     5g4+      -0.0000    0.0000    0.0000   -0.0000   -0.0000    0.0000    0.0000   -0.0004    0.0000    0.0000
      176 TA     6g4+       0.0000   -0.0000   -0.0000    0.0000    0.0000   -0.0000   -0.0000    0.0005   -0.0000   -0.0000
      177 TA     7g4+      -0.0000    0.0000    0.0000   -0.0000   -0.0000    0.0000    0.0000   -0.0004    0.0000    0.0000
      178 TA     8g4+       0.0000   -0.0000   -0.0000    0.0000    0.0000    0.0000   -0.0000    0.0003   -0.0000   -0.0000
      179 TA     6h5-      -0.0000    0.0000    0.0000    0.0000   -0.0000   -0.0000    0.0000    0.0000   -0.0000   -0.0000
      180 TA     7h5-      -0.0000   -0.0000   -0.0000   -0.0000    0.0000    0.0000   -0.0000   -0.0000    0.0000    0.0000
      181 TA     6h4-       0.0000    0.0000    0.0000    0.0000    0.0000   -0.0000    0.0001    0.0000    0.0000    0.0000
      182 TA     7h4-      -0.0000   -0.0000   -0.0000   -0.0000   -0.0000    0.0000   -0.0001   -0.0000   -0.0000   -0.0000
      183 TA     6h3-      -0.0000   -0.0000   -0.0000    0.0000   -0.0000    0.0000   -0.0000    0.0000   -0.0000    0.0000
      184 TA     7h3-       0.0000    0.0000    0.0000   -0.0000    0.0000   -0.0000    0.0000   -0.0000    0.0000   -0.0000
      185 TA     6h2-       0.0000   -0.0000    0.0000    0.0000   -0.0000    0.0000    0.0000    0.0000   -0.0000   -0.0000
      186 TA     7h2-       0.0000    0.0000   -0.0000   -0.0000    0.0000   -0.0000   -0.0000   -0.0000    0.0000    0.0000
      187 TA     6h1-       0.0000   -0.0000    0.0000    0.0000   -0.0000   -0.0000    0.0000    0.0000   -0.0000    0.0000
      188 TA     7h1-      -0.0000    0.0000   -0.0000   -0.0000    0.0000    0.0000   -0.0000   -0.0000    0.0000   -0.0000
      189 TA     6h0       -0.0000   -0.0000   -0.0000    0.0000   -0.0000   -0.0000   -0.0000    0.0000   -0.0001    0.0000
      190 TA     7h0        0.0000    0.0000    0.0000   -0.0000    0.0000    0.0000    0.0000   -0.0000    0.0001    0.0000
      191 TA     6h1+      -0.0000    0.0000   -0.0000    0.0000    0.0000   -0.0000   -0.0000    0.0000    0.0000   -0.0000
      192 TA     7h1+      -0.0000   -0.0000    0.0000   -0.0000   -0.0000    0.0000    0.0000   -0.0000   -0.0000    0.0000
      193 TA     6h2+       0.0000   -0.0000    0.0000   -0.0000   -0.0000    0.0000    0.0000   -0.0000   -0.0000   -0.0000
      194 TA     7h2+       0.0000    0.0000   -0.0000    0.0000    0.0000   -0.0000   -0.0000    0.0000    0.0000    0.0000
      195 TA     6h3+       0.0000    0.0000   -0.0000    0.0000    0.0000   -0.0000   -0.0000    0.0000    0.0000    0.0000
      196 TA     7h3+      -0.0000   -0.0000    0.0000   -0.0000   -0.0000    0.0000    0.0000   -0.0000   -0.0000   -0.0000
      197 TA     6h4+      -0.0000    0.0000   -0.0000    0.0000    0.0000   -0.0000   -0.0000    0.0001    0.0000   -0.0000
      198 TA     7h4+       0.0000   -0.0000    0.0000   -0.0000   -0.0000    0.0000    0.0000   -0.0001   -0.0000    0.0000
      199 TA     6h5+       0.0000    0.0000    0.0000   -0.0000   -0.0000   -0.0000    0.0000   -0.0000   -0.0000   -0.0000
      200 TA     7h5+      -0.0000   -0.0000   -0.0000    0.0000    0.0000    0.0000   -0.0000    0.0000    0.0000    0.0000

          Orbital           11        12        13        14        15        16        17        18        19        20    
          Energy          -64.6463  -64.1213  -64.0767  -64.0767  -21.0195  -15.8946  -15.8946  -15.5952   -8.9956   -8.9956
          Occ. No.          2.0000    2.0000    2.0000    2.0000    2.0000    2.0000    2.0000    2.0000    2.0000    2.0000

        1 TA     1s        -0.0000    0.0000   -0.0000   -0.0000    0.0000   -0.0000   -0.0000   -0.0000    0.0000    0.0000
        2 TA     2s        -0.0000    0.0002   -0.0000    0.0000   -0.0001    0.0000   -0.0000    0.0001   -0.0000    0.0000
        3 TA     3s        -0.0000    0.0075   -0.0000    0.0000    0.0004   -0.0000   -0.0000   -0.0005    0.0000   -0.0000
        4 TA     4s         0.0000   -0.0015    0.0000   -0.0000    0.9975   -0.0000   -0.0000   -0.0508   -0.0000   -0.0000
        5 TA     5s        -0.0000    0.0005   -0.0000    0.0000    0.0188    0.0000    0.0000   -0.0059   -0.0000   -0.0000
        6 TA     6s         0.0000   -0.0001    0.0000   -0.0000   -0.0046   -0.0000   -0.0000    0.0012    0.0000    0.0000
        7 TA     7s        -0.0000    0.0002   -0.0000    0.0000    0.0073    0.0000    0.0000   -0.0019   -0.0000   -0.0000
        8 TA     8s         0.0000   -0.0005    0.0000   -0.0000   -0.0135   -0.0000   -0.0000    0.0033    0.0000    0.0000
        9 TA     9s        -0.0000    0.0005   -0.0000    0.0000    0.0117    0.0000    0.0000   -0.0026   -0.0000   -0.0000
       10 TA    10s         0.0000   -0.0004    0.0000   -0.0000   -0.0056    0.0000   -0.0000    0.0012    0.0000   -0.0000
       11 TA    11s        -0.0000    0.0007   -0.0000    0.0000    0.0053   -0.0000   -0.0000   -0.0009   -0.0000    0.0000
       12 TA     2px       -0.0000    0.0000   -0.0000    0.0005   -0.0000    0.0000    0.0001    0.0000    0.0000    0.0000
       13 TA     3px       -0.0000    0.0000   -0.0000    0.0387    0.0000    0.0000    0.0002    0.0000    0.0002    0.0000
       14 TA     4px       -0.0000    0.0000    0.0000   -0.0037   -0.0000   -0.0016   -0.9964   -0.0000   -0.0012   -0.0000
       15 TA     5px        0.0000   -0.0000   -0.0000    0.0013   -0.0000   -0.0000   -0.0189   -0.0000    0.0013    0.0000
       16 TA     6px       -0.0000   -0.0000    0.0000   -0.0005    0.0000    0.0000    0.0070    0.0000   -0.0005   -0.0000
       17 TA     7px        0.0000    0.0000   -0.0000    0.0016   -0.0000   -0.0000   -0.0170   -0.0000    0.0010    0.0000
       18 TA     8px       -0.0000   -0.0000    0.0000   -0.0016    0.0000    0.0000    0.0113    0.0000   -0.0004   -0.0000
       19 TA     9px        0.0000    0.0000   -0.0000    0.0015   -0.0000   -0.0000   -0.0076   -0.0000    0.0002    0.0000
       20 TA    10px       -0.0000   -0.0000    0.0000   -0.0016    0.0000    0.0000    0.0050    0.0000   -0.0001   -0.0000
       21 TA    11px        0.0000    0.0000   -0.0000    0.0020    0.0000   -0.0000   -0.0013   -0.0000   -0.0000   -0.0000
       22 TA     2py       -0.0001   -0.0000   -0.0005   -0.0000   -0.0000   -0.0001    0.0000    0.0000   -0.0000    0.0000
       23 TA     3py       -0.0002   -0.0000   -0.0387   -0.0000    0.0000   -0.0002    0.0000   -0.0000   -0.0000    0.0002
       24 TA     4py       -0.0006    0.0000    0.0037    0.0000   -0.0000    0.9964   -0.0016   -0.0000    0.0000   -0.0012
       25 TA     5py        0.0002   -0.0000   -0.0013   -0.0000    0.0000    0.0189   -0.0000   -0.0000   -0.0000    0.0013
       26 TA     6py       -0.0001    0.0000    0.0005    0.0000   -0.0000   -0.0070    0.0000    0.0000    0.0000   -0.0005
       27 TA     7py        0.0002   -0.0000   -0.0016   -0.0000    0.0000    0.0170   -0.0000   -0.0000   -0.0000    0.0010
       28 TA     8py       -0.0002    0.0000    0.0016    0.0000   -0.0000   -0.0113    0.0000    0.0000    0.0000   -0.0004
       29 TA     9py        0.0002   -0.0000   -0.0015   -0.0000    0.0000    0.0076   -0.0000   -0.0000   -0.0000    0.0002
       30 TA    10py       -0.0002    0.0000    0.0016    0.0000    0.0000   -0.0050    0.0000    0.0000    0.0000   -0.0001
       31 TA    11py        0.0002   -0.0000   -0.0020   -0.0000   -0.0000    0.0013   -0.0000   -0.0000    0.0000   -0.0000
       32 TA     2pz        0.0000   -0.0000    0.0000   -0.0000    0.0000    0.0000    0.0000   -0.0001    0.0000   -0.0000
       33 TA     3pz        0.0000    0.0179   -0.0000   -0.0000   -0.0009   -0.0000   -0.0000    0.0013    0.0000   -0.0000
       34 TA     4pz        0.0000   -0.0034    0.0000    0.0000    0.0506   -0.0000   -0.0000    0.9968    0.0000    0.0000
       35 TA     5pz        0.0000    0.0011   -0.0000   -0.0000   -0.0024   -0.0000   -0.0000    0.0258   -0.0000   -0.0000
       36 TA     6pz       -0.0000   -0.0005    0.0000    0.0000    0.0009    0.0000    0.0000   -0.0095   -0.0000   -0.0000
       37 TA     7pz        0.0000    0.0015   -0.0000   -0.0000   -0.0021   -0.0000   -0.0000    0.0231    0.0000    0.0000
       38 TA     8pz       -0.0000   -0.0014    0.0000    0.0000    0.0014    0.0000    0.0000   -0.0152   -0.0000    0.0000
       39 TA     9pz        0.0000    0.0013   -0.0000   -0.0000   -0.0009   -0.0000   -0.0000    0.0100    0.0000   -0.0000
       40 TA    10pz       -0.0000   -0.0014    0.0000    0.0000    0.0006    0.0000    0.0000   -0.0066   -0.0000    0.0000
       41 TA    11pz        0.0000    0.0017   -0.0000   -0.0000   -0.0000   -0.0000   -0.0000    0.0013    0.0000   -0.0000
       42 TA     3d2-      -0.8502    0.0000    0.5259    0.0001    0.0000   -0.0020    0.0000    0.0000   -0.0000    0.0010
       43 TA     4d2-      -0.0008   -0.0000   -0.0024   -0.0000   -0.0000    0.0404   -0.0001   -0.0000    0.0005   -0.8417
       44 TA     5d2-       0.0001    0.0000    0.0005    0.0000    0.0000   -0.0034    0.0000    0.0000    0.0000   -0.0138
       45 TA     6d2-      -0.0001   -0.0000   -0.0008   -0.0000   -0.0000    0.0046   -0.0000   -0.0000   -0.0000    0.0172
       46 TA     7d2-       0.0001    0.0000    0.0010    0.0000    0.0000   -0.0043    0.0000    0.0000    0.0000   -0.0149
       47 TA     8d2-       0.0001   -0.0000   -0.0015   -0.0000   -0.0000    0.0038   -0.0000   -0.0000   -0.0000    0.0122
       48 TA     9d2-      -0.0002    0.0000    0.0014    0.0000   -0.0000   -0.0020    0.0000    0.0000    0.0000   -0.0064
       49 TA    10d2-       0.0005   -0.0000   -0.0019   -0.0000    0.0000    0.0012   -0.0000   -0.0000   -0.0000    0.0043
       50 TA    11d2-      -0.0007    0.0000    0.0015    0.0000   -0.0000    0.0007   -0.0000   -0.0000    0.0000   -0.0007
       51 TA     3d1-       0.5264    0.0000    0.8495    0.0001   -0.0000   -0.0024    0.0000    0.0000    0.0000   -0.0008
       52 TA     4d1-       0.0010   -0.0000   -0.0029   -0.0000    0.0000    0.0646   -0.0001   -0.0000   -0.0003    0.5377
       53 TA     5d1-      -0.0001    0.0000    0.0006    0.0000   -0.0000   -0.0048    0.0000    0.0000   -0.0000    0.0090
       54 TA     6d1-       0.0002   -0.0000   -0.0010   -0.0000    0.0000    0.0063   -0.0000   -0.0000    0.0000   -0.0111
       55 TA     7d1-      -0.0002    0.0000    0.0013    0.0000   -0.0000   -0.0059    0.0000    0.0000   -0.0000    0.0095
       56 TA     8d1-       0.0002   -0.0000   -0.0019   -0.0000   -0.0000    0.0051   -0.0000   -0.0000    0.0000   -0.0077
       57 TA     9d1-      -0.0001    0.0000    0.0018    0.0000    0.0000   -0.0026    0.0000    0.0000   -0.0000    0.0040
       58 TA    10d1-      -0.0000   -0.0000   -0.0026   -0.0000   -0.0000    0.0015   -0.0000    0.0000    0.0000   -0.0026
       59 TA    11d1-       0.0003    0.0000    0.0022    0.0000    0.0000    0.0010   -0.0000   -0.0000   -0.0000    0.0005
       60 TA     3d0       -0.0000    0.9998   -0.0000   -0.0000    0.0015   -0.0000   -0.0000    0.0030    0.0000    0.0000
       61 TA     4d0       -0.0000   -0.0029    0.0000    0.0000   -0.0157   -0.0000   -0.0000   -0.0379    0.0000   -0.0000
       62 TA     5d0        0.0000    0.0006   -0.0000   -0.0000    0.0018   -0.0000   -0.0000    0.0039    0.0000   -0.0000
       63 TA     6d0       -0.0000   -0.0010    0.0000    0.0000   -0.0026    0.0000    0.0000   -0.0054   -0.0000    0.0000
       64 TA     7d0       -0.0000    0.0012   -0.0000   -0.0000    0.0027   -0.0000   -0.0000    0.0052    0.0000   -0.0000
       65 TA     8d0        0.0000   -0.0019    0.0000    0.0000   -0.0027    0.0000    0.0000   -0.0048   -0.0000    0.0000
       66 TA     9d0       -0.0000    0.0019   -0.0000   -0.0000    0.0016   -0.0000   -0.0000    0.0026    0.0000   -0.0000
       67 TA    10d0        0.0000   -0.0027    0.0000    0.0000   -0.0011    0.0000    0.0000   -0.0017   -0.0000    0.0000
       68 TA    11d0       -0.0000    0.0023   -0.0000   -0.0000   -0.0004    0.0000    0.0000   -0.0007    0.0000   -0.0000
       69 TA     3d1+       0.0003   -0.0000    0.0001   -0.8495   -0.0000    0.0000    0.0024    0.0000   -0.0008   -0.0000
       70 TA     4d1+       0.0000    0.0000   -0.0000    0.0029    0.0000   -0.0001   -0.0646   -0.0000    0.5377    0.0003
       71 TA     5d1+      -0.0000   -0.0000    0.0000   -0.0006   -0.0000    0.0000    0.0048    0.0000    0.0090    0.0000
       72 TA     6d1+       0.0000    0.0000   -0.0000    0.0010    0.0000   -0.0000   -0.0063   -0.0000   -0.0111   -0.0000
       73 TA     7d1+      -0.0000   -0.0000    0.0000   -0.0013   -0.0000    0.0000    0.0059    0.0000    0.0095    0.0000
       74 TA     8d1+       0.0000    0.0000   -0.0000    0.0019    0.0000   -0.0000   -0.0051   -0.0000   -0.0077   -0.0000
       75 TA     9d1+      -0.0000   -0.0000    0.0000   -0.0018   -0.0000    0.0000    0.0026    0.0000    0.0040    0.0000
       76 TA    10d1+      -0.0000    0.0000   -0.0000    0.0026   -0.0000   -0.0000   -0.0015   -0.0000   -0.0026   -0.0000
       77 TA    11d1+       0.0000   -0.0000    0.0000   -0.0022    0.0000   -0.0000   -0.0010   -0.0000    0.0005    0.0000
       78 TA     3d2+       0.0005   -0.0000   -0.0001    0.5259    0.0000   -0.0000   -0.0020   -0.0000   -0.0010   -0.0000
       79 TA     4d2+       0.0000   -0.0000    0.0000   -0.0024   -0.0000    0.0001    0.0404    0.0000    0.8417    0.0005
       80 TA     5d2+      -0.0000   -0.0000   -0.0000    0.0005    0.0000   -0.0000   -0.0034   -0.0000    0.0138    0.0000
       81 TA     6d2+       0.0000   -0.0000    0.0000   -0.0008   -0.0000    0.0000    0.0046    0.0000   -0.0172   -0.0000
       82 TA     7d2+      -0.0000    0.0000   -0.0000    0.0010    0.0000   -0.0000   -0.0043   -0.0000    0.0149    0.0000
       83 TA     8d2+      -0.0000   -0.0000    0.0000   -0.0015   -0.0000    0.0000    0.0038    0.0000   -0.0122   -0.0000
       84 TA     9d2+       0.0000    0.0000   -0.0000    0.0014   -0.0000   -0.0000   -0.0020   -0.0000    0.0064    0.0000
       85 TA    10d2+      -0.0000   -0.0000    0.0000   -0.0019    0.0000    0.0000    0.0012    0.0000   -0.0043   -0.0000
       86 TA    11d2+       0.0000    0.0000   -0.0000    0.0015   -0.0000    0.0000    0.0007    0.0000    0.0007    0.0000
       87 TA     4f3-       0.0000    0.0000    0.0000    0.0000   -0.0000   -0.0000    0.0000   -0.0000   -0.0000    0.0000
       88 TA     5f3-       0.0000   -0.0000   -0.0000    0.0000    0.0000    0.0000   -0.0000    0.0000    0.0000    0.0000
       89 TA     6f3-      -0.0000    0.0000    0.0000   -0.0000   -0.0000   -0.0000    0.0000    0.0000   -0.0000   -0.0000
       90 TA     7f3-       0.0000   -0.0000   -0.0000    0.0000    0.0000   -0.0000    0.0000   -0.0000   -0.0000   -0.0000
       91 TA     8f3-      -0.0000   -0.0000    0.0000   -0.0000   -0.0000    0.0000   -0.0000    0.0000    0.0000    0.0000
       92 TA     9f3-       0.0000    0.0000   -0.0000    0.0000   -0.0000   -0.0000    0.0000    0.0000   -0.0000   -0.0000
       93 TA    10f3-      -0.0000   -0.0000    0.0000   -0.0000    0.0000    0.0000   -0.0000   -0.0000    0.0000    0.0000
       94 TA    11f3-       0.0000    0.0000    0.0000    0.0000   -0.0000   -0.0000    0.0000    0.0000   -0.0000   -0.0000
       95 TA     4f2-      -0.0032    0.0000    0.0067    0.0000    0.0000   -0.0132    0.0000   -0.0000    0.0000   -0.0291
       96 TA     5f2-       0.0024   -0.0000   -0.0052   -0.0000   -0.0000    0.0062   -0.0000    0.0000   -0.0000    0.0082
       97 TA     6f2-      -0.0019    0.0000    0.0040    0.0000   -0.0000   -0.0032    0.0000    0.0000    0.0000   -0.0027
       98 TA     7f2-       0.0018   -0.0000   -0.0037   -0.0000    0.0000    0.0015   -0.0000   -0.0000   -0.0000    0.0003
       99 TA     8f2-      -0.0015    0.0000    0.0030    0.0000   -0.0000   -0.0002    0.0000    0.0000   -0.0000    0.0007
      100 TA     9f2-       0.0011   -0.0000   -0.0020   -0.0000   -0.0000   -0.0006    0.0000   -0.0000    0.0000   -0.0010
      101 TA    10f2-      -0.0007    0.0000    0.0011    0.0000    0.0000    0.0008   -0.0000   -0.0000   -0.0000    0.0009
      102 TA    11f2-       0.0003    0.0000    0.0003    0.0000   -0.0000   -0.0013    0.0000    0.0000    0.0000   -0.0010
      103 TA     4f1-       0.0011    0.0000    0.0011    0.0000   -0.0000   -0.0057    0.0000    0.0000   -0.0000    0.0111
      104 TA     5f1-      -0.0009    0.0000   -0.0009   -0.0000   -0.0000    0.0028   -0.0000   -0.0000    0.0000   -0.0020
      105 TA     6f1-       0.0007   -0.0000    0.0007    0.0000   -0.0000   -0.0014    0.0000    0.0000   -0.0000    0.0005
      106 TA     7f1-      -0.0007    0.0000   -0.0007   -0.0000    0.0000    0.0006   -0.0000   -0.0000   -0.0000    0.0001
      107 TA     8f1-       0.0006   -0.0000    0.0006    0.0000    0.0000    0.0001   -0.0000   -0.0000    0.0000   -0.0004
      108 TA     9f1-      -0.0005    0.0000   -0.0004   -0.0000   -0.0000   -0.0005    0.0000    0.0000   -0.0000    0.0004
      109 TA    10f1-       0.0003   -0.0000    0.0003    0.0000    0.0000    0.0005   -0.0000   -0.0000    0.0000   -0.0003
      110 TA    11f1-      -0.0003    0.0000   -0.0002   -0.0000   -0.0000   -0.0006    0.0000    0.0000   -0.0000    0.0004
      111 TA     4f0        0.0000   -0.0031    0.0000    0.0000   -0.0264    0.0000    0.0000   -0.0078    0.0000    0.0000
      112 TA     5f0        0.0000    0.0023   -0.0000   -0.0000    0.0134   -0.0000   -0.0000    0.0035    0.0000    0.0000
      113 TA     6f0        0.0000   -0.0018    0.0000    0.0000   -0.0071    0.0000    0.0000   -0.0018   -0.0000    0.0000
      114 TA     7f0       -0.0000    0.0016   -0.0000   -0.0000    0.0032   -0.0000   -0.0000    0.0008   -0.0000   -0.0000
      115 TA     8f0        0.0000   -0.0012    0.0000    0.0000    0.0000   -0.0000   -0.0000    0.0001    0.0000    0.0000
      116 TA     9f0       -0.0000    0.0007   -0.0000   -0.0000   -0.0020    0.0000    0.0000   -0.0006   -0.0000    0.0000
      117 TA    10f0        0.0000   -0.0002    0.0000    0.0000    0.0024   -0.0000   -0.0000    0.0006    0.0000   -0.0000
      118 TA    11f0       -0.0000   -0.0007    0.0000    0.0000   -0.0032    0.0000    0.0000   -0.0008   -0.0000    0.0000
      119 TA     4f1+       0.0000   -0.0000    0.0000   -0.0011   -0.0000    0.0000    0.0057    0.0000    0.0111    0.0000
      120 TA     5f1+      -0.0000   -0.0000   -0.0000    0.0009    0.0000   -0.0000   -0.0028   -0.0000   -0.0020   -0.0000
      121 TA     6f1+       0.0000    0.0000    0.0000   -0.0007   -0.0000    0.0000    0.0014    0.0000    0.0005    0.0000
      122 TA     7f1+      -0.0000   -0.0000   -0.0000    0.0007    0.0000   -0.0000   -0.0006    0.0000    0.0001    0.0000
      123 TA     8f1+       0.0000    0.0000    0.0000   -0.0006    0.0000   -0.0000   -0.0001   -0.0000   -0.0004   -0.0000
      124 TA     9f1+      -0.0000   -0.0000   -0.0000    0.0004   -0.0000    0.0000    0.0005    0.0000    0.0004    0.0000
      125 TA    10f1+       0.0000    0.0000    0.0000   -0.0003    0.0000   -0.0000   -0.0005   -0.0000   -0.0003   -0.0000
      126 TA    11f1+      -0.0000   -0.0000   -0.0000    0.0002    0.0000    0.0000    0.0006    0.0000    0.0004    0.0000
      127 TA     4f2+       0.0000   -0.0000   -0.0000    0.0067   -0.0000   -0.0000   -0.0132   -0.0000    0.0291    0.0000
      128 TA     5f2+      -0.0000    0.0000    0.0000   -0.0052    0.0000    0.0000    0.0062    0.0000   -0.0082   -0.0000
      129 TA     6f2+       0.0000   -0.0000   -0.0000    0.0040   -0.0000   -0.0000   -0.0032   -0.0000    0.0027    0.0000
      130 TA     7f2+      -0.0000   -0.0000    0.0000   -0.0037    0.0000    0.0000    0.0015   -0.0000   -0.0003   -0.0000
      131 TA     8f2+       0.0000    0.0000   -0.0000    0.0030   -0.0000   -0.0000   -0.0002    0.0000   -0.0007   -0.0000
      132 TA     9f2+      -0.0000   -0.0000    0.0000   -0.0020   -0.0000   -0.0000   -0.0006   -0.0000    0.0010    0.0000
      133 TA    10f2+       0.0000   -0.0000   -0.0000    0.0011    0.0000    0.0000    0.0008    0.0000   -0.0009   -0.0000
      134 TA    11f2+      -0.0000    0.0000   -0.0000    0.0003   -0.0000   -0.0000   -0.0013   -0.0000    0.0010    0.0000
      135 TA     4f3+      -0.0000    0.0025   -0.0000    0.0000   -0.0174    0.0000   -0.0000    0.0142   -0.0000   -0.0000
      136 TA     5f3+       0.0000   -0.0019    0.0000   -0.0000    0.0089   -0.0000   -0.0000   -0.0067   -0.0000    0.0000
      137 TA     6f3+      -0.0000    0.0015   -0.0000    0.0000   -0.0046   -0.0000   -0.0000    0.0034    0.0000   -0.0000
      138 TA     7f3+       0.0000   -0.0014    0.0000   -0.0000    0.0021    0.0000    0.0000   -0.0016   -0.0000   -0.0000
      139 TA     8f3+      -0.0000    0.0011   -0.0000    0.0000    0.0000   -0.0000   -0.0000    0.0002   -0.0000    0.0000
      140 TA     9f3+      -0.0000   -0.0008    0.0000   -0.0000   -0.0013    0.0000    0.0000    0.0006    0.0000   -0.0000
      141 TA    10f3+       0.0000    0.0005   -0.0000    0.0000    0.0015   -0.0000   -0.0000   -0.0009   -0.0000    0.0000
      142 TA    11f3+      -0.0000   -0.0000   -0.0000   -0.0000   -0.0021   -0.0000   -0.0000    0.0013    0.0000   -0.0000
      143 TA     5g4-       0.0000   -0.0000    0.0005    0.0000   -0.0000   -0.0033    0.0000    0.0000    0.0000   -0.0001
      144 TA     6g4-      -0.0000   -0.0000   -0.0005   -0.0000    0.0000    0.0027   -0.0000    0.0000    0.0000   -0.0003
      145 TA     7g4-       0.0000    0.0000    0.0004    0.0000   -0.0000   -0.0019    0.0000   -0.0000   -0.0000    0.0002
      146 TA     8g4-      -0.0000   -0.0000   -0.0003   -0.0000    0.0000    0.0011   -0.0000   -0.0000    0.0000   -0.0002
      147 TA     5g3-      -0.0000   -0.0000   -0.0000   -0.0000   -0.0000    0.0000    0.0000    0.0000    0.0000   -0.0000
      148 TA     6g3-       0.0000    0.0000    0.0000    0.0000    0.0000   -0.0000   -0.0000   -0.0000   -0.0000    0.0000
      149 TA     7g3-      -0.0000   -0.0000   -0.0000   -0.0000    0.0000   -0.0000    0.0000    0.0000    0.0000   -0.0000
      150 TA     8g3-       0.0000    0.0000    0.0000    0.0000   -0.0000    0.0000   -0.0000   -0.0000   -0.0000    0.0000
      151 TA     5g2-       0.0001   -0.0000   -0.0004   -0.0000   -0.0000    0.0002   -0.0000    0.0000   -0.0000    0.0009
      152 TA     6g2-      -0.0001    0.0000    0.0004    0.0000    0.0000   -0.0004    0.0000   -0.0000    0.0000   -0.0004
      153 TA     7g2-       0.0001   -0.0000   -0.0003   -0.0000   -0.0000    0.0003   -0.0000    0.0000   -0.0000    0.0002
      154 TA     8g2-      -0.0000    0.0000    0.0002    0.0000    0.0000   -0.0002    0.0000    0.0000    0.0000   -0.0001
      155 TA     5g1-      -0.0002   -0.0000    0.0005    0.0000    0.0000   -0.0039    0.0000    0.0000    0.0000   -0.0010
      156 TA     6g1-       0.0002    0.0000   -0.0003   -0.0000   -0.0000    0.0033   -0.0000   -0.0000   -0.0000    0.0012
      157 TA     7g1-      -0.0002   -0.0000    0.0002    0.0000    0.0000   -0.0023    0.0000    0.0000    0.0000   -0.0010
      158 TA     8g1-       0.0001    0.0000   -0.0001   -0.0000   -0.0000    0.0014   -0.0000   -0.0000   -0.0000    0.0007
      159 TA     5g0        0.0000   -0.0010   -0.0000   -0.0000   -0.0003    0.0000    0.0000   -0.0065   -0.0000    0.0000
      160 TA     6g0       -0.0000    0.0009    0.0000    0.0000    0.0003   -0.0000   -0.0000    0.0055    0.0000   -0.0000
      161 TA     7g0        0.0000   -0.0007    0.0000   -0.0000   -0.0002    0.0000    0.0000   -0.0038   -0.0000   -0.0000
      162 TA     8g0       -0.0000    0.0004   -0.0000    0.0000    0.0002   -0.0000   -0.0000    0.0024    0.0000   -0.0000
      163 TA     5g1+      -0.0000    0.0000    0.0000   -0.0005    0.0000    0.0000    0.0039    0.0000   -0.0010   -0.0000
      164 TA     6g1+       0.0000   -0.0000   -0.0000    0.0003    0.0000   -0.0000   -0.0033    0.0000    0.0012    0.0000
      165 TA     7g1+      -0.0000    0.0000    0.0000   -0.0002   -0.0000    0.0000    0.0023    0.0000   -0.0010   -0.0000
      166 TA     8g1+       0.0000   -0.0000   -0.0000    0.0001    0.0000   -0.0000   -0.0014   -0.0000    0.0007    0.0000
      167 TA     5g2+      -0.0000   -0.0000    0.0000   -0.0004   -0.0000    0.0000    0.0002    0.0000   -0.0009   -0.0000
      168 TA     6g2+       0.0000    0.0000   -0.0000    0.0004    0.0000   -0.0000   -0.0004   -0.0000    0.0004    0.0000
      169 TA     7g2+      -0.0000   -0.0000    0.0000   -0.0003   -0.0000    0.0000    0.0003    0.0000   -0.0002   -0.0000
      170 TA     8g2+       0.0000    0.0000   -0.0000    0.0002    0.0000   -0.0000   -0.0002   -0.0000    0.0001    0.0000
      171 TA     5g3+       0.0000   -0.0003    0.0000   -0.0000    0.0029    0.0000    0.0000   -0.0039    0.0000    0.0000
      172 TA     6g3+      -0.0000    0.0002   -0.0000    0.0000   -0.0026   -0.0000   -0.0000    0.0036    0.0000   -0.0000
      173 TA     7g3+       0.0000   -0.0002    0.0000   -0.0000    0.0019    0.0000    0.0000   -0.0025   -0.0000    0.0000
      174 TA     8g3+      -0.0000    0.0001   -0.0000    0.0000   -0.0013   -0.0000   -0.0000    0.0015   -0.0000   -0.0000
      175 TA     5g4+       0.0000    0.0000    0.0000   -0.0005    0.0000    0.0000    0.0033    0.0000   -0.0001   -0.0000
      176 TA     6g4+      -0.0000   -0.0000   -0.0000    0.0005    0.0000   -0.0000   -0.0027   -0.0000   -0.0003   -0.0000
      177 TA     7g4+       0.0000    0.0000    0.0000   -0.0004   -0.0000    0.0000    0.0019    0.0000    0.0002    0.0000
      178 TA     8g4+      -0.0000   -0.0000   -0.0000    0.0003    0.0000   -0.0000   -0.0011   -0.0000   -0.0002   -0.0000
      179 TA     6h5-       0.0000   -0.0000   -0.0000   -0.0000    0.0000    0.0003   -0.0000   -0.0000   -0.0000    0.0010
      180 TA     7h5-      -0.0000    0.0000    0.0000    0.0000    0.0000   -0.0002    0.0000    0.0000    0.0000   -0.0009
      181 TA     6h4-      -0.0000   -0.0000   -0.0001   -0.0000    0.0000    0.0004   -0.0000    0.0000    0.0000   -0.0004
      182 TA     7h4-       0.0000    0.0000    0.0001    0.0000    0.0000   -0.0004    0.0000   -0.0000   -0.0000    0.0004
      183 TA     6h3-      -0.0000   -0.0000    0.0000    0.0000   -0.0000   -0.0000    0.0000   -0.0000    0.0000   -0.0000
      184 TA     7h3-       0.0000   -0.0000   -0.0000   -0.0000   -0.0000    0.0000   -0.0000    0.0000   -0.0000   -0.0000
      185 TA     6h2-       0.0000   -0.0000   -0.0000   -0.0000   -0.0000    0.0003   -0.0000   -0.0000   -0.0000    0.0006
      186 TA     7h2-      -0.0000    0.0000    0.0000    0.0000   -0.0000   -0.0002    0.0000    0.0000    0.0000   -0.0007
      187 TA     6h1-      -0.0000   -0.0000   -0.0001   -0.0000   -0.0000    0.0006   -0.0000   -0.0000    0.0000   -0.0008
      188 TA     7h1-       0.0000    0.0000    0.0001    0.0000    0.0000   -0.0004    0.0000    0.0000   -0.0000    0.0007
      189 TA     6h0        0.0000   -0.0001    0.0000    0.0000   -0.0001   -0.0000   -0.0000   -0.0010    0.0000    0.0000
      190 TA     7h0       -0.0000    0.0001   -0.0000   -0.0000    0.0001    0.0000    0.0000    0.0006    0.0000   -0.0000
      191 TA     6h1+      -0.0000    0.0000   -0.0000    0.0001    0.0000   -0.0000   -0.0006    0.0000   -0.0008   -0.0000
      192 TA     7h1+       0.0000   -0.0000    0.0000   -0.0001    0.0000    0.0000    0.0004   -0.0000    0.0007    0.0000
      193 TA     6h2+      -0.0000    0.0000    0.0000   -0.0000   -0.0000    0.0000    0.0003   -0.0000   -0.0006   -0.0000
      194 TA     7h2+       0.0000   -0.0000   -0.0000    0.0000   -0.0000   -0.0000   -0.0002    0.0000    0.0007    0.0000
      195 TA     6h3+       0.0000   -0.0000   -0.0000   -0.0000   -0.0002   -0.0000   -0.0000    0.0002    0.0000    0.0000
      196 TA     7h3+       0.0000    0.0000    0.0000    0.0000    0.0003    0.0000    0.0000   -0.0003   -0.0000    0.0000
      197 TA     6h4+      -0.0000    0.0000   -0.0000    0.0001   -0.0000   -0.0000   -0.0004    0.0000   -0.0004   -0.0000
      198 TA     7h4+       0.0000   -0.0000    0.0000   -0.0001    0.0000    0.0000    0.0004   -0.0000    0.0004    0.0000
      199 TA     6h5+      -0.0000   -0.0000    0.0000   -0.0000    0.0000    0.0000    0.0003   -0.0000   -0.0010   -0.0000
      200 TA     7h5+       0.0000    0.0000   -0.0000    0.0000    0.0000   -0.0000   -0.0002    0.0000    0.0009    0.0000

          Orbital           21        22        23        24        25        26        27        28        29        30    
          Energy           -8.5601   -8.5182   -8.5182   -3.3433   -1.9590   -1.9590   -1.9270   -1.1487   -1.0796   -1.0311
          Occ. No.          2.0000    2.0000    2.0000    2.0000    2.0000    2.0000    2.0000    2.0000    2.0000    2.0000

        1 TA     1s        -0.0000   -0.0000    0.0000   -0.0000    0.0000    0.0000    0.0000   -0.0000    0.0000   -0.0000
        2 TA     2s        -0.0000   -0.0000    0.0000    0.0000   -0.0000   -0.0000   -0.0000   -0.0000    0.0000   -0.0000
        3 TA     3s         0.0008    0.0000   -0.0000   -0.0000    0.0000   -0.0000    0.0001   -0.0000    0.0006   -0.0000
        4 TA     4s         0.0129   -0.0000   -0.0000   -0.0160    0.0000    0.0000    0.0039   -0.0000    0.0038   -0.0000
        5 TA     5s         0.0122    0.0000   -0.0000    0.9952   -0.0000   -0.0000   -0.0639    0.0000   -0.0118    0.0000
        6 TA     6s        -0.0023    0.0000   -0.0000    0.0182   -0.0000    0.0000   -0.0095   -0.0000   -0.0121    0.0000
        7 TA     7s         0.0032    0.0000   -0.0000   -0.0166    0.0000    0.0000    0.0086    0.0000    0.0090   -0.0000
        8 TA     8s        -0.0048   -0.0000    0.0000    0.0215   -0.0000    0.0000   -0.0063    0.0000   -0.0059    0.0000
        9 TA     9s         0.0029    0.0000   -0.0000   -0.0088    0.0000   -0.0000    0.0003   -0.0000    0.0007   -0.0000
       10 TA    10s        -0.0011   -0.0000    0.0000    0.0025   -0.0000   -0.0000   -0.0007    0.0000   -0.0008    0.0000
       11 TA    11s         0.0007    0.0000   -0.0000   -0.0035    0.0000    0.0000    0.0006   -0.0000    0.0006   -0.0000
       12 TA     2px       -0.0000    0.0001   -0.0000   -0.0000    0.0000    0.0000   -0.0000    0.0000    0.0000   -0.0000
       13 TA     3px        0.0000   -0.0032    0.0000    0.0000   -0.0000   -0.0000    0.0000    0.0000    0.0000   -0.0000
       14 TA     4px        0.0000   -0.0728    0.0000    0.0000   -0.0179   -0.0000    0.0000    0.0000    0.0000   -0.0000
       15 TA     5px        0.0000   -0.0276    0.0000   -0.0000    0.9948    0.0002   -0.0000   -0.0000   -0.0000    0.0000
       16 TA     6px       -0.0000    0.0077   -0.0000   -0.0000    0.0198    0.0000   -0.0000   -0.0000   -0.0000    0.0000
       17 TA     7px        0.0000   -0.0161    0.0000    0.0000   -0.0276   -0.0000    0.0000    0.0000    0.0000   -0.0000
       18 TA     8px       -0.0000    0.0085   -0.0000   -0.0000    0.0070    0.0000   -0.0000    0.0000    0.0000   -0.0000
       19 TA     9px        0.0000   -0.0046    0.0000    0.0000   -0.0016   -0.0000    0.0000    0.0000    0.0000    0.0000
       20 TA    10px       -0.0000    0.0027   -0.0000   -0.0000    0.0023    0.0000   -0.0000   -0.0000   -0.0000    0.0000
       21 TA    11px        0.0000   -0.0002    0.0000   -0.0000   -0.0008   -0.0000    0.0000   -0.0000   -0.0000    0.0000
       22 TA     2py       -0.0000   -0.0000   -0.0001    0.0000   -0.0000    0.0000   -0.0000   -0.0000   -0.0000    0.0000
       23 TA     3py        0.0000    0.0000    0.0032   -0.0000    0.0000   -0.0000    0.0000   -0.0000   -0.0000    0.0004
       24 TA     4py        0.0000    0.0000    0.0728   -0.0000    0.0000   -0.0179   -0.0000    0.0000   -0.0000    0.0020
       25 TA     5py        0.0000    0.0000    0.0276    0.0000   -0.0002    0.9948    0.0000   -0.0000    0.0000   -0.0166
       26 TA     6py       -0.0000   -0.0000   -0.0077    0.0000   -0.0000    0.0198    0.0000   -0.0000    0.0000   -0.0080
       27 TA     7py        0.0000    0.0000    0.0161   -0.0000    0.0000   -0.0276   -0.0000   -0.0000    0.0000    0.0058
       28 TA     8py       -0.0000   -0.0000   -0.0085    0.0000   -0.0000    0.0070   -0.0000    0.0000   -0.0000    0.0004
       29 TA     9py        0.0000    0.0000    0.0046   -0.0000    0.0000   -0.0016   -0.0000    0.0000   -0.0000   -0.0000
       30 TA    10py       -0.0000   -0.0000   -0.0027   -0.0000   -0.0000    0.0023    0.0000   -0.0000   -0.0000   -0.0003
       31 TA    11py        0.0000    0.0000    0.0002    0.0000    0.0000   -0.0008    0.0000    0.0000   -0.0000   -0.0000
       32 TA     2pz        0.0000   -0.0000   -0.0000   -0.0000    0.0000    0.0000    0.0000    0.0000   -0.0000   -0.0000
       33 TA     3pz        0.0025    0.0000   -0.0000    0.0003   -0.0000    0.0000   -0.0004    0.0000   -0.0027   -0.0000
       34 TA     4pz        0.0363    0.0000   -0.0000    0.0025   -0.0000   -0.0000   -0.0232    0.0000   -0.0159   -0.0000
       35 TA     5pz        0.0184    0.0000   -0.0000    0.0659    0.0000    0.0000    0.9907   -0.0000    0.1000    0.0000
       36 TA     6pz       -0.0060   -0.0000    0.0000   -0.0078    0.0000    0.0000    0.0278    0.0000    0.0464    0.0000
       37 TA     7pz        0.0122    0.0000   -0.0000    0.0087   -0.0000   -0.0000   -0.0370   -0.0000   -0.0360   -0.0000
       38 TA     8pz       -0.0062   -0.0000    0.0000   -0.0001    0.0000   -0.0000    0.0088   -0.0000    0.0002   -0.0000
       39 TA     9pz        0.0033    0.0000   -0.0000   -0.0007   -0.0000   -0.0000   -0.0023    0.0000   -0.0010   -0.0000
       40 TA    10pz       -0.0019   -0.0000    0.0000   -0.0003    0.0000    0.0000    0.0031   -0.0000    0.0032    0.0000
       41 TA    11pz        0.0001    0.0000   -0.0000    0.0001   -0.0000    0.0000   -0.0008    0.0000   -0.0005    0.0000
       42 TA     3d2-      -0.0000   -0.0000   -0.0017   -0.0000   -0.0000    0.0004    0.0000   -0.0000    0.0000    0.0018
       43 TA     4d2-      -0.0000   -0.0001   -0.5324    0.0000   -0.0000    0.0099    0.0000   -0.0000    0.0000    0.0169
       44 TA     5d2-      -0.0000   -0.0000   -0.0149    0.0000   -0.0000    0.0135   -0.0000   -0.0000    0.0000    0.0410
       45 TA     6d2-       0.0000    0.0000    0.0188   -0.0000    0.0000   -0.0104    0.0000    0.0000   -0.0000   -0.0212
       46 TA     7d2-      -0.0000   -0.0000   -0.0162   -0.0000   -0.0000    0.0046   -0.0000   -0.0000    0.0000    0.0057
       47 TA     8d2-       0.0000    0.0000    0.0131    0.0000    0.0000   -0.0020    0.0000    0.0000   -0.0000   -0.0030
       48 TA     9d2-      -0.0000   -0.0000   -0.0067    0.0000   -0.0000    0.0010   -0.0000   -0.0000    0.0000    0.0019
       49 TA    10d2-       0.0000    0.0000    0.0046   -0.0000    0.0000   -0.0008   -0.0000    0.0000   -0.0000   -0.0011
       50 TA    11d2-      -0.0000   -0.0000   -0.0001   -0.0000    0.0000   -0.0002   -0.0000   -0.0000    0.0000    0.0002
       51 TA     3d1-      -0.0000   -0.0000   -0.0024    0.0000   -0.0000    0.0006    0.0000    0.0000    0.0000   -0.0003
       52 TA     4d1-      -0.0000   -0.0001   -0.8372    0.0000   -0.0000    0.0154    0.0000    0.0000   -0.0000   -0.0058
       53 TA     5d1-      -0.0000   -0.0000   -0.0233   -0.0000   -0.0000    0.0400    0.0000   -0.0000    0.0000    0.0407
       54 TA     6d1-       0.0000    0.0000    0.0293    0.0000    0.0000   -0.0277   -0.0000    0.0000   -0.0000   -0.0159
       55 TA     7d1-      -0.0000   -0.0000   -0.0252   -0.0000   -0.0000    0.0093   -0.0000   -0.0000   -0.0000    0.0002
       56 TA     8d1-       0.0000    0.0000    0.0203   -0.0000    0.0000   -0.0019    0.0000   -0.0000    0.0000    0.0005
       57 TA     9d1-      -0.0000   -0.0000   -0.0103   -0.0000   -0.0000    0.0015   -0.0000   -0.0000    0.0000    0.0004
       58 TA    10d1-       0.0000    0.0000    0.0069    0.0000    0.0000   -0.0012   -0.0000    0.0000    0.0000   -0.0000
       59 TA    11d1-      -0.0000   -0.0000   -0.0003    0.0000    0.0000   -0.0003   -0.0000    0.0000    0.0000   -0.0000
       60 TA     3d0        0.0025    0.0000   -0.0000   -0.0005   -0.0000    0.0000   -0.0007    0.0000   -0.0031   -0.0000
       61 TA     4d0        0.9963    0.0000   -0.0000   -0.0124   -0.0000    0.0000   -0.0123    0.0000   -0.0272   -0.0000
       62 TA     5d0        0.0262    0.0000   -0.0000   -0.0034    0.0000   -0.0000    0.0054   -0.0000   -0.1243   -0.0000
       63 TA     6d0       -0.0332   -0.0000    0.0000    0.0040   -0.0000    0.0000   -0.0006    0.0000    0.0607    0.0000
       64 TA     7d0        0.0288    0.0000   -0.0000   -0.0032   -0.0000   -0.0000   -0.0032    0.0000   -0.0124   -0.0000
       65 TA     8d0       -0.0233   -0.0000    0.0000    0.0026    0.0000   -0.0000    0.0038   -0.0000    0.0058    0.0000
       66 TA     9d0        0.0118    0.0000   -0.0000   -0.0013   -0.0000   -0.0000   -0.0014   -0.0000   -0.0045   -0.0000
       67 TA    10d0       -0.0079   -0.0000    0.0000    0.0009    0.0000    0.0000    0.0009   -0.0000    0.0026    0.0000
       68 TA    11d0        0.0005    0.0000   -0.0000    0.0001    0.0000    0.0000    0.0002    0.0000   -0.0004   -0.0000
       69 TA     3d1+      -0.0000    0.0024   -0.0000   -0.0000    0.0006    0.0000   -0.0000   -0.0000   -0.0000    0.0000
       70 TA     4d1+      -0.0000    0.8372   -0.0001    0.0000    0.0154    0.0000   -0.0000   -0.0000   -0.0000    0.0000
       71 TA     5d1+      -0.0000    0.0233   -0.0000    0.0000    0.0400    0.0000   -0.0000    0.0000   -0.0000   -0.0000
       72 TA     6d1+       0.0000   -0.0293    0.0000   -0.0000   -0.0277   -0.0000    0.0000   -0.0000    0.0000    0.0000
       73 TA     7d1+      -0.0000    0.0252   -0.0000    0.0000    0.0093    0.0000   -0.0000   -0.0000   -0.0000   -0.0000
       74 TA     8d1+       0.0000   -0.0203    0.0000    0.0000   -0.0019   -0.0000    0.0000    0.0000    0.0000   -0.0000
       75 TA     9d1+      -0.0000    0.0103   -0.0000    0.0000    0.0015    0.0000   -0.0000    0.0000   -0.0000   -0.0000
       76 TA    10d1+       0.0000   -0.0069    0.0000    0.0000   -0.0012   -0.0000    0.0000    0.0000    0.0000    0.0000
       77 TA    11d1+      -0.0000    0.0003   -0.0000   -0.0000   -0.0003   -0.0000    0.0000   -0.0000   -0.0000    0.0000
       78 TA     3d2+       0.0000   -0.0017    0.0000    0.0000   -0.0004   -0.0000    0.0000   -0.0000   -0.0000    0.0000
       79 TA     4d2+       0.0000   -0.5324    0.0001    0.0000   -0.0099   -0.0000    0.0000   -0.0000   -0.0000    0.0000
       80 TA     5d2+       0.0000   -0.0149    0.0000    0.0000   -0.0135   -0.0000    0.0000    0.0000   -0.0000    0.0000
       81 TA     6d2+      -0.0000    0.0188   -0.0000   -0.0000    0.0104    0.0000   -0.0000   -0.0000    0.0000   -0.0000
       82 TA     7d2+       0.0000   -0.0162    0.0000    0.0000   -0.0046   -0.0000    0.0000   -0.0000   -0.0000    0.0000
       83 TA     8d2+      -0.0000    0.0131   -0.0000    0.0000    0.0020    0.0000   -0.0000    0.0000    0.0000   -0.0000
       84 TA     9d2+       0.0000   -0.0067    0.0000    0.0000   -0.0010   -0.0000    0.0000   -0.0000   -0.0000    0.0000
       85 TA    10d2+      -0.0000    0.0046   -0.0000   -0.0000    0.0008    0.0000   -0.0000    0.0000    0.0000   -0.0000
       86 TA    11d2+       0.0000   -0.0001    0.0000   -0.0000    0.0002    0.0000   -0.0000   -0.0000   -0.0000    0.0000
       87 TA     4f3-       0.0000   -0.0000    0.0000   -0.0000   -0.0000    0.0000    0.0000    0.9921    0.0000    0.0000
       88 TA     5f3-      -0.0000    0.0000    0.0000    0.0000   -0.0000    0.0000    0.0000    0.1246    0.0000    0.0000
       89 TA     6f3-       0.0000    0.0000    0.0000    0.0000   -0.0000    0.0000    0.0000   -0.0038    0.0000   -0.0000
       90 TA     7f3-       0.0000   -0.0000   -0.0000   -0.0000   -0.0000   -0.0000   -0.0000    0.0000   -0.0000    0.0000
       91 TA     8f3-      -0.0000   -0.0000    0.0000    0.0000   -0.0000   -0.0000   -0.0000   -0.0058   -0.0000   -0.0000
       92 TA     9f3-       0.0000    0.0000   -0.0000    0.0000    0.0000    0.0000   -0.0000   -0.0006   -0.0000   -0.0000
       93 TA    10f3-      -0.0000   -0.0000    0.0000   -0.0000    0.0000    0.0000   -0.0000   -0.0004   -0.0000   -0.0000
       94 TA    11f3-       0.0000    0.0000   -0.0000    0.0000    0.0000    0.0000   -0.0000   -0.0009   -0.0000   -0.0000
       95 TA     4f2-      -0.0000   -0.0000   -0.0668   -0.0000   -0.0000    0.0667    0.0000    0.0000   -0.0000   -0.2744
       96 TA     5f2-       0.0000    0.0000    0.0246    0.0000   -0.0000    0.0035    0.0000    0.0000   -0.0000   -0.0371
[...]
         4   10       1.34946204E-02  2.74208786E-01  5.40199905E+05  3.46017052E-02  5.40200214E+05
         4   12       1.39307379E-02  7.81545595E+05  1.81922248E-01  1.92120665E-07  7.81545777E+05
         4   14       2.39338015E-03  1.93700968E+05  1.41232286E-01  1.32600013E+05  3.26301122E+05
         4   16       1.42072307E-03  1.41230009E-01  1.93695580E+05  1.63489554E-03  1.93695723E+05
         4   18       2.43120140E-05  1.28276580E+04  2.98595224E-03  1.60248700E-05  1.28276610E+04
         5    7       9.20073979E-03  1.64165211E+05  8.68422357E-03  7.89494340E-09  1.64165220E+05
         5    9       9.20083627E-03  8.68444401E-03  1.64167593E+05  4.85880414E-14  1.64167601E+05
         5   11       1.96047973E-02  2.92484752E-10  4.18164525E-14  5.68972154E+05  5.68972154E+05
         5   13       1.47671435E-04  1.35338658E+04  1.86707776E-03  4.96758675E-07  1.35338677E+04
         5   15       1.47664751E-04  1.86703686E-03  1.35333945E+04  2.77889701E-13  1.35333963E+04
         5   17       1.20397712E-02  8.67757469E-06  6.79074182E-12  5.24259428E+06  5.24259428E+06
         6    8       9.20073979E-03  1.64165211E+05  8.68422357E-03  7.89494340E-09  1.64165220E+05
         6   10       9.20083627E-03  8.68444401E-03  1.64167593E+05  4.85880414E-14  1.64167601E+05
         6   12       1.96047973E-02  2.92484752E-10  4.18164525E-14  5.68972154E+05  5.68972154E+05
         6   14       1.47671435E-04  1.35338658E+04  1.86707776E-03  4.96758675E-07  1.35338677E+04
         6   16       1.47664751E-04  1.86703686E-03  1.35333945E+04  2.77889701E-13  1.35333963E+04
         6   18       1.20397712E-02  8.67757469E-06  6.79074182E-12  5.24259428E+06  5.24259428E+06
         7   11       6.34557061E-04  8.58523902E+02  4.54156479E-05  1.35548652E-08  8.58523947E+02
         7   13       1.67906827E-02  2.22068160E+05  8.03238864E-02  2.58392220E+05  4.80460460E+05
         7   15       7.76067820E-03  8.03271839E-02  2.22073592E+05  5.16843957E-03  2.22073677E+05
         7   17       1.39427377E-01  3.86205614E+07  2.04300730E+00  2.52267772E-04  3.86205634E+07
         8   12       6.34557061E-04  8.58523902E+02  4.54156479E-05  1.35548652E-08  8.58523947E+02
         8   14       1.67906827E-02  2.22068160E+05  8.03238864E-02  2.58392220E+05  4.80460460E+05
         8   16       7.76067820E-03  8.03271839E-02  2.22073592E+05  5.16843957E-03  2.22073677E+05
         8   18       1.39427377E-01  3.86205614E+07  2.04300730E+00  2.52267772E-04  3.86205634E+07
         9   11       6.34552504E-04  4.54145695E-05  8.58505203E+02  1.56086180E-14  8.58505249E+02
         9   13       7.76065331E-03  8.03254547E-02  2.22068027E+05  5.16820835E-03  2.22068112E+05
         9   15       1.67910086E-02  2.22075603E+05  8.03268179E-02  2.58401548E+05  4.80477231E+05
         9   17       1.39427716E-01  2.04301790E+00  3.86206160E+07  2.63388297E-10  3.86206181E+07
        10   12       6.34552504E-04  4.54145695E-05  8.58505203E+02  1.56086180E-14  8.58505249E+02
        10   14       7.76065331E-03  8.03254547E-02  2.22068027E+05  5.16820835E-03  2.22068112E+05
        10   16       1.67910086E-02  2.22075603E+05  8.03268179E-02  2.58401548E+05  4.80477231E+05
        10   18       1.39427716E-01  2.04301790E+00  3.86206160E+07  2.63388297E-10  3.86206181E+07
        11   13       1.05091945E-02  1.84157830E+05  2.54058485E-02  8.58712784E-07  1.84157856E+05
        11   15       1.05094336E-02  2.54070748E-02  1.84166416E+05  1.55965595E-12  1.84166442E+05
        11   17       1.50316662E-01  1.43218981E-04  9.89476817E-11  3.60203326E+07  3.60203326E+07
        12   14       1.05091945E-02  1.84157830E+05  2.54058485E-02  8.58712784E-07  1.84157856E+05
        12   16       1.05094336E-02  2.54070748E-02  1.84166416E+05  1.55965595E-12  1.84166442E+05
        12   18       1.50316662E-01  1.43218981E-04  9.89476817E-11  3.60203326E+07  3.60203326E+07
        13   17       2.82078920E-02  3.59795760E+06  4.96363395E-01  4.59051636E-09  3.59795810E+06
        14   18       2.82078920E-02  3.59795760E+06  4.96363395E-01  4.59051636E-09  3.59795810E+06
        15   17       2.82074581E-02  4.96351511E-01  3.59787043E+06  3.05856579E-14  3.59787093E+06
        16   18       2.82074581E-02  4.96351511E-01  3.59787043E+06  3.05856579E-14  3.59787093E+06
     -----------------------------------------------------------------------------------------------
--

++ Velocity transition strengths (SO states):
   ------------------------------------------
    for osc. strength at least    1.0000000000000001E-005

      From   To        Osc. strength     Einstein coefficients Ax, Ay, Az (sec-1)    Total A (sec-1)
     -----------------------------------------------------------------------------------------------
         1    5       1.36687330E-04  1.40704082E-04  6.04480797E+02  1.96255526E-13  6.04480938E+02
         1    7       2.16509902E-02  4.39946129E-01  8.66708825E+05  5.25066008E-02  8.66709318E+05
         1    9       4.22293677E-02  8.66709866E+05  4.39946121E-01  8.23775183E+05  1.69048549E+06
         1   11       2.32623507E-02  3.03787191E-01  1.30507776E+06  1.00789099E-12  1.30507806E+06
         1   13       2.57135075E-03  2.55610629E-01  3.50566236E+05  4.64274203E-03  3.50566497E+05
         1   15       5.33314482E-03  3.50561823E+05  2.55603062E-01  3.76541327E+05  7.27103407E+05
         2    6       1.36687330E-04  1.40704082E-04  6.04480797E+02  1.96255526E-13  6.04480938E+02
         2    8       2.16509902E-02  4.39946129E-01  8.66708825E+05  5.25066008E-02  8.66709318E+05
         2   10       4.22293677E-02  8.66709866E+05  4.39946121E-01  8.23775183E+05  1.69048549E+06
         2   12       2.32623507E-02  3.03787191E-01  1.30507776E+06  1.00789099E-12  1.30507806E+06
         2   14       2.57135075E-03  2.55610629E-01  3.50566236E+05  4.64274203E-03  3.50566497E+05
         2   16       5.33314482E-03  3.50561823E+05  2.55603062E-01  3.76541327E+05  7.27103407E+05
         3    5       1.36682244E-04  6.04452950E+02  1.40701577E-04  1.69011611E-07  6.04453091E+02
         3    7       4.22291821E-02  8.66701684E+05  4.39943428E-01  8.23766413E+05  1.69046854E+06
         3    9       2.16508662E-02  4.39943619E-01  8.66703634E+05  5.25064358E-02  8.66704126E+05
         3   11       2.32625387E-02  1.30508506E+06  3.03787912E-01  2.86264837E-06  1.30508536E+06
         3   13       5.33326919E-03  3.50568090E+05  2.55607889E-01  3.76544635E+05  7.27112981E+05
         3   15       2.57128899E-03  2.55605622E-01  3.50560255E+05  4.64267120E-03  3.50560515E+05
         4    6       1.36682244E-04  6.04452950E+02  1.40701577E-04  1.69011611E-07  6.04453091E+02
         4    8       4.22291821E-02  8.66701684E+05  4.39943428E-01  8.23766413E+05  1.69046854E+06
         4   10       2.16508662E-02  4.39943619E-01  8.66703634E+05  5.25064358E-02  8.66704126E+05
         4   12       2.32625387E-02  1.30508506E+06  3.03787912E-01  2.86264837E-06  1.30508536E+06
         4   14       5.33326919E-03  3.50568090E+05  2.55607889E-01  3.76544635E+05  7.27112981E+05
         4   16       2.57128899E-03  2.55605622E-01  3.50560255E+05  4.64267120E-03  3.50560515E+05
         5    7       1.52035487E-02  2.71271931E+05  1.43500181E-02  5.25684602E-07  2.71271946E+05
         5    9       1.52037167E-02  1.43505393E-02  2.71276020E+05  1.13792049E-12  2.71276034E+05
         5   11       5.20494955E-02  3.18606412E-08  3.14023685E-14  1.51059030E+06  1.51059030E+06
         5   13       1.07806694E-03  9.88035637E+04  1.36305985E-02  3.07810779E-06  9.88035774E+04
         5   15       1.07804291E-03  1.36305177E-02  9.88023919E+04  2.74776221E-12  9.88024055E+04
         5   17       1.60853730E-02  1.40316532E-05  1.03418346E-11  7.00423421E+06  7.00423421E+06
         6    8       1.52035487E-02  2.71271931E+05  1.43500181E-02  5.25684602E-07  2.71271946E+05
         6   10       1.52037167E-02  1.43505393E-02  2.71276020E+05  1.13792049E-12  2.71276034E+05
         6   12       5.20494955E-02  3.18606412E-08  3.14023685E-14  1.51059030E+06  1.51059030E+06
         6   14       1.07806694E-03  9.88035637E+04  1.36305985E-02  3.07810779E-06  9.88035774E+04
         6   16       1.07804291E-03  1.36305177E-02  9.88023919E+04  2.74776221E-12  9.88024055E+04
         6   18       1.60853730E-02  1.40316532E-05  1.03418346E-11  7.00423421E+06  7.00423421E+06
         7   11       7.14306289E-03  9.66423971E+03  5.11240910E-04  3.56839146E-08  9.66424023E+03
         7   13       1.40240094E-03  1.85444595E+04  6.70762913E-03  2.15849648E+04  4.01294310E+04
         7   15       6.48120885E-04  6.70842229E-03  1.85461927E+04  4.31787144E-04  1.85461998E+04
         7   17       2.39497473E-01  6.63396187E+07  3.50933160E+00  4.24026783E-04  6.63396222E+07
         8   12       7.14306289E-03  9.66423971E+03  5.11240910E-04  3.56839146E-08  9.66424023E+03
         8   14       1.40240094E-03  1.85444595E+04  6.70762913E-03  2.15849648E+04  4.01294310E+04
         8   16       6.48120885E-04  6.70842229E-03  1.85461927E+04  4.31787144E-04  1.85461998E+04
         8   18       2.39497473E-01  6.63396187E+07  3.50933160E+00  4.24026783E-04  6.63396222E+07
         9   11       7.14298713E-03  5.11215838E-04  9.66399612E+03  4.95604278E-14  9.66399663E+03
         9   13       6.48087978E-04  6.70796816E-03  1.85448458E+04  4.31735121E-04  1.85448529E+04
         9   15       1.40255389E-03  1.85467912E+04  6.70855903E-03  2.15876317E+04  4.01344296E+04
         9   17       2.39498159E-01  3.50934949E+00  6.63397412E+07  4.43697650E-10  6.63397447E+07
        10   12       7.14298713E-03  5.11215838E-04  9.66399612E+03  4.95604278E-14  9.66399663E+03
        10   14       6.48087978E-04  6.70796816E-03  1.85448458E+04  4.31735121E-04  1.85448529E+04
        10   16       1.40255389E-03  1.85467912E+04  6.70855903E-03  2.15876317E+04  4.01344296E+04
        10   18       2.39498159E-01  3.50934949E+00  6.63397412E+07  4.43697650E-10  6.63397447E+07
        11   13       2.18315719E-03  3.82566799E+04  5.27778089E-03  7.18345339E-08  3.82566852E+04
        11   15       2.18328286E-03  5.27821814E-03  3.82597952E+04  2.86657158E-13  3.82598004E+04
        11   17       2.76934517E-01  2.74816603E-04  1.86389001E-10  6.63619586E+07  6.63619586E+07
        12   14       2.18315719E-03  3.82566799E+04  5.27778089E-03  7.18345339E-08  3.82566852E+04
        12   16       2.18328286E-03  5.27821814E-03  3.82597952E+04  2.86657158E-13  3.82598004E+04
        12   18       2.76934517E-01  2.74816603E-04  1.86389001E-10  6.63619586E+07  6.63619586E+07
        13   17       6.21349299E-02  7.92542813E+06  1.09336797E+00  6.01976283E-08  7.92542923E+06
        14   18       6.21349299E-02  7.92542813E+06  1.09336797E+00  6.01976283E-08  7.92542923E+06
        15   17       6.21341816E-02  1.09334567E+00  7.92526258E+06  4.03694327E-14  7.92526367E+06
        16   18       6.21341816E-02  1.09334567E+00  7.92526258E+06  4.03694327E-14  7.92526367E+06
     -----------------------------------------------------------------------------------------------
--

++ Length and velocity gauge comparison (SO states):

 --------------------------------------------------
 A comparison between the dipole oscillator strengths in 
 length and velocity gauge will be performed

 All dipole oscillator differences above the tolerance of   0.10000000000000001       will be printed 

 Due to basis set deficiency these oscillator may be problematic 

 The tolerance is defined as ABS(1-O_l/O_v) 
 O_l : dipole oscillator strength in length gauge
 O_p : dipole oscillator strength in velocity gauge
 --------------------------------------------------

  Problematic transitions have been found

      From   To       Difference (%) Osc. st. (len.) Osc. st. (vel.)
     ---------------------------------------------------------------
         1    5           247.486455  4.74969956E-04  1.36687330E-04
         1    7            37.671662  1.34947023E-02  2.16509902E-02
         1    9            35.931090  2.70558954E-02  4.22293677E-02
         1   11            40.115162  1.39306210E-02  2.32623507E-02
         1   13            44.746288  1.42076675E-03  2.57135075E-03
         1   15            55.124003  2.39330193E-03  5.33314482E-03
         1   17      ---------------  2.43119584E-05 below threshold
         2    6           247.486455  4.74969956E-04  1.36687330E-04
         2    8            37.671662  1.34947023E-02  2.16509902E-02
         2   10            35.931090  2.70558954E-02  4.22293677E-02
         2   12            40.115162  1.39306210E-02  2.32623507E-02
         2   14            44.746288  1.42076675E-03  2.57135075E-03
         2   16            55.124003  2.39330193E-03  5.33314482E-03
         2   18      ---------------  2.43119584E-05 below threshold
         3    5           247.496400  4.74965879E-04  1.36682244E-04
         3    7            35.931091  2.70557761E-02  4.22291821E-02
         3    9            37.671683  1.34946204E-02  2.16508662E-02
         3   11            40.115144  1.39307379E-02  2.32625387E-02
         3   13            55.123583  2.39338015E-03  5.33326919E-03
         3   15            44.746659  1.42072307E-03  2.57128899E-03
         3   17      ---------------  2.43120140E-05 below threshold
         4    6           247.496400  4.74965879E-04  1.36682244E-04
         4    8            35.931091  2.70557761E-02  4.22291821E-02
         4   10            37.671683  1.34946204E-02  2.16508662E-02
         4   12            40.115144  1.39307379E-02  2.32625387E-02
         4   14            55.123583  2.39338015E-03  5.33326919E-03
         4   16            44.746659  1.42072307E-03  2.57128899E-03
         4   18      ---------------  2.43120140E-05 below threshold
         5    7            39.482946  9.20073979E-03  1.52035487E-02
         5    9            39.482980  9.20083627E-03  1.52037167E-02
         5   11            62.334318  1.96047973E-02  5.20494955E-02
         5   13            86.302202  1.47671435E-04  1.07806694E-03
         5   15            86.302516  1.47664751E-04  1.07804291E-03
         5   17            25.150811  1.20397712E-02  1.60853730E-02
         6    8            39.482946  9.20073979E-03  1.52035487E-02
         6   10            39.482980  9.20083627E-03  1.52037167E-02
         6   12            62.334318  1.96047973E-02  5.20494955E-02
         6   14            86.302202  1.47671435E-04  1.07806694E-03
         6   16            86.302516  1.47664751E-04  1.07804291E-03
         6   18            25.150811  1.20397712E-02  1.60853730E-02
         7   11            91.116457  6.34557061E-04  7.14306289E-03
         7   13          1097.281194  1.67906827E-02  1.40240094E-03
         7   15          1097.412147  7.76067820E-03  6.48120885E-04
         7   17            41.783362  1.39427377E-01  2.39497473E-01
         8   12            91.116457  6.34557061E-04  7.14306289E-03
         8   14          1097.281194  1.67906827E-02  1.40240094E-03
         8   16          1097.412147  7.76067820E-03  6.48120885E-04
         8   18            41.783362  1.39427377E-01  2.39497473E-01
         9   11            91.116427  6.34552504E-04  7.14298713E-03
         9   13          1097.469105  7.76065331E-03  6.48087978E-04
         9   15          1097.173862  1.67910086E-02  1.40255389E-03
         9   17            41.783387  1.39427716E-01  2.39498159E-01
        10   12            91.116427  6.34552504E-04  7.14298713E-03
        10   14          1097.469105  7.76065331E-03  6.48087978E-04
        10   16          1097.173862  1.67910086E-02  1.40255389E-03
        10   18            41.783387  1.39427716E-01  2.39498159E-01
        11   13           381.375988  1.05091945E-02  2.18315719E-03
        11   15           381.359234  1.05094336E-02  2.18328286E-03
        11   17            45.721226  1.50316662E-01  2.76934517E-01
        12   14           381.375988  1.05091945E-02  2.18315719E-03
        12   16           381.359234  1.05094336E-02  2.18328286E-03
        12   18            45.721226  1.50316662E-01  2.76934517E-01
        13   17            54.602199  2.82078920E-02  6.21349299E-02
        14   18            54.602199  2.82078920E-02  6.21349299E-02
        15   17            54.602350  2.82074581E-02  6.21341816E-02
        16   18            54.602350  2.82074581E-02  6.21341816E-02
     ---------------------------------------------------------------

 Number of problematic transitions =                    66

--

 Electric-dipole - electric-octupole not included
++ I/O STATISTICS
 
  I. General I/O information
  - - - - - - - - - - - - - - - - - - - - - - - - - - - - - - - - - - - - - - - - - - -
  Unit  Name          Flsize      Write/Read            MBytes           Write/Read
                      (MBytes)       Calls              In/Out           Time, sec.
  - - - - - - - - - - - - - - - - - - - - - - - - - - - - - - - - - - - - - - - - - - -
   1  SCRATCH           0.00 .       9/      45 .      0.0/      0.0 .       0/       0
   2  ANNI              0.00 .       0/       0 .      0.0/      0.0 .       0/       0
   3  RUNFILE          15.28 .     322/   10733 .      2.3/     77.8 .       0/       0
   4  ONEINT            6.58 .       0/   28767 .      0.0/   3777.9 .       0/       0
   5  JOBIPH            7.71 .       0/      92 .      0.0/      0.9 .       0/       0
   6  ORDINT          771.03 .       1/    6169 .      0.0/   1542.0 .       0/       0
  - - - - - - - - - - - - - - - - - - - - - - - - - - - - - - - - - - - - - - - - - - -
   *  TOTAL           800.61 .     332/   45806 .      2.3/   5398.7 .       0/       0
  - - - - - - - - - - - - - - - - - - - - - - - - - - - - - - - - - - - - - - - - - - -
 
  II. I/O Access Patterns
  - - - - - - - - - - - - - - - - - - - -
  Unit  Name               % of random
                         Write/Read calls
  - - - - - - - - - - - - - - - - - - - -
   1  SCRATCH             88.9/ 100.0
   2  ANNI                 0.0/   0.0
   3  RUNFILE             28.6/  10.8
   4  ONEINT               0.0/  13.4
   5  JOBIPH               0.0/  76.1
   6  ORDINT             100.0/   0.0
  - - - - - - - - - - - - - - - - - - - -
--
--- Stop Module: rassi at Thu Jan  9 20:45:37 2025 /rc=_RC_ALL_IS_WELL_ ---
*** files: xmldump
    saved to directory /home4/s4752295/Internship/Initial_simulations/Point_charge_model/1_electron/active_space_9_non_rel/Ta/varying_bond_length
--- Module rassi spent 4 seconds ---

.##################.
.# Happy landing! #.
.##################.

    Timing: Wall=132.04 User=103.56 System=23.94

###############################################################################
Hbrk Cluster
Job 14549867 for user s4752295
Finished at: Thu Jan  9 20:45:38 CET 2025

Job details:
============

Job ID                         : 14549867
Name                           : Ta_no_c_light
User                           : s4752295
Partition                      : regularmedium
Nodes                          : node80
Number of Nodes                : 1
Cores                          : 1
Number of Tasks                : 1
State                          : RUNNING  
Submit                         : 2025-01-09T20:43:20
Start                          : 2025-01-09T20:43:21
End                            : --
Reserved walltime              : 15:00:00
Used walltime                  : 00:02:17
Used CPU time                  : -- 
% User (Computation)           : --
% System (I/O)                 : --
Total memory reserved          : 25000M
Maximum memory used            : --

Acknowledgements:
=================

Please see this page for information about acknowledging Hbrk in your publications:

https://wiki.hpc.rug.nl/habrok/introduction/scientific_output

################################################################################
