   This run of MOLCAS is using the pymolcas driver

                             OPE
                             OPE          NMOL  CASOP  ENMOLC A   SO
                 OPE        NMOLC        AS  OP EN  MO LC     AS  OP
                OPENM       OL CA        SO  PE NM  OL CA     SOP EN
                OP EN      MO   LC       AS  OP ENMOL  CASO   PENMOL
                OP  EN     MO   LC       AS  OP EN     MO     LC ASO
               OP   E  NMOL  C  AS       OP  EN MO     LC     AS  OP
               OP  E   NMO   LC AS        OPEN  MO     LCASOP EN   M
               O  PEN   MO  LCA  SO
            OPE   NMO   L   CAS    OP
        OPENMOL  CASOP     ENMOL   CASOPE
     OPENMOLCA   SOPENMOLCASOPEN   MOLCASOPE
    OPENMOLCAS   OP           EN   MOL    CAS
    OPENMOLCAS       OP  ENM        O     LCA
    OPENMOLCAS    OPEN  MOLCASO     P  E  NMO
    OPENMOLCAS     OP               E  N  MOL
    OPENMOLCA   SO           PENM   O  L  CAS    OPEN    MO    LCAS
    OPENMOLCA   SOP           ENM   O  L  CAS   OP  EN  MOLC  AS   O
    OPENMOLCA   SOPE           NM      O  LCA   S      OP  EN MO
    OPENMOLC                AS         O  PEN   M      OL  CA  SOPE
    OPENMO        LCASOPE  NMOL        C  ASO   P      ENMOLC     AS
    OPE     NMO      LCA  SO     P     E   NM   OL  CA SO  PE N   MO
          OPENMOLCA            SOPE   NMO        LCAS  O    P  ENMO
     OPENMOLCASOPENMOLCASOPENMOLCASOPENMOLCA
        OPENMOLCASOPENMOLCASOPENMOLCASOPE
            OPENMOLCASOPENMOLCASOPENM
               OPENMOLCASOPENMOLCA        version: o91e1abe7de707b ?
                   OPENMOLCASO
                       OPE                tag:

 OpenMolcas is free software; you can redistribute it and/or modify it
 under the terms of the GNU Lesser General Public License version 2.1.
 OpenMolcas is distributed in the hope that it will be useful, but it
 is provided "as is" and without any express or implied warranties.
 For more details see the full text of the license in the file
 LICENSE or in <http://www.gnu.org/licenses/>.

                 Copyright (C) The OpenMolcas Authors
           For the author list and the recommended citation,
                   consult the file CONTRIBUTORS.md

           *************************************************
           * pymolcas version py2.10                       *
           *   build 3068ae8b88c9345ec6cfef6fef7f1169      *
           *   (after the EMIL interpreter by V. Veryazov) *
           *************************************************

configuration info
------------------
Host name: login1 (Linux)
C Compiler ID: GNU
C flags: -std=gnu99
Fortran Compiler ID: GNU
Fortran flags: -fno-aggressive-loop-optimizations -cpp -fdefault-integer-8 -fmax-stack-var-size=1048576
Definitions: _MOLCAS_;_I8_;_LINUX_;_MKL_
Parallel: OFF (GA=OFF)


   ----------------------------------------------------------------------------------------------------------------------------------------------
  |
  |           Project: tantalum_so_cf
  |    Submitted from: /home4/s4752295/Internship/Initial_simulations/Point_charge_model/1_electron/active_space_9_non_rel/Ta/varying_bond_length
  |      Scratch area: /tmp/tantalum_so_cf
  |   Save outputs to: /home4/s4752295/Internship/Initial_simulations/Point_charge_model/1_electron/active_space_9_non_rel/Ta/varying_bond_length
  |            Molcas: /home4/s4752295/Internship/Molcas/recomp_try/OpenMolcas-master/build
  |
  | Scratch area is empty
  |
  |    MOLCAS_DRIVER = /home4/s4752295/Internship/Molcas/bin/pymolcas
  |    MOLCAS_NPROCS = 1
  |    MOLCAS_SOURCE = /home4/s4752295/Internship/Molcas/recomp_try/OpenMolcas-master
  | MOLCAS_STRUCTURE = 0
  |
   ----------------------------------------------------------------------------------------------------------------------------------------------

++ ---------   Input file   ---------

&SEWARD
AMFi

CLIG
$R

Basis Set
Ta.ANO-rcc.Roos.24s21p15d11f4g2h.11s10p9d8f4g2h.
Spherical d
Ta            0.0       0.0     0.0
End of Basis

Xfield
4
0.000000,  0.0000,  0.378       -1.0
0.327358,  0.0000, -0.189       -1.0
-0.163679,  0.2835, -0.189      -1.0
-0.163679, -0.2835, -0.189      -1.0

End of input

&SCF
Occupied
34
Iterations
   50  100
End of Input

&RASSCF
LumOrb
Symmetry
1
Spin
2
Nactel
1 0 0
CIRoot
9 9 1
inactive
34
ras2
9
Alter
4
1 35 40
1 36 41
1 37 42
1 38 43
End of Input

>>> COPY tantalum_so_cf.JobIph $SLURM_SUBMIT_DIR/tantalum_so_cf.doublet.JobIph

>>> COPY $SLURM_SUBMIT_DIR/tantalum_so_cf.doublet.JobIph ./JOB002

&RASSI
NROFJobIph
1 All
SpinOrbit
End of Input

EOF

-- ----------------------------------

--- Start Module: seward at Thu Jan  9 20:22:20 2025 ---

()()()()()()()()()()()()()()()()()()()()()()()()()()()()()()()()()()()()()()()()()()()()()()()()()()

                                              &SEWARD

                                   only a single process is used
                       available to each process: 4.1 GB of memory, 1 thread?
                                            pid: 1280793
()()()()()()()()()()()()()()()()()()()()()()()()()()()()()()()()()()()()()()()()()()()()()()()()()()

 The speed of LIGHT in this CALCULATION =   137.03599917700001     
               SEWARD will generate:
                  Multipole Moment integrals up to order  2
                  Kinetic Energy integrals
                  Nuclear Attraction integrals (point charge)
                  One-Electron Hamiltonian integrals
                  Velocity integrals
                  Relativistic Douglas-Kroll-Hess integrals:
                    - Parametrization         : EXP
                    - DKH order of Hamiltonian: 2
                    - DKH order of Properties : 0
                         - multipole moment operators
                         - electric potential operators
                         - contact operators
                  External field from     4 point(s) added to the one-electron Hamiltonian
                  Orbital angular momentum around ( 0.0000  0.0000  0.0000 )
                  Velocity quadrupole around ( 0.0000  0.0000  0.0000 )
                  Atomic mean-field integrals
                  Two-Electron Repulsion integrals

                   Integrals are discarded if absolute value <: 0.10E-13
                   Integral cutoff threshold is set to       <: 0.10E-15

++    Symmetry information:
      ---------------------

                    Character Table for C1 

                             E  
                    a        1  x, y, xy, Rz, z, xz, Ry, yz, Rx, I
--


++    Basis set information:
      ----------------------


      Basis set label: TA.ANO-RCC.ROOS.24S21P15D11F4G2H.11S10P9D8F4G2H......

      Electronic valence basis set:
      ------------------
      Associated Effective Charge  73.000000 au
      Associated Actual Charge     73.000000 au
      Nuclear Model: Point charge

      Shell  nPrim  nBasis  Cartesian Spherical Contaminant
         s      24      11        X                  
         p      21      10        X                  
         d      15       9                 X         
         f      11       8                 X         
         g       4       4                 X         
         h       2       2                 X         
--


++    Molecular structure info:
      -------------------------

                    ************************************************ 
                    **** Cartesian Coordinates / Bohr, Angstrom **** 
                    ************************************************ 

     Center  Label                x              y              z                     x              y              z
        1      TA               0.000000       0.000000       0.000000              0.000000       0.000000       0.000000
--


++    Operator info:
      --------------


  Net charge from external field:   -4.0000000000000000     
--


            Nuclear Potential Energy              0.00000000 au

                    Nuclear-External Field Potential Energy    -772.48650876 au
                    External Field Potential Energy               9.87314638 au 


            Total Nuclear Potential Energy           -772.48650876 au


      Basis set specifications :
      Symmetry species         a  
      Basis functions          200

 Sorry, Molden does not know how to handle
 functions with angular momentum larger than g
Note: The following floating-point exceptions are signalling: IEEE_UNDERFLOW_FLAG IEEE_DENORMAL
--- Stop Module: seward at Thu Jan  9 20:22:44 2025 /rc=_RC_ALL_IS_WELL_ ---
*** files: tantalum_so_cf.GssOrb xmldump
    saved to directory /home4/s4752295/Internship/Initial_simulations/Point_charge_model/1_electron/active_space_9_non_rel/Ta/varying_bond_length
--- Module seward spent 23 seconds ---

*** symbolic link created: INPORB -> tantalum_so_cf.GssOrb
--- Start Module: scf at Thu Jan  9 20:22:44 2025 ---

()()()()()()()()()()()()()()()()()()()()()()()()()()()()()()()()()()()()()()()()()()()()()()()()()()

                                                &SCF

                                   only a single process is used
                       available to each process: 4.1 GB of memory, 1 thread?
                                            pid: 1280800
()()()()()()()()()()()()()()()()()()()()()()()()()()()()()()()()()()()()()()()()()()()()()()()()()()

++    Input section:
      --------------

      Header of the integral files:
      
       Integrals generated by seward 4.2.0  , Thu Jan  9 20:22:21 2025


      Cartesian coordinates in Angstrom:
      -----------------------------------------------------
      No.  Label        X            Y            Z        
      -----------------------------------------------------
       1   TA         0.00000000   0.00000000   0.00000000
      -----------------------------------------------------
      Nuclear repulsion energy = -772.48650876
--

++    Orbital specifications:
      -----------------------

      Symmetry species               1
                                     a
      Frozen orbitals                0
      Occupied orbitals             34
      Secondary orbitals           166
      Deleted orbitals               0
      Total number of orbitals     200
      Number of basis functions    200
--

      Molecular charge                           5.000

++    Optimization specifications:
      ----------------------------

      SCF Algorithm: Conventional
      Minimized density differences are used
      Number of density matrices in core                5
      Maximum number of NDDO SCF iterations            50
      Maximum number of HF SCF iterations             100
      Threshold for SCF energy change            0.10E-08
      Threshold for density matrix               0.10E-03
      Threshold for Fock matrix                  0.15E-03
      Threshold for linear dependence            0.10E-08
      Threshold at which DIIS is turned on       0.15E+00
      Threshold at which QNR/C2DIIS is turned on 0.75E-01
      Threshold for Norm(delta) (QNR/C2DIIS)     0.20E-04
      DIIS extrapolation of the SCF procedure
      All orbitals punched on: SCFORB
--

      Detected guessorb starting orbitals                                             


++ Convergence information
                                   SCF        iterations: Energy and convergence statistics

Iter     Tot. SCF        One-elec.       Two-elec.     Energy      Max Dij or  Max Fij      DNorm      TNorm      AccCon     Time
         Energy          Energy          Energy        Change      Delta Norm                                                in Sec.

 The total and one-electron energies are shifted by a value of     15000. a.u.

   1  -784.709654354 -5664.972684335  5652.749538740   0.00E+00    0.50E+00*   0.14E+01*    0.12E+02   0.15E+04   None         2.
   2  -695.081081027 -4130.573713904  4207.979141636   0.90E+02*   0.47E+00*   0.57E+00*    0.88E+01   0.13E+04   EDIIS        1.
   3  -791.513618231 -5057.654351815  5038.627242344  -0.96E+02*   0.31E+00*   0.49E+00*    0.55E+01   0.14E+04   EDIIS        1.
   4  -796.797994016 -5387.300035245  5362.988549988  -0.53E+01*   0.27E+00*   0.22E+00*    0.22E+01   0.14E+04   EDIIS        2.
   5  -796.692698497 -5221.897684968  5197.691495231   0.11E+00*   0.15E+00*   0.12E+00*    0.80E+00   0.14E+04   EDIIS        2.
   6  -797.407206472 -5312.218111130  5287.297413417  -0.71E+00*   0.66E-01*   0.31E-01*    0.35E+00   0.14E+04   EDIIS        2.
   7  -797.415070398 -5308.210885270  5283.282323632  -0.79E-02*   0.25E-01*   0.13E-01*    0.87E-01   0.14E+04   EDIIS        1.
   8  -797.415917693 -5314.988995877  5290.059586944  -0.85E-03*   0.23E-01*   0.53E-02*    0.49E-01   0.14E+04   c2DIIS       1.
   9  -797.417918987 -5311.536508633  5286.605098405  -0.20E-02*   0.18E-01*   0.55E-02*    0.10E-01   0.14E+04   QNRc2DIIS    2.
  10  -797.418322633 -5308.507521014  5283.575707140  -0.40E-03*   0.19E-01*   0.91E-02*    0.64E-02   0.14E+04   QNRc2DIIS    2.
  11  -797.419076249 -5309.973273148  5285.040705659  -0.75E-03*   0.14E-01*   0.25E-02*    0.20E-02   0.14E+04   QNRc2DIIS    1.
  12  -797.419224558 -5310.283441715  5285.350725917  -0.15E-03*   0.97E-02*   0.12E-02*    0.39E-02   0.14E+04   QNRc2DIIS    1.
  13  -797.419250243 -5310.301421280  5285.368679796  -0.26E-04*   0.29E-02*   0.13E-02*    0.45E-02   0.14E+04   QNRc2DIIS    1.
  14  -797.419272319 -5310.222940739  5285.290177179  -0.22E-04*   0.19E-02*   0.24E-03*    0.19E-02   0.14E+04   QNRc2DIIS    2.
  15  -797.419275306 -5310.205937183  5285.273170636  -0.30E-05*   0.95E-03*   0.94E-04     0.11E-02   0.14E+04   QNRc2DIIS    2.
  16  -797.419275685 -5310.208859482  5285.276092556  -0.38E-06*   0.33E-03*   0.36E-04     0.50E-03   0.14E+04   QNRc2DIIS    1.
  17  -797.419275753 -5310.209997773  5285.277230779  -0.69E-07*   0.21E-03*   0.25E-04     0.35E-03   0.14E+04   QNRc2DIIS    1.
  18  -797.419275777 -5310.209705048  5285.276938030  -0.24E-07*   0.86E-04*   0.16E-04     0.22E-03   0.14E+04   QNRc2DIIS    1.
  19  -797.419275785 -5310.209421372  5285.276654346  -0.79E-08*   0.20E-03*   0.14E-04     0.10E-03   0.14E+04   QNRc2DIIS    2.
  20  -797.419275799 -5310.209263628  5285.276496589  -0.13E-07*   0.73E-04*   0.75E-05     0.24E-03   0.14E+04   QNRc2DIIS    2.
  21  -797.419275802 -5310.209622409  5285.276855366  -0.31E-08*   0.36E-04*   0.35E-05     0.20E-03   0.14E+04   QNRc2DIIS    1.
  22  -797.419275802 -5310.209606944  5285.276839901  -0.68E-09    0.15E-04    0.18E-05     0.40E-04   0.14E+04   QNRc2DIIS    1.

       Convergence after 22 Macro Iterations
--

 *****************************************************************************************************************************
 *                                                                                                                           *
 *                                             SCF/KS-DFT Program, Final results                                             *
 *                                                                                                                           *
 *                                                                                                                           *
 *                                                                                                                           *
 *                                                       Final Results                                                       *
 *                                                                                                                           *
 *****************************************************************************************************************************

::    Total SCF energy                             -15797.4192758024
      One-electron energy                          -20310.2096069441
      Two-electron energy                            5285.2768399010
      Nuclear repulsion energy                       -772.4865087592
      Kinetic energy (interpolated)                 21442.7507885819
      Virial theorem                                    0.7367254058
      Total spin, S(S+1)                                0.0000000000
      Total spin, S                                     0.0000000000
      Max non-diagonal density matrix element           0.0000196930
      Max non-diagonal Fock matrix element              0.0000022944


      All orbitals with orbital energies smaller than  E(LUMO)+0.5 are printed

++    Molecular orbitals:
      -------------------

      Title: SCF orbitals

      Molecular orbitals for symmetry species 1: a  

          Some orbital energies have been scaled by powers of 10, the power is written right after the orbital index


          Orbital            1 (1)     2         3         4         5         6         7         8         9        10    
          Energy         -248.5789 -432.3104 -380.2355 -380.2355 -380.2140 -100.6751  -84.8554  -84.8554  -84.6187  -65.7497
          Occ. No.          2.0000    2.0000    2.0000    2.0000    2.0000    2.0000    2.0000    2.0000    2.0000    2.0000

        1 TA     1s         1.0000    0.0000    0.0000    0.0000   -0.0000   -0.0000    0.0000   -0.0000    0.0000    0.0000
        2 TA     2s        -0.0000    1.0000    0.0000    0.0000   -0.0015    0.0002    0.0000    0.0000   -0.0001   -0.0000
        3 TA     3s         0.0000   -0.0002    0.0000   -0.0000    0.0001    0.9999   -0.0000    0.0000   -0.0147    0.0000
        4 TA     4s        -0.0000    0.0000   -0.0000    0.0000   -0.0000   -0.0031    0.0000    0.0000    0.0012    0.0000
        5 TA     5s         0.0000   -0.0000    0.0000   -0.0000    0.0000    0.0010   -0.0000   -0.0000   -0.0004   -0.0000
        6 TA     6s        -0.0000    0.0000   -0.0000    0.0000   -0.0000   -0.0003    0.0000    0.0000    0.0001    0.0000
        7 TA     7s         0.0000   -0.0000    0.0000   -0.0000    0.0000    0.0004   -0.0000    0.0000   -0.0002   -0.0000
        8 TA     8s        -0.0000    0.0000   -0.0000    0.0000   -0.0000   -0.0010   -0.0000   -0.0000    0.0003    0.0000
        9 TA     9s         0.0000   -0.0000    0.0000   -0.0000    0.0000    0.0011    0.0000    0.0000   -0.0004   -0.0000
       10 TA    10s        -0.0000    0.0000   -0.0000    0.0000   -0.0000   -0.0007   -0.0000   -0.0000    0.0002    0.0000
       11 TA    11s         0.0000   -0.0000    0.0000   -0.0000    0.0000    0.0012    0.0000    0.0000   -0.0004   -0.0000
       12 TA     2px        0.0000    0.0000    0.9286   -0.3710    0.0000   -0.0000   -0.0001   -0.0002    0.0000    0.0000
       13 TA     3px       -0.0000    0.0000   -0.0002    0.0001   -0.0000    0.0000   -0.5798   -0.8144    0.0000    0.0000
       14 TA     4px        0.0000   -0.0000    0.0000   -0.0000    0.0000   -0.0000    0.0018    0.0025   -0.0000    0.0001
       15 TA     5px       -0.0000    0.0000   -0.0000    0.0000   -0.0000   -0.0000   -0.0005   -0.0007    0.0000   -0.0000
       16 TA     6px        0.0000   -0.0000    0.0000   -0.0000    0.0000    0.0000    0.0002    0.0003   -0.0000    0.0000
       17 TA     7px       -0.0000    0.0000   -0.0000    0.0000   -0.0000   -0.0000   -0.0007   -0.0009    0.0000   -0.0000
       18 TA     8px        0.0000   -0.0000    0.0000   -0.0000    0.0000    0.0000    0.0006    0.0009   -0.0000    0.0000
       19 TA     9px       -0.0000    0.0000   -0.0000    0.0000   -0.0000   -0.0000   -0.0006   -0.0008    0.0000   -0.0000
       20 TA    10px        0.0000   -0.0000    0.0000   -0.0000    0.0000    0.0000    0.0006    0.0008   -0.0000    0.0000
       21 TA    11px       -0.0000    0.0000   -0.0000    0.0000   -0.0000   -0.0000   -0.0005   -0.0007    0.0000   -0.0000
       22 TA     2py        0.0000    0.0000   -0.3710   -0.9286    0.0000   -0.0000    0.0002   -0.0001    0.0000    0.0001
       23 TA     3py       -0.0000    0.0000    0.0001    0.0002   -0.0000    0.0000    0.8144   -0.5798    0.0000    0.0003
       24 TA     4py        0.0000   -0.0000   -0.0000   -0.0000    0.0000    0.0000   -0.0025    0.0018   -0.0000    0.0006
       25 TA     5py       -0.0000    0.0000    0.0000    0.0000   -0.0000   -0.0000    0.0007   -0.0005    0.0000   -0.0002
       26 TA     6py        0.0000   -0.0000   -0.0000   -0.0000    0.0000    0.0000   -0.0003    0.0002   -0.0000    0.0001
       27 TA     7py       -0.0000    0.0000    0.0000    0.0000   -0.0000   -0.0000    0.0009   -0.0007    0.0000   -0.0002
       28 TA     8py        0.0000   -0.0000   -0.0000   -0.0000    0.0000    0.0000   -0.0009    0.0006   -0.0000    0.0002
       29 TA     9py       -0.0000    0.0000    0.0000    0.0000   -0.0000   -0.0000    0.0008   -0.0006    0.0000   -0.0002
       30 TA    10py        0.0000   -0.0000   -0.0000   -0.0000    0.0000    0.0000   -0.0008    0.0006   -0.0000    0.0001
       31 TA    11py       -0.0000    0.0000    0.0000    0.0000   -0.0000   -0.0000    0.0007   -0.0005    0.0000   -0.0001
       32 TA     2pz        0.0000    0.0015   -0.0000    0.0000    1.0000   -0.0001    0.0000    0.0000    0.0003    0.0000
       33 TA     3pz       -0.0000    0.0001    0.0000   -0.0000   -0.0003    0.0146    0.0000    0.0000    0.9998    0.0000
       34 TA     4pz        0.0000   -0.0000   -0.0000    0.0000    0.0001    0.0006   -0.0000   -0.0000   -0.0047   -0.0000
       35 TA     5pz       -0.0000    0.0000    0.0000   -0.0000   -0.0000   -0.0002    0.0000    0.0000    0.0014   -0.0000
       36 TA     6pz        0.0000   -0.0000   -0.0000    0.0000    0.0000    0.0001   -0.0000   -0.0000   -0.0006   -0.0000
       37 TA     7pz       -0.0000    0.0000    0.0000   -0.0000   -0.0000   -0.0003    0.0000    0.0000    0.0018    0.0000
       38 TA     8pz        0.0000   -0.0000   -0.0000    0.0000    0.0000    0.0002   -0.0000   -0.0000   -0.0017   -0.0000
       39 TA     9pz       -0.0000    0.0000    0.0000   -0.0000   -0.0000   -0.0002    0.0000    0.0000    0.0015    0.0000
       40 TA    10pz        0.0000   -0.0000   -0.0000    0.0000    0.0000    0.0002   -0.0000   -0.0000   -0.0015   -0.0000
       41 TA    11pz       -0.0000    0.0000    0.0000   -0.0000   -0.0000   -0.0003    0.0000    0.0000    0.0013    0.0000
       42 TA     3d2-      -0.0000   -0.0000   -0.0000   -0.0001   -0.0000   -0.0000    0.0090   -0.0064    0.0000    0.8547
       43 TA     4d2-       0.0000    0.0000    0.0000    0.0000   -0.0000   -0.0000    0.0017   -0.0012    0.0000   -0.0018
       44 TA     5d2-      -0.0000   -0.0000   -0.0000   -0.0000    0.0000    0.0000   -0.0003    0.0002   -0.0000    0.0003
       45 TA     6d2-       0.0000    0.0000    0.0000    0.0000   -0.0000   -0.0000    0.0005   -0.0004    0.0000   -0.0005
       46 TA     7d2-      -0.0000   -0.0000   -0.0000   -0.0000    0.0000    0.0000   -0.0006    0.0004   -0.0000    0.0006
       47 TA     8d2-       0.0000    0.0000    0.0000    0.0000   -0.0000   -0.0000    0.0008   -0.0006    0.0000   -0.0008
       48 TA     9d2-      -0.0000   -0.0000   -0.0000   -0.0000    0.0000    0.0000   -0.0007    0.0005   -0.0000    0.0007
       49 TA    10d2-       0.0000    0.0000    0.0000    0.0000   -0.0000   -0.0000    0.0007   -0.0005    0.0000   -0.0008
       50 TA    11d2-      -0.0000   -0.0000   -0.0000   -0.0000    0.0000    0.0000   -0.0002    0.0002   -0.0000    0.0004
       51 TA     3d1-      -0.0000   -0.0000   -0.0001   -0.0002    0.0000   -0.0000    0.0154   -0.0110    0.0000   -0.5113
       52 TA     4d1-       0.0000    0.0000    0.0000    0.0001   -0.0000   -0.0000    0.0022   -0.0016    0.0000    0.0006
       53 TA     5d1-      -0.0000   -0.0000   -0.0000   -0.0000    0.0000    0.0000   -0.0004    0.0003   -0.0000   -0.0001
       54 TA     6d1-       0.0000    0.0000    0.0000    0.0000   -0.0000   -0.0000    0.0007   -0.0005    0.0000    0.0002
       55 TA     7d1-      -0.0000   -0.0000   -0.0000   -0.0000    0.0000    0.0000   -0.0008    0.0006   -0.0000   -0.0002
       56 TA     8d1-       0.0000    0.0000    0.0000    0.0000   -0.0000   -0.0000    0.0011   -0.0008    0.0000    0.0003
       57 TA     9d1-      -0.0000   -0.0000   -0.0000   -0.0000    0.0000    0.0000   -0.0009    0.0006   -0.0000   -0.0002
       58 TA    10d1-       0.0000    0.0000    0.0000    0.0000   -0.0000   -0.0000    0.0010   -0.0007    0.0000    0.0003
       59 TA    11d1-      -0.0000   -0.0000   -0.0000   -0.0000    0.0000    0.0000   -0.0004    0.0003   -0.0000   -0.0003
       60 TA     3d0       -0.0000   -0.0001   -0.0000    0.0000    0.0001   -0.0041   -0.0000   -0.0000   -0.0085    0.0000
       61 TA     4d0        0.0000    0.0000    0.0000   -0.0000   -0.0000   -0.0009   -0.0000   -0.0000   -0.0025   -0.0000
       62 TA     5d0       -0.0000   -0.0000   -0.0000    0.0000    0.0000    0.0002    0.0000    0.0000    0.0005    0.0000
       63 TA     6d0        0.0000    0.0000    0.0000   -0.0000   -0.0000   -0.0003   -0.0000   -0.0000   -0.0008   -0.0000
       64 TA     7d0       -0.0000   -0.0000   -0.0000    0.0000    0.0000    0.0004    0.0000    0.0000    0.0009    0.0000
       65 TA     8d0        0.0000    0.0000    0.0000   -0.0000   -0.0000   -0.0005   -0.0000   -0.0000   -0.0012   -0.0000
       66 TA     9d0       -0.0000   -0.0000   -0.0000    0.0000    0.0000    0.0004    0.0000    0.0000    0.0010    0.0000
       67 TA    10d0        0.0000    0.0000    0.0000   -0.0000   -0.0000   -0.0005   -0.0000   -0.0000   -0.0011   -0.0000
       68 TA    11d0       -0.0000   -0.0000   -0.0000    0.0000    0.0001    0.0002   -0.0000   -0.0000    0.0001    0.0000
       69 TA     3d1+      -0.0000   -0.0000    0.0002   -0.0001    0.0000   -0.0000   -0.0110   -0.0154    0.0000   -0.0460
       70 TA     4d1+       0.0000    0.0000   -0.0001    0.0000   -0.0000   -0.0000   -0.0016   -0.0022    0.0000    0.0001
       71 TA     5d1+      -0.0000   -0.0000    0.0000   -0.0000    0.0000    0.0000    0.0003    0.0004   -0.0000   -0.0000
       72 TA     6d1+       0.0000    0.0000   -0.0000    0.0000   -0.0000   -0.0000   -0.0005   -0.0007    0.0000    0.0000
       73 TA     7d1+      -0.0000   -0.0000    0.0000   -0.0000    0.0000    0.0000    0.0006    0.0008   -0.0000   -0.0000
       74 TA     8d1+       0.0000    0.0000   -0.0000    0.0000   -0.0000   -0.0000   -0.0008   -0.0011    0.0000    0.0000
       75 TA     9d1+      -0.0000   -0.0000    0.0000   -0.0000    0.0000    0.0000    0.0006    0.0009   -0.0000   -0.0000
       76 TA    10d1+       0.0000    0.0000   -0.0000    0.0000   -0.0000   -0.0000   -0.0007   -0.0010    0.0000    0.0000
       77 TA    11d1+      -0.0000   -0.0000    0.0000   -0.0000    0.0000    0.0000    0.0003    0.0004   -0.0000   -0.0000
       78 TA     3d2+       0.0000    0.0000   -0.0001    0.0000   -0.0000   -0.0000    0.0064    0.0090   -0.0000   -0.0769
       79 TA     4d2+      -0.0000   -0.0000    0.0000   -0.0000    0.0000   -0.0000    0.0012    0.0017   -0.0000    0.0002
       80 TA     5d2+       0.0000    0.0000   -0.0000    0.0000   -0.0000    0.0000   -0.0002   -0.0003    0.0000   -0.0000
       81 TA     6d2+      -0.0000   -0.0000    0.0000   -0.0000    0.0000   -0.0000    0.0004    0.0005   -0.0000    0.0000
       82 TA     7d2+       0.0000    0.0000   -0.0000    0.0000   -0.0000    0.0000   -0.0004   -0.0006    0.0000   -0.0001
       83 TA     8d2+      -0.0000   -0.0000    0.0000   -0.0000    0.0000   -0.0000    0.0006    0.0008   -0.0000    0.0001
       84 TA     9d2+       0.0000    0.0000   -0.0000    0.0000   -0.0000    0.0000   -0.0005   -0.0007    0.0000   -0.0001
       85 TA    10d2+      -0.0000   -0.0000    0.0000   -0.0000    0.0000    0.0000    0.0005    0.0007   -0.0000    0.0001
       86 TA    11d2+       0.0000    0.0000   -0.0000    0.0000    0.0000   -0.0000   -0.0002   -0.0002    0.0000   -0.0000
       87 TA     4f3-      -0.0000   -0.0000    0.0000    0.0000   -0.0000   -0.0000   -0.0000    0.0000   -0.0000    0.0000
       88 TA     5f3-       0.0000    0.0000   -0.0000   -0.0000    0.0000    0.0000    0.0000   -0.0000   -0.0000   -0.0000
       89 TA     6f3-      -0.0000   -0.0000   -0.0000    0.0000   -0.0000   -0.0000   -0.0000    0.0000    0.0000    0.0000
       90 TA     7f3-       0.0000    0.0000    0.0000   -0.0000   -0.0000    0.0000    0.0000   -0.0000    0.0000   -0.0000
       91 TA     8f3-      -0.0000   -0.0000   -0.0000    0.0000    0.0000   -0.0000   -0.0000    0.0000   -0.0000    0.0000
       92 TA     9f3-       0.0000    0.0000    0.0000   -0.0000   -0.0000    0.0000   -0.0000   -0.0000    0.0000   -0.0000
       93 TA    10f3-      -0.0000   -0.0000   -0.0000   -0.0000    0.0000   -0.0000    0.0000   -0.0000   -0.0000    0.0000
       94 TA    11f3-       0.0000    0.0000    0.0000    0.0000   -0.0000    0.0000   -0.0000    0.0000    0.0000   -0.0000
       95 TA     4f2-      -0.0000    0.0000    0.0000    0.0000   -0.0000   -0.0000   -0.0016    0.0012   -0.0000    0.0023
       96 TA     5f2-       0.0000    0.0000   -0.0000   -0.0000    0.0000    0.0000    0.0012   -0.0008    0.0000   -0.0017
       97 TA     6f2-      -0.0000   -0.0000    0.0000    0.0000   -0.0000   -0.0000   -0.0008    0.0006   -0.0000    0.0013
       98 TA     7f2-       0.0000    0.0000   -0.0000   -0.0000    0.0000    0.0000    0.0007   -0.0005    0.0000   -0.0011
       99 TA     8f2-      -0.0000   -0.0000    0.0000    0.0000   -0.0000   -0.0000   -0.0004    0.0003   -0.0000    0.0008
      100 TA     9f2-       0.0000    0.0000   -0.0000   -0.0000    0.0000    0.0000    0.0001   -0.0001    0.0000   -0.0005
      101 TA    10f2-      -0.0000   -0.0000    0.0000    0.0000   -0.0000   -0.0000    0.0001   -0.0001   -0.0000    0.0003
      102 TA    11f2-       0.0000    0.0000   -0.0000   -0.0000    0.0000   -0.0000   -0.0004    0.0003   -0.0000    0.0000
      103 TA     4f1-       0.0000    0.0000    0.0000    0.0000   -0.0000    0.0000   -0.0007    0.0005   -0.0000   -0.0008
      104 TA     5f1-      -0.0000   -0.0000   -0.0000   -0.0000    0.0000   -0.0000    0.0005   -0.0004    0.0000    0.0006
      105 TA     6f1-       0.0000    0.0000    0.0000    0.0000   -0.0000    0.0000   -0.0004    0.0003   -0.0000   -0.0005
      106 TA     7f1-      -0.0000   -0.0000   -0.0000   -0.0000    0.0000   -0.0000    0.0004   -0.0003    0.0000    0.0004
      107 TA     8f1-       0.0000    0.0000    0.0000    0.0000   -0.0000    0.0000   -0.0003    0.0002   -0.0000   -0.0004
      108 TA     9f1-      -0.0000   -0.0000   -0.0000   -0.0000    0.0000   -0.0000    0.0001   -0.0001    0.0000    0.0003
      109 TA    10f1-       0.0000    0.0000    0.0000    0.0000   -0.0000    0.0000   -0.0001    0.0000   -0.0000   -0.0002
      110 TA    11f1-       0.0000   -0.0000   -0.0000   -0.0000    0.0000    0.0000   -0.0001    0.0001    0.0000    0.0001
      111 TA     4f0       -0.0000   -0.0000    0.0000   -0.0000   -0.0000   -0.0035   -0.0000   -0.0000   -0.0013    0.0000
      112 TA     5f0        0.0000    0.0000   -0.0000    0.0000    0.0000    0.0027    0.0000    0.0000    0.0010   -0.0000
      113 TA     6f0       -0.0000   -0.0000    0.0000   -0.0000   -0.0000   -0.0020   -0.0000   -0.0000   -0.0007    0.0000
      114 TA     7f0        0.0000    0.0000   -0.0000    0.0000    0.0000    0.0018    0.0000    0.0000    0.0006   -0.0000
      115 TA     8f0        0.0000   -0.0000    0.0000   -0.0000   -0.0000   -0.0013   -0.0000   -0.0000   -0.0005    0.0000
      116 TA     9f0       -0.0000    0.0000   -0.0000    0.0000    0.0000    0.0006    0.0000    0.0000    0.0002   -0.0000
      117 TA    10f0        0.0000   -0.0000    0.0000   -0.0000   -0.0000   -0.0001   -0.0000   -0.0000   -0.0001    0.0000
      118 TA    11f0       -0.0000    0.0000   -0.0000    0.0000    0.0000   -0.0007   -0.0000   -0.0000   -0.0002   -0.0000
      119 TA     4f1+       0.0000    0.0000   -0.0000    0.0000   -0.0000    0.0000    0.0005    0.0007   -0.0000   -0.0001
      120 TA     5f1+      -0.0000   -0.0000    0.0000   -0.0000    0.0000   -0.0000   -0.0004   -0.0005    0.0000    0.0001
      121 TA     6f1+       0.0000    0.0000   -0.0000    0.0000   -0.0000    0.0000    0.0003    0.0004   -0.0000   -0.0000
      122 TA     7f1+       0.0000   -0.0000    0.0000   -0.0000    0.0000   -0.0000   -0.0003   -0.0004    0.0000    0.0000
      123 TA     8f1+      -0.0000    0.0000   -0.0000    0.0000   -0.0000    0.0000    0.0002    0.0003   -0.0000   -0.0000
      124 TA     9f1+       0.0000   -0.0000    0.0000   -0.0000    0.0000   -0.0000   -0.0001   -0.0001    0.0000    0.0000
      125 TA    10f1+      -0.0000    0.0000   -0.0000    0.0000   -0.0000    0.0000    0.0000    0.0001   -0.0000   -0.0000
      126 TA    11f1+       0.0000   -0.0000    0.0000   -0.0000    0.0000    0.0000    0.0001    0.0001   -0.0000    0.0000
      127 TA     4f2+      -0.0000   -0.0000    0.0000   -0.0000    0.0000    0.0000   -0.0012   -0.0016    0.0000   -0.0002
      128 TA     5f2+       0.0000    0.0000   -0.0000    0.0000   -0.0000    0.0000    0.0008    0.0012   -0.0000    0.0001
      129 TA     6f2+      -0.0000   -0.0000    0.0000   -0.0000    0.0000   -0.0000   -0.0006   -0.0008    0.0000   -0.0001
      130 TA     7f2+       0.0000    0.0000   -0.0000    0.0000   -0.0000    0.0000    0.0005    0.0007   -0.0000    0.0001
      131 TA     8f2+      -0.0000   -0.0000    0.0000   -0.0000    0.0000   -0.0000   -0.0003   -0.0004    0.0000   -0.0001
      132 TA     9f2+       0.0000    0.0000   -0.0000    0.0000   -0.0000    0.0000    0.0001    0.0001   -0.0000    0.0000
      133 TA    10f2+      -0.0000   -0.0000    0.0000   -0.0000    0.0000   -0.0000    0.0001    0.0001    0.0000   -0.0000
      134 TA    11f2+       0.0000    0.0000   -0.0000    0.0000   -0.0000    0.0000   -0.0003   -0.0004    0.0000   -0.0000
      135 TA     4f3+      -0.0000   -0.0000   -0.0000    0.0000    0.0000   -0.0023    0.0000    0.0000    0.0018   -0.0000
      136 TA     5f3+       0.0000    0.0000   -0.0000   -0.0000   -0.0000    0.0018   -0.0000   -0.0000   -0.0012    0.0000
      137 TA     6f3+      -0.0000   -0.0000   -0.0000    0.0000    0.0000   -0.0013    0.0000    0.0000    0.0009   -0.0000
      138 TA     7f3+      -0.0000    0.0000    0.0000   -0.0000   -0.0000    0.0012   -0.0000   -0.0000   -0.0007    0.0000
      139 TA     8f3+       0.0000   -0.0000   -0.0000    0.0000    0.0000   -0.0009   -0.0000   -0.0000    0.0005   -0.0000
      140 TA     9f3+      -0.0000    0.0000    0.0000    0.0000   -0.0000    0.0004    0.0000    0.0000   -0.0001    0.0000
      141 TA    10f3+       0.0000   -0.0000   -0.0000   -0.0000    0.0000   -0.0001   -0.0000   -0.0000   -0.0001   -0.0000
      142 TA    11f3+      -0.0000    0.0000    0.0000    0.0000   -0.0000   -0.0005    0.0000    0.0000    0.0005    0.0000
      143 TA     5g4-      -0.0000   -0.0000    0.0000    0.0000    0.0000   -0.0000   -0.0003    0.0002   -0.0000    0.0000
      144 TA     6g4-       0.0000    0.0000   -0.0000   -0.0000   -0.0000    0.0000    0.0004   -0.0003    0.0000    0.0000
      145 TA     7g4-      -0.0000   -0.0000    0.0000    0.0000    0.0000   -0.0000   -0.0003    0.0002   -0.0000   -0.0000
      146 TA     8g4-       0.0000    0.0000   -0.0000   -0.0000   -0.0000    0.0000    0.0002   -0.0001    0.0000    0.0000
      147 TA     5g3-       0.0000   -0.0000    0.0000    0.0000   -0.0000   -0.0000    0.0000   -0.0000    0.0000    0.0000
      148 TA     6g3-      -0.0000    0.0000   -0.0000   -0.0000    0.0000   -0.0000   -0.0000    0.0000   -0.0000   -0.0000
      149 TA     7g3-       0.0000   -0.0000    0.0000    0.0000   -0.0000    0.0000    0.0000   -0.0000    0.0000    0.0000
      150 TA     8g3-      -0.0000    0.0000   -0.0000    0.0000    0.0000   -0.0000   -0.0000    0.0000   -0.0000   -0.0000
      151 TA     5g2-      -0.0000    0.0000    0.0000    0.0000   -0.0000    0.0000    0.0001   -0.0001    0.0000   -0.0001
      152 TA     6g2-       0.0000   -0.0000   -0.0000   -0.0000    0.0000   -0.0000   -0.0001    0.0001   -0.0000    0.0001
      153 TA     7g2-      -0.0000    0.0000    0.0000    0.0000   -0.0000    0.0000    0.0001   -0.0001    0.0000   -0.0001
      154 TA     8g2-       0.0000   -0.0000   -0.0000   -0.0000    0.0000    0.0000   -0.0001    0.0000   -0.0000    0.0000
      155 TA     5g1-      -0.0000   -0.0000    0.0000    0.0000   -0.0000   -0.0000   -0.0004    0.0003   -0.0000    0.0002
      156 TA     6g1-       0.0000    0.0000   -0.0000   -0.0000    0.0000    0.0000    0.0004   -0.0003    0.0000   -0.0002
      157 TA     7g1-      -0.0000   -0.0000    0.0000    0.0000   -0.0000   -0.0000   -0.0003    0.0002   -0.0000    0.0002
      158 TA     8g1-       0.0000    0.0000   -0.0000   -0.0000    0.0000    0.0000    0.0002   -0.0002    0.0000   -0.0001
      159 TA     5g0       -0.0000   -0.0000    0.0000   -0.0000   -0.0000   -0.0000   -0.0000   -0.0000   -0.0009   -0.0000
      160 TA     6g0        0.0000    0.0000   -0.0000    0.0000    0.0000    0.0000    0.0000    0.0000    0.0009    0.0000
      161 TA     7g0       -0.0000   -0.0000    0.0000   -0.0000   -0.0000   -0.0000   -0.0000   -0.0000   -0.0008   -0.0000
      162 TA     8g0        0.0000    0.0000   -0.0000    0.0000    0.0000    0.0000    0.0000    0.0000    0.0005    0.0000
      163 TA     5g1+      -0.0000    0.0000   -0.0000    0.0000    0.0000   -0.0000    0.0003    0.0004   -0.0000    0.0000
      164 TA     6g1+       0.0000   -0.0000    0.0000   -0.0000   -0.0000    0.0000   -0.0003   -0.0004    0.0000   -0.0000
      165 TA     7g1+      -0.0000    0.0000   -0.0000    0.0000    0.0000   -0.0000    0.0002    0.0003   -0.0000    0.0000
      166 TA     8g1+       0.0000   -0.0000    0.0000   -0.0000    0.0000    0.0000   -0.0002   -0.0002    0.0000   -0.0000
      167 TA     5g2+       0.0000    0.0000    0.0000   -0.0000    0.0000    0.0000    0.0001    0.0001   -0.0000    0.0000
      168 TA     6g2+       0.0000   -0.0000   -0.0000    0.0000   -0.0000   -0.0000   -0.0001   -0.0001    0.0000   -0.0000
      169 TA     7g2+       0.0000    0.0000    0.0000   -0.0000   -0.0000    0.0000    0.0001    0.0001   -0.0000    0.0000
      170 TA     8g2+      -0.0000   -0.0000   -0.0000    0.0000    0.0000   -0.0000   -0.0000   -0.0001    0.0000   -0.0000
      171 TA     5g3+       0.0000    0.0000    0.0000    0.0000    0.0000    0.0005   -0.0000   -0.0000   -0.0006    0.0000
      172 TA     6g3+      -0.0000   -0.0000   -0.0000   -0.0000   -0.0000   -0.0005    0.0000    0.0000    0.0006   -0.0000
      173 TA     7g3+       0.0000    0.0000    0.0000    0.0000    0.0000    0.0004   -0.0000   -0.0000   -0.0005    0.0000
      174 TA     8g3+      -0.0000   -0.0000   -0.0000   -0.0000    0.0000   -0.0003    0.0000    0.0000    0.0003    0.0000
      175 TA     5g4+       0.0000    0.0000   -0.0000    0.0000   -0.0000    0.0000    0.0002    0.0003   -0.0000    0.0000
      176 TA     6g4+      -0.0000   -0.0000    0.0000   -0.0000    0.0000   -0.0000   -0.0003   -0.0004    0.0000    0.0000
      177 TA     7g4+       0.0000    0.0000   -0.0000    0.0000   -0.0000    0.0000    0.0002    0.0003   -0.0000   -0.0000
      178 TA     8g4+      -0.0000   -0.0000    0.0000   -0.0000    0.0000   -0.0000   -0.0001   -0.0002    0.0000    0.0000
      179 TA     6h5-       0.0000    0.0000   -0.0000   -0.0000   -0.0000    0.0000    0.0000   -0.0000   -0.0000   -0.0000
      180 TA     7h5-      -0.0000   -0.0000    0.0000    0.0000    0.0000    0.0000   -0.0000    0.0000    0.0000    0.0001
      181 TA     6h4-       0.0000    0.0000   -0.0000   -0.0000   -0.0000    0.0000    0.0000   -0.0000   -0.0000    0.0000
      182 TA     7h4-      -0.0000   -0.0000    0.0000    0.0000    0.0000   -0.0000   -0.0001    0.0000    0.0000   -0.0000
      183 TA     6h3-      -0.0000   -0.0000    0.0000    0.0000   -0.0000    0.0000   -0.0000    0.0000   -0.0000    0.0000
      184 TA     7h3-       0.0000    0.0000   -0.0000   -0.0000    0.0000   -0.0000    0.0000   -0.0000    0.0000   -0.0000
      185 TA     6h2-       0.0000   -0.0000   -0.0000   -0.0000   -0.0000    0.0000    0.0000   -0.0000   -0.0000   -0.0000
      186 TA     7h2-       0.0000    0.0000    0.0000    0.0000    0.0000   -0.0000   -0.0000    0.0000    0.0000    0.0000
      187 TA     6h1-      -0.0000   -0.0000   -0.0000   -0.0000   -0.0000    0.0000    0.0000   -0.0000   -0.0000    0.0000
      188 TA     7h1-       0.0000    0.0000    0.0000    0.0000    0.0000   -0.0000   -0.0000    0.0000    0.0000   -0.0000
      189 TA     6h0       -0.0000   -0.0000    0.0000   -0.0000   -0.0000   -0.0000   -0.0000   -0.0000   -0.0001   -0.0000
      190 TA     7h0        0.0000    0.0000   -0.0000    0.0000    0.0000    0.0000    0.0000    0.0000    0.0001    0.0000
      191 TA     6h1+       0.0000    0.0000    0.0000   -0.0000    0.0000   -0.0000   -0.0000   -0.0000    0.0000    0.0000
      192 TA     7h1+      -0.0000   -0.0000   -0.0000    0.0000   -0.0000    0.0000    0.0000    0.0000   -0.0000   -0.0000
      193 TA     6h2+      -0.0000   -0.0000   -0.0000    0.0000   -0.0000   -0.0000    0.0000    0.0000   -0.0000    0.0000
      194 TA     7h2+       0.0000    0.0000    0.0000   -0.0000    0.0000    0.0000   -0.0000   -0.0000    0.0000   -0.0000
      195 TA     6h3+      -0.0000    0.0000    0.0000    0.0000    0.0000   -0.0000   -0.0000   -0.0000    0.0000    0.0000
      196 TA     7h3+       0.0000   -0.0000   -0.0000   -0.0000   -0.0000    0.0000    0.0000   -0.0000   -0.0001   -0.0000
      197 TA     6h4+      -0.0000    0.0000    0.0000   -0.0000    0.0000   -0.0000   -0.0000   -0.0000    0.0000    0.0000
      198 TA     7h4+      -0.0000   -0.0000   -0.0000    0.0000   -0.0000    0.0000    0.0000    0.0001   -0.0000   -0.0000
      199 TA     6h5+      -0.0000    0.0000   -0.0000    0.0000   -0.0000   -0.0000    0.0000    0.0000   -0.0000    0.0000
      200 TA     7h5+       0.0000   -0.0000    0.0000   -0.0000    0.0000    0.0000   -0.0000   -0.0000    0.0000   -0.0000

          Orbital           11        12        13        14        15        16        17        18        19        20    
          Energy          -65.7497  -65.4715  -65.4585  -65.4585  -21.0774  -15.9556  -15.9556  -15.5721   -9.1041   -9.1041
          Occ. No.          2.0000    2.0000    2.0000    2.0000    2.0000    2.0000    2.0000    2.0000    2.0000    2.0000

        1 TA     1s         0.0000    0.0000    0.0000    0.0000    0.0000   -0.0000    0.0000   -0.0000    0.0000   -0.0000
        2 TA     2s         0.0000    0.0001    0.0000    0.0000   -0.0000    0.0000   -0.0000    0.0000   -0.0000   -0.0000
        3 TA     3s         0.0000    0.0040    0.0000    0.0000    0.0028   -0.0000   -0.0000   -0.0008    0.0000    0.0000
        4 TA     4s        -0.0000   -0.0017   -0.0000   -0.0000    0.9969   -0.0000   -0.0000   -0.0553    0.0000    0.0000
        5 TA     5s         0.0000    0.0005    0.0000    0.0000    0.0140    0.0000    0.0000   -0.0053    0.0000    0.0000
        6 TA     6s        -0.0000   -0.0001   -0.0000   -0.0000   -0.0033   -0.0000   -0.0000    0.0010   -0.0000   -0.0000
        7 TA     7s         0.0000    0.0002    0.0000    0.0000    0.0053    0.0000    0.0000   -0.0016    0.0000    0.0000
        8 TA     8s        -0.0000   -0.0004   -0.0000   -0.0000   -0.0093   -0.0000   -0.0000    0.0026   -0.0000   -0.0000
        9 TA     9s         0.0000    0.0005    0.0000    0.0000    0.0073    0.0000    0.0000   -0.0019    0.0000    0.0000
       10 TA    10s        -0.0000   -0.0003   -0.0000   -0.0000   -0.0029   -0.0000   -0.0000    0.0007   -0.0000   -0.0000
       11 TA    11s         0.0000    0.0004    0.0000    0.0000    0.0004    0.0000    0.0000    0.0001   -0.0000   -0.0000
       12 TA     2px       -0.0001    0.0000   -0.0002   -0.0000    0.0000    0.0000    0.0000   -0.0000    0.0000    0.0000
       13 TA     3px       -0.0003    0.0000   -0.0218   -0.0011   -0.0000   -0.0000   -0.0026    0.0000    0.0000    0.0001
       14 TA     4px       -0.0006   -0.0000    0.0043    0.0002   -0.0000   -0.0161   -0.9947    0.0000   -0.0000   -0.0003
       15 TA     5px        0.0002    0.0000   -0.0013   -0.0001   -0.0000   -0.0002   -0.0144    0.0000    0.0003    0.0015
       16 TA     6px       -0.0001   -0.0000    0.0005    0.0000    0.0000    0.0001    0.0052   -0.0000   -0.0001   -0.0006
       17 TA     7px        0.0002    0.0000   -0.0015   -0.0001   -0.0000   -0.0002   -0.0120    0.0000    0.0002    0.0011
       18 TA     8px       -0.0002   -0.0000    0.0013    0.0001    0.0000    0.0001    0.0072   -0.0000   -0.0001   -0.0005
       19 TA     9px        0.0002    0.0000   -0.0011   -0.0001   -0.0000   -0.0001   -0.0041    0.0000    0.0000    0.0002
       20 TA    10px       -0.0001   -0.0000    0.0010    0.0001    0.0000    0.0000    0.0020   -0.0000   -0.0000   -0.0000
       21 TA    11px        0.0001    0.0000   -0.0007   -0.0000   -0.0000    0.0000    0.0017    0.0000   -0.0000   -0.0002
       22 TA     2py        0.0000    0.0000    0.0000   -0.0002    0.0000   -0.0000    0.0000   -0.0000    0.0000   -0.0000
       23 TA     3py        0.0000    0.0000    0.0011   -0.0218   -0.0000    0.0026   -0.0000    0.0000    0.0001   -0.0000
       24 TA     4py        0.0001   -0.0000   -0.0002    0.0043    0.0000    0.9947   -0.0161    0.0000   -0.0003    0.0000
       25 TA     5py       -0.0000    0.0000    0.0001   -0.0013    0.0000    0.0144   -0.0002    0.0000    0.0015   -0.0003
       26 TA     6py        0.0000    0.0000   -0.0000    0.0005   -0.0000   -0.0052    0.0001   -0.0000   -0.0006    0.0001
       27 TA     7py       -0.0000   -0.0000    0.0001   -0.0015    0.0000    0.0120   -0.0002    0.0000    0.0011   -0.0002
       28 TA     8py        0.0000    0.0000   -0.0001    0.0013   -0.0000   -0.0072    0.0001   -0.0000   -0.0005    0.0001
       29 TA     9py       -0.0000   -0.0000    0.0001   -0.0011    0.0000    0.0041   -0.0001    0.0000    0.0002   -0.0000
       30 TA    10py        0.0000    0.0000   -0.0001    0.0010   -0.0000   -0.0020    0.0000   -0.0000   -0.0000    0.0000
       31 TA    11py       -0.0000   -0.0000    0.0000   -0.0007   -0.0000   -0.0017    0.0000   -0.0000   -0.0002    0.0000
       32 TA     2pz       -0.0000   -0.0001   -0.0000   -0.0000    0.0000    0.0000   -0.0000   -0.0001    0.0000    0.0000
       33 TA     3pz       -0.0000    0.0085    0.0000   -0.0000   -0.0009   -0.0000    0.0000    0.0044   -0.0000   -0.0000
       34 TA     4pz        0.0000   -0.0035   -0.0000    0.0000    0.0545   -0.0000    0.0000    0.9957   -0.0000   -0.0000
       35 TA     5pz       -0.0000    0.0010    0.0000   -0.0000   -0.0024   -0.0000    0.0000    0.0220    0.0000   -0.0000
       36 TA     6pz        0.0000   -0.0004   -0.0000   -0.0000    0.0009    0.0000   -0.0000   -0.0079    0.0000    0.0000
       37 TA     7pz       -0.0000    0.0012    0.0000    0.0000   -0.0020   -0.0000    0.0000    0.0182   -0.0000   -0.0000
       38 TA     8pz        0.0000   -0.0011   -0.0000   -0.0000    0.0012    0.0000   -0.0000   -0.0108    0.0000    0.0000
       39 TA     9pz       -0.0000    0.0010    0.0000    0.0000   -0.0007   -0.0000   -0.0000    0.0061   -0.0000   -0.0000
       40 TA    10pz        0.0000   -0.0009   -0.0000   -0.0000    0.0003    0.0000    0.0000   -0.0027    0.0000    0.0000
       41 TA    11pz       -0.0000    0.0006    0.0000    0.0000    0.0004    0.0000   -0.0000   -0.0028    0.0000    0.0000
       42 TA     3d2-       0.0769   -0.0000   -0.0250    0.5126   -0.0000   -0.0021    0.0000   -0.0000   -0.0015    0.0002
       43 TA     4d2-      -0.0002   -0.0000    0.0002   -0.0037   -0.0000    0.0531   -0.0009    0.0000   -0.8188    0.1406
       44 TA     5d2-       0.0000    0.0000   -0.0000    0.0007    0.0000   -0.0042    0.0001    0.0000   -0.0095    0.0016
       45 TA     6d2-      -0.0000   -0.0000    0.0001   -0.0010   -0.0000    0.0056   -0.0001    0.0000    0.0115   -0.0020
       46 TA     7d2-       0.0001    0.0000   -0.0001    0.0012    0.0000   -0.0051    0.0001   -0.0000   -0.0095    0.0016
       47 TA     8d2-      -0.0001   -0.0000    0.0001   -0.0015   -0.0000    0.0042   -0.0001    0.0000    0.0069   -0.0012
       48 TA     9d2-       0.0001    0.0000   -0.0001    0.0012   -0.0000   -0.0018    0.0000   -0.0000   -0.0029    0.0005
       49 TA    10d2-      -0.0001   -0.0000    0.0001   -0.0013    0.0000    0.0004   -0.0000    0.0000    0.0011   -0.0002
       50 TA    11d2-       0.0000   -0.0000   -0.0000    0.0003    0.0000    0.0015   -0.0000    0.0000    0.0007   -0.0001
       51 TA     3d1-      -0.0460    0.0000   -0.0418    0.8569   -0.0000   -0.0027    0.0000   -0.0000    0.0009   -0.0002
       52 TA     4d1-       0.0001   -0.0000    0.0003   -0.0053   -0.0000    0.0788   -0.0013    0.0000    0.5469   -0.0939
       53 TA     5d1-      -0.0000    0.0000   -0.0000    0.0009    0.0000   -0.0056    0.0001    0.0000    0.0064   -0.0011
       54 TA     6d1-       0.0000   -0.0000    0.0001   -0.0015   -0.0000    0.0073   -0.0001   -0.0000   -0.0076    0.0013
       55 TA     7d1-      -0.0000    0.0000   -0.0001    0.0017    0.0000   -0.0066    0.0001    0.0000    0.0061   -0.0011
       56 TA     8d1-       0.0000   -0.0000    0.0001   -0.0022    0.0000    0.0053   -0.0001   -0.0000   -0.0044    0.0008
       57 TA     9d1-      -0.0000    0.0000   -0.0001    0.0018   -0.0000   -0.0023    0.0000    0.0000    0.0018   -0.0003
       58 TA    10d1-       0.0000   -0.0000    0.0001   -0.0019    0.0000    0.0004   -0.0000   -0.0000   -0.0007    0.0001
       59 TA    11d1-      -0.0000    0.0000   -0.0000    0.0006    0.0000    0.0019   -0.0000    0.0000   -0.0003    0.0000
       60 TA     3d0        0.0000    0.9999    0.0000    0.0000    0.0017   -0.0000    0.0000    0.0029   -0.0000    0.0000
       61 TA     4d0        0.0000   -0.0057   -0.0000   -0.0000   -0.0201   -0.0000   -0.0000   -0.0581    0.0000    0.0000
       62 TA     5d0       -0.0000    0.0010    0.0000    0.0000    0.0021   -0.0000    0.0000    0.0052   -0.0000    0.0000
       63 TA     6d0        0.0000   -0.0015   -0.0000   -0.0000   -0.0030    0.0000   -0.0000   -0.0070    0.0000   -0.0000
       64 TA     7d0       -0.0000    0.0018    0.0000    0.0000    0.0030   -0.0000    0.0000    0.0066   -0.0000    0.0000
       65 TA     8d0        0.0000   -0.0023   -0.0000   -0.0000   -0.0027    0.0000   -0.0000   -0.0056    0.0000   -0.0000
       66 TA     9d0       -0.0000    0.0019    0.0000    0.0000    0.0013   -0.0000   -0.0000    0.0025   -0.0000    0.0000
       67 TA    10d0        0.0000   -0.0021   -0.0000   -0.0000   -0.0005    0.0000    0.0000   -0.0007   -0.0000   -0.0000
       68 TA    11d0        0.0000    0.0008    0.0000    0.0000   -0.0009    0.0000   -0.0000   -0.0019    0.0000   -0.0000
       69 TA     3d1+       0.5113   -0.0000    0.8569    0.0418    0.0000    0.0000    0.0027   -0.0000    0.0002    0.0009
       70 TA     4d1+      -0.0006    0.0000   -0.0053   -0.0003   -0.0000   -0.0013   -0.0788    0.0000    0.0939    0.5469
       71 TA     5d1+       0.0001   -0.0000    0.0009    0.0000    0.0000    0.0001    0.0056   -0.0000    0.0011    0.0064
       72 TA     6d1+      -0.0002    0.0000   -0.0015   -0.0001   -0.0000   -0.0001   -0.0073    0.0000   -0.0013   -0.0076
       73 TA     7d1+       0.0002   -0.0000    0.0017    0.0001    0.0000    0.0001    0.0066   -0.0000    0.0011    0.0061
       74 TA     8d1+      -0.0003    0.0000   -0.0022   -0.0001   -0.0000   -0.0001   -0.0053    0.0000   -0.0008   -0.0044
       75 TA     9d1+       0.0002   -0.0000    0.0018    0.0001    0.0000    0.0000    0.0023   -0.0000    0.0003    0.0018
       76 TA    10d1+      -0.0003    0.0000   -0.0019   -0.0001   -0.0000   -0.0000   -0.0004    0.0000   -0.0001   -0.0007
       77 TA    11d1+       0.0003   -0.0000    0.0006    0.0000    0.0000   -0.0000   -0.0019    0.0000   -0.0000   -0.0003
       78 TA     3d2+       0.8547    0.0000   -0.5126   -0.0250    0.0000   -0.0000   -0.0021   -0.0000    0.0002    0.0015
       79 TA     4d2+      -0.0018   -0.0000    0.0037    0.0002   -0.0000    0.0009    0.0531    0.0000    0.1406    0.8188
       80 TA     5d2+       0.0003    0.0000   -0.0007   -0.0000    0.0000   -0.0001   -0.0042   -0.0000    0.0016    0.0095
       81 TA     6d2+      -0.0005   -0.0000    0.0010    0.0001   -0.0000    0.0001    0.0056    0.0000   -0.0020   -0.0115
       82 TA     7d2+       0.0006    0.0000   -0.0012   -0.0001    0.0000   -0.0001   -0.0051   -0.0000    0.0016    0.0095
       83 TA     8d2+      -0.0008   -0.0000    0.0015    0.0001   -0.0000    0.0001    0.0042    0.0000   -0.0012   -0.0069
       84 TA     9d2+       0.0007    0.0000   -0.0012   -0.0001    0.0000   -0.0000   -0.0018    0.0000    0.0005    0.0029
       85 TA    10d2+      -0.0008   -0.0000    0.0013    0.0001    0.0000    0.0000    0.0004   -0.0000   -0.0002   -0.0011
       86 TA    11d2+       0.0004    0.0000   -0.0003   -0.0000   -0.0000    0.0000    0.0015    0.0000   -0.0001   -0.0007
       87 TA     4f3-       0.0000    0.0000   -0.0000    0.0000   -0.0000   -0.0000    0.0000   -0.0000    0.0000    0.0000
       88 TA     5f3-      -0.0000   -0.0000    0.0000   -0.0000   -0.0000    0.0000   -0.0000    0.0000    0.0000    0.0000
       89 TA     6f3-       0.0000    0.0000   -0.0000    0.0000   -0.0000   -0.0000    0.0000    0.0000   -0.0000   -0.0000
       90 TA     7f3-      -0.0000   -0.0000    0.0000   -0.0000    0.0000    0.0000    0.0000   -0.0000    0.0000    0.0000
       91 TA     8f3-       0.0000   -0.0000   -0.0000    0.0000   -0.0000    0.0000   -0.0000    0.0000   -0.0000   -0.0000
       92 TA     9f3-      -0.0000    0.0000    0.0000   -0.0000   -0.0000   -0.0000    0.0000    0.0000    0.0000   -0.0000
       93 TA    10f3-       0.0000   -0.0000   -0.0000    0.0000    0.0000    0.0000   -0.0000   -0.0000    0.0000    0.0000
       94 TA    11f3-      -0.0000    0.0000    0.0000    0.0000   -0.0000   -0.0000    0.0000    0.0000   -0.0000    0.0000
       95 TA     4f2-       0.0002    0.0000   -0.0002    0.0046   -0.0000   -0.0180    0.0003   -0.0000   -0.0318    0.0055
       96 TA     5f2-      -0.0001   -0.0000    0.0002   -0.0033    0.0000    0.0080   -0.0001    0.0000    0.0086   -0.0015
       97 TA     6f2-       0.0001    0.0000   -0.0001    0.0024   -0.0000   -0.0037    0.0001   -0.0000   -0.0025    0.0004
       98 TA     7f2-      -0.0001   -0.0000    0.0001   -0.0020    0.0000    0.0012   -0.0000    0.0000   -0.0002    0.0000
       99 TA     8f2-       0.0001   -0.0000   -0.0001    0.0013    0.0000    0.0006   -0.0000    0.0000    0.0012   -0.0002
      100 TA     9f2-      -0.0000    0.0000    0.0000   -0.0005   -0.0000   -0.0015    0.0000   -0.0000   -0.0013    0.0002
      101 TA    10f2-       0.0000   -0.0000   -0.0000    0.0000    0.0000    0.0016   -0.0000    0.0000    0.0011   -0.0002
      102 TA    11f2-       0.0000    0.0000   -0.0000    0.0007   -0.0000   -0.0012    0.0000   -0.0000   -0.0007    0.0001
      103 TA     4f1-      -0.0001    0.0000   -0.0000    0.0008   -0.0000   -0.0076    0.0001   -0.0000    0.0119   -0.0020
      104 TA     5f1-       0.0001   -0.0000    0.0000   -0.0006    0.0000    0.0034   -0.0001    0.0000   -0.0021    0.0004
      105 TA     6f1-      -0.0000    0.0000   -0.0000    0.0004    0.0000   -0.0015    0.0000   -0.0000    0.0005   -0.0001
      106 TA     7f1-       0.0000   -0.0000    0.0000   -0.0004   -0.0000    0.0004   -0.0000   -0.0000    0.0003   -0.0001
      107 TA     8f1-      -0.0000    0.0000   -0.0000    0.0003    0.0000    0.0004   -0.0000    0.0000   -0.0005    0.0001
      108 TA     9f1-       0.0000   -0.0000    0.0000   -0.0002    0.0000   -0.0007    0.0000   -0.0000    0.0004   -0.0001
      109 TA    10f1-      -0.0000    0.0000   -0.0000    0.0001   -0.0000    0.0007   -0.0000    0.0000   -0.0003    0.0001
      110 TA    11f1-       0.0000   -0.0000    0.0000   -0.0001   -0.0000   -0.0004    0.0000   -0.0000    0.0002   -0.0000
      111 TA     4f0       -0.0000   -0.0021   -0.0000   -0.0000   -0.0343    0.0000   -0.0000   -0.0098   -0.0000   -0.0000
      112 TA     5f0        0.0000    0.0015    0.0000    0.0000    0.0164   -0.0000    0.0000    0.0041    0.0000    0.0000
      113 TA     6f0       -0.0000   -0.0010   -0.0000   -0.0000   -0.0078    0.0000   -0.0000   -0.0018   -0.0000   -0.0000
      114 TA     7f0        0.0000    0.0007    0.0000    0.0000    0.0025   -0.0000    0.0000    0.0005   -0.0000    0.0000
      115 TA     8f0       -0.0000   -0.0004   -0.0000   -0.0000    0.0017   -0.0000   -0.0000    0.0005    0.0000    0.0000
      116 TA     9f0        0.0000   -0.0000    0.0000    0.0000   -0.0037    0.0000    0.0000   -0.0009   -0.0000   -0.0000
      117 TA    10f0       -0.0000    0.0003    0.0000   -0.0000    0.0038   -0.0000   -0.0000    0.0008    0.0000    0.0000
      118 TA    11f0       -0.0000   -0.0008   -0.0000   -0.0000   -0.0029    0.0000   -0.0000   -0.0005   -0.0000   -0.0000
      119 TA     4f1+       0.0008   -0.0000    0.0008    0.0000    0.0000    0.0001    0.0076   -0.0000    0.0020    0.0119
      120 TA     5f1+      -0.0006    0.0000   -0.0006   -0.0000   -0.0000   -0.0001   -0.0034    0.0000   -0.0004   -0.0021
      121 TA     6f1+       0.0005   -0.0000    0.0004    0.0000    0.0000    0.0000    0.0015   -0.0000    0.0001    0.0005
      122 TA     7f1+      -0.0004    0.0000   -0.0004   -0.0000   -0.0000   -0.0000   -0.0004    0.0000    0.0001    0.0003
      123 TA     8f1+       0.0004   -0.0000    0.0003    0.0000    0.0000   -0.0000   -0.0004   -0.0000   -0.0001   -0.0005
      124 TA     9f1+      -0.0003    0.0000   -0.0002   -0.0000    0.0000    0.0000    0.0007   -0.0000    0.0001    0.0004
      125 TA    10f1+       0.0002    0.0000    0.0001    0.0000   -0.0000   -0.0000   -0.0007    0.0000   -0.0001   -0.0003
      126 TA    11f1+      -0.0001   -0.0000   -0.0001   -0.0000    0.0000    0.0000    0.0004   -0.0000    0.0000    0.0002
      127 TA     4f2+       0.0023    0.0000   -0.0046   -0.0002    0.0000   -0.0003   -0.0180   -0.0000    0.0055    0.0318
      128 TA     5f2+      -0.0017   -0.0000    0.0033    0.0002   -0.0000    0.0001    0.0080    0.0000   -0.0015   -0.0086
      129 TA     6f2+       0.0013    0.0000   -0.0024   -0.0001    0.0000   -0.0001   -0.0037   -0.0000    0.0004    0.0025
      130 TA     7f2+      -0.0011   -0.0000    0.0020    0.0001    0.0000    0.0000    0.0012   -0.0000    0.0000    0.0002
      131 TA     8f2+       0.0008    0.0000   -0.0013   -0.0001   -0.0000    0.0000    0.0006    0.0000   -0.0002   -0.0012
      132 TA     9f2+      -0.0005   -0.0000    0.0005    0.0000    0.0000   -0.0000   -0.0015   -0.0000    0.0002    0.0013
      133 TA    10f2+       0.0003    0.0000   -0.0000   -0.0000   -0.0000    0.0000    0.0016    0.0000   -0.0002   -0.0011
      134 TA    11f2+       0.0000    0.0000   -0.0007   -0.0000   -0.0000   -0.0000   -0.0012    0.0000    0.0001    0.0007
      135 TA     4f3+       0.0000    0.0017    0.0000   -0.0000   -0.0225    0.0000    0.0000    0.0198    0.0000   -0.0000
      136 TA     5f3+      -0.0000   -0.0012   -0.0000    0.0000    0.0108   -0.0000   -0.0000   -0.0088    0.0000    0.0000
      137 TA     6f3+       0.0000    0.0009    0.0000   -0.0000   -0.0051    0.0000    0.0000    0.0040   -0.0000    0.0000
      138 TA     7f3+      -0.0000   -0.0008   -0.0000    0.0000    0.0016   -0.0000    0.0000   -0.0012    0.0000   -0.0000
      139 TA     8f3+       0.0000    0.0006    0.0000   -0.0000    0.0011   -0.0000   -0.0000   -0.0007   -0.0000    0.0000
      140 TA     9f3+      -0.0000   -0.0003   -0.0000    0.0000   -0.0024    0.0000    0.0000    0.0016   -0.0000   -0.0000
      141 TA    10f3+       0.0000    0.0001   -0.0000   -0.0000    0.0025   -0.0000   -0.0000   -0.0017    0.0000    0.0000
      142 TA    11f3+      -0.0000    0.0002    0.0000    0.0000   -0.0018   -0.0000   -0.0000    0.0012    0.0000    0.0000
      143 TA     5g4-       0.0000   -0.0000   -0.0000    0.0005   -0.0000   -0.0049    0.0001   -0.0000    0.0003   -0.0000
      144 TA     6g4-       0.0000    0.0000    0.0000   -0.0005    0.0000    0.0040   -0.0001    0.0000   -0.0005    0.0001
      145 TA     7g4-      -0.0000   -0.0000   -0.0000    0.0004   -0.0000   -0.0027    0.0000   -0.0000    0.0004   -0.0001
      146 TA     8g4-       0.0000    0.0000    0.0000   -0.0002    0.0000    0.0016   -0.0000    0.0000   -0.0002    0.0000
      147 TA     5g3-      -0.0000   -0.0000   -0.0000   -0.0000   -0.0000    0.0000   -0.0000    0.0000   -0.0000   -0.0000
      148 TA     6g3-       0.0000    0.0000    0.0000    0.0000    0.0000   -0.0000    0.0000   -0.0000    0.0000    0.0000
      149 TA     7g3-      -0.0000   -0.0000   -0.0000   -0.0000    0.0000    0.0000    0.0000    0.0000   -0.0000   -0.0000
      150 TA     8g3-       0.0000    0.0000    0.0000    0.0000   -0.0000   -0.0000   -0.0000   -0.0000    0.0000    0.0000
      151 TA     5g2-      -0.0000   -0.0000    0.0000   -0.0004    0.0000    0.0005   -0.0000    0.0000    0.0010   -0.0002
      152 TA     6g2-       0.0000    0.0000   -0.0000    0.0004    0.0000   -0.0008    0.0000   -0.0000   -0.0004    0.0001
      153 TA     7g2-      -0.0000   -0.0000    0.0000   -0.0003   -0.0000    0.0005   -0.0000    0.0000    0.0001   -0.0000
      154 TA     8g2-       0.0000    0.0000   -0.0000    0.0002    0.0000   -0.0003    0.0000   -0.0000   -0.0001    0.0000
      155 TA     5g1-       0.0000   -0.0000   -0.0000    0.0005   -0.0000   -0.0058    0.0001    0.0000   -0.0019    0.0003
      156 TA     6g1-      -0.0000    0.0000    0.0000   -0.0003    0.0000    0.0048   -0.0001   -0.0000    0.0019   -0.0003
      157 TA     7g1-       0.0000   -0.0000   -0.0000    0.0002   -0.0000   -0.0032    0.0001    0.0000   -0.0013    0.0002
      158 TA     8g1-      -0.0000    0.0000    0.0000   -0.0001    0.0000    0.0019   -0.0000    0.0000    0.0008   -0.0001
      159 TA     5g0        0.0000   -0.0010   -0.0000   -0.0000   -0.0006    0.0000   -0.0000   -0.0102    0.0000    0.0000
      160 TA     6g0       -0.0000    0.0009    0.0000    0.0000    0.0005   -0.0000    0.0000    0.0084   -0.0000    0.0000
      161 TA     7g0        0.0000   -0.0007   -0.0000   -0.0000   -0.0004    0.0000   -0.0000   -0.0058    0.0000   -0.0000
      162 TA     8g0       -0.0000    0.0004    0.0000    0.0000    0.0002   -0.0000    0.0000    0.0035   -0.0000    0.0000
      163 TA     5g1+      -0.0002   -0.0000    0.0005    0.0000   -0.0000    0.0001    0.0058   -0.0000   -0.0003   -0.0019
      164 TA     6g1+       0.0002    0.0000   -0.0003   -0.0000    0.0000   -0.0001   -0.0048    0.0000    0.0003    0.0019
      165 TA     7g1+      -0.0002   -0.0000    0.0002    0.0000   -0.0000    0.0001    0.0032   -0.0000   -0.0002   -0.0013
      166 TA     8g1+       0.0001    0.0000   -0.0001   -0.0000    0.0000   -0.0000   -0.0019    0.0000    0.0001    0.0008
      167 TA     5g2+      -0.0001   -0.0000    0.0004    0.0000   -0.0000    0.0000    0.0005    0.0000   -0.0002   -0.0010
      168 TA     6g2+       0.0001    0.0000   -0.0004   -0.0000    0.0000   -0.0000   -0.0008   -0.0000    0.0001    0.0004
      169 TA     7g2+      -0.0001   -0.0000    0.0003    0.0000   -0.0000    0.0000    0.0005    0.0000   -0.0000   -0.0001
      170 TA     8g2+       0.0000    0.0000   -0.0002   -0.0000    0.0000   -0.0000   -0.0003   -0.0000    0.0000    0.0001
      171 TA     5g3+       0.0000   -0.0003   -0.0000   -0.0000    0.0049    0.0000   -0.0000   -0.0064   -0.0000    0.0000
      172 TA     6g3+      -0.0000    0.0002    0.0000    0.0000   -0.0044   -0.0000    0.0000    0.0057   -0.0000   -0.0000
      173 TA     7g3+       0.0000   -0.0002   -0.0000   -0.0000    0.0032    0.0000   -0.0000   -0.0038    0.0000    0.0000
      174 TA     8g3+      -0.0000    0.0001    0.0000    0.0000   -0.0020   -0.0000    0.0000    0.0023   -0.0000   -0.0000
      175 TA     5g4+      -0.0000   -0.0000    0.0005    0.0000    0.0000    0.0001    0.0049   -0.0000    0.0000    0.0003
      176 TA     6g4+      -0.0000    0.0000   -0.0005   -0.0000   -0.0000   -0.0001   -0.0040    0.0000   -0.0001   -0.0005
      177 TA     7g4+       0.0000   -0.0000    0.0004    0.0000    0.0000    0.0000    0.0027   -0.0000    0.0001    0.0004
      178 TA     8g4+      -0.0000    0.0000   -0.0002   -0.0000   -0.0000   -0.0000   -0.0016    0.0000   -0.0000   -0.0002
      179 TA     6h5-      -0.0000   -0.0000    0.0000   -0.0000    0.0000    0.0003   -0.0000   -0.0000    0.0013   -0.0002
      180 TA     7h5-       0.0000    0.0000   -0.0000    0.0000   -0.0000   -0.0003    0.0000    0.0000   -0.0012    0.0002
      181 TA     6h4-       0.0000   -0.0000    0.0000   -0.0001    0.0000    0.0008   -0.0000   -0.0000   -0.0006    0.0001
      182 TA     7h4-      -0.0000    0.0000   -0.0000    0.0001   -0.0000   -0.0008    0.0000    0.0000    0.0007   -0.0001
      183 TA     6h3-      -0.0000   -0.0000    0.0000    0.0000   -0.0000   -0.0000    0.0000   -0.0000    0.0000   -0.0000
      184 TA     7h3-       0.0000   -0.0000   -0.0000   -0.0000   -0.0000    0.0000   -0.0000    0.0000   -0.0000    0.0000
      185 TA     6h2-      -0.0000    0.0000    0.0000   -0.0000   -0.0000    0.0004   -0.0000   -0.0000    0.0009   -0.0002
      186 TA     7h2-       0.0000   -0.0000   -0.0000    0.0000   -0.0000   -0.0003    0.0000    0.0000   -0.0009    0.0002
      187 TA     6h1-       0.0000   -0.0000    0.0000   -0.0001    0.0000    0.0006   -0.0000   -0.0000   -0.0011    0.0002
      188 TA     7h1-      -0.0000    0.0000   -0.0000    0.0001   -0.0000   -0.0005    0.0000    0.0000    0.0010   -0.0002
      189 TA     6h0        0.0000   -0.0001   -0.0000   -0.0000   -0.0003   -0.0000   -0.0000   -0.0012    0.0000   -0.0000
      190 TA     7h0       -0.0000    0.0001    0.0000    0.0000    0.0003    0.0000    0.0000    0.0009   -0.0000    0.0000
      191 TA     6h1+      -0.0000    0.0000   -0.0001   -0.0000    0.0000   -0.0000   -0.0006    0.0000   -0.0002   -0.0011
      192 TA     7h1+       0.0000   -0.0000    0.0001    0.0000    0.0000    0.0000    0.0005   -0.0000    0.0002    0.0010
      193 TA     6h2+      -0.0000   -0.0000    0.0000    0.0000   -0.0000    0.0000    0.0004   -0.0000   -0.0002   -0.0009
      194 TA     7h2+       0.0000    0.0000   -0.0000   -0.0000    0.0000   -0.0000   -0.0003   -0.0000    0.0002    0.0009
      195 TA     6h3+       0.0000   -0.0000   -0.0000   -0.0000   -0.0003   -0.0000   -0.0000    0.0006   -0.0000    0.0000
      196 TA     7h3+      -0.0000    0.0000    0.0000    0.0000    0.0005    0.0000    0.0000   -0.0008    0.0000   -0.0000
      197 TA     6h4+      -0.0000    0.0000   -0.0001   -0.0000   -0.0000   -0.0000   -0.0008    0.0000   -0.0001   -0.0006
      198 TA     7h4+       0.0000   -0.0000    0.0001    0.0000    0.0000    0.0000    0.0008   -0.0000    0.0001    0.0007
      199 TA     6h5+      -0.0000   -0.0000    0.0000    0.0000   -0.0000    0.0000    0.0003    0.0000   -0.0002   -0.0013
      200 TA     7h5+       0.0001    0.0000   -0.0000   -0.0000    0.0000   -0.0000   -0.0003   -0.0000    0.0002    0.0012

          Orbital           21        22        23        24        25        26        27        28        29        30    
          Energy           -8.5262   -8.4417   -8.4417   -3.3561   -1.9738   -1.9738   -1.9313   -1.2482   -1.1545   -1.1143
          Occ. No.          2.0000    2.0000    2.0000    2.0000    2.0000    2.0000    2.0000    2.0000    2.0000    2.0000

        1 TA     1s        -0.0000    0.0000    0.0000   -0.0000    0.0000   -0.0000    0.0000   -0.0000    0.0000    0.0000
        2 TA     2s        -0.0000   -0.0000    0.0000    0.0000   -0.0000    0.0000   -0.0000    0.0000    0.0000   -0.0000
        3 TA     3s         0.0008    0.0000   -0.0000   -0.0006    0.0000   -0.0000    0.0002   -0.0000    0.0004   -0.0000
        4 TA     4s         0.0158    0.0000   -0.0000   -0.0109   -0.0000   -0.0000    0.0032   -0.0000    0.0047   -0.0000
        5 TA     5s         0.0115   -0.0000   -0.0000    0.9951   -0.0000   -0.0000   -0.0667    0.0000   -0.0138    0.0000
        6 TA     6s        -0.0021    0.0000    0.0000    0.0165    0.0000    0.0000   -0.0093   -0.0000   -0.0106    0.0000
        7 TA     7s         0.0029    0.0000   -0.0000   -0.0144   -0.0000   -0.0000    0.0084   -0.0000    0.0081   -0.0000
        8 TA     8s        -0.0042   -0.0000    0.0000    0.0182    0.0000    0.0000   -0.0058    0.0000   -0.0054    0.0000
        9 TA     9s         0.0022    0.0000   -0.0000   -0.0065   -0.0000   -0.0000   -0.0001   -0.0000    0.0004    0.0000
       10 TA    10s        -0.0006   -0.0000    0.0000    0.0016    0.0000    0.0000   -0.0005    0.0000   -0.0008    0.0000
       11 TA    11s        -0.0003    0.0000   -0.0000   -0.0011   -0.0000   -0.0000    0.0002   -0.0000    0.0000    0.0000
       12 TA     2px       -0.0000    0.0000   -0.0001   -0.0000   -0.0000   -0.0000    0.0000    0.0000    0.0000   -0.0000
       13 TA     3px        0.0000   -0.0004    0.0033    0.0000    0.0002    0.0006   -0.0000    0.0000    0.0000   -0.0001
       14 TA     4px        0.0000   -0.0121    0.0899    0.0000    0.0034    0.0129   -0.0000    0.0000    0.0000   -0.0005
       15 TA     5px        0.0000   -0.0041    0.0300   -0.0000   -0.2517   -0.9613    0.0000   -0.0000   -0.0000    0.0031
       16 TA     6px       -0.0000    0.0011   -0.0082   -0.0000   -0.0042   -0.0160    0.0000   -0.0000   -0.0000    0.0012
       17 TA     7px        0.0000   -0.0022    0.0164    0.0000    0.0058    0.0222   -0.0000    0.0000    0.0000   -0.0009
       18 TA     8px       -0.0000    0.0010   -0.0078   -0.0000   -0.0013   -0.0050   -0.0000   -0.0000    0.0000   -0.0001
       19 TA     9px        0.0000   -0.0005    0.0034    0.0000    0.0001    0.0003   -0.0000   -0.0000   -0.0000    0.0000
       20 TA    10px       -0.0000    0.0002   -0.0012   -0.0000   -0.0002   -0.0009    0.0000   -0.0000   -0.0000    0.0000
       21 TA    11px       -0.0000    0.0003   -0.0022    0.0000   -0.0001   -0.0005   -0.0000   -0.0000   -0.0000    0.0000
       22 TA     2py       -0.0000    0.0001    0.0000    0.0000    0.0000   -0.0000    0.0000    0.0000   -0.0000    0.0000
       23 TA     3py       -0.0000   -0.0033   -0.0004   -0.0000   -0.0006    0.0002   -0.0000    0.0000   -0.0000    0.0003
       24 TA     4py       -0.0000   -0.0899   -0.0121   -0.0000   -0.0129    0.0034   -0.0000    0.0000   -0.0000    0.0019
       25 TA     5py       -0.0000   -0.0300   -0.0041    0.0000    0.9613   -0.2517    0.0000   -0.0000    0.0000   -0.0122
       26 TA     6py        0.0000    0.0082    0.0011   -0.0000    0.0160   -0.0042    0.0000   -0.0000    0.0000   -0.0047
       27 TA     7py       -0.0000   -0.0164   -0.0022    0.0000   -0.0222    0.0058   -0.0000    0.0000   -0.0000    0.0036
       28 TA     8py        0.0000    0.0078    0.0010    0.0000    0.0050   -0.0013    0.0000   -0.0000    0.0000    0.0003
       29 TA     9py       -0.0000   -0.0034   -0.0005   -0.0000   -0.0003    0.0001    0.0000   -0.0000    0.0000   -0.0001
       30 TA    10py        0.0000    0.0012    0.0002    0.0000    0.0009   -0.0002    0.0000   -0.0000    0.0000   -0.0001
       31 TA    11py        0.0000    0.0022    0.0003    0.0000    0.0005   -0.0001    0.0000   -0.0000    0.0000   -0.0000
       32 TA     2pz        0.0000    0.0000   -0.0000   -0.0000   -0.0000    0.0000    0.0000    0.0000   -0.0000   -0.0000
       33 TA     3pz        0.0025   -0.0000   -0.0000    0.0002    0.0000    0.0000   -0.0011    0.0000   -0.0021   -0.0000
       34 TA     4pz        0.0559   -0.0000   -0.0000    0.0021    0.0000   -0.0000   -0.0187    0.0000   -0.0228   -0.0000
       35 TA     5pz        0.0226   -0.0000   -0.0000    0.0689   -0.0000    0.0000    0.9871   -0.0000    0.1290    0.0000
       36 TA     6pz       -0.0072    0.0000    0.0000   -0.0082   -0.0000   -0.0000    0.0263    0.0000    0.0495    0.0000
       37 TA     7pz        0.0142   -0.0000   -0.0000    0.0091    0.0000   -0.0000   -0.0337   -0.0000   -0.0400   -0.0000
       38 TA     8pz       -0.0066    0.0000    0.0000   -0.0000   -0.0000    0.0000    0.0066   -0.0000   -0.0003   -0.0000
       39 TA     9pz        0.0028   -0.0000   -0.0000   -0.0008    0.0000    0.0000   -0.0005    0.0000    0.0003    0.0000
       40 TA    10pz       -0.0009    0.0000   -0.0000   -0.0002   -0.0000   -0.0000    0.0015   -0.0000    0.0025    0.0000
       41 TA    11pz       -0.0019   -0.0000    0.0000   -0.0001   -0.0000    0.0000    0.0009   -0.0000    0.0013    0.0000
       42 TA     3d2-       0.0000    0.0032    0.0004    0.0000    0.0004   -0.0001    0.0000   -0.0000    0.0000    0.0013
       43 TA     4d2-       0.0000    0.5419    0.0732    0.0000    0.0095   -0.0025    0.0000    0.0000    0.0000    0.0207
       44 TA     5d2-      -0.0000    0.0146    0.0020    0.0000    0.0152   -0.0040    0.0000   -0.0000   -0.0000    0.0370
       45 TA     6d2-      -0.0000   -0.0180   -0.0024   -0.0000   -0.0115    0.0030   -0.0000    0.0000    0.0000   -0.0206
       46 TA     7d2-       0.0000    0.0148    0.0020    0.0000    0.0050   -0.0013    0.0000   -0.0000   -0.0000    0.0058
       47 TA     8d2-      -0.0000   -0.0106   -0.0014    0.0000   -0.0020    0.0005   -0.0000    0.0000    0.0000   -0.0025
       48 TA     9d2-       0.0000    0.0044    0.0006   -0.0000    0.0009   -0.0002    0.0000   -0.0000   -0.0000    0.0014
       49 TA    10d2-      -0.0000   -0.0014   -0.0002   -0.0000   -0.0005    0.0001   -0.0000    0.0000    0.0000   -0.0004
       50 TA    11d2-      -0.0000   -0.0020   -0.0003   -0.0000   -0.0004    0.0001   -0.0000   -0.0000   -0.0000   -0.0002
       51 TA     3d1-       0.0000    0.0049    0.0007    0.0000    0.0007   -0.0002    0.0000   -0.0000    0.0000   -0.0003
       52 TA     4d1-       0.0000    0.8168    0.1103    0.0000    0.0150   -0.0039    0.0000   -0.0000    0.0000   -0.0033
       53 TA     5d1-       0.0000    0.0215    0.0029    0.0000    0.0419   -0.0110    0.0000   -0.0000    0.0000    0.0400
       54 TA     6d1-      -0.0000   -0.0263   -0.0036   -0.0000   -0.0292    0.0076   -0.0000    0.0000   -0.0000   -0.0177
       55 TA     7d1-       0.0000    0.0217    0.0029    0.0000    0.0098   -0.0026    0.0000   -0.0000    0.0000    0.0015
       56 TA     8d1-      -0.0000   -0.0155   -0.0021    0.0000   -0.0019    0.0005    0.0000    0.0000    0.0000    0.0002
       57 TA     9d1-       0.0000    0.0063    0.0009    0.0000    0.0013   -0.0003    0.0000   -0.0000    0.0000    0.0006
       58 TA    10d1-      -0.0000   -0.0020   -0.0003   -0.0000   -0.0008    0.0002   -0.0000   -0.0000   -0.0000   -0.0000
       59 TA    11d1-      -0.0000   -0.0026   -0.0004   -0.0000   -0.0006    0.0002   -0.0000    0.0000   -0.0000   -0.0001
       60 TA     3d0        0.0055    0.0000   -0.0000   -0.0005    0.0000   -0.0000   -0.0006    0.0000   -0.0023   -0.0000
       61 TA     4d0        0.9948    0.0000   -0.0000   -0.0116    0.0000   -0.0000   -0.0132    0.0000   -0.0405   -0.0000
       62 TA     5d0        0.0238    0.0000   -0.0000   -0.0046   -0.0000    0.0000    0.0032   -0.0000   -0.1310   -0.0000
       63 TA     6d0       -0.0296   -0.0000    0.0000    0.0051    0.0000    0.0000    0.0010    0.0000    0.0686    0.0000
       64 TA     7d0        0.0245    0.0000   -0.0000   -0.0038    0.0000   -0.0000   -0.0039    0.0000   -0.0155   -0.0000
       65 TA     8d0       -0.0177   -0.0000    0.0000    0.0026   -0.0000   -0.0000    0.0041   -0.0000    0.0056    0.0000
       66 TA     9d0        0.0072    0.0000   -0.0000   -0.0012    0.0000    0.0000   -0.0014   -0.0000   -0.0041   -0.0000
       67 TA    10d0       -0.0023   -0.0000    0.0000    0.0006   -0.0000   -0.0000    0.0005   -0.0000    0.0013    0.0000
       68 TA    11d0       -0.0028   -0.0000    0.0000    0.0003   -0.0000    0.0000    0.0006   -0.0000    0.0009    0.0000
       69 TA     3d1+      -0.0000    0.0007   -0.0049   -0.0000   -0.0002   -0.0007    0.0000   -0.0000   -0.0000    0.0001
       70 TA     4d1+      -0.0000    0.1103   -0.8168   -0.0000   -0.0039   -0.0150    0.0000   -0.0000   -0.0000    0.0008
       71 TA     5d1+      -0.0000    0.0029   -0.0215   -0.0000   -0.0110   -0.0419   -0.0000   -0.0000    0.0000   -0.0101
       72 TA     6d1+       0.0000   -0.0036    0.0263    0.0000    0.0076    0.0292   -0.0000    0.0000   -0.0000    0.0045
       73 TA     7d1+      -0.0000    0.0029   -0.0217   -0.0000   -0.0026   -0.0098    0.0000   -0.0000   -0.0000   -0.0004
       74 TA     8d1+       0.0000   -0.0021    0.0155   -0.0000    0.0005    0.0019   -0.0000    0.0000    0.0000   -0.0000
       75 TA     9d1+      -0.0000    0.0009   -0.0063   -0.0000   -0.0003   -0.0013    0.0000   -0.0000    0.0000   -0.0001
       76 TA    10d1+       0.0000   -0.0003    0.0020    0.0000    0.0002    0.0008   -0.0000    0.0000   -0.0000    0.0000
       77 TA    11d1+       0.0000   -0.0004    0.0026    0.0000    0.0002    0.0006   -0.0000    0.0000    0.0000    0.0000
       78 TA     3d2+       0.0000   -0.0004    0.0032   -0.0000    0.0001    0.0004    0.0000    0.0000   -0.0000    0.0003
       79 TA     4d2+       0.0000   -0.0732    0.5419   -0.0000    0.0025    0.0095    0.0000   -0.0000   -0.0000    0.0052
       80 TA     5d2+       0.0000   -0.0020    0.0146   -0.0000    0.0040    0.0152    0.0000    0.0000   -0.0000    0.0093
       81 TA     6d2+      -0.0000    0.0024   -0.0180    0.0000   -0.0030   -0.0115   -0.0000   -0.0000    0.0000   -0.0052
       82 TA     7d2+       0.0000   -0.0020    0.0148   -0.0000    0.0013    0.0050    0.0000    0.0000   -0.0000    0.0015
       83 TA     8d2+      -0.0000    0.0014   -0.0106    0.0000   -0.0005   -0.0020   -0.0000   -0.0000    0.0000   -0.0006
       84 TA     9d2+       0.0000   -0.0006    0.0044   -0.0000    0.0002    0.0009    0.0000    0.0000   -0.0000    0.0004
       85 TA    10d2+      -0.0000    0.0002   -0.0014   -0.0000   -0.0001   -0.0005    0.0000   -0.0000    0.0000   -0.0001
       86 TA    11d2+      -0.0000    0.0003   -0.0020    0.0000   -0.0001   -0.0004   -0.0000   -0.0000   -0.0000   -0.0001
       87 TA     4f3-       0.0000    0.0000    0.0000   -0.0000    0.0000   -0.0000    0.0000    0.9955    0.0000   -0.0000
       88 TA     5f3-      -0.0000   -0.0000   -0.0000    0.0000    0.0000   -0.0000    0.0000    0.0924    0.0000   -0.0000
       89 TA     6f3-       0.0000    0.0000    0.0000    0.0000    0.0000   -0.0000    0.0000    0.0000    0.0000   -0.0000
       90 TA     7f3-       0.0000   -0.0000    0.0000   -0.0000   -0.0000    0.0000   -0.0000   -0.0045   -0.0000    0.0000
       91 TA     8f3-      -0.0000   -0.0000   -0.0000    0.0000   -0.0000    0.0000   -0.0000   -0.0014   -0.0000    0.0000
       92 TA     9f3-       0.0000    0.0000    0.0000    0.0000    0.0000   -0.0000   -0.0000   -0.0020   -0.0000    0.0000
       93 TA    10f3-      -0.0000   -0.0000   -0.0000   -0.0000   -0.0000    0.0000   -0.0000    0.0012   -0.0000   -0.0000
       94 TA    11f3-       0.0000    0.0000    0.0000    0.0000    0.0000    0.0000   -0.0000   -0.0008   -0.0000    0.0000
       95 TA     4f2-       0.0000    0.0875    0.0118    0.0000    0.0790   -0.0207    0.0000   -0.0000    0.0000   -0.2695
       96 TA     5f2-      -0.0000   -0.0301   -0.0041    0.0000    0.0027   -0.0007   -0.0000   -0.0000    0.0000   -0.0280
[...]
         4   18       3.89994776E-05  2.13851480E+04  3.19807280E+01  3.04467100E-05  2.14171287E+04
         5    7       9.36418269E-03  1.49419255E+05  3.32663436E+02  1.02276242E-06  1.49751918E+05
         5    9       9.36431307E-03  3.32670140E+02  1.49422258E+05  6.91650933E-11  1.49754929E+05
         5   11       1.52877067E-02  3.02218397E-06  6.07775357E-12  4.65741841E+05  4.65741841E+05
         5   13       2.00683976E-04  2.78953649E+04  4.31008792E+01  1.99950113E-06  2.79384658E+04
         5   15       2.00699879E-04  4.31043964E+01  2.78981309E+04  1.52100327E-09  2.79412353E+04
         5   17       1.70189249E-02  2.25201066E-05  4.15966936E-07  7.31413540E+06  7.31413540E+06
         6    8       9.36418269E-03  1.49419255E+05  3.32663436E+02  1.02276242E-06  1.49751918E+05
         6   10       9.36431307E-03  3.32670140E+02  1.49422258E+05  6.91650933E-11  1.49754929E+05
         6   12       1.52877067E-02  3.02218397E-06  6.07775357E-12  4.65741841E+05  4.65741841E+05
         6   14       2.00683976E-04  2.78953649E+04  4.31008792E+01  1.99950113E-06  2.79384658E+04
         6   16       2.00699879E-04  4.31043964E+01  2.78981309E+04  1.52100327E-09  2.79412353E+04
         6   18       1.70189249E-02  2.25201066E-05  4.15966936E-07  7.31413540E+06  7.31413540E+06
         7   11       4.63695664E-04  1.06967859E+03  2.38150088E+00  1.68324106E-07  1.07206009E+03
         7   13       3.50398564E-02  9.42526010E+05  7.07700803E+03  1.18221852E+06  2.13182154E+06
         7   15       1.56094793E-02  7.07745798E+03  9.42557264E+05  7.30862083E+01  9.49707808E+05
         7   17       1.47442115E-01  4.11850477E+07  9.16935629E+04  6.57785785E-04  4.12767412E+07
         8   12       4.63695664E-04  1.06967859E+03  2.38150088E+00  1.68324106E-07  1.07206009E+03
         8   14       3.50398564E-02  9.42526010E+05  7.07700803E+03  1.18221852E+06  2.13182154E+06
         8   16       1.56094793E-02  7.07745798E+03  9.42557264E+05  7.30862083E+01  9.49707808E+05
         8   18       1.47442115E-01  4.11850477E+07  9.16935629E+04  6.57785785E-04  4.12767412E+07
         9   11       4.63689372E-04  2.38144148E+00  1.06964668E+03  2.52003008E-09  1.07202813E+03
         9   13       1.56092854E-02  7.07716778E+03  9.42514187E+05  7.30820748E+01  9.49664436E+05
         9   15       3.50406770E-02  9.42569155E+05  7.07736753E+03  1.18228232E+06  2.13192884E+06
         9   17       1.47442606E-01  9.16934125E+04  4.11851243E+07  1.03462739E-05  4.12768177E+07
        10   12       4.63689372E-04  2.38144148E+00  1.06964668E+03  2.52003008E-09  1.07202813E+03
        10   14       1.56092854E-02  7.07716778E+03  9.42514187E+05  7.30820748E+01  9.49664436E+05
        10   16       3.50406770E-02  9.42569155E+05  7.07736753E+03  1.18228232E+06  2.13192884E+06
        10   18       1.47442606E-01  9.16934125E+04  4.11851243E+07  1.03462739E-05  4.12768177E+07
        11   13       1.90790903E-02  7.51161366E+05  1.16060377E+03  2.73614491E-05  7.52321970E+05
        11   15       1.90798082E-02  1.16068858E+03  7.51217700E+05  2.48184549E-07  7.52378389E+05
        11   17       1.45378485E-01  5.66289694E-04  2.18642596E-06  3.36379755E+07  3.36379755E+07
        12   14       1.90790903E-02  7.51161366E+05  1.16060377E+03  2.73614491E-05  7.52321970E+05
        12   16       1.90798082E-02  1.16068858E+03  7.51217700E+05  2.48184549E-07  7.52378389E+05
        12   18       1.45378485E-01  5.66289694E-04  2.18642596E-06  3.36379755E+07  3.36379755E+07
        13   17       1.96616319E-02  1.56611937E+06  2.41977767E+03  7.61828839E-07  1.56853915E+06
        14   18       1.96616319E-02  1.56611937E+06  2.41977767E+03  7.61828839E-07  1.56853915E+06
        15   17       1.96610987E-02  2.41964540E+03  1.56603576E+06  3.63975820E-09  1.56845540E+06
        16   18       1.96610987E-02  2.41964540E+03  1.56603576E+06  3.63975820E-09  1.56845540E+06
     -----------------------------------------------------------------------------------------------
--

++ Velocity transition strengths (SO states):
   ------------------------------------------
    for osc. strength at least    1.0000000000000001E-005

      From   To        Osc. strength     Einstein coefficients Ax, Ay, Az (sec-1)    Total A (sec-1)
     -----------------------------------------------------------------------------------------------
         1    5       4.53442903E-04  4.94898336E+00  3.30925947E+03  1.55878107E-08  3.31420845E+03
         1    7       2.36363655E-02  7.79746967E+03  1.05397000E+06  6.71220420E+01  1.06183459E+06
         1    9       4.43262022E-02  1.05397034E+06  7.79747790E+03  9.29539534E+05  1.99130735E+06
         1   11       2.17732370E-02  2.19845591E+03  1.47007462E+06  4.13060585E-08  1.47227307E+06
         1   13       1.46420498E-03  1.86691511E+03  3.06089374E+05  1.17135382E-01  3.07956407E+05
         1   15       2.84458695E-03  3.06079679E+05  1.86682908E+03  2.90346055E+05  5.98292563E+05
         1   17       1.37864497E-05  1.13055246E+01  7.55976264E+03  1.00198419E-06  7.57106816E+03
         2    6       4.53442903E-04  4.94898336E+00  3.30925947E+03  1.55878107E-08  3.31420845E+03
         2    8       2.36363655E-02  7.79746967E+03  1.05397000E+06  6.71220420E+01  1.06183459E+06
         2   10       4.43262022E-02  1.05397034E+06  7.79747790E+03  9.29539534E+05  1.99130735E+06
         2   12       2.17732370E-02  2.19845591E+03  1.47007462E+06  4.13060585E-08  1.47227307E+06
         2   14       1.46420498E-03  1.86691511E+03  3.06089374E+05  1.17135382E-01  3.07956407E+05
         2   16       2.84458695E-03  3.06079679E+05  1.86682908E+03  2.90346055E+05  5.98292563E+05
         2   18       1.37864497E-05  1.13055246E+01  7.55976264E+03  1.00198419E-06  7.57106816E+03
         3    5       4.53428643E-04  3.30910615E+03  4.94858329E+00  4.13393933E-07  3.31405473E+03
         3    7       4.43259007E-02  1.05395330E+06  7.79737648E+03  9.29523796E+05  1.99127447E+06
         3    9       2.36361871E-02  7.79736526E+03  1.05395961E+06  6.71219724E+01  1.06182410E+06
         3   11       2.17735835E-02  1.47009080E+06  2.19847243E+03  1.24501538E-06  1.47228928E+06
         3   13       2.84471892E-03  3.06089492E+05  1.86689702E+03  2.90352584E+05  5.98308973E+05
         3   15       1.46412952E-03  1.86685334E+03  3.06077690E+05  1.17169938E-01  3.07944661E+05
         3   17       1.37866751E-05  7.55987341E+03  1.13054371E+01  4.21918370E-05  7.57117889E+03
         4    6       4.53428643E-04  3.30910615E+03  4.94858329E+00  4.13393933E-07  3.31405473E+03
         4    8       4.43259007E-02  1.05395330E+06  7.79737648E+03  9.29523796E+05  1.99127447E+06
         4   10       2.36361871E-02  7.79736526E+03  1.05395961E+06  6.71219724E+01  1.06182410E+06
         4   12       2.17735835E-02  1.47009080E+06  2.19847243E+03  1.24501538E-06  1.47228928E+06
         4   14       2.84471892E-03  3.06089492E+05  1.86689702E+03  2.90352584E+05  5.98308973E+05
         4   16       1.46412952E-03  1.86685334E+03  3.06077690E+05  1.17169938E-01  3.07944661E+05
         4   18       1.37866751E-05  7.55987341E+03  1.13054371E+01  4.21918370E-05  7.57117889E+03
         5    7       1.59762354E-02  2.54925128E+05  5.67560482E+02  6.38964338E-06  2.55492688E+05
         5    9       1.59764974E-02  5.67570715E+02  2.54930886E+05  2.09977104E-08  2.55498457E+05
         5   11       4.49685805E-02  4.46683360E-06  1.17052561E-09  1.36997803E+06  1.36997803E+06
         5   13       8.14943824E-05  1.13278770E+04  1.75028121E+01  3.74341983E-07  1.13453798E+04
         5   15       8.14831682E-05  1.75000349E+01  1.13265441E+04  3.26100984E-08  1.13440442E+04
         5   17       2.32017480E-02  3.30985227E-05  6.49714407E-07  9.97132997E+06  9.97132997E+06
         6    8       1.59762354E-02  2.54925128E+05  5.67560482E+02  6.38964338E-06  2.55492688E+05
         6   10       1.59764974E-02  5.67570715E+02  2.54930886E+05  2.09977104E-08  2.55498457E+05
         6   12       4.49685805E-02  4.46683360E-06  1.17052561E-09  1.36997803E+06  1.36997803E+06
         6   14       8.14943824E-05  1.13278770E+04  1.75028121E+01  3.74341983E-07  1.13453798E+04
         6   16       8.14831682E-05  1.75000349E+01  1.13265441E+04  3.26100984E-08  1.13440442E+04
         6   18       2.32017480E-02  3.30985227E-05  6.49714407E-07  9.97132997E+06  9.97132997E+06
         7   11       5.37178393E-03  1.23919686E+04  2.75894505E+01  1.38769368E-07  1.24195580E+04
         7   13       9.93662941E-03  2.71212613E+05  2.03639009E+03  3.31296690E+05  6.04545693E+05
         7   15       4.49171692E-03  2.03660421E+03  2.71227719E+05  2.04799237E+01  2.73284803E+05
         7   17       2.48890959E-01  6.95230235E+07  1.54784612E+05  1.11074019E-03  6.96778082E+07
         8   12       5.37178393E-03  1.23919686E+04  2.75894505E+01  1.38769368E-07  1.24195580E+04
         8   14       9.93662941E-03  2.71212613E+05  2.03639009E+03  3.31296690E+05  6.04545693E+05
         8   16       4.49171692E-03  2.03660421E+03  2.71227719E+05  2.04799237E+01  2.73284803E+05
         8   18       2.48890959E-01  6.95230235E+07  1.54784612E+05  1.11074019E-03  6.96778082E+07
         9   11       5.37174177E-03  2.75882491E+01  1.23916705E+04  3.57133651E-09  1.24192588E+04
         9   13       4.49156926E-03  2.03645862E+03  2.71209792E+05  2.04819117E+01  2.73266732E+05
         9   15       9.93716749E-03  2.71233031E+05  2.03659529E+03  3.31325075E+05  6.04594701E+05
         9   17       2.48891888E-01  1.54784523E+05  6.95231808E+07  1.71820219E-05  6.96779653E+07
        10   12       5.37174177E-03  2.75882491E+01  1.23916705E+04  3.57133651E-09  1.24192588E+04
        10   14       4.49156926E-03  2.03645862E+03  2.71209792E+05  2.04819117E+01  2.73266732E+05
        10   16       9.93716749E-03  2.71233031E+05  2.03659529E+03  3.31325075E+05  6.04594701E+05
        10   18       2.48891888E-01  1.54784523E+05  6.95231808E+07  1.71820219E-05  6.96779653E+07
        11   13       7.33457657E-03  2.88770049E+05  4.46165310E+02  7.90309813E-06  2.89216215E+05
        11   15       7.33498356E-03  4.46220397E+02  2.88796850E+05  7.04886401E-08  2.89243071E+05
        11   17       2.68697983E-01  1.04418878E-03  4.25821036E-06  6.21721131E+07  6.21721131E+07
        12   14       7.33457657E-03  2.88770049E+05  4.46165310E+02  7.90309813E-06  2.89216215E+05
        12   16       7.33498356E-03  4.46220397E+02  2.88796850E+05  7.04886401E-08  2.89243071E+05
        12   18       2.68697983E-01  1.04418878E-03  4.25821036E-06  6.21721131E+07  6.21721131E+07
        13   17       5.23381446E-02  4.16893507E+06  6.44133459E+03  2.47662985E-06  4.17537641E+06
        14   18       5.23381446E-02  4.16893507E+06  6.44133459E+03  2.47662985E-06  4.17537641E+06
        15   17       5.23373508E-02  6.44105589E+03  4.16876233E+06  6.91811927E-09  4.17520339E+06
        16   18       5.23373508E-02  6.44105589E+03  4.16876233E+06  6.91811927E-09  4.17520339E+06
     -----------------------------------------------------------------------------------------------
--

++ Length and velocity gauge comparison (SO states):

 --------------------------------------------------
 A comparison between the dipole oscillator strengths in 
 length and velocity gauge will be performed

 All dipole oscillator differences above the tolerance of   0.10000000000000001       will be printed 

 Due to basis set deficiency these oscillator may be problematic 

 The tolerance is defined as ABS(1-O_l/O_v) 
 O_l : dipole oscillator strength in length gauge
 O_p : dipole oscillator strength in velocity gauge
 --------------------------------------------------

  Problematic transitions have been found

      From   To       Difference (%) Osc. st. (len.) Osc. st. (vel.)
     ---------------------------------------------------------------
         1    5            82.511427  8.27585112E-04  4.53442903E-04
         1    7            36.172693  1.50864557E-02  2.36363655E-02
         1    9            34.723864  2.89344319E-02  4.43262022E-02
         1   11            38.379516  1.34167741E-02  2.17732370E-02
         1   13            50.447885  7.25544536E-04  1.46420498E-03
         1   15            62.748422  1.05965353E-03  2.84458695E-03
         1   17           182.879628  3.89990577E-05  1.37864497E-05
         2    6            82.511427  8.27585112E-04  4.53442903E-04
         2    8            36.172693  1.50864557E-02  2.36363655E-02
         2   10            34.723864  2.89344319E-02  4.43262022E-02
         2   12            38.379516  1.34167741E-02  2.17732370E-02
         2   14            50.447885  7.25544536E-04  1.46420498E-03
         2   16            62.748422  1.05965353E-03  2.84458695E-03
         2   18           182.879628  3.89990577E-05  1.37864497E-05
         3    5            82.514748  8.27574145E-04  4.53428643E-04
         3    7            34.723881  2.89342275E-02  4.43259007E-02
         3    9            36.172792  1.50863183E-02  2.36361871E-02
         3   11            38.379531  1.34169843E-02  2.17735835E-02
         3   13            62.747536  1.05972789E-03  2.84471892E-03
         3   15            50.448564  7.25497205E-04  1.46412952E-03
         3   17           182.878050  3.89994776E-05  1.37866751E-05
         4    6            82.514748  8.27574145E-04  4.53428643E-04
         4    8            34.723881  2.89342275E-02  4.43259007E-02
         4   10            36.172792  1.50863183E-02  2.36361871E-02
         4   12            38.379531  1.34169843E-02  2.17735835E-02
         4   14            62.747536  1.05972789E-03  2.84471892E-03
         4   16            50.448564  7.25497205E-04  1.46412952E-03
         4   18           182.878050  3.89994776E-05  1.37866751E-05
         5    7            41.386801  9.36418269E-03  1.59762354E-02
         5    9            41.386946  9.36431307E-03  1.59764974E-02
         5   11            66.003582  1.52877067E-02  4.49685805E-02
         5   13           146.254982  2.00683976E-04  8.14943824E-05
         5   15           146.308389  2.00699879E-04  8.14831682E-05
         5   17            26.648092  1.70189249E-02  2.32017480E-02
         6    8            41.386801  9.36418269E-03  1.59762354E-02
         6   10            41.386946  9.36431307E-03  1.59764974E-02
         6   12            66.003582  1.52877067E-02  4.49685805E-02
         6   14           146.254982  2.00683976E-04  8.14943824E-05
         6   16           146.308389  2.00699879E-04  8.14831682E-05
         6   18            26.648092  1.70189249E-02  2.32017480E-02
         7   11            91.367939  4.63695664E-04  5.37178393E-03
         7   13           252.633222  3.50398564E-02  9.93662941E-03
         7   15           247.516986  1.56094793E-02  4.49171692E-03
         7   17            40.760357  1.47442115E-01  2.48890959E-01
         8   12            91.367939  4.63695664E-04  5.37178393E-03
         8   14           252.633222  3.50398564E-02  9.93662941E-03
         8   16           247.516986  1.56094793E-02  4.49171692E-03
         8   18            40.760357  1.47442115E-01  2.48890959E-01
         9   11            91.367988  4.63689372E-04  5.37174177E-03
         9   13           247.524095  1.56092854E-02  4.49156926E-03
         9   15           252.622385  3.50406770E-02  9.93716749E-03
         9   17            40.760381  1.47442606E-01  2.48891888E-01
        10   12            91.367988  4.63689372E-04  5.37174177E-03
        10   14           247.524095  1.56092854E-02  4.49156926E-03
        10   16           252.622385  3.50406770E-02  9.93716749E-03
        10   18            40.760381  1.47442606E-01  2.48891888E-01
        11   13           160.125314  1.90790903E-02  7.33457657E-03
        11   15           160.120667  1.90798082E-02  7.33498356E-03
        11   17            45.895208  1.45378485E-01  2.68697983E-01
        12   14           160.125314  1.90790903E-02  7.33457657E-03
        12   16           160.120667  1.90798082E-02  7.33498356E-03
        12   18            45.895208  1.45378485E-01  2.68697983E-01
        13   17            62.433456  1.96616319E-02  5.23381446E-02
        14   18            62.433456  1.96616319E-02  5.23381446E-02
        15   17            62.433905  1.96610987E-02  5.23373508E-02
        16   18            62.433905  1.96610987E-02  5.23373508E-02
     ---------------------------------------------------------------

 Number of problematic transitions =                    66

--

 Electric-dipole - electric-octupole not included
++ I/O STATISTICS
 
  I. General I/O information
  - - - - - - - - - - - - - - - - - - - - - - - - - - - - - - - - - - - - - - - - - - -
  Unit  Name          Flsize      Write/Read            MBytes           Write/Read
                      (MBytes)       Calls              In/Out           Time, sec.
  - - - - - - - - - - - - - - - - - - - - - - - - - - - - - - - - - - - - - - - - - - -
   1  SCRATCH           0.00 .       9/      45 .      0.0/      0.0 .       0/       0
   2  ANNI              0.00 .       0/       0 .      0.0/      0.0 .       0/       0
   3  RUNFILE          15.28 .     322/   10733 .      2.3/     77.8 .       0/       0
   4  ONEINT            6.58 .       0/   28767 .      0.0/   3777.9 .       0/       0
   5  JOBIPH            7.71 .       0/      92 .      0.0/      0.9 .       0/       0
   6  ORDINT          771.03 .       1/    6169 .      0.0/   1542.0 .       0/       0
  - - - - - - - - - - - - - - - - - - - - - - - - - - - - - - - - - - - - - - - - - - -
   *  TOTAL           800.61 .     332/   45806 .      2.3/   5398.7 .       0/       1
  - - - - - - - - - - - - - - - - - - - - - - - - - - - - - - - - - - - - - - - - - - -
 
  II. I/O Access Patterns
  - - - - - - - - - - - - - - - - - - - -
  Unit  Name               % of random
                         Write/Read calls
  - - - - - - - - - - - - - - - - - - - -
   1  SCRATCH             88.9/ 100.0
   2  ANNI                 0.0/   0.0
   3  RUNFILE             28.6/  10.8
   4  ONEINT               0.0/  13.4
   5  JOBIPH               0.0/  76.1
   6  ORDINT             100.0/   0.0
  - - - - - - - - - - - - - - - - - - - -
--
--- Stop Module: rassi at Thu Jan  9 20:25:08 2025 /rc=_RC_ALL_IS_WELL_ ---
*** files: xmldump
    saved to directory /home4/s4752295/Internship/Initial_simulations/Point_charge_model/1_electron/active_space_9_non_rel/Ta/varying_bond_length
--- Module rassi spent 5 seconds ---

.##################.
.# Happy landing! #.
.##################.

    Timing: Wall=166.68 User=128.56 System=34.09

###############################################################################
Hbrk Cluster
Job 14548090 for user s4752295
Finished at: Thu Jan  9 20:25:08 CET 2025

Job details:
============

Job ID                         : 14548090
Name                           : Ta_no_c_light
User                           : s4752295
Partition                      : regularmedium
Nodes                          : node99
Number of Nodes                : 1
Cores                          : 1
Number of Tasks                : 1
State                          : RUNNING  
Submit                         : 2025-01-09T20:22:16
Start                          : 2025-01-09T20:22:17
End                            : --
Reserved walltime              : 15:00:00
Used walltime                  : 00:02:52
Used CPU time                  : -- 
% User (Computation)           : --
% System (I/O)                 : --
Total memory reserved          : 25000M
Maximum memory used            : --

Acknowledgements:
=================

Please see this page for information about acknowledging Hbrk in your publications:

https://wiki.hpc.rug.nl/habrok/introduction/scientific_output

################################################################################
