   This run of MOLCAS is using the pymolcas driver

                             OPE
                             OPE          NMOL  CASOP  ENMOLC A   SO
                 OPE        NMOLC        AS  OP EN  MO LC     AS  OP
                OPENM       OL CA        SO  PE NM  OL CA     SOP EN
                OP EN      MO   LC       AS  OP ENMOL  CASO   PENMOL
                OP  EN     MO   LC       AS  OP EN     MO     LC ASO
               OP   E  NMOL  C  AS       OP  EN MO     LC     AS  OP
               OP  E   NMO   LC AS        OPEN  MO     LCASOP EN   M
               O  PEN   MO  LCA  SO
            OPE   NMO   L   CAS    OP
        OPENMOL  CASOP     ENMOL   CASOPE
     OPENMOLCA   SOPENMOLCASOPEN   MOLCASOPE
    OPENMOLCAS   OP           EN   MOL    CAS
    OPENMOLCAS       OP  ENM        O     LCA
    OPENMOLCAS    OPEN  MOLCASO     P  E  NMO
    OPENMOLCAS     OP               E  N  MOL
    OPENMOLCA   SO           PENM   O  L  CAS    OPEN    MO    LCAS
    OPENMOLCA   SOP           ENM   O  L  CAS   OP  EN  MOLC  AS   O
    OPENMOLCA   SOPE           NM      O  LCA   S      OP  EN MO
    OPENMOLC                AS         O  PEN   M      OL  CA  SOPE
    OPENMO        LCASOPE  NMOL        C  ASO   P      ENMOLC     AS
    OPE     NMO      LCA  SO     P     E   NM   OL  CA SO  PE N   MO
          OPENMOLCA            SOPE   NMO        LCAS  O    P  ENMO
     OPENMOLCASOPENMOLCASOPENMOLCASOPENMOLCA
        OPENMOLCASOPENMOLCASOPENMOLCASOPE
            OPENMOLCASOPENMOLCASOPENM
               OPENMOLCASOPENMOLCA        version: o91e1abe7de707b ?
                   OPENMOLCASO
                       OPE                tag:

 OpenMolcas is free software; you can redistribute it and/or modify it
 under the terms of the GNU Lesser General Public License version 2.1.
 OpenMolcas is distributed in the hope that it will be useful, but it
 is provided "as is" and without any express or implied warranties.
 For more details see the full text of the license in the file
 LICENSE or in <http://www.gnu.org/licenses/>.

                 Copyright (C) The OpenMolcas Authors
           For the author list and the recommended citation,
                   consult the file CONTRIBUTORS.md

           *************************************************
           * pymolcas version py2.10                       *
           *   build 3068ae8b88c9345ec6cfef6fef7f1169      *
           *   (after the EMIL interpreter by V. Veryazov) *
           *************************************************

configuration info
------------------
Host name: login1 (Linux)
C Compiler ID: GNU
C flags: -std=gnu99
Fortran Compiler ID: GNU
Fortran flags: -fno-aggressive-loop-optimizations -cpp -fdefault-integer-8 -fmax-stack-var-size=1048576
Definitions: _MOLCAS_;_I8_;_LINUX_;_MKL_
Parallel: OFF (GA=OFF)


   ---------------------------------------------------------------------------------------------------------------------------------------------
  |
  |           Project: tungsten_so_cf
  |    Submitted from: /home4/s4752295/Internship/Initial_simulations/Point_charge_model/1_electron/active_space_9_non_rel/W/varying_bond_length
  |      Scratch area: /tmp/tungsten_so_cf
  |   Save outputs to: /home4/s4752295/Internship/Initial_simulations/Point_charge_model/1_electron/active_space_9_non_rel/W/varying_bond_length
  |            Molcas: /home4/s4752295/Internship/Molcas/recomp_try/OpenMolcas-master/build
  |
  | Scratch area is empty
  |
  |    MOLCAS_DRIVER = /home4/s4752295/Internship/Molcas/bin/pymolcas
  |    MOLCAS_NPROCS = 1
  |    MOLCAS_SOURCE = /home4/s4752295/Internship/Molcas/recomp_try/OpenMolcas-master
  | MOLCAS_STRUCTURE = 0
  |
   ---------------------------------------------------------------------------------------------------------------------------------------------

++ ---------   Input file   ---------

&SEWARD
AMFi

CLIG
$R

Basis Set
W.ANO-rcc.Roos.24s21p15d11f4g2h.11s10p9d8f4g2h.
Spherical d
W            0.0        0.0     0.0
End of Basis

Xfield

4
0.000000,  0.0000,  5.670       -1.0
4.910364,  0.0000, -2.835       -1.0
-2.455182,  4.2525, -2.835      -1.0
-2.455182, -4.2525, -2.835      -1.0

End of input

&SCF
Occupied
34
Iterations
   50  100
End of Input

&RASSCF
LumOrb
Symmetry
1
Spin
2
Nactel
1 0 0
CIRoot
9 9 1
inactive
34
ras2
9
End of Input

>>> COPY tungsten_so_cf.JobIph $SLURM_SUBMIT_DIR/tungsten_so_cf.doublet.JobIph

>>> COPY $SLURM_SUBMIT_DIR/tungsten_so_cf.doublet.JobIph ./JOB002

&RASSI
NROFJobIph
1 All
SpinOrbit
End of Input

EOF

-- ----------------------------------

--- Start Module: seward at Thu Jan  9 00:47:48 2025 ---

()()()()()()()()()()()()()()()()()()()()()()()()()()()()()()()()()()()()()()()()()()()()()()()()()()

                                              &SEWARD

                                   only a single process is used
                       available to each process: 4.1 GB of memory, 1 thread?
                                            pid: 663517
()()()()()()()()()()()()()()()()()()()()()()()()()()()()()()()()()()()()()()()()()()()()()()()()()()

 The speed of LIGHT in this CALCULATION =   137.03599917700001     
               SEWARD will generate:
                  Multipole Moment integrals up to order  2
                  Kinetic Energy integrals
                  Nuclear Attraction integrals (point charge)
                  One-Electron Hamiltonian integrals
                  Velocity integrals
                  Relativistic Douglas-Kroll-Hess integrals:
                    - Parametrization         : EXP
                    - DKH order of Hamiltonian: 2
                    - DKH order of Properties : 0
                         - multipole moment operators
                         - electric potential operators
                         - contact operators
                  External field from     4 point(s) added to the one-electron Hamiltonian
                  Orbital angular momentum around ( 0.0000  0.0000  0.0000 )
                  Velocity quadrupole around ( 0.0000  0.0000  0.0000 )
                  Atomic mean-field integrals
                  Two-Electron Repulsion integrals

                   Integrals are discarded if absolute value <: 0.10E-13
                   Integral cutoff threshold is set to       <: 0.10E-15

++    Symmetry information:
      ---------------------

                    Character Table for C1 

                             E  
                    a        1  x, y, xy, Rz, z, xz, Ry, yz, Rx, I
--


++    Basis set information:
      ----------------------


      Basis set label: W.ANO-RCC.ROOS.24S21P15D11F4G2H.11S10P9D8F4G2H......

      Electronic valence basis set:
      ------------------
      Associated Effective Charge  74.000000 au
      Associated Actual Charge     74.000000 au
      Nuclear Model: Point charge

      Shell  nPrim  nBasis  Cartesian Spherical Contaminant
         s      24      11        X                  
         p      21      10        X                  
         d      15       9                 X         
         f      11       8                 X         
         g       4       4                 X         
         h       2       2                 X         
--


++    Molecular structure info:
      -------------------------

                    ************************************************ 
                    **** Cartesian Coordinates / Bohr, Angstrom **** 
                    ************************************************ 

     Center  Label                x              y              z                     x              y              z
        1      W                0.000000       0.000000       0.000000              0.000000       0.000000       0.000000
--


++    Operator info:
      --------------


  Net charge from external field:   -4.0000000000000000     
--


            Nuclear Potential Energy              0.00000000 au

                    Nuclear-External Field Potential Energy     -52.20458566 au
                    External Field Potential Energy               0.65821002 au 


            Total Nuclear Potential Energy            -52.20458566 au


      Basis set specifications :
      Symmetry species         a  
      Basis functions          200

 Sorry, Molden does not know how to handle
 functions with angular momentum larger than g
Note: The following floating-point exceptions are signalling: IEEE_UNDERFLOW_FLAG IEEE_DENORMAL
--- Stop Module: seward at Thu Jan  9 00:48:07 2025 /rc=_RC_ALL_IS_WELL_ ---
*** files: tungsten_so_cf.GssOrb xmldump
    saved to directory /home4/s4752295/Internship/Initial_simulations/Point_charge_model/1_electron/active_space_9_non_rel/W/varying_bond_length
--- Module seward spent 19 seconds ---

*** symbolic link created: INPORB -> tungsten_so_cf.GssOrb
--- Start Module: scf at Thu Jan  9 00:48:07 2025 ---

()()()()()()()()()()()()()()()()()()()()()()()()()()()()()()()()()()()()()()()()()()()()()()()()()()

                                                &SCF

                                   only a single process is used
                       available to each process: 4.1 GB of memory, 1 thread?
                                            pid: 684460
()()()()()()()()()()()()()()()()()()()()()()()()()()()()()()()()()()()()()()()()()()()()()()()()()()

++    Input section:
      --------------

      Header of the integral files:
      
       Integrals generated by seward 4.2.0  , Thu Jan  9 00:47:48 2025


      Cartesian coordinates in Angstrom:
      -----------------------------------------------------
      No.  Label        X            Y            Z        
      -----------------------------------------------------
       1   W          0.00000000   0.00000000   0.00000000
      -----------------------------------------------------
      Nuclear repulsion energy =  -52.20458566
--

++    Orbital specifications:
      -----------------------

      Symmetry species               1
                                     a
      Frozen orbitals                0
      Occupied orbitals             34
      Secondary orbitals           166
      Deleted orbitals               0
      Total number of orbitals     200
      Number of basis functions    200
--

      Molecular charge                           6.000

++    Optimization specifications:
      ----------------------------

      SCF Algorithm: Conventional
      Minimized density differences are used
      Number of density matrices in core                5
      Maximum number of NDDO SCF iterations            50
      Maximum number of HF SCF iterations             100
      Threshold for SCF energy change            0.10E-08
      Threshold for density matrix               0.10E-03
      Threshold for Fock matrix                  0.15E-03
      Threshold for linear dependence            0.10E-08
      Threshold at which DIIS is turned on       0.15E+00
      Threshold at which QNR/C2DIIS is turned on 0.75E-01
      Threshold for Norm(delta) (QNR/C2DIIS)     0.20E-04
      DIIS extrapolation of the SCF procedure
      All orbitals punched on: SCFORB
--

      Detected guessorb starting orbitals                                             


++ Convergence information
                                   SCF        iterations: Energy and convergence statistics

Iter     Tot. SCF        One-elec.       Two-elec.     Energy      Max Dij or  Max Fij      DNorm      TNorm      AccCon     Time
         Energy          Energy          Energy        Change      Delta Norm                                                in Sec.

 The total and one-electron energies are shifted by a value of     16000. a.u.

   1  -124.236456505 -5865.351459292  5793.319588443   0.00E+00    0.15E+00*   0.16E+00*    0.12E+02   0.15E+04   None         1.
   2  -124.363098186 -5908.048234239  5835.889721708  -0.13E+00*   0.32E-01*   0.11E+00*    0.67E+00   0.15E+04   EDIIS        1.
   3  -124.361481125 -5871.656277970  5799.499382501   0.16E-02*   0.47E-02*   0.54E-01*    0.25E+00   0.15E+04   EDIIS        1.
   4  -124.402415326 -5890.388839395  5818.191009725  -0.41E-01*   0.96E-03*   0.13E-02*    0.14E-01   0.15E+04   c2DIIS       1.
   5  -124.402419814 -5890.499334384  5818.301500226  -0.45E-05*   0.55E-03*   0.73E-03*    0.16E-02   0.15E+04   QNRc2DIIS    1.
   6  -124.402419944 -5890.252775491  5818.054941203  -0.13E-06*   0.25E-03*   0.75E-03*    0.46E-03   0.15E+04   QNRc2DIIS    1.
   7  -124.402421878 -5890.380720828  5818.182884607  -0.19E-05*   0.23E-04*   0.34E-04     0.35E-04   0.15E+04   QNRc2DIIS    1.
   8  -124.402421881 -5890.379584904  5818.181748679  -0.35E-08*   0.71E-05    0.14E-04     0.72E-04   0.15E+04   QNRc2DIIS    1.
   9  -124.402421882 -5890.379848744  5818.182012518  -0.57E-09    0.58E-06    0.16E-05     0.23E-02   0.15E+04   QNRc2DIIS    1.

       Convergence after  9 Macro Iterations
--

 *****************************************************************************************************************************
 *                                                                                                                           *
 *                                             SCF/KS-DFT Program, Final results                                             *
 *                                                                                                                           *
 *                                                                                                                           *
 *                                                                                                                           *
 *                                                       Final Results                                                       *
 *                                                                                                                           *
 *****************************************************************************************************************************

::    Total SCF energy                             -16124.4024218815
      One-electron energy                          -21890.3798487441
      Two-electron energy                            5818.1820125185
      Nuclear repulsion energy                        -52.2045856559
      Kinetic energy (interpolated)                 22649.2145878165
      Virial theorem                                    0.7119188332
      Total spin, S(S+1)                                0.0000000000
      Total spin, S                                     0.0000000000
      Max non-diagonal density matrix element           0.0000004679
      Max non-diagonal Fock matrix element              0.0000002013


      All orbitals with orbital energies smaller than  E(LUMO)+0.5 are printed

++    Molecular orbitals:
      -------------------

      Title: SCF orbitals

      Molecular orbitals for symmetry species 1: a  

          Some orbital energies have been scaled by powers of 10, the power is written right after the orbital index


          Orbital            1 (1)     2         3         4         5         6         7         8         9        10    
          Energy         -256.5741 -450.0909 -395.4305 -395.4305 -395.4305 -107.5742  -90.9856  -90.9856  -90.9855  -71.1124
          Occ. No.          2.0000    2.0000    2.0000    2.0000    2.0000    2.0000    2.0000    2.0000    2.0000    2.0000

        1 W      1s         1.0000   -0.0000    0.0000    0.0000   -0.0000    0.0000    0.0000    0.0000    0.0000   -0.0000
        2 W      2s         0.0000    1.0000    0.0000    0.0000   -0.0000    0.0000    0.0000   -0.0000   -0.0000   -0.0000
        3 W      3s        -0.0000   -0.0000   -0.0000   -0.0000    0.0000    1.0000    0.0000   -0.0000   -0.0000   -0.0000
        4 W      4s         0.0000    0.0000    0.0000    0.0000   -0.0000   -0.0001   -0.0000   -0.0000    0.0000   -0.0000
        5 W      5s        -0.0000   -0.0000   -0.0000    0.0000    0.0000    0.0000    0.0000   -0.0000   -0.0000   -0.0000
        6 W      6s         0.0000    0.0000    0.0000    0.0000   -0.0000   -0.0000   -0.0000   -0.0000    0.0000    0.0000
        7 W      7s        -0.0000   -0.0000    0.0000   -0.0000    0.0000    0.0000   -0.0000    0.0000   -0.0000    0.0000
        8 W      8s         0.0000    0.0000   -0.0000    0.0000   -0.0000   -0.0000    0.0000    0.0000    0.0000    0.0000
        9 W      9s        -0.0000   -0.0000   -0.0000    0.0000    0.0000    0.0000    0.0000   -0.0000   -0.0000   -0.0000
       10 W     10s         0.0000    0.0000    0.0000    0.0000   -0.0000   -0.0000   -0.0000   -0.0000    0.0000   -0.0000
       11 W     11s        -0.0000   -0.0000    0.0000   -0.0000    0.0000    0.0000   -0.0000    0.0000   -0.0000    0.0000
       12 W      2px       -0.0000    0.0000    0.0029    1.0000    0.0000   -0.0000   -0.0000    0.0000   -0.0000    0.0000
       13 W      3px        0.0000   -0.0000   -0.0000   -0.0000   -0.0000   -0.0000   -0.0720    0.9974   -0.0000    0.0000
       14 W      4px        0.0000    0.0000    0.0000    0.0000    0.0000   -0.0000    0.0000   -0.0001    0.0000    0.0000
       15 W      5px       -0.0000   -0.0000   -0.0000   -0.0000   -0.0000    0.0000   -0.0000    0.0000   -0.0000   -0.0000
       16 W      6px        0.0000    0.0000    0.0000    0.0000    0.0000   -0.0000    0.0000   -0.0000    0.0000    0.0000
       17 W      7px       -0.0000   -0.0000   -0.0000   -0.0000   -0.0000    0.0000   -0.0000    0.0000   -0.0000   -0.0000
       18 W      8px       -0.0000    0.0000    0.0000    0.0000    0.0000   -0.0000    0.0000   -0.0000    0.0000    0.0000
       19 W      9px        0.0000   -0.0000   -0.0000   -0.0000   -0.0000    0.0000   -0.0000    0.0000   -0.0000   -0.0000
       20 W     10px        0.0000    0.0000    0.0000    0.0000    0.0000   -0.0000    0.0000   -0.0000    0.0000    0.0000
       21 W     11px        0.0000   -0.0000   -0.0000   -0.0000   -0.0000    0.0000   -0.0000    0.0000   -0.0000   -0.0000
       22 W      2py        0.0000    0.0000    1.0000   -0.0029    0.0000   -0.0000    0.0000    0.0000   -0.0000   -0.0000
       23 W      3py       -0.0000   -0.0000   -0.0000    0.0000   -0.0000   -0.0000    0.9974    0.0720   -0.0000   -0.0000
       24 W      4py        0.0000    0.0000    0.0000   -0.0000    0.0000    0.0000   -0.0001   -0.0000    0.0000   -0.0000
       25 W      5py       -0.0000   -0.0000   -0.0000    0.0000   -0.0000    0.0000    0.0000    0.0000   -0.0000    0.0000
       26 W      6py        0.0000    0.0000    0.0000   -0.0000    0.0000    0.0000   -0.0000   -0.0000    0.0000   -0.0000
       27 W      7py       -0.0000   -0.0000   -0.0000    0.0000   -0.0000   -0.0000    0.0000    0.0000   -0.0000    0.0000
       28 W      8py        0.0000    0.0000    0.0000   -0.0000    0.0000    0.0000   -0.0000   -0.0000    0.0000   -0.0000
       29 W      9py       -0.0000   -0.0000   -0.0000    0.0000   -0.0000   -0.0000    0.0000    0.0000   -0.0000    0.0000
       30 W     10py        0.0000    0.0000    0.0000   -0.0000    0.0000    0.0000   -0.0000   -0.0000    0.0000   -0.0000
       31 W     11py       -0.0000   -0.0000   -0.0000    0.0000   -0.0000   -0.0000    0.0000    0.0000   -0.0000    0.0000
       32 W      2pz        0.0000    0.0000   -0.0000   -0.0000    1.0000   -0.0000    0.0000    0.0000    0.0000   -0.0000
       33 W      3pz       -0.0000    0.0000    0.0000    0.0000   -0.0000    0.0000    0.0000    0.0000    1.0000   -0.0000
       34 W      4pz        0.0000   -0.0000   -0.0000   -0.0000    0.0000    0.0000   -0.0000   -0.0000   -0.0001    0.0000
       35 W      5pz       -0.0000    0.0000    0.0000    0.0000   -0.0000   -0.0000    0.0000    0.0000    0.0000    0.0000
       36 W      6pz        0.0000   -0.0000   -0.0000   -0.0000    0.0000    0.0000   -0.0000   -0.0000   -0.0000   -0.0000
       37 W      7pz       -0.0000    0.0000    0.0000    0.0000   -0.0000   -0.0000    0.0000    0.0000    0.0000   -0.0000
       38 W      8pz        0.0000   -0.0000   -0.0000   -0.0000    0.0000    0.0000   -0.0000   -0.0000   -0.0000    0.0000
       39 W      9pz       -0.0000    0.0000    0.0000    0.0000   -0.0000   -0.0000    0.0000    0.0000    0.0000   -0.0000
       40 W     10pz        0.0000   -0.0000   -0.0000   -0.0000    0.0000    0.0000   -0.0000   -0.0000   -0.0000    0.0000
       41 W     11pz       -0.0000    0.0000    0.0000    0.0000   -0.0000   -0.0000    0.0000    0.0000    0.0000   -0.0000
       42 W      3d2-       0.0000   -0.0000   -0.0000    0.0000   -0.0000    0.0000    0.0000    0.0000   -0.0000    0.3018
       43 W      4d2-      -0.0000    0.0000    0.0000   -0.0000    0.0000   -0.0000   -0.0000   -0.0000   -0.0000   -0.0000
       44 W      5d2-      -0.0000   -0.0000    0.0000   -0.0000   -0.0000   -0.0000   -0.0000   -0.0000    0.0000    0.0000
       45 W      6d2-       0.0000    0.0000   -0.0000    0.0000   -0.0000    0.0000    0.0000    0.0000   -0.0000   -0.0000
       46 W      7d2-      -0.0000   -0.0000    0.0000   -0.0000    0.0000   -0.0000    0.0000    0.0000    0.0000    0.0000
       47 W      8d2-       0.0000    0.0000   -0.0000    0.0000    0.0000    0.0000   -0.0000   -0.0000   -0.0000   -0.0000
       48 W      9d2-      -0.0000   -0.0000   -0.0000    0.0000   -0.0000   -0.0000    0.0000    0.0000    0.0000    0.0000
       49 W     10d2-       0.0000    0.0000    0.0000   -0.0000    0.0000    0.0000   -0.0000   -0.0000    0.0000   -0.0000
       50 W     11d2-      -0.0000   -0.0000   -0.0000    0.0000   -0.0000   -0.0000    0.0000    0.0000   -0.0000    0.0000
       51 W      3d1-      -0.0000   -0.0000    0.0000   -0.0000    0.0000    0.0000    0.0000    0.0000   -0.0000    0.0148
       52 W      4d1-      -0.0000   -0.0000    0.0000   -0.0000    0.0000    0.0000    0.0000    0.0000   -0.0000   -0.0000
       53 W      5d1-       0.0000   -0.0000    0.0000   -0.0000    0.0000   -0.0000   -0.0000   -0.0000    0.0000    0.0000
       54 W      6d1-      -0.0000    0.0000   -0.0000    0.0000   -0.0000    0.0000    0.0000    0.0000   -0.0000   -0.0000
       55 W      7d1-       0.0000   -0.0000   -0.0000    0.0000    0.0000   -0.0000   -0.0000   -0.0000    0.0000    0.0000
       56 W      8d1-      -0.0000    0.0000    0.0000   -0.0000    0.0000    0.0000    0.0000    0.0000   -0.0000   -0.0000
       57 W      9d1-       0.0000    0.0000   -0.0000    0.0000   -0.0000    0.0000   -0.0000   -0.0000    0.0000    0.0000
       58 W     10d1-      -0.0000   -0.0000    0.0000   -0.0000    0.0000   -0.0000    0.0000    0.0000   -0.0000   -0.0000
       59 W     11d1-       0.0000    0.0000   -0.0000    0.0000   -0.0000    0.0000   -0.0000   -0.0000    0.0000    0.0000
       60 W      3d0       -0.0000   -0.0000   -0.0000   -0.0000    0.0000   -0.0000    0.0000    0.0000    0.0000    0.0000
       61 W      4d0        0.0000    0.0000   -0.0000   -0.0000    0.0000   -0.0000    0.0000    0.0000    0.0000   -0.0000
       62 W      5d0       -0.0000   -0.0000    0.0000   -0.0000   -0.0000    0.0000    0.0000   -0.0000   -0.0000    0.0000
       63 W      6d0        0.0000    0.0000    0.0000    0.0000    0.0000   -0.0000    0.0000    0.0000    0.0000   -0.0000
       64 W      7d0       -0.0000   -0.0000   -0.0000    0.0000   -0.0000    0.0000   -0.0000   -0.0000   -0.0000    0.0000
       65 W      8d0        0.0000    0.0000    0.0000   -0.0000    0.0000   -0.0000    0.0000    0.0000    0.0000   -0.0000
       66 W      9d0       -0.0000   -0.0000   -0.0000    0.0000   -0.0000    0.0000   -0.0000   -0.0000   -0.0000    0.0000
       67 W     10d0        0.0000    0.0000   -0.0000   -0.0000    0.0000   -0.0000    0.0000    0.0000    0.0000   -0.0000
       68 W     11d0       -0.0000   -0.0000    0.0000    0.0000   -0.0000    0.0000   -0.0000   -0.0000   -0.0000    0.0000
       69 W      3d1+       0.0000    0.0000    0.0000    0.0000    0.0000    0.0000   -0.0000    0.0000   -0.0000   -0.0468
       70 W      4d1+      -0.0000   -0.0000    0.0000    0.0000    0.0000    0.0000   -0.0000    0.0000   -0.0000    0.0000
       71 W      5d1+      -0.0000    0.0000    0.0000    0.0000    0.0000   -0.0000    0.0000   -0.0000    0.0000   -0.0000
       72 W      6d1+      -0.0000   -0.0000   -0.0000   -0.0000   -0.0000    0.0000   -0.0000    0.0000   -0.0000    0.0000
       73 W      7d1+       0.0000    0.0000   -0.0000   -0.0000    0.0000   -0.0000    0.0000   -0.0000    0.0000   -0.0000
       74 W      8d1+      -0.0000   -0.0000    0.0000    0.0000    0.0000    0.0000   -0.0000    0.0000   -0.0000    0.0000
       75 W      9d1+       0.0000    0.0000   -0.0000   -0.0000   -0.0000   -0.0000    0.0000   -0.0000    0.0000   -0.0000
       76 W     10d1+      -0.0000   -0.0000    0.0000    0.0000    0.0000    0.0000   -0.0000    0.0000   -0.0000    0.0000
       77 W     11d1+       0.0000    0.0000   -0.0000   -0.0000   -0.0000   -0.0000    0.0000   -0.0000    0.0000   -0.0000
       78 W      3d2+       0.0000    0.0000    0.0000    0.0000    0.0000    0.0000    0.0000   -0.0000   -0.0000    0.9521
       79 W      4d2+      -0.0000   -0.0000   -0.0000   -0.0000   -0.0000   -0.0000   -0.0000    0.0000   -0.0000   -0.0000
       80 W      5d2+       0.0000    0.0000   -0.0000   -0.0000   -0.0000    0.0000   -0.0000    0.0000   -0.0000    0.0000
       81 W      6d2+      -0.0000   -0.0000    0.0000    0.0000    0.0000   -0.0000    0.0000   -0.0000    0.0000   -0.0000
       82 W      7d2+       0.0000    0.0000   -0.0000   -0.0000    0.0000    0.0000    0.0000   -0.0000   -0.0000    0.0000
       83 W      8d2+      -0.0000   -0.0000    0.0000    0.0000   -0.0000   -0.0000   -0.0000    0.0000    0.0000   -0.0000
       84 W      9d2+       0.0000    0.0000    0.0000    0.0000    0.0000    0.0000    0.0000   -0.0000   -0.0000    0.0000
       85 W     10d2+      -0.0000   -0.0000   -0.0000   -0.0000   -0.0000   -0.0000   -0.0000    0.0000    0.0000   -0.0000
       86 W     11d2+       0.0000    0.0000    0.0000    0.0000    0.0000    0.0000    0.0000   -0.0000   -0.0000    0.0000
       87 W      4f3-      -0.0000   -0.0000    0.0000   -0.0000    0.0000   -0.0000   -0.0000   -0.0000   -0.0000   -0.0000
       88 W      5f3-       0.0000    0.0000    0.0000   -0.0000   -0.0000    0.0000    0.0000    0.0000    0.0000    0.0000
       89 W      6f3-       0.0000   -0.0000   -0.0000    0.0000    0.0000    0.0000   -0.0000   -0.0000    0.0000   -0.0000
       90 W      7f3-      -0.0000   -0.0000    0.0000   -0.0000   -0.0000   -0.0000    0.0000    0.0000    0.0000    0.0000
       91 W      8f3-       0.0000    0.0000    0.0000   -0.0000   -0.0000    0.0000   -0.0000    0.0000   -0.0000   -0.0000
       92 W      9f3-      -0.0000   -0.0000    0.0000    0.0000    0.0000   -0.0000    0.0000   -0.0000    0.0000    0.0000
       93 W     10f3-       0.0000    0.0000   -0.0000   -0.0000   -0.0000    0.0000   -0.0000    0.0000   -0.0000   -0.0000
       94 W     11f3-      -0.0000   -0.0000    0.0000    0.0000    0.0000   -0.0000    0.0000   -0.0000    0.0000    0.0000
       95 W      4f2-       0.0000    0.0000    0.0000   -0.0000   -0.0000    0.0000    0.0000    0.0000   -0.0000    0.0000
       96 W      5f2-      -0.0000   -0.0000   -0.0000    0.0000    0.0000   -0.0000   -0.0000   -0.0000   -0.0000   -0.0000
       97 W      6f2-      -0.0000    0.0000   -0.0000    0.0000   -0.0000   -0.0000    0.0000    0.0000    0.0000    0.0000
       98 W      7f2-      -0.0000   -0.0000   -0.0000    0.0000    0.0000    0.0000   -0.0000   -0.0000    0.0000   -0.0000
       99 W      8f2-       0.0000    0.0000    0.0000   -0.0000   -0.0000   -0.0000    0.0000    0.0000    0.0000    0.0000
      100 W      9f2-      -0.0000   -0.0000   -0.0000    0.0000    0.0000   -0.0000   -0.0000   -0.0000   -0.0000   -0.0000
      101 W     10f2-       0.0000    0.0000    0.0000   -0.0000   -0.0000   -0.0000    0.0000    0.0000    0.0000    0.0000
      102 W     11f2-      -0.0000   -0.0000   -0.0000    0.0000    0.0000    0.0000   -0.0000   -0.0000    0.0000   -0.0000
      103 W      4f1-       0.0000    0.0000   -0.0000    0.0000   -0.0000    0.0000   -0.0000   -0.0000    0.0000    0.0000
      104 W      5f1-      -0.0000   -0.0000    0.0000   -0.0000    0.0000   -0.0000    0.0000    0.0000   -0.0000   -0.0000
      105 W      6f1-       0.0000    0.0000   -0.0000    0.0000   -0.0000    0.0000   -0.0000   -0.0000    0.0000    0.0000
      106 W      7f1-      -0.0000   -0.0000    0.0000   -0.0000    0.0000   -0.0000    0.0000    0.0000   -0.0000   -0.0000
      107 W      8f1-       0.0000    0.0000   -0.0000    0.0000   -0.0000    0.0000   -0.0000   -0.0000    0.0000    0.0000
      108 W      9f1-      -0.0000    0.0000    0.0000   -0.0000    0.0000   -0.0000    0.0000    0.0000   -0.0000   -0.0000
      109 W     10f1-      -0.0000   -0.0000   -0.0000    0.0000   -0.0000   -0.0000   -0.0000   -0.0000    0.0000    0.0000
      110 W     11f1-       0.0000    0.0000    0.0000   -0.0000    0.0000    0.0000    0.0000    0.0000   -0.0000   -0.0000
      111 W      4f0       -0.0000    0.0000    0.0000    0.0000   -0.0000    0.0000   -0.0000   -0.0000   -0.0000    0.0000
      112 W      5f0        0.0000   -0.0000   -0.0000   -0.0000    0.0000   -0.0000    0.0000    0.0000    0.0000   -0.0000
      113 W      6f0       -0.0000    0.0000    0.0000    0.0000   -0.0000    0.0000   -0.0000   -0.0000   -0.0000    0.0000
      114 W      7f0       -0.0000    0.0000   -0.0000   -0.0000    0.0000   -0.0000    0.0000    0.0000    0.0000   -0.0000
      115 W      8f0        0.0000   -0.0000    0.0000    0.0000   -0.0000    0.0000   -0.0000   -0.0000   -0.0000    0.0000
      116 W      9f0       -0.0000    0.0000   -0.0000   -0.0000    0.0000   -0.0000    0.0000    0.0000    0.0000   -0.0000
      117 W     10f0        0.0000   -0.0000    0.0000    0.0000   -0.0000    0.0000   -0.0000   -0.0000   -0.0000    0.0000
      118 W     11f0       -0.0000    0.0000   -0.0000   -0.0000    0.0000   -0.0000   -0.0000    0.0000    0.0000   -0.0000
      119 W      4f1+       0.0000   -0.0000   -0.0000   -0.0000   -0.0000    0.0000    0.0000   -0.0000    0.0000   -0.0000
      120 W      5f1+       0.0000   -0.0000    0.0000    0.0000    0.0000   -0.0000   -0.0000    0.0000   -0.0000    0.0000
      121 W      6f1+      -0.0000    0.0000   -0.0000   -0.0000   -0.0000    0.0000    0.0000   -0.0000    0.0000   -0.0000
      122 W      7f1+       0.0000   -0.0000    0.0000    0.0000    0.0000   -0.0000   -0.0000    0.0000   -0.0000    0.0000
      123 W      8f1+       0.0000    0.0000   -0.0000   -0.0000   -0.0000    0.0000    0.0000   -0.0000    0.0000   -0.0000
      124 W      9f1+      -0.0000   -0.0000    0.0000    0.0000    0.0000   -0.0000   -0.0000    0.0000   -0.0000    0.0000
      125 W     10f1+       0.0000    0.0000   -0.0000   -0.0000   -0.0000    0.0000    0.0000   -0.0000    0.0000   -0.0000
      126 W     11f1+       0.0000   -0.0000    0.0000    0.0000    0.0000   -0.0000   -0.0000    0.0000   -0.0000    0.0000
      127 W      4f2+      -0.0000    0.0000   -0.0000   -0.0000   -0.0000   -0.0000    0.0000   -0.0000   -0.0000    0.0000
      128 W      5f2+      -0.0000   -0.0000    0.0000    0.0000    0.0000   -0.0000   -0.0000    0.0000    0.0000   -0.0000
      129 W      6f2+      -0.0000    0.0000    0.0000    0.0000   -0.0000    0.0000    0.0000   -0.0000   -0.0000    0.0000
      130 W      7f2+       0.0000   -0.0000    0.0000    0.0000    0.0000   -0.0000   -0.0000    0.0000    0.0000   -0.0000
      131 W      8f2+      -0.0000    0.0000   -0.0000   -0.0000   -0.0000    0.0000    0.0000   -0.0000   -0.0000    0.0000
      132 W      9f2+       0.0000   -0.0000    0.0000    0.0000    0.0000   -0.0000   -0.0000    0.0000    0.0000   -0.0000
      133 W     10f2+      -0.0000    0.0000   -0.0000   -0.0000   -0.0000   -0.0000    0.0000   -0.0000   -0.0000    0.0000
      134 W     11f2+       0.0000    0.0000    0.0000    0.0000    0.0000   -0.0000   -0.0000    0.0000   -0.0000   -0.0000
      135 W      4f3+      -0.0000    0.0000    0.0000   -0.0000   -0.0000    0.0000    0.0000   -0.0000   -0.0000   -0.0000
      136 W      5f3+       0.0000   -0.0000   -0.0000    0.0000    0.0000   -0.0000    0.0000    0.0000    0.0000    0.0000
      137 W      6f3+      -0.0000    0.0000   -0.0000   -0.0000    0.0000    0.0000    0.0000   -0.0000   -0.0000   -0.0000
      138 W      7f3+      -0.0000    0.0000    0.0000    0.0000    0.0000   -0.0000   -0.0000    0.0000    0.0000    0.0000
      139 W      8f3+       0.0000   -0.0000   -0.0000    0.0000    0.0000    0.0000    0.0000   -0.0000   -0.0000   -0.0000
      140 W      9f3+      -0.0000    0.0000    0.0000   -0.0000    0.0000   -0.0000   -0.0000    0.0000    0.0000    0.0000
      141 W     10f3+       0.0000   -0.0000    0.0000   -0.0000   -0.0000    0.0000   -0.0000   -0.0000   -0.0000   -0.0000
      142 W     11f3+      -0.0000    0.0000   -0.0000   -0.0000    0.0000   -0.0000    0.0000    0.0000    0.0000    0.0000
      143 W      5g4-      -0.0000    0.0000    0.0000   -0.0000    0.0000   -0.0000    0.0000    0.0000   -0.0000   -0.0000
      144 W      6g4-       0.0000   -0.0000   -0.0000    0.0000   -0.0000    0.0000    0.0000    0.0000   -0.0000    0.0000
      145 W      7g4-      -0.0000    0.0000    0.0000   -0.0000    0.0000   -0.0000   -0.0000   -0.0000   -0.0000   -0.0000
      146 W      8g4-       0.0000   -0.0000   -0.0000    0.0000   -0.0000    0.0000    0.0000    0.0000   -0.0000    0.0000
      147 W      5g3-       0.0000    0.0000   -0.0000    0.0000    0.0000    0.0000    0.0000    0.0000   -0.0000    0.0000
      148 W      6g3-      -0.0000   -0.0000    0.0000   -0.0000   -0.0000   -0.0000   -0.0000   -0.0000    0.0000   -0.0000
      149 W      7g3-       0.0000    0.0000   -0.0000    0.0000    0.0000    0.0000    0.0000    0.0000   -0.0000    0.0000
      150 W      8g3-      -0.0000   -0.0000    0.0000   -0.0000   -0.0000   -0.0000   -0.0000   -0.0000    0.0000   -0.0000
      151 W      5g2-       0.0000   -0.0000    0.0000   -0.0000    0.0000   -0.0000   -0.0000   -0.0000   -0.0000   -0.0000
      152 W      6g2-      -0.0000    0.0000   -0.0000    0.0000   -0.0000    0.0000    0.0000    0.0000   -0.0000    0.0000
      153 W      7g2-       0.0000   -0.0000    0.0000   -0.0000    0.0000   -0.0000   -0.0000   -0.0000    0.0000   -0.0000
      154 W      8g2-      -0.0000    0.0000   -0.0000    0.0000   -0.0000    0.0000    0.0000    0.0000   -0.0000    0.0000
      155 W      5g1-       0.0000   -0.0000    0.0000   -0.0000    0.0000    0.0000    0.0000    0.0000   -0.0000   -0.0000
      156 W      6g1-      -0.0000    0.0000   -0.0000    0.0000   -0.0000    0.0000    0.0000    0.0000   -0.0000    0.0000
      157 W      7g1-       0.0000   -0.0000    0.0000   -0.0000    0.0000   -0.0000   -0.0000   -0.0000   -0.0000   -0.0000
      158 W      8g1-      -0.0000    0.0000   -0.0000    0.0000   -0.0000    0.0000    0.0000    0.0000   -0.0000    0.0000
      159 W      5g0       -0.0000    0.0000   -0.0000    0.0000   -0.0000   -0.0000   -0.0000    0.0000    0.0000   -0.0000
      160 W      6g0        0.0000   -0.0000    0.0000    0.0000   -0.0000    0.0000    0.0000   -0.0000    0.0000    0.0000
      161 W      7g0       -0.0000    0.0000   -0.0000    0.0000    0.0000   -0.0000   -0.0000    0.0000   -0.0000   -0.0000
      162 W      8g0        0.0000   -0.0000    0.0000   -0.0000   -0.0000    0.0000    0.0000   -0.0000    0.0000    0.0000
      163 W      5g1+       0.0000    0.0000    0.0000    0.0000    0.0000   -0.0000   -0.0000    0.0000   -0.0000    0.0000
      164 W      6g1+       0.0000   -0.0000   -0.0000   -0.0000   -0.0000    0.0000   -0.0000    0.0000   -0.0000   -0.0000
      165 W      7g1+       0.0000    0.0000    0.0000    0.0000    0.0000   -0.0000    0.0000   -0.0000    0.0000    0.0000
      166 W      8g1+      -0.0000   -0.0000   -0.0000   -0.0000   -0.0000    0.0000   -0.0000    0.0000   -0.0000   -0.0000
      167 W      5g2+      -0.0000   -0.0000   -0.0000   -0.0000   -0.0000   -0.0000   -0.0000    0.0000   -0.0000   -0.0000
      168 W      6g2+       0.0000    0.0000    0.0000    0.0000    0.0000    0.0000    0.0000   -0.0000    0.0000    0.0000
      169 W      7g2+      -0.0000   -0.0000   -0.0000   -0.0000   -0.0000   -0.0000   -0.0000    0.0000   -0.0000   -0.0000
      170 W      8g2+       0.0000    0.0000    0.0000    0.0000   -0.0000    0.0000    0.0000   -0.0000    0.0000    0.0000
      171 W      5g3+       0.0000   -0.0000    0.0000    0.0000   -0.0000    0.0000   -0.0000    0.0000    0.0000    0.0000
      172 W      6g3+      -0.0000    0.0000    0.0000    0.0000   -0.0000   -0.0000    0.0000    0.0000    0.0000   -0.0000
      173 W      7g3+       0.0000   -0.0000   -0.0000   -0.0000    0.0000    0.0000   -0.0000   -0.0000   -0.0000    0.0000
      174 W      8g3+      -0.0000    0.0000    0.0000    0.0000   -0.0000   -0.0000    0.0000    0.0000    0.0000   -0.0000
      175 W      5g4+       0.0000    0.0000    0.0000    0.0000    0.0000    0.0000   -0.0000    0.0000    0.0000    0.0000
      176 W      6g4+      -0.0000   -0.0000   -0.0000   -0.0000   -0.0000   -0.0000   -0.0000    0.0000   -0.0000   -0.0000
      177 W      7g4+       0.0000    0.0000    0.0000    0.0000    0.0000    0.0000    0.0000   -0.0000    0.0000    0.0000
      178 W      8g4+      -0.0000   -0.0000   -0.0000   -0.0000   -0.0000   -0.0000   -0.0000    0.0000   -0.0000   -0.0000
      179 W      6h5-      -0.0000   -0.0000   -0.0000    0.0000    0.0000   -0.0000    0.0000    0.0000   -0.0000    0.0000
      180 W      7h5-       0.0000    0.0000    0.0000   -0.0000    0.0000    0.0000    0.0000    0.0000   -0.0000    0.0000
      181 W      6h4-      -0.0000   -0.0000    0.0000   -0.0000    0.0000    0.0000   -0.0000   -0.0000    0.0000   -0.0000
      182 W      7h4-      -0.0000    0.0000    0.0000   -0.0000    0.0000   -0.0000   -0.0000   -0.0000    0.0000    0.0000
      183 W      6h3-       0.0000    0.0000   -0.0000    0.0000    0.0000    0.0000    0.0000    0.0000   -0.0000   -0.0000
      184 W      7h3-      -0.0000   -0.0000   -0.0000   -0.0000    0.0000   -0.0000    0.0000    0.0000   -0.0000    0.0000
      185 W      6h2-      -0.0000   -0.0000    0.0000   -0.0000    0.0000   -0.0000   -0.0000   -0.0000   -0.0000    0.0000
      186 W      7h2-      -0.0000   -0.0000    0.0000   -0.0000    0.0000    0.0000   -0.0000   -0.0000    0.0000    0.0000
      187 W      6h1-       0.0000   -0.0000   -0.0000    0.0000    0.0000    0.0000    0.0000    0.0000   -0.0000   -0.0000
      188 W      7h1-      -0.0000    0.0000   -0.0000    0.0000    0.0000   -0.0000    0.0000    0.0000   -0.0000   -0.0000
      189 W      6h0        0.0000   -0.0000   -0.0000    0.0000    0.0000    0.0000   -0.0000    0.0000    0.0000   -0.0000
      190 W      7h0        0.0000   -0.0000   -0.0000   -0.0000   -0.0000    0.0000    0.0000    0.0000   -0.0000    0.0000
      191 W      6h1+       0.0000   -0.0000   -0.0000   -0.0000    0.0000   -0.0000   -0.0000    0.0000   -0.0000    0.0000
      192 W      7h1+      -0.0000    0.0000   -0.0000   -0.0000    0.0000   -0.0000   -0.0000    0.0000   -0.0000    0.0000
      193 W      6h2+      -0.0000   -0.0000   -0.0000   -0.0000   -0.0000   -0.0000   -0.0000    0.0000   -0.0000    0.0000
      194 W      7h2+       0.0000    0.0000   -0.0000   -0.0000   -0.0000    0.0000   -0.0000    0.0000    0.0000    0.0000
      195 W      6h3+       0.0000   -0.0000    0.0000   -0.0000    0.0000    0.0000    0.0000   -0.0000   -0.0000    0.0000
      196 W      7h3+       0.0000   -0.0000   -0.0000    0.0000    0.0000    0.0000    0.0000   -0.0000   -0.0000   -0.0000
      197 W      6h4+      -0.0000    0.0000    0.0000    0.0000    0.0000   -0.0000    0.0000   -0.0000   -0.0000    0.0000
      198 W      7h4+       0.0000    0.0000    0.0000    0.0000    0.0000    0.0000    0.0000   -0.0000    0.0000   -0.0000
      199 W      6h5+       0.0000    0.0000    0.0000    0.0000    0.0000    0.0000    0.0000   -0.0000   -0.0000    0.0000
      200 W      7h5+      -0.0000    0.0000   -0.0000   -0.0000    0.0000   -0.0000    0.0000   -0.0000   -0.0000    0.0000

          Orbital           11        12        13        14        15        16        17        18        19        20    
          Energy          -71.1124  -71.1124  -71.1124  -71.1123  -25.0499  -19.4787  -19.4787  -19.4784  -12.1236  -12.1236
          Occ. No.          2.0000    2.0000    2.0000    2.0000    2.0000    2.0000    2.0000    2.0000    2.0000    2.0000

        1 W      1s         0.0000    0.0000   -0.0000    0.0000   -0.0000   -0.0000   -0.0000   -0.0000    0.0000    0.0000
        2 W      2s         0.0000   -0.0000   -0.0000    0.0000   -0.0000   -0.0000   -0.0000    0.0000    0.0000    0.0000
        3 W      3s         0.0000   -0.0000   -0.0000    0.0000    0.0001    0.0000   -0.0000   -0.0000    0.0000    0.0000
        4 W      4s         0.0000    0.0000   -0.0000   -0.0000    1.0000    0.0000   -0.0000   -0.0002   -0.0000   -0.0000
        5 W      5s         0.0000   -0.0000   -0.0000    0.0000   -0.0005    0.0000    0.0000    0.0000   -0.0000    0.0000
        6 W      6s        -0.0000    0.0000    0.0000   -0.0000   -0.0000    0.0000    0.0000   -0.0000   -0.0000   -0.0000
        7 W      7s        -0.0000   -0.0000    0.0000    0.0000    0.0001   -0.0000    0.0000    0.0000    0.0000    0.0000
        8 W      8s        -0.0000    0.0000    0.0000   -0.0000   -0.0001   -0.0000   -0.0000   -0.0000   -0.0000   -0.0000
        9 W      9s         0.0000   -0.0000   -0.0000    0.0000    0.0000   -0.0000    0.0000    0.0000    0.0000    0.0000
       10 W     10s         0.0000    0.0000   -0.0000   -0.0000    0.0000    0.0000    0.0000   -0.0000   -0.0000   -0.0000
       11 W     11s        -0.0000   -0.0000    0.0000    0.0000   -0.0001    0.0000    0.0000    0.0000   -0.0000   -0.0000
       12 W      2px       -0.0000    0.0000   -0.0000    0.0000   -0.0000   -0.0000   -0.0000    0.0000    0.0000    0.0000
       13 W      3px       -0.0000    0.0000   -0.0000    0.0000    0.0000    0.0001    0.0000   -0.0000   -0.0000   -0.0000
       14 W      4px       -0.0000   -0.0000    0.0000    0.0000   -0.0000    0.9995    0.0317   -0.0000    0.0000    0.0000
       15 W      5px        0.0000   -0.0000    0.0000   -0.0000   -0.0000   -0.0003   -0.0000    0.0000   -0.0000   -0.0000
       16 W      6px       -0.0000    0.0000   -0.0000    0.0000    0.0000   -0.0000   -0.0000    0.0000   -0.0000   -0.0000
       17 W      7px        0.0000    0.0000   -0.0000   -0.0000   -0.0000    0.0001    0.0000   -0.0000    0.0000    0.0000
       18 W      8px       -0.0000   -0.0000    0.0000    0.0000    0.0000   -0.0001   -0.0000    0.0000   -0.0000   -0.0000
       19 W      9px        0.0000    0.0000   -0.0000   -0.0000   -0.0000   -0.0000   -0.0000    0.0000    0.0000    0.0000
       20 W     10px       -0.0000   -0.0000    0.0000    0.0000    0.0000    0.0001    0.0000   -0.0000    0.0000    0.0000
       21 W     11px        0.0000    0.0000   -0.0000   -0.0000   -0.0000   -0.0000   -0.0000    0.0000    0.0000    0.0000
       22 W      2py       -0.0000   -0.0000   -0.0000   -0.0000   -0.0000    0.0000   -0.0000    0.0000   -0.0000    0.0000
       23 W      3py       -0.0000   -0.0000   -0.0000   -0.0000    0.0000   -0.0000    0.0001   -0.0000    0.0000   -0.0000
       24 W      4py       -0.0000    0.0000    0.0000    0.0000    0.0000   -0.0317    0.9995   -0.0000   -0.0000    0.0000
       25 W      5py        0.0000    0.0000    0.0000    0.0000   -0.0000    0.0000   -0.0003    0.0000    0.0000   -0.0000
       26 W      6py       -0.0000   -0.0000   -0.0000   -0.0000    0.0000    0.0000   -0.0000    0.0000    0.0000   -0.0000
       27 W      7py        0.0000   -0.0000   -0.0000    0.0000   -0.0000   -0.0000    0.0001   -0.0000   -0.0000    0.0000
       28 W      8py       -0.0000    0.0000    0.0000   -0.0000    0.0000    0.0000   -0.0001    0.0000    0.0000   -0.0000
       29 W      9py        0.0000   -0.0000   -0.0000   -0.0000   -0.0000    0.0000   -0.0000    0.0000   -0.0000    0.0000
       30 W     10py       -0.0000    0.0000    0.0000    0.0000    0.0000   -0.0000    0.0001   -0.0000   -0.0000    0.0000
       31 W     11py        0.0000   -0.0000   -0.0000   -0.0000   -0.0000    0.0000   -0.0000    0.0000   -0.0000    0.0000
       32 W      2pz        0.0000    0.0000   -0.0000   -0.0000    0.0000   -0.0000   -0.0000   -0.0000    0.0000    0.0000
       33 W      3pz        0.0000    0.0000    0.0000   -0.0000   -0.0000    0.0000    0.0000    0.0001    0.0000   -0.0000
       34 W      4pz       -0.0000   -0.0000    0.0000    0.0000    0.0002    0.0000    0.0000    1.0000    0.0000   -0.0000
       35 W      5pz       -0.0000   -0.0000    0.0000    0.0000    0.0000   -0.0000   -0.0000   -0.0003    0.0000    0.0000
       36 W      6pz       -0.0000   -0.0000   -0.0000   -0.0000   -0.0000   -0.0000   -0.0000   -0.0000   -0.0000   -0.0000
       37 W      7pz        0.0000    0.0000    0.0000   -0.0000    0.0000    0.0000    0.0000    0.0001    0.0000    0.0000
       38 W      8pz       -0.0000   -0.0000   -0.0000    0.0000   -0.0000   -0.0000   -0.0000   -0.0001    0.0000   -0.0000
       39 W      9pz       -0.0000    0.0000   -0.0000   -0.0000    0.0000   -0.0000   -0.0000   -0.0000   -0.0000    0.0000
       40 W     10pz       -0.0000   -0.0000    0.0000    0.0000   -0.0000    0.0000    0.0000    0.0001   -0.0000    0.0000
       41 W     11pz        0.0000    0.0000   -0.0000   -0.0000    0.0000   -0.0000   -0.0000   -0.0000   -0.0000    0.0000
       42 W      3d2-       0.9521   -0.0491   -0.0008   -0.0000    0.0000   -0.0000    0.0000    0.0000    0.0000   -0.0000
       43 W      4d2-      -0.0000    0.0000    0.0000    0.0000    0.0000   -0.0000    0.0000   -0.0000    0.9966   -0.0775
       44 W      5d2-       0.0000   -0.0000   -0.0000   -0.0000   -0.0000   -0.0000    0.0000    0.0000   -0.0007    0.0001
       45 W      6d2-      -0.0000    0.0000    0.0000    0.0000   -0.0000    0.0000   -0.0000   -0.0000   -0.0001    0.0000
       46 W      7d2-       0.0000   -0.0000   -0.0000   -0.0000    0.0000   -0.0000    0.0000    0.0000    0.0006   -0.0000
       47 W      8d2-      -0.0000    0.0000    0.0000    0.0000   -0.0000   -0.0000    0.0000   -0.0000   -0.0005    0.0000
       48 W      9d2-       0.0000   -0.0000   -0.0000   -0.0000    0.0000    0.0000   -0.0000    0.0000    0.0001   -0.0000
       49 W     10d2-      -0.0000    0.0000    0.0000    0.0000   -0.0000   -0.0000    0.0000    0.0000    0.0001   -0.0000
       50 W     11d2-       0.0000   -0.0000   -0.0000   -0.0000   -0.0000    0.0000   -0.0000   -0.0000    0.0000   -0.0000
       51 W      3d1-       0.0468    0.9987    0.0153    0.0000   -0.0000    0.0000   -0.0000    0.0000   -0.0000    0.0000
       52 W      4d1-      -0.0000   -0.0000   -0.0000   -0.0000   -0.0000   -0.0000    0.0001   -0.0000   -0.0260    0.0020
       53 W      5d1-       0.0000    0.0000    0.0000    0.0000    0.0000   -0.0000    0.0000   -0.0000    0.0000   -0.0000
       54 W      6d1-      -0.0000   -0.0000   -0.0000   -0.0000   -0.0000    0.0000   -0.0000    0.0000    0.0000   -0.0000
       55 W      7d1-       0.0000    0.0000    0.0000    0.0000    0.0000   -0.0000    0.0000   -0.0000   -0.0000    0.0000
       56 W      8d1-      -0.0000   -0.0000   -0.0000   -0.0000   -0.0000   -0.0000    0.0000   -0.0000    0.0000   -0.0000
       57 W      9d1-       0.0000    0.0000    0.0000    0.0000    0.0000    0.0000   -0.0000    0.0000   -0.0000    0.0000
       58 W     10d1-      -0.0000   -0.0000   -0.0000   -0.0000   -0.0000    0.0000   -0.0000    0.0000   -0.0000    0.0000
       59 W     11d1-       0.0000    0.0000    0.0000    0.0000    0.0000   -0.0000    0.0000   -0.0000   -0.0000    0.0000
       60 W      3d0       -0.0000   -0.0000    0.0000    1.0000    0.0000   -0.0000    0.0000   -0.0000    0.0000    0.0000
       61 W      4d0        0.0000    0.0000   -0.0000   -0.0000   -0.0000    0.0000    0.0000    0.0001    0.0000    0.0000
       62 W      5d0       -0.0000   -0.0000    0.0000    0.0000   -0.0000    0.0000    0.0000    0.0000   -0.0000   -0.0000
       63 W      6d0        0.0000    0.0000   -0.0000   -0.0000    0.0000   -0.0000   -0.0000   -0.0000    0.0000   -0.0000
       64 W      7d0       -0.0000   -0.0000    0.0000    0.0000   -0.0000    0.0000    0.0000    0.0000    0.0000    0.0000
       65 W      8d0        0.0000    0.0000   -0.0000   -0.0000    0.0000   -0.0000    0.0000   -0.0000   -0.0000   -0.0000
       66 W      9d0       -0.0000   -0.0000    0.0000    0.0000   -0.0000    0.0000    0.0000    0.0000    0.0000    0.0000
       67 W     10d0        0.0000    0.0000   -0.0000   -0.0000    0.0000   -0.0000   -0.0000   -0.0000    0.0000    0.0000
       68 W     11d0       -0.0000   -0.0000    0.0000    0.0000   -0.0000    0.0000    0.0000    0.0000    0.0000    0.0000
       69 W      3d1+       0.0148   -0.0153    0.9987   -0.0000   -0.0000   -0.0000   -0.0000    0.0000    0.0000    0.0000
       70 W      4d1+      -0.0000    0.0000   -0.0000    0.0000    0.0000    0.0001    0.0000   -0.0000    0.0020    0.0260
       71 W      5d1+       0.0000   -0.0000    0.0000   -0.0000    0.0000    0.0000    0.0000   -0.0000   -0.0000   -0.0000
       72 W      6d1+      -0.0000    0.0000   -0.0000    0.0000   -0.0000   -0.0000   -0.0000    0.0000   -0.0000   -0.0000
       73 W      7d1+       0.0000   -0.0000    0.0000   -0.0000    0.0000    0.0000    0.0000   -0.0000    0.0000    0.0000
       74 W      8d1+      -0.0000    0.0000   -0.0000    0.0000   -0.0000    0.0000    0.0000   -0.0000   -0.0000   -0.0000
       75 W      9d1+       0.0000   -0.0000    0.0000   -0.0000    0.0000   -0.0000   -0.0000    0.0000    0.0000    0.0000
       76 W     10d1+      -0.0000    0.0000   -0.0000    0.0000   -0.0000   -0.0000   -0.0000    0.0000    0.0000    0.0000
       77 W     11d1+       0.0000   -0.0000    0.0000   -0.0000    0.0000    0.0000    0.0000   -0.0000    0.0000    0.0000
       78 W      3d2+      -0.3018   -0.0008    0.0491   -0.0000    0.0000   -0.0000   -0.0000   -0.0000    0.0000    0.0000
       79 W      4d2+       0.0000    0.0000   -0.0000    0.0000    0.0000   -0.0000   -0.0000   -0.0000    0.0775    0.9966
       80 W      5d2+      -0.0000   -0.0000    0.0000   -0.0000   -0.0000   -0.0000   -0.0000    0.0000   -0.0001   -0.0007
       81 W      6d2+       0.0000    0.0000   -0.0000    0.0000    0.0000    0.0000    0.0000   -0.0000   -0.0000   -0.0001
       82 W      7d2+      -0.0000   -0.0000    0.0000   -0.0000   -0.0000   -0.0000   -0.0000    0.0000    0.0000    0.0006
       83 W      8d2+       0.0000    0.0000   -0.0000    0.0000    0.0000   -0.0000   -0.0000   -0.0000   -0.0000   -0.0005
       84 W      9d2+      -0.0000   -0.0000    0.0000   -0.0000   -0.0000    0.0000    0.0000   -0.0000    0.0000    0.0001
       85 W     10d2+       0.0000    0.0000   -0.0000    0.0000    0.0000   -0.0000   -0.0000    0.0000    0.0000    0.0001
       86 W     11d2+      -0.0000   -0.0000    0.0000   -0.0000   -0.0000    0.0000    0.0000    0.0000    0.0000    0.0000
       87 W      4f3-      -0.0000    0.0000   -0.0000    0.0000    0.0000   -0.0000   -0.0000   -0.0000   -0.0000    0.0000
       88 W      5f3-       0.0000   -0.0000    0.0000   -0.0000   -0.0000   -0.0000    0.0000   -0.0000   -0.0000    0.0000
       89 W      6f3-      -0.0000    0.0000   -0.0000    0.0000    0.0000    0.0000   -0.0000    0.0000    0.0000   -0.0000
       90 W      7f3-       0.0000   -0.0000    0.0000   -0.0000   -0.0000   -0.0000   -0.0000   -0.0000    0.0000   -0.0000
       91 W      8f3-      -0.0000    0.0000   -0.0000   -0.0000    0.0000   -0.0000    0.0000    0.0000   -0.0000    0.0000
       92 W      9f3-       0.0000   -0.0000    0.0000    0.0000   -0.0000    0.0000   -0.0000   -0.0000   -0.0000    0.0000
       93 W     10f3-      -0.0000    0.0000   -0.0000    0.0000    0.0000    0.0000   -0.0000    0.0000    0.0000   -0.0000
       94 W     11f3-       0.0000   -0.0000    0.0000   -0.0000   -0.0000   -0.0000    0.0000   -0.0000   -0.0000    0.0000
       95 W      4f2-       0.0000   -0.0000   -0.0000   -0.0000   -0.0000    0.0000   -0.0000    0.0000    0.0001   -0.0000
       96 W      5f2-      -0.0000    0.0000    0.0000    0.0000    0.0000    0.0000   -0.0000    0.0000    0.0000   -0.0000
       97 W      6f2-       0.0000   -0.0000   -0.0000   -0.0000   -0.0000    0.0000   -0.0000    0.0000   -0.0000    0.0000
       98 W      7f2-      -0.0000    0.0000    0.0000    0.0000    0.0000   -0.0000    0.0000    0.0000   -0.0000    0.0000
       99 W      8f2-       0.0000   -0.0000   -0.0000   -0.0000   -0.0000    0.0000   -0.0000    0.0000    0.0000   -0.0000
      100 W      9f2-      -0.0000    0.0000    0.0000    0.0000    0.0000    0.0000   -0.0000    0.0000    0.0000   -0.0000
      101 W     10f2-       0.0000   -0.0000   -0.0000   -0.0000   -0.0000    0.0000   -0.0000   -0.0000   -0.0000    0.0000
      102 W     11f2-      -0.0000   -0.0000   -0.0000    0.0000    0.0000   -0.0000    0.0000   -0.0000    0.0000   -0.0000
      103 W      4f1-       0.0000    0.0000    0.0000    0.0000    0.0000    0.0000   -0.0000    0.0000   -0.0000    0.0000
      104 W      5f1-      -0.0000   -0.0000   -0.0000   -0.0000   -0.0000    0.0000   -0.0000    0.0000   -0.0000    0.0000
      105 W      6f1-       0.0000    0.0000    0.0000    0.0000    0.0000   -0.0000    0.0000   -0.0000    0.0000   -0.0000
      106 W      7f1-      -0.0000   -0.0000   -0.0000   -0.0000   -0.0000    0.0000   -0.0000    0.0000    0.0000   -0.0000
      107 W      8f1-       0.0000    0.0000    0.0000    0.0000    0.0000   -0.0000    0.0000    0.0000   -0.0000    0.0000
      108 W      9f1-      -0.0000   -0.0000   -0.0000   -0.0000   -0.0000    0.0000   -0.0000   -0.0000   -0.0000    0.0000
      109 W     10f1-       0.0000    0.0000    0.0000    0.0000    0.0000    0.0000   -0.0000    0.0000    0.0000   -0.0000
      110 W     11f1-      -0.0000   -0.0000   -0.0000   -0.0000   -0.0000    0.0000   -0.0000    0.0000    0.0000   -0.0000
      111 W      4f0       -0.0000   -0.0000    0.0000    0.0000   -0.0000   -0.0000   -0.0000   -0.0000    0.0000    0.0000
      112 W      5f0        0.0000    0.0000   -0.0000   -0.0000   -0.0000   -0.0000   -0.0000   -0.0000    0.0000    0.0000
      113 W      6f0       -0.0000   -0.0000    0.0000    0.0000   -0.0000    0.0000    0.0000    0.0000   -0.0000   -0.0000
      114 W      7f0        0.0000    0.0000   -0.0000   -0.0000    0.0000   -0.0000   -0.0000   -0.0000    0.0000    0.0000
      115 W      8f0       -0.0000   -0.0000    0.0000    0.0000   -0.0000    0.0000    0.0000    0.0000   -0.0000    0.0000
      116 W      9f0        0.0000    0.0000   -0.0000   -0.0000   -0.0000   -0.0000   -0.0000   -0.0000    0.0000    0.0000
      117 W     10f0       -0.0000   -0.0000    0.0000    0.0000    0.0000   -0.0000    0.0000   -0.0000   -0.0000   -0.0000
      118 W     11f0        0.0000    0.0000   -0.0000   -0.0000   -0.0000   -0.0000   -0.0000   -0.0000    0.0000    0.0000
      119 W      4f1+       0.0000   -0.0000    0.0000   -0.0000   -0.0000   -0.0000   -0.0000    0.0000    0.0000    0.0000
      120 W      5f1+      -0.0000    0.0000   -0.0000    0.0000   -0.0000   -0.0000   -0.0000    0.0000    0.0000    0.0000
      121 W      6f1+       0.0000   -0.0000    0.0000   -0.0000   -0.0000    0.0000    0.0000   -0.0000   -0.0000   -0.0000
      122 W      7f1+      -0.0000    0.0000   -0.0000    0.0000    0.0000   -0.0000   -0.0000    0.0000   -0.0000   -0.0000
      123 W      8f1+       0.0000   -0.0000    0.0000   -0.0000   -0.0000    0.0000    0.0000   -0.0000    0.0000    0.0000
      124 W      9f1+      -0.0000    0.0000   -0.0000    0.0000    0.0000   -0.0000   -0.0000    0.0000    0.0000    0.0000
      125 W     10f1+       0.0000   -0.0000    0.0000   -0.0000    0.0000   -0.0000   -0.0000    0.0000   -0.0000   -0.0000
      126 W     11f1+      -0.0000    0.0000   -0.0000    0.0000   -0.0000   -0.0000   -0.0000    0.0000   -0.0000   -0.0000
      127 W      4f2+      -0.0000   -0.0000    0.0000   -0.0000    0.0000    0.0000    0.0000   -0.0000    0.0000    0.0001
      128 W      5f2+       0.0000    0.0000   -0.0000    0.0000    0.0000    0.0000    0.0000    0.0000    0.0000    0.0000
      129 W      6f2+      -0.0000   -0.0000    0.0000   -0.0000   -0.0000    0.0000    0.0000   -0.0000   -0.0000   -0.0000
      130 W      7f2+       0.0000    0.0000   -0.0000    0.0000   -0.0000   -0.0000   -0.0000   -0.0000   -0.0000   -0.0000
      131 W      8f2+      -0.0000   -0.0000    0.0000   -0.0000    0.0000    0.0000    0.0000    0.0000    0.0000    0.0000
      132 W      9f2+       0.0000    0.0000   -0.0000    0.0000   -0.0000    0.0000    0.0000   -0.0000    0.0000    0.0000
      133 W     10f2+      -0.0000   -0.0000    0.0000   -0.0000   -0.0000    0.0000    0.0000   -0.0000   -0.0000   -0.0000
      134 W     11f2+       0.0000   -0.0000    0.0000    0.0000   -0.0000   -0.0000   -0.0000    0.0000    0.0000    0.0000
      135 W      4f3+       0.0000   -0.0000   -0.0000    0.0000   -0.0000   -0.0000    0.0000    0.0000   -0.0000   -0.0000
      136 W      5f3+      -0.0000   -0.0000    0.0000    0.0000   -0.0000    0.0000   -0.0000    0.0000   -0.0000   -0.0000
      137 W      6f3+       0.0000   -0.0000   -0.0000   -0.0000   -0.0000   -0.0000   -0.0000    0.0000    0.0000    0.0000
      138 W      7f3+      -0.0000    0.0000    0.0000    0.0000    0.0000   -0.0000   -0.0000   -0.0000    0.0000    0.0000
      139 W      8f3+       0.0000    0.0000   -0.0000   -0.0000   -0.0000    0.0000   -0.0000    0.0000   -0.0000   -0.0000
      140 W      9f3+      -0.0000   -0.0000    0.0000    0.0000   -0.0000   -0.0000    0.0000    0.0000   -0.0000   -0.0000
      141 W     10f3+       0.0000    0.0000   -0.0000   -0.0000    0.0000    0.0000   -0.0000    0.0000    0.0000    0.0000
      142 W     11f3+      -0.0000    0.0000   -0.0000   -0.0000   -0.0000    0.0000    0.0000   -0.0000    0.0000   -0.0000
      143 W      5g4-      -0.0000    0.0000    0.0000    0.0000   -0.0000    0.0000   -0.0000    0.0000    0.0000   -0.0000
      144 W      6g4-       0.0000    0.0000    0.0000    0.0000   -0.0000    0.0000   -0.0000    0.0000    0.0000   -0.0000
      145 W      7g4-      -0.0000   -0.0000   -0.0000    0.0000    0.0000   -0.0000    0.0000   -0.0000    0.0000   -0.0000
      146 W      8g4-       0.0000   -0.0000   -0.0000   -0.0000   -0.0000   -0.0000    0.0000   -0.0000   -0.0000    0.0000
      147 W      5g3-       0.0000   -0.0000   -0.0000    0.0000    0.0000   -0.0000    0.0000   -0.0000    0.0000   -0.0000
      148 W      6g3-      -0.0000    0.0000    0.0000   -0.0000   -0.0000   -0.0000    0.0000    0.0000    0.0000   -0.0000
      149 W      7g3-       0.0000   -0.0000    0.0000    0.0000    0.0000    0.0000   -0.0000   -0.0000   -0.0000    0.0000
      150 W      8g3-      -0.0000    0.0000    0.0000   -0.0000   -0.0000   -0.0000   -0.0000    0.0000   -0.0000    0.0000
      151 W      5g2-      -0.0000    0.0000    0.0000    0.0000   -0.0000    0.0000   -0.0000    0.0000   -0.0000    0.0000
      152 W      6g2-       0.0000   -0.0000   -0.0000   -0.0000    0.0000    0.0000   -0.0000    0.0000   -0.0000    0.0000
      153 W      7g2-      -0.0000    0.0000    0.0000    0.0000   -0.0000   -0.0000    0.0000   -0.0000    0.0000   -0.0000
      154 W      8g2-       0.0000   -0.0000   -0.0000   -0.0000    0.0000   -0.0000    0.0000   -0.0000    0.0000   -0.0000
      155 W      5g1-      -0.0000   -0.0000   -0.0000   -0.0000   -0.0000    0.0000   -0.0000    0.0000    0.0000   -0.0000
      156 W      6g1-       0.0000    0.0000    0.0000    0.0000    0.0000    0.0000   -0.0000    0.0000    0.0000   -0.0000
      157 W      7g1-      -0.0000   -0.0000   -0.0000   -0.0000   -0.0000   -0.0000    0.0000   -0.0000   -0.0000    0.0000
      158 W      8g1-       0.0000    0.0000    0.0000    0.0000    0.0000   -0.0000    0.0000   -0.0000   -0.0000    0.0000
      159 W      5g0       -0.0000    0.0000   -0.0000   -0.0000   -0.0000   -0.0000   -0.0000   -0.0000   -0.0000   -0.0000
      160 W      6g0        0.0000   -0.0000    0.0000    0.0000   -0.0000   -0.0000    0.0000   -0.0000    0.0000   -0.0000
      161 W      7g0        0.0000    0.0000   -0.0000   -0.0000   -0.0000    0.0000    0.0000    0.0000    0.0000    0.0000
      162 W      8g0       -0.0000   -0.0000    0.0000    0.0000    0.0000   -0.0000    0.0000    0.0000   -0.0000    0.0000
      163 W      5g1+      -0.0000    0.0000   -0.0000    0.0000   -0.0000   -0.0000   -0.0000    0.0000   -0.0000   -0.0000
      164 W      6g1+       0.0000   -0.0000    0.0000   -0.0000   -0.0000   -0.0000   -0.0000    0.0000   -0.0000   -0.0000
      165 W      7g1+      -0.0000    0.0000   -0.0000    0.0000    0.0000    0.0000    0.0000   -0.0000    0.0000    0.0000
      166 W      8g1+       0.0000   -0.0000    0.0000   -0.0000    0.0000    0.0000    0.0000   -0.0000    0.0000    0.0000
      167 W      5g2+       0.0000    0.0000   -0.0000    0.0000   -0.0000    0.0000    0.0000    0.0000   -0.0000   -0.0000
      168 W      6g2+      -0.0000   -0.0000    0.0000   -0.0000   -0.0000    0.0000    0.0000    0.0000   -0.0000   -0.0000
      169 W      7g2+       0.0000    0.0000   -0.0000    0.0000   -0.0000   -0.0000   -0.0000   -0.0000    0.0000    0.0000
      170 W      8g2+      -0.0000   -0.0000    0.0000   -0.0000    0.0000   -0.0000   -0.0000    0.0000    0.0000    0.0000
      171 W      5g3+      -0.0000   -0.0000   -0.0000    0.0000    0.0000   -0.0000   -0.0000   -0.0000    0.0000    0.0000
      172 W      6g3+       0.0000    0.0000    0.0000   -0.0000    0.0000   -0.0000   -0.0000   -0.0000    0.0000    0.0000
      173 W      7g3+      -0.0000   -0.0000   -0.0000    0.0000   -0.0000    0.0000    0.0000    0.0000   -0.0000   -0.0000
      174 W      8g3+       0.0000   -0.0000    0.0000    0.0000   -0.0000    0.0000    0.0000    0.0000   -0.0000   -0.0000
      175 W      5g4+      -0.0000   -0.0000    0.0000   -0.0000   -0.0000   -0.0000   -0.0000    0.0000   -0.0000   -0.0000
      176 W      6g4+       0.0000   -0.0000    0.0000    0.0000   -0.0000   -0.0000   -0.0000    0.0000   -0.0000   -0.0000
      177 W      7g4+      -0.0000    0.0000   -0.0000   -0.0000    0.0000    0.0000    0.0000   -0.0000   -0.0000   -0.0000
      178 W      8g4+       0.0000    0.0000   -0.0000    0.0000    0.0000    0.0000    0.0000   -0.0000    0.0000    0.0000
      179 W      6h5-       0.0000   -0.0000   -0.0000   -0.0000   -0.0000   -0.0000    0.0000    0.0000   -0.0000    0.0000
      180 W      7h5-       0.0000   -0.0000   -0.0000    0.0000    0.0000   -0.0000    0.0000   -0.0000   -0.0000    0.0000
      181 W      6h4-      -0.0000    0.0000    0.0000    0.0000    0.0000   -0.0000    0.0000   -0.0000    0.0000   -0.0000
      182 W      7h4-       0.0000    0.0000    0.0000    0.0000   -0.0000   -0.0000    0.0000   -0.0000    0.0000   -0.0000
      183 W      6h3-       0.0000   -0.0000   -0.0000   -0.0000   -0.0000    0.0000   -0.0000    0.0000   -0.0000    0.0000
      184 W      7h3-      -0.0000   -0.0000    0.0000    0.0000    0.0000   -0.0000    0.0000   -0.0000   -0.0000    0.0000
      185 W      6h2-       0.0000    0.0000    0.0000    0.0000    0.0000   -0.0000    0.0000   -0.0000   -0.0000    0.0000
      186 W      7h2-       0.0000    0.0000    0.0000    0.0000    0.0000   -0.0000    0.0000    0.0000   -0.0000    0.0000
      187 W      6h1-      -0.0000    0.0000    0.0000   -0.0000   -0.0000    0.0000   -0.0000    0.0000    0.0000   -0.0000
      188 W      7h1-      -0.0000    0.0000    0.0000    0.0000    0.0000   -0.0000    0.0000   -0.0000    0.0000   -0.0000
      189 W      6h0        0.0000    0.0000   -0.0000    0.0000   -0.0000    0.0000   -0.0000   -0.0000   -0.0000   -0.0000
      190 W      7h0       -0.0000   -0.0000    0.0000    0.0000   -0.0000   -0.0000    0.0000   -0.0000   -0.0000   -0.0000
      191 W      6h1+      -0.0000   -0.0000    0.0000   -0.0000    0.0000   -0.0000   -0.0000   -0.0000   -0.0000   -0.0000
      192 W      7h1+      -0.0000   -0.0000    0.0000    0.0000    0.0000    0.0000    0.0000   -0.0000   -0.0000   -0.0000
      193 W      6h2+      -0.0000    0.0000   -0.0000   -0.0000    0.0000   -0.0000   -0.0000    0.0000   -0.0000   -0.0000
      194 W      7h2+      -0.0000    0.0000   -0.0000   -0.0000    0.0000   -0.0000   -0.0000    0.0000   -0.0000   -0.0000
      195 W      6h3+      -0.0000    0.0000    0.0000    0.0000   -0.0000    0.0000    0.0000    0.0000   -0.0000   -0.0000
      196 W      7h3+       0.0000    0.0000   -0.0000    0.0000   -0.0000    0.0000   -0.0000    0.0000   -0.0000   -0.0000
      197 W      6h4+      -0.0000   -0.0000    0.0000   -0.0000    0.0000    0.0000    0.0000   -0.0000   -0.0000   -0.0000
      198 W      7h4+       0.0000   -0.0000    0.0000   -0.0000    0.0000    0.0000    0.0000   -0.0000   -0.0000   -0.0000
      199 W      6h5+      -0.0000   -0.0000    0.0000   -0.0000    0.0000   -0.0000   -0.0000    0.0000   -0.0000   -0.0000
      200 W      7h5+      -0.0000   -0.0000    0.0000    0.0000   -0.0000   -0.0000   -0.0000    0.0000   -0.0000   -0.0000

          Orbital           21        22        23        24        25        26        27        28        29        30    
          Energy          -12.1233  -12.1233  -12.1232   -5.4624   -3.9409   -3.9409   -3.9406   -3.9406   -3.9404   -3.9404
          Occ. No.          2.0000    2.0000    2.0000    2.0000    2.0000    2.0000    2.0000    2.0000    2.0000    2.0000

        1 W      1s         0.0000   -0.0000   -0.0000    0.0000    0.0000   -0.0000    0.0000    0.0000   -0.0000    0.0000
        2 W      2s         0.0000   -0.0000   -0.0000    0.0000   -0.0000   -0.0000   -0.0000   -0.0000   -0.0000   -0.0000
        3 W      3s        -0.0000   -0.0000    0.0000   -0.0000   -0.0000    0.0000    0.0000   -0.0000   -0.0000   -0.0000
        4 W      4s         0.0000   -0.0000    0.0000    0.0005    0.0000   -0.0000   -0.0000   -0.0000   -0.0000    0.0000
        5 W      5s        -0.0000    0.0000   -0.0000    0.9993    0.0002   -0.0000   -0.0000   -0.0000   -0.0000    0.0000
        6 W      6s         0.0000    0.0000    0.0000   -0.0211   -0.0001    0.0000    0.0000    0.0000    0.0000   -0.0000
        7 W      7s        -0.0000    0.0000   -0.0000    0.0202    0.0001   -0.0000   -0.0000   -0.0000   -0.0000    0.0000
        8 W      8s         0.0000    0.0000    0.0000   -0.0203   -0.0001    0.0000    0.0000    0.0000    0.0000   -0.0000
        9 W      9s         0.0000   -0.0000    0.0000    0.0006    0.0000   -0.0000   -0.0000   -0.0000   -0.0000    0.0000
       10 W     10s         0.0000    0.0000    0.0000    0.0048    0.0000   -0.0000   -0.0000   -0.0000   -0.0000    0.0000
       11 W     11s         0.0000    0.0000   -0.0000    0.0010    0.0000   -0.0000   -0.0000   -0.0000   -0.0000    0.0000
       12 W      2px       -0.0000   -0.0000   -0.0000   -0.0000    0.0000    0.0000    0.0000    0.0000    0.0000   -0.0000
       13 W      3px       -0.0000   -0.0000   -0.0000    0.0000    0.0000   -0.0000   -0.0000   -0.0000   -0.0000    0.0000
       14 W      4px       -0.0000   -0.0001    0.0000   -0.0000    0.0000    0.0000   -0.0000   -0.0000   -0.0000    0.0000
       15 W      5px        0.0000    0.0001   -0.0000   -0.0000    0.0000   -0.0000    0.0009    0.0000    0.0000   -0.0079
       16 W      6px       -0.0000   -0.0000    0.0000   -0.0000   -0.0000    0.0000   -0.0000   -0.0000   -0.0000    0.0005
       17 W      7px        0.0000    0.0000    0.0000    0.0000    0.0000    0.0000    0.0000    0.0000    0.0000   -0.0003
       18 W      8px        0.0000    0.0000   -0.0000   -0.0000    0.0000    0.0000    0.0000    0.0000    0.0000   -0.0001
       19 W      9px       -0.0000   -0.0000    0.0000   -0.0000   -0.0000    0.0000   -0.0000   -0.0000   -0.0000    0.0001
       20 W     10px       -0.0000   -0.0000   -0.0000    0.0000   -0.0000   -0.0000   -0.0000   -0.0000   -0.0000    0.0000
       21 W     11px        0.0000    0.0000    0.0000   -0.0000    0.0000   -0.0000   -0.0000   -0.0000   -0.0000    0.0000
       22 W      2py       -0.0000    0.0000   -0.0000    0.0000   -0.0000    0.0000    0.0000   -0.0000   -0.0000   -0.0000
       23 W      3py       -0.0000    0.0000   -0.0000    0.0000   -0.0000    0.0000   -0.0000    0.0000    0.0000    0.0000
       24 W      4py       -0.0001    0.0000    0.0000    0.0000   -0.0000    0.0000   -0.0000    0.0000    0.0000    0.0000
       25 W      5py        0.0001   -0.0000    0.0000   -0.0000    0.0000   -0.0000    0.0000   -0.0009   -0.0079   -0.0000
       26 W      6py       -0.0000    0.0000    0.0000    0.0000   -0.0000   -0.0000   -0.0000    0.0000    0.0005    0.0000
       27 W      7py        0.0000   -0.0000   -0.0000   -0.0000    0.0000    0.0000    0.0000   -0.0000   -0.0003   -0.0000
       28 W      8py        0.0000   -0.0000   -0.0000    0.0000    0.0000    0.0000    0.0000   -0.0000   -0.0001   -0.0000
       29 W      9py       -0.0000    0.0000    0.0000    0.0000   -0.0000   -0.0000   -0.0000    0.0000    0.0001    0.0000
       30 W     10py       -0.0000    0.0000    0.0000   -0.0000   -0.0000   -0.0000   -0.0000    0.0000    0.0000    0.0000
       31 W     11py        0.0000   -0.0000   -0.0000   -0.0000    0.0000   -0.0000   -0.0000    0.0000    0.0000    0.0000
       32 W      2pz        0.0000    0.0000   -0.0000   -0.0000    0.0000   -0.0000   -0.0000   -0.0000   -0.0000   -0.0000
       33 W      3pz        0.0000   -0.0000   -0.0000    0.0000   -0.0000    0.0000    0.0000    0.0000   -0.0000    0.0000
       34 W      4pz       -0.0000   -0.0000   -0.0001   -0.0000   -0.0000    0.0000    0.0000    0.0000   -0.0000    0.0000
       35 W      5pz        0.0000   -0.0000    0.0001    0.0036    0.0013   -0.0000   -0.0000   -0.0000    0.0000   -0.0000
       36 W      6pz       -0.0000   -0.0000   -0.0000    0.0001   -0.0001    0.0000    0.0000    0.0000   -0.0000    0.0000
       37 W      7pz        0.0000    0.0000    0.0000   -0.0003    0.0000   -0.0000   -0.0000   -0.0000    0.0000   -0.0000
       38 W      8pz       -0.0000   -0.0000    0.0000    0.0001    0.0000   -0.0000   -0.0000   -0.0000    0.0000   -0.0000
       39 W      9pz        0.0000    0.0000   -0.0000    0.0001   -0.0000    0.0000    0.0000    0.0000   -0.0000    0.0000
       40 W     10pz        0.0000    0.0000   -0.0000   -0.0000   -0.0000    0.0000    0.0000    0.0000   -0.0000    0.0000
       41 W     11pz        0.0000    0.0000    0.0000   -0.0000   -0.0000    0.0000    0.0000    0.0000   -0.0000    0.0000
       42 W      3d2-       0.0000   -0.0000   -0.0000   -0.0000    0.0000    0.0000    0.0000   -0.0000   -0.0000   -0.0000
       43 W      4d2-       0.0261   -0.0004   -0.0000    0.0000    0.0000    0.0000    0.0000   -0.0001   -0.0000   -0.0000
       44 W      5d2-      -0.0000    0.0000    0.0000   -0.0000    0.0000   -0.0000   -0.0000    0.0010   -0.0001   -0.0000
       45 W      6d2-      -0.0000    0.0000    0.0000   -0.0000   -0.0000    0.0000    0.0000   -0.0004    0.0000    0.0000
       46 W      7d2-       0.0000   -0.0000   -0.0000    0.0000    0.0000   -0.0000   -0.0000    0.0000    0.0000    0.0000
       47 W      8d2-      -0.0000    0.0000    0.0000    0.0000   -0.0000   -0.0000   -0.0000    0.0001   -0.0000   -0.0000
       48 W      9d2-       0.0000   -0.0000   -0.0000   -0.0000    0.0000    0.0000   -0.0000    0.0000   -0.0000   -0.0000
       49 W     10d2-       0.0000   -0.0000   -0.0000   -0.0000   -0.0000    0.0000    0.0000   -0.0000   -0.0000   -0.0000
       50 W     11d2-       0.0000   -0.0000    0.0000    0.0000   -0.0000    0.0000    0.0000   -0.0000   -0.0000   -0.0000
       51 W      3d1-       0.0000   -0.0000   -0.0000    0.0000    0.0000   -0.0000   -0.0000    0.0000   -0.0000   -0.0000
       52 W      4d1-       0.9995   -0.0161   -0.0000   -0.0000    0.0000   -0.0000   -0.0000    0.0000   -0.0001   -0.0000
       53 W      5d1-      -0.0007    0.0000    0.0000   -0.0000   -0.0000    0.0000   -0.0000    0.0001    0.0008    0.0000
       54 W      6d1-      -0.0000    0.0000    0.0000    0.0000    0.0000   -0.0000    0.0000   -0.0000   -0.0004   -0.0000
       55 W      7d1-       0.0006   -0.0000   -0.0000   -0.0000   -0.0000   -0.0000    0.0000   -0.0000    0.0000    0.0000
       56 W      8d1-      -0.0005    0.0000    0.0000    0.0000   -0.0000    0.0000   -0.0000    0.0000    0.0001    0.0000
       57 W      9d1-       0.0001   -0.0000   -0.0000   -0.0000   -0.0000    0.0000   -0.0000    0.0000    0.0000    0.0000
       58 W     10d1-       0.0001   -0.0000   -0.0000    0.0000   -0.0000    0.0000   -0.0000    0.0000   -0.0000   -0.0000
       59 W     11d1-       0.0000   -0.0000   -0.0000   -0.0000    0.0000    0.0000   -0.0000    0.0000   -0.0000   -0.0000
       60 W      3d0        0.0000    0.0000    0.0000   -0.0000    0.0000   -0.0000   -0.0000   -0.0000    0.0000   -0.0000
       61 W      4d0        0.0000    0.0000    1.0000    0.0000    0.0000   -0.0000   -0.0000   -0.0000    0.0000   -0.0000
       62 W      5d0       -0.0000   -0.0000   -0.0007   -0.0006    0.0002   -0.0000   -0.0000   -0.0000   -0.0000    0.0000
       63 W      6d0       -0.0000   -0.0000   -0.0000    0.0002   -0.0000    0.0000   -0.0000    0.0000    0.0000   -0.0000
       64 W      7d0        0.0000    0.0000    0.0006    0.0000   -0.0000    0.0000    0.0000    0.0000   -0.0000    0.0000
       65 W      8d0       -0.0000   -0.0000   -0.0005   -0.0001    0.0000   -0.0000    0.0000   -0.0000   -0.0000    0.0000
       66 W      9d0        0.0000    0.0000    0.0001   -0.0000    0.0000   -0.0000   -0.0000   -0.0000   -0.0000   -0.0000
       67 W     10d0        0.0000    0.0000    0.0001   -0.0000    0.0000   -0.0000   -0.0000   -0.0000    0.0000   -0.0000
       68 W     11d0        0.0000    0.0000    0.0000    0.0000    0.0000   -0.0000   -0.0000   -0.0000    0.0000   -0.0000
       69 W      3d1+       0.0000    0.0000   -0.0000    0.0000   -0.0000    0.0000   -0.0000   -0.0000    0.0000   -0.0000
       70 W      4d1+       0.0161    0.9995   -0.0000   -0.0000   -0.0000    0.0000   -0.0000   -0.0000    0.0000   -0.0001
       71 W      5d1+      -0.0000   -0.0007    0.0000    0.0000   -0.0000   -0.0000   -0.0001   -0.0000   -0.0000    0.0008
       72 W      6d1+      -0.0000   -0.0000    0.0000   -0.0000    0.0000    0.0000    0.0000    0.0000    0.0000   -0.0004
       73 W      7d1+       0.0000    0.0006   -0.0000   -0.0000    0.0000    0.0000    0.0000    0.0000   -0.0000    0.0000
       74 W      8d1+      -0.0000   -0.0005    0.0000    0.0000   -0.0000   -0.0000   -0.0000   -0.0000   -0.0000    0.0001
       75 W      9d1+       0.0000    0.0001   -0.0000    0.0000   -0.0000   -0.0000   -0.0000   -0.0000   -0.0000    0.0000
       76 W     10d1+       0.0000    0.0001   -0.0000   -0.0000   -0.0000   -0.0000   -0.0000   -0.0000    0.0000   -0.0000
       77 W     11d1+       0.0000    0.0000   -0.0000   -0.0000   -0.0000    0.0000   -0.0000   -0.0000    0.0000   -0.0000
       78 W      3d2+      -0.0000   -0.0000   -0.0000    0.0000    0.0000   -0.0000   -0.0000   -0.0000   -0.0000    0.0000
       79 W      4d2+      -0.0004   -0.0261   -0.0000   -0.0000    0.0000    0.0000   -0.0001   -0.0000   -0.0000    0.0000
       80 W      5d2+       0.0000    0.0000    0.0000    0.0000   -0.0000   -0.0000    0.0010    0.0000   -0.0000    0.0001
       81 W      6d2+       0.0000    0.0000    0.0000   -0.0000    0.0000    0.0000   -0.0004   -0.0000    0.0000   -0.0000
       82 W      7d2+      -0.0000   -0.0000   -0.0000    0.0000   -0.0000    0.0000    0.0000    0.0000    0.0000   -0.0000
       83 W      8d2+       0.0000    0.0000    0.0000    0.0000   -0.0000   -0.0000    0.0001    0.0000   -0.0000    0.0000
       84 W      9d2+      -0.0000   -0.0000   -0.0000   -0.0000    0.0000   -0.0000    0.0000    0.0000   -0.0000    0.0000
       85 W     10d2+      -0.0000   -0.0000   -0.0000    0.0000    0.0000   -0.0000   -0.0000   -0.0000   -0.0000    0.0000
       86 W     11d2+      -0.0000   -0.0000   -0.0000   -0.0000    0.0000   -0.0000   -0.0000   -0.0000   -0.0000    0.0000
       87 W      4f3-      -0.0000   -0.0000   -0.0000    0.0000    0.0000    0.9998    0.0000   -0.0000   -0.0000    0.0000
       88 W      5f3-      -0.0000    0.0000    0.0000    0.0000   -0.0000   -0.0150   -0.0000    0.0000    0.0000   -0.0000
       89 W      6f3-       0.0000   -0.0000   -0.0000    0.0000   -0.0000   -0.0081   -0.0000    0.0000    0.0000   -0.0000
       90 W      7f3-      -0.0000    0.0000    0.0000   -0.0000    0.0000    0.0019    0.0000   -0.0000   -0.0000    0.0000
       91 W      8f3-      -0.0000    0.0000    0.0000    0.0000    0.0000    0.0023    0.0000   -0.0000   -0.0000    0.0000
       92 W      9f3-      -0.0000   -0.0000    0.0000   -0.0000    0.0000    0.0003    0.0000   -0.0000   -0.0000    0.0000
       93 W     10f3-       0.0000    0.0000   -0.0000    0.0000   -0.0000   -0.0002   -0.0000    0.0000    0.0000   -0.0000
       94 W     11f3-      -0.0000   -0.0000   -0.0000   -0.0000   -0.0000   -0.0001   -0.0000    0.0000    0.0000   -0.0000
       95 W      4f2-       0.0000   -0.0000   -0.0000   -0.0000    0.0000    0.0000   -0.0325    0.9988    0.0324    0.0000
       96 W      5f2-       0.0000   -0.0000   -0.0000    0.0000   -0.0000   -0.0000    0.0005   -0.0151   -0.0005   -0.0000
       97 W      6f2-      -0.0000    0.0000    0.0000   -0.0000   -0.0000   -0.0000    0.0003   -0.0081   -0.0003   -0.0000
       98 W      7f2-      -0.0000    0.0000    0.0000    0.0000    0.0000    0.0000   -0.0001    0.0019    0.0001    0.0000
       99 W      8f2-       0.0000   -0.0000   -0.0000   -0.0000    0.0000    0.0000   -0.0001    0.0023    0.0001    0.0000
      100 W      9f2-       0.0000   -0.0000   -0.0000    0.0000    0.0000    0.0000   -0.0000    0.0003    0.0000    0.0000
      101 W     10f2-      -0.0000    0.0000    0.0000    0.0000   -0.0000   -0.0000    0.0000   -0.0002   -0.0000   -0.0000
      102 W     11f2-      -0.0000    0.0000   -0.0000    0.0000   -0.0000   -0.0000    0.0000   -0.0001   -0.0000   -0.0000
      103 W      4f1-       0.0001   -0.0000   -0.0000    0.0000   -0.0000    0.0000    0.0011   -0.0324    0.9993    0.0013
      104 W      5f1-       0.0000   -0.0000   -0.0000   -0.0000    0.0000   -0.0000   -0.0000    0.0005   -0.0152   -0.0000
      105 W      6f1-      -0.0000    0.0000    0.0000    0.0000    0.0000   -0.0000   -0.0000    0.0003   -0.0081   -0.0000
      106 W      7f1-      -0.0000    0.0000    0.0000   -0.0000   -0.0000    0.0000    0.0000   -0.0001    0.0019    0.0000
      107 W      8f1-       0.0000   -0.0000   -0.0000    0.0000   -0.0000    0.0000    0.0000   -0.0001    0.0023    0.0000
      108 W      9f1-       0.0000   -0.0000    0.0000   -0.0000   -0.0000    0.0000    0.0000   -0.0000    0.0003    0.0000
      109 W     10f1-      -0.0000    0.0000    0.0000    0.0000    0.0000   -0.0000   -0.0000    0.0000   -0.0002   -0.0000
      110 W     11f1-       0.0000   -0.0000   -0.0000   -0.0000    0.0000   -0.0000   -0.0000    0.0000   -0.0001   -0.0000
[...]
   15         0.694022       7 0.5  1.0000    9 0.5  0.0000    8 0.5  0.0000    6 0.5  0.0000    5 0.5  0.0000
   16         0.694022       7 0.5  1.0000    9 0.5  0.0000    8 0.5  0.0000    6 0.5  0.0000    5 0.5  0.0000
   17         0.713478       9 0.5  1.0000    8 0.5  0.0000    7 0.5  0.0000    6 0.5  0.0000    5 0.5  0.0000
   18         0.713478       9 0.5  1.0000    8 0.5  0.0000    7 0.5  0.0000    6 0.5  0.0000    5 0.5  0.0000
 -------------------------------------------------------------------------------------------------------


      ****************************************************************************************************
      *                                                                                                  *
      *                                    Special properties section                                    *
      *                                                                                                  *
      ****************************************************************************************************


++ Dipole transition strengths (SO states):
   ----------------------------------------
    for osc. strength at least    1.0000000000000001E-005

      From   To        Osc. strength     Einstein coefficients Ax, Ay, Az (sec-1)    Total A (sec-1)
     -----------------------------------------------------------------------------------------------
         1   13       1.12484689E-01  1.66504525E+09  7.43648376E+04  7.56804746E+07  1.74080009E+09
         1   15       1.07594469E-01  7.43648301E+04  1.66504524E+09  1.09855666E+01  1.66511962E+09
         1   17       5.76027130E-03  1.17527557E+03  9.42125101E+07  1.74199505E-10  9.42136854E+07
         2   14       1.12484689E-01  1.66504525E+09  7.43648376E+04  7.56804746E+07  1.74080009E+09
         2   16       1.07594469E-01  7.43648301E+04  1.66504524E+09  1.09855666E+01  1.66511962E+09
         2   18       5.76027130E-03  1.17527557E+03  9.42125101E+07  1.74199505E-10  9.42136854E+07
         3   13       1.07594468E-01  7.43648367E+04  1.66504523E+09  1.09853470E+01  1.66511961E+09
         3   15       1.12484689E-01  1.66504525E+09  7.43648363E+04  7.56804932E+07  1.74080010E+09
         3   17       5.76027136E-03  9.42125110E+07  1.17527388E+03  1.37457062E-08  9.42136863E+07
         4   14       1.07594468E-01  7.43648367E+04  1.66504523E+09  1.09853470E+01  1.66511961E+09
         4   16       1.12484689E-01  1.66504525E+09  7.43648363E+04  7.56804932E+07  1.74080010E+09
         4   18       5.76027136E-03  9.42125110E+07  1.17527388E+03  1.37457062E-08  9.42136863E+07
         5   11       6.91830018E-04  2.61393532E+06  5.55972125E+03  2.00368719E-10  2.61949504E+06
         5   13       4.16157747E-03  1.47293531E+05  6.06589093E+07  2.80063727E+06  6.36068401E+07
         5   15       1.03255155E-01  6.06589200E+07  1.47293546E+05  1.51737759E+09  1.57818380E+09
         5   17       1.10880336E-01  1.78789151E+09  3.80276382E+06  5.17186739E-07  1.79169427E+09
         6   12       6.91830018E-04  2.61393532E+06  5.55972125E+03  2.00368719E-10  2.61949504E+06
         6   14       4.16157747E-03  1.47293531E+05  6.06589093E+07  2.80063727E+06  6.36068401E+07
         6   16       1.03255155E-01  6.06589200E+07  1.47293546E+05  1.51737759E+09  1.57818380E+09
         6   18       1.10880336E-01  1.78789151E+09  3.80276382E+06  5.17186739E-07  1.79169427E+09
         7   11       6.91830005E-04  5.55972136E+03  2.61393527E+06  3.86087089E-13  2.61949500E+06
         7   13       1.03255156E-01  6.06589026E+07  1.47293555E+05  1.51737761E+09  1.57818381E+09
         7   15       4.16157754E-03  1.47293595E+05  6.06589103E+07  2.80063721E+06  6.36068411E+07
         7   17       1.10880336E-01  3.80276379E+06  1.78789151E+09  2.87356185E-09  1.79169427E+09
         8   12       6.91830005E-04  5.55972136E+03  2.61393527E+06  3.86087089E-13  2.61949500E+06
         8   14       1.03255156E-01  6.06589026E+07  1.47293555E+05  1.51737761E+09  1.57818381E+09
         8   16       4.16157754E-03  1.47293595E+05  6.06589103E+07  2.80063721E+06  6.36068411E+07
         8   18       1.10880336E-01  3.80276379E+06  1.78789151E+09  2.87356185E-09  1.79169427E+09
         9   11       6.22124815E-05  7.09008700E-10  4.46436780E-13  2.33616483E+05  2.33616483E+05
         9   13       4.37738929E-02  6.61540183E+03  6.66301250E+08  4.61526634E-10  6.66307866E+08
         9   15       4.37738914E-02  6.66301228E+08  6.61540471E+03  1.96989598E-07  6.66307843E+08
         9   17       1.30336750E-01  4.91942783E-07  4.39192461E-10  2.09768002E+09  2.09768002E+09
        10   12       6.22124815E-05  7.09008700E-10  4.46436780E-13  2.33616483E+05  2.33616483E+05
        10   14       4.37738929E-02  6.61540183E+03  6.66301250E+08  4.61526634E-10  6.66307866E+08
        10   16       4.37738914E-02  6.66301228E+08  6.61540471E+03  1.96989598E-07  6.66307843E+08
        10   18       1.30336750E-01  4.91942783E-07  4.39192461E-10  2.09768002E+09  2.09768002E+09
        11   13       4.58721346E-01  1.75616700E+04  1.76880562E+09  2.13203765E-14  1.76882318E+09
        11   15       4.58721346E-01  1.76880562E+09  1.75616700E+04  2.79835130E-07  1.76882318E+09
        11   17       4.70069586E-01  3.24256702E-07  4.00381781E-12  2.02190222E+09  2.02190222E+09
        12   14       4.58721346E-01  1.75616700E+04  1.76880562E+09  2.13203765E-14  1.76882318E+09
        12   16       4.58721346E-01  1.76880562E+09  1.75616700E+04  2.79835130E-07  1.76882318E+09
        12   18       4.70069586E-01  3.24256702E-07  4.00381781E-12  2.02190222E+09  2.02190222E+09
     -----------------------------------------------------------------------------------------------
--

++ Velocity transition strengths (SO states):
   ------------------------------------------
    for osc. strength at least    1.0000000000000001E-005

      From   To        Osc. strength     Einstein coefficients Ax, Ay, Az (sec-1)    Total A (sec-1)
     -----------------------------------------------------------------------------------------------
         1    5       3.91750667E-05  5.74888386E-02  2.33124713E+01  8.35952452E-04  2.33707961E+01
         1    7       3.99465339E-05  2.33124709E+01  5.74888449E-02  4.61073064E-01  2.38310328E+01
         1   13       9.21239589E-02  1.36342776E+09  6.08938909E+04  6.22160869E+07  1.42570474E+09
         1   15       8.81037771E-02  6.08938848E+04  1.36342775E+09  9.03111214E+00  1.36348865E+09
         1   17       4.77462222E-03  9.74175694E+02  7.80919309E+07  1.37167087E-10  7.80929051E+07
         2    6       3.91750667E-05  5.74888386E-02  2.33124713E+01  8.35952452E-04  2.33707961E+01
         2    8       3.99465339E-05  2.33124709E+01  5.74888449E-02  4.61073064E-01  2.38310328E+01
         2   14       9.21239589E-02  1.36342776E+09  6.08938909E+04  6.22160869E+07  1.42570474E+09
         2   16       8.81037771E-02  6.08938848E+04  1.36342775E+09  9.03111214E+00  1.36348865E+09
         2   18       4.77462222E-03  9.74175694E+02  7.80919309E+07  1.37167087E-10  7.80929051E+07
         3    5       3.99465350E-05  2.33124712E+01  5.74888402E-02  4.61073385E-01  2.38310334E+01
         3    7       3.91750649E-05  5.74888439E-02  2.33124702E+01  8.35952880E-04  2.33707950E+01
         3   13       8.81037766E-02  6.08938901E+04  1.36342774E+09  9.03093319E+00  1.36348864E+09
         3   15       9.21239596E-02  1.36342775E+09  6.08938899E+04  6.22161022E+07  1.42570475E+09
         3   17       4.77462227E-03  7.80919316E+07  9.74174304E+02  1.15430792E-08  7.80929058E+07
         4    6       3.99465350E-05  2.33124712E+01  5.74888402E-02  4.61073385E-01  2.38310334E+01
         4    8       3.91750649E-05  5.74888439E-02  2.33124702E+01  8.35952880E-04  2.33707950E+01
         4   14       8.81037766E-02  6.08938901E+04  1.36342774E+09  9.03093319E+00  1.36348864E+09
         4   16       9.21239596E-02  1.36342775E+09  6.08938899E+04  6.22161022E+07  1.42570475E+09
         4   18       4.77462227E-03  7.80919316E+07  9.74174304E+02  1.15430792E-08  7.80929058E+07
         5    9       2.59596453E-04  1.67069809E+01  3.55349877E-02  1.08580426E-14  1.67425159E+01
         5   11       5.63175087E-04  2.12784692E+06  4.52583337E+03  1.67039272E-10  2.13237275E+06
         5   13       3.38220198E-03  1.19685683E+05  4.92893539E+07  2.28576375E+06  5.16948033E+07
         5   15       8.42579809E-02  4.92893626E+07  1.19685694E+05  1.23842053E+09  1.28782958E+09
         5   17       9.08786735E-02  1.46537952E+09  3.11679551E+06  4.23249650E-07  1.46849631E+09
         6   10       2.59596453E-04  1.67069809E+01  3.55349877E-02  1.08580426E-14  1.67425159E+01
         6   12       5.63175087E-04  2.12784692E+06  4.52583337E+03  1.67039272E-10  2.13237275E+06
         6   14       3.38220198E-03  1.19685683E+05  4.92893539E+07  2.28576375E+06  5.16948033E+07
         6   16       8.42579809E-02  4.92893626E+07  1.19685694E+05  1.23842053E+09  1.28782958E+09
         6   18       9.08786735E-02  1.46537952E+09  3.11679551E+06  4.23249650E-07  1.46849631E+09
         7    9       2.59596455E-04  3.55349872E-02  1.67069811E+01  1.14035125E-18  1.67425160E+01
         7   11       5.63175077E-04  4.52583347E+03  2.12784688E+06  1.09594979E-13  2.13237271E+06
         7   13       8.42579810E-02  4.92893484E+07  1.19685702E+05  1.23842054E+09  1.28782958E+09
         7   15       3.38220204E-03  1.19685735E+05  4.92893547E+07  2.28576370E+06  5.16948041E+07
         7   17       9.08786737E-02  3.11679548E+06  1.46537952E+09  2.33407657E-09  1.46849632E+09
         8   10       2.59596455E-04  3.55349872E-02  1.67069811E+01  1.14035125E-18  1.67425160E+01
         8   12       5.63175077E-04  4.52583347E+03  2.12784688E+06  1.09594979E-13  2.13237271E+06
         8   14       8.42579810E-02  4.92893484E+07  1.19685702E+05  1.23842054E+09  1.28782958E+09
         8   16       3.38220204E-03  1.19685735E+05  4.92893547E+07  2.28576370E+06  5.16948041E+07
         8   18       9.08786737E-02  3.11679548E+06  1.46537952E+09  2.33407657E-09  1.46849632E+09
         9   11       3.74282096E-05  6.07860177E-10  2.18503926E-13  1.40548599E+05  1.40548599E+05
         9   13       3.61487974E-02  5.46306566E+03  5.50238305E+08  3.80710150E-10  5.50243768E+08
         9   15       3.61487962E-02  5.50238287E+08  5.46306807E+03  1.62890119E-07  5.50243750E+08
         9   17       1.05953866E-01  4.00058757E-07  3.61061293E-10  1.70526026E+09  1.70526026E+09
        10   12       3.74282096E-05  6.07860177E-10  2.18503926E-13  1.40548599E+05  1.40548599E+05
        10   14       3.61487974E-02  5.46306566E+03  5.50238305E+08  3.80710150E-10  5.50243768E+08
        10   16       3.61487962E-02  5.50238287E+08  5.46306807E+03  1.62890119E-07  5.50243750E+08
        10   18       1.05953866E-01  4.00058757E-07  3.61061293E-10  1.70526026E+09  1.70526026E+09
        11   13       4.25653499E-01  1.62957585E+04  1.64130343E+09  6.70454443E-14  1.64131972E+09
        11   15       4.25653499E-01  1.64130343E+09  1.62957585E+04  2.59531795E-07  1.64131972E+09
        11   17       4.34651396E-01  3.00069882E-07  3.27256016E-12  1.86956507E+09  1.86956507E+09
        12   14       4.25653499E-01  1.62957585E+04  1.64130343E+09  6.70454443E-14  1.64131972E+09
        12   16       4.25653499E-01  1.64130343E+09  1.62957585E+04  2.59531795E-07  1.64131972E+09
        12   18       4.34651396E-01  3.00069882E-07  3.27256016E-12  1.86956507E+09  1.86956507E+09
        13   17       6.84081612E-05  8.26111784E-03  8.32056869E+02  2.06676279E-16  8.32065130E+02
        14   18       6.84081612E-05  8.26111784E-03  8.32056869E+02  2.06676279E-16  8.32065130E+02
        15   17       6.84081659E-05  8.32056927E+02  8.26111563E-03  1.83574226E-12  8.32065188E+02
        16   18       6.84081659E-05  8.32056927E+02  8.26111563E-03  1.83574226E-12  8.32065188E+02
     -----------------------------------------------------------------------------------------------
--

++ Length and velocity gauge comparison (SO states):

 --------------------------------------------------
 A comparison between the dipole oscillator strengths in 
 length and velocity gauge will be performed

 All dipole oscillator differences above the tolerance of   0.10000000000000001       will be printed 

 Due to basis set deficiency these oscillator may be problematic 

 The tolerance is defined as ABS(1-O_l/O_v) 
 O_l : dipole oscillator strength in length gauge
 O_p : dipole oscillator strength in velocity gauge
 --------------------------------------------------

  Problematic transitions have been found

      From   To       Difference (%) Osc. st. (len.) Osc. st. (vel.)
     ---------------------------------------------------------------
         1    5      --------------- below threshold  3.91750667E-05
         1    7      --------------- below threshold  3.99465339E-05
         1   13            22.101449  1.12484689E-01  9.21239589E-02
         1   15            22.122425  1.07594469E-01  8.81037771E-02
         1   17            20.643499  5.76027130E-03  4.77462222E-03
         2    6      --------------- below threshold  3.91750667E-05
         2    8      --------------- below threshold  3.99465339E-05
         2   14            22.101449  1.12484689E-01  9.21239589E-02
         2   16            22.122425  1.07594469E-01  8.81037771E-02
         2   18            20.643499  5.76027130E-03  4.77462222E-03
         3    5      --------------- below threshold  3.99465350E-05
         3    7      --------------- below threshold  3.91750649E-05
         3   13            22.122425  1.07594468E-01  8.81037766E-02
         3   15            22.101449  1.12484689E-01  9.21239596E-02
         3   17            20.643499  5.76027136E-03  4.77462227E-03
         4    6      --------------- below threshold  3.99465350E-05
         4    8      --------------- below threshold  3.91750649E-05
         4   14            22.122425  1.07594468E-01  8.81037766E-02
         4   16            22.101449  1.12484689E-01  9.21239596E-02
         4   18            20.643499  5.76027136E-03  4.77462227E-03
         5    9      --------------- below threshold  2.59596453E-04
         5   11            22.844571  6.91830018E-04  5.63175087E-04
         5   13            23.043434  4.16157747E-03  3.38220198E-03
         5   15            22.546439  1.03255155E-01  8.42579809E-02
         5   17            22.009193  1.10880336E-01  9.08786735E-02
         6   10      --------------- below threshold  2.59596453E-04
         6   12            22.844571  6.91830018E-04  5.63175087E-04
         6   14            23.043434  4.16157747E-03  3.38220198E-03
         6   16            22.546439  1.03255155E-01  8.42579809E-02
         6   18            22.009193  1.10880336E-01  9.08786735E-02
         7    9      --------------- below threshold  2.59596455E-04
         7   11            22.844571  6.91830005E-04  5.63175077E-04
         7   13            22.546439  1.03255156E-01  8.42579810E-02
         7   15            23.043434  4.16157754E-03  3.38220204E-03
         7   17            22.009193  1.10880336E-01  9.08786737E-02
         8   10      --------------- below threshold  2.59596455E-04
         8   12            22.844571  6.91830005E-04  5.63175077E-04
         8   14            22.546439  1.03255156E-01  8.42579810E-02
         8   16            23.043434  4.16157754E-03  3.38220204E-03
         8   18            22.009193  1.10880336E-01  9.08786737E-02
         9   11            66.218161  6.22124815E-05  3.74282096E-05
         9   13            21.093635  4.37738929E-02  3.61487974E-02
         9   15            21.093635  4.37738914E-02  3.61487962E-02
         9   17            23.012737  1.30336750E-01  1.05953866E-01
        10   12            66.218161  6.22124815E-05  3.74282096E-05
        10   14            21.093635  4.37738929E-02  3.61487974E-02
        10   16            21.093635  4.37738914E-02  3.61487962E-02
        10   18            23.012737  1.30336750E-01  1.05953866E-01
        13   17      --------------- below threshold  6.84081612E-05
        14   18      --------------- below threshold  6.84081612E-05
        15   17      --------------- below threshold  6.84081659E-05
        16   18      --------------- below threshold  6.84081659E-05
     ---------------------------------------------------------------

 Number of problematic transitions =                    52

--

 Electric-dipole - electric-octupole not included
++ I/O STATISTICS
 
  I. General I/O information
  - - - - - - - - - - - - - - - - - - - - - - - - - - - - - - - - - - - - - - - - - - -
  Unit  Name          Flsize      Write/Read            MBytes           Write/Read
                      (MBytes)       Calls              In/Out           Time, sec.
  - - - - - - - - - - - - - - - - - - - - - - - - - - - - - - - - - - - - - - - - - - -
   1  SCRATCH           0.00 .       9/      45 .      0.0/      0.0 .       0/       0
   2  ANNI              0.00 .       0/       0 .      0.0/      0.0 .       0/       0
   3  RUNFILE          15.28 .     322/    9923 .      2.3/     72.0 .       0/       0
   4  ONEINT            6.58 .       0/   28767 .      0.0/   3777.9 .       0/       0
   5  JOBIPH            7.71 .       0/      92 .      0.0/      0.9 .       0/       0
   6  ORDINT          771.03 .       1/    6169 .      0.0/   1542.0 .       0/       0
  - - - - - - - - - - - - - - - - - - - - - - - - - - - - - - - - - - - - - - - - - - -
   *  TOTAL           800.61 .     332/   44996 .      2.3/   5392.8 .       0/       0
  - - - - - - - - - - - - - - - - - - - - - - - - - - - - - - - - - - - - - - - - - - -
 
  II. I/O Access Patterns
  - - - - - - - - - - - - - - - - - - - -
  Unit  Name               % of random
                         Write/Read calls
  - - - - - - - - - - - - - - - - - - - -
   1  SCRATCH             88.9/ 100.0
   2  ANNI                 0.0/   0.0
   3  RUNFILE             28.6/  10.8
   4  ONEINT               0.0/  13.4
   5  JOBIPH               0.0/  76.1
   6  ORDINT             100.0/   0.0
  - - - - - - - - - - - - - - - - - - - -
--
--- Stop Module: rassi at Thu Jan  9 00:49:09 2025 /rc=_RC_ALL_IS_WELL_ ---
*** files: xmldump
    saved to directory /home4/s4752295/Internship/Initial_simulations/Point_charge_model/1_electron/active_space_9_non_rel/W/varying_bond_length
--- Module rassi spent 4 seconds ---

.##################.
.# Happy landing! #.
.##################.

    Timing: Wall=80.74 User=65.63 System=13.59

###############################################################################
Hbrk Cluster
Job 14530263 for user s4752295
Finished at: Thu Jan  9 00:49:09 CET 2025

Job details:
============

Job ID                         : 14530263
Name                           : W_no_c_light
User                           : s4752295
Partition                      : regularmedium
Nodes                          : node91
Number of Nodes                : 1
Cores                          : 1
Number of Tasks                : 1
State                          : RUNNING  
Submit                         : 2025-01-09T00:47:44
Start                          : 2025-01-09T00:47:45
End                            : --
Reserved walltime              : 15:00:00
Used walltime                  : 00:01:25
Used CPU time                  : -- 
% User (Computation)           : --
% System (I/O)                 : --
Total memory reserved          : 25000M
Maximum memory used            : --

Acknowledgements:
=================

Please see this page for information about acknowledging Hbrk in your publications:

https://wiki.hpc.rug.nl/habrok/introduction/scientific_output

################################################################################
