   This run of MOLCAS is using the pymolcas driver

                             OPE
                             OPE          NMOL  CASOP  ENMOLC A   SO
                 OPE        NMOLC        AS  OP EN  MO LC     AS  OP
                OPENM       OL CA        SO  PE NM  OL CA     SOP EN
                OP EN      MO   LC       AS  OP ENMOL  CASO   PENMOL
                OP  EN     MO   LC       AS  OP EN     MO     LC ASO
               OP   E  NMOL  C  AS       OP  EN MO     LC     AS  OP
               OP  E   NMO   LC AS        OPEN  MO     LCASOP EN   M
               O  PEN   MO  LCA  SO
            OPE   NMO   L   CAS    OP
        OPENMOL  CASOP     ENMOL   CASOPE
     OPENMOLCA   SOPENMOLCASOPEN   MOLCASOPE
    OPENMOLCAS   OP           EN   MOL    CAS
    OPENMOLCAS       OP  ENM        O     LCA
    OPENMOLCAS    OPEN  MOLCASO     P  E  NMO
    OPENMOLCAS     OP               E  N  MOL
    OPENMOLCA   SO           PENM   O  L  CAS    OPEN    MO    LCAS
    OPENMOLCA   SOP           ENM   O  L  CAS   OP  EN  MOLC  AS   O
    OPENMOLCA   SOPE           NM      O  LCA   S      OP  EN MO
    OPENMOLC                AS         O  PEN   M      OL  CA  SOPE
    OPENMO        LCASOPE  NMOL        C  ASO   P      ENMOLC     AS
    OPE     NMO      LCA  SO     P     E   NM   OL  CA SO  PE N   MO
          OPENMOLCA            SOPE   NMO        LCAS  O    P  ENMO
     OPENMOLCASOPENMOLCASOPENMOLCASOPENMOLCA
        OPENMOLCASOPENMOLCASOPENMOLCASOPE
            OPENMOLCASOPENMOLCASOPENM
               OPENMOLCASOPENMOLCA        version: o91e1abe7de707b ?
                   OPENMOLCASO
                       OPE                tag:

 OpenMolcas is free software; you can redistribute it and/or modify it
 under the terms of the GNU Lesser General Public License version 2.1.
 OpenMolcas is distributed in the hope that it will be useful, but it
 is provided "as is" and without any express or implied warranties.
 For more details see the full text of the license in the file
 LICENSE or in <http://www.gnu.org/licenses/>.

                 Copyright (C) The OpenMolcas Authors
           For the author list and the recommended citation,
                   consult the file CONTRIBUTORS.md

           *************************************************
           * pymolcas version py2.10                       *
           *   build 3068ae8b88c9345ec6cfef6fef7f1169      *
           *   (after the EMIL interpreter by V. Veryazov) *
           *************************************************

configuration info
------------------
Host name: login1 (Linux)
C Compiler ID: GNU
C flags: -std=gnu99
Fortran Compiler ID: GNU
Fortran flags: -fno-aggressive-loop-optimizations -cpp -fdefault-integer-8 -fmax-stack-var-size=1048576
Definitions: _MOLCAS_;_I8_;_LINUX_;_MKL_
Parallel: OFF (GA=OFF)


   ---------------------------------------------------------------------------------------------------------------------------------------------
  |
  |           Project: vanadium_so_cf
  |    Submitted from: /home4/s4752295/Internship/Initial_simulations/Point_charge_model/1_electron/active_space_9_non_rel/V/varying_bond_length
  |      Scratch area: /tmp/vanadium_so_cf
  |   Save outputs to: /home4/s4752295/Internship/Initial_simulations/Point_charge_model/1_electron/active_space_9_non_rel/V/varying_bond_length
  |            Molcas: /home4/s4752295/Internship/Molcas/recomp_try/OpenMolcas-master/build
  |
  | Scratch area is empty
  |
  |    MOLCAS_DRIVER = /home4/s4752295/Internship/Molcas/bin/pymolcas
  |    MOLCAS_NPROCS = 1
  |    MOLCAS_SOURCE = /home4/s4752295/Internship/Molcas/recomp_try/OpenMolcas-master
  | MOLCAS_STRUCTURE = 0
  |
   ---------------------------------------------------------------------------------------------------------------------------------------------

++ ---------   Input file   ---------

&SEWARD
AMFi

CLIG
$R

Basis Set
V.ANO-rcc.Roos.21s15p10d6f4g2h.10s9p8d6f4g2h.
Spherical d
V            0.0        0.0     0.0
End of Basis

Xfield

4
0.000000,  0.00000,  1.3230     -1.0
1.145752,  0.00000, -0.6615     -1.0
-0.572876,  0.99225, -0.6615    -1.0
-0.572876, -0.99225, -0.6615    -1.0

End of input

&SCF
Occupied
9
Iterations
   50  100
End of Input

&RASSCF
LumOrb
Symmetry
1
Spin
2
Nactel
1 0 0
CIRoot
9 9 1
inactive
9
ras2
9
End of Input

>>> COPY vanadium_so_cf.JobIph $SLURM_SUBMIT_DIR/vanadium_so_cf.doublet.JobIph

>>> COPY $SLURM_SUBMIT_DIR/vanadium_so_cf.doublet.JobIph ./JOB002

&RASSI
NROFJobIph
1 All
SpinOrbit
End of Input

EOF

-- ----------------------------------

--- Start Module: seward at Fri Jan 10 02:32:09 2025 ---

()()()()()()()()()()()()()()()()()()()()()()()()()()()()()()()()()()()()()()()()()()()()()()()()()()

                                              &SEWARD

                                   only a single process is used
                       available to each process: 4.1 GB of memory, 1 thread?
                                            pid: 1099526
()()()()()()()()()()()()()()()()()()()()()()()()()()()()()()()()()()()()()()()()()()()()()()()()()()

 The speed of LIGHT in this CALCULATION =   137.03599917700001     
               SEWARD will generate:
                  Multipole Moment integrals up to order  2
                  Kinetic Energy integrals
                  Nuclear Attraction integrals (point charge)
                  One-Electron Hamiltonian integrals
                  Velocity integrals
                  Relativistic Douglas-Kroll-Hess integrals:
                    - Parametrization         : EXP
                    - DKH order of Hamiltonian: 2
                    - DKH order of Properties : 0
                         - multipole moment operators
                         - electric potential operators
                         - contact operators
                  External field from     4 point(s) added to the one-electron Hamiltonian
                  Orbital angular momentum around ( 0.0000  0.0000  0.0000 )
                  Velocity quadrupole around ( 0.0000  0.0000  0.0000 )
                  Atomic mean-field integrals
                  Two-Electron Repulsion integrals

                   Integrals are discarded if absolute value <: 0.10E-13
                   Integral cutoff threshold is set to       <: 0.10E-15

++    Symmetry information:
      ---------------------

                    Character Table for C1 

                             E  
                    a        1  x, y, xy, Rz, z, xz, Ry, yz, Rx, I
--


++    Basis set information:
      ----------------------


      Basis set label: V.ANO-RCC.ROOS.21S15P10D6F4G2H.10S9P8D6F4G2H......

      Electronic valence basis set:
      ------------------
      Associated Effective Charge  23.000000 au
      Associated Actual Charge     23.000000 au
      Nuclear Model: Point charge

      Shell  nPrim  nBasis  Cartesian Spherical Contaminant
         s      21      10        X                  
         p      15       9        X                  
         d      10       8                 X         
         f       6       6                 X         
         g       4       4                 X         
         h       2       2                 X         
--


++    Molecular structure info:
      -------------------------

                    ************************************************ 
                    **** Cartesian Coordinates / Bohr, Angstrom **** 
                    ************************************************ 

     Center  Label                x              y              z                     x              y              z
        1      V                0.000000       0.000000       0.000000              0.000000       0.000000       0.000000
--


++    Operator info:
      --------------


  Net charge from external field:   -4.0000000000000000     
--


            Nuclear Potential Energy              0.00000000 au

                    Nuclear-External Field Potential Energy     -69.53892001 au
                    External Field Potential Energy               2.82089977 au 


            Total Nuclear Potential Energy            -69.53892001 au


      Basis set specifications :
      Symmetry species         a  
      Basis functions          177

 Sorry, Molden does not know how to handle
 functions with angular momentum larger than g
Note: The following floating-point exceptions are signalling: IEEE_UNDERFLOW_FLAG IEEE_DENORMAL
--- Stop Module: seward at Fri Jan 10 02:32:17 2025 /rc=_RC_ALL_IS_WELL_ ---
*** files: vanadium_so_cf.GssOrb xmldump
    saved to directory /home4/s4752295/Internship/Initial_simulations/Point_charge_model/1_electron/active_space_9_non_rel/V/varying_bond_length
--- Module seward spent 7 seconds ---

*** symbolic link created: INPORB -> vanadium_so_cf.GssOrb
--- Start Module: scf at Fri Jan 10 02:32:17 2025 ---

()()()()()()()()()()()()()()()()()()()()()()()()()()()()()()()()()()()()()()()()()()()()()()()()()()

                                                &SCF

                                   only a single process is used
                       available to each process: 4.1 GB of memory, 1 thread?
                                            pid: 1099614
()()()()()()()()()()()()()()()()()()()()()()()()()()()()()()()()()()()()()()()()()()()()()()()()()()

++    Input section:
      --------------

      Header of the integral files:
      
       Integrals generated by seward 4.2.0  , Fri Jan 10 02:32:09 2025


      Cartesian coordinates in Angstrom:
      -----------------------------------------------------
      No.  Label        X            Y            Z        
      -----------------------------------------------------
       1   V          0.00000000   0.00000000   0.00000000
      -----------------------------------------------------
      Nuclear repulsion energy =  -69.53892001
--

++    Orbital specifications:
      -----------------------

      Symmetry species               1
                                     a
      Frozen orbitals                0
      Occupied orbitals              9
      Secondary orbitals           168
      Deleted orbitals               0
      Total number of orbitals     177
      Number of basis functions    177
--

      Molecular charge                           5.000

++    Optimization specifications:
      ----------------------------

      SCF Algorithm: Conventional
      Minimized density differences are used
      Number of density matrices in core                5
      Maximum number of NDDO SCF iterations            50
      Maximum number of HF SCF iterations             100
      Threshold for SCF energy change            0.10E-08
      Threshold for density matrix               0.10E-03
      Threshold for Fock matrix                  0.15E-03
      Threshold for linear dependence            0.10E-08
      Threshold at which DIIS is turned on       0.15E+00
      Threshold at which QNR/C2DIIS is turned on 0.75E-01
      Threshold for Norm(delta) (QNR/C2DIIS)     0.20E-04
      DIIS extrapolation of the SCF procedure
      All orbitals punched on: SCFORB
--

      Detected guessorb starting orbitals                                             


++ Convergence information
                                   SCF        iterations: Energy and convergence statistics

Iter     Tot. SCF        One-elec.       Two-elec.     Energy      Max Dij or  Max Fij      DNorm      TNorm      AccCon     Time
         Energy          Energy          Energy        Change      Delta Norm                                                in Sec.
   1  -957.952051821 -1177.892899422   289.479767612   0.00E+00    0.13E+00*   0.24E+00*    0.60E+01   0.22E+03   None         1.
   2  -958.316436309 -1182.792058247   294.014541949  -0.36E+00*   0.37E-01*   0.56E-01*    0.77E+00   0.22E+03   EDIIS        1.
   3  -958.333682649 -1181.871061655   293.076299017  -0.17E-01*   0.10E-01*   0.15E-01*    0.18E+00   0.22E+03   EDIIS        1.
   4  -958.335562726 -1182.023264202   293.226621487  -0.19E-02*   0.47E-02*   0.63E-02*    0.29E-01   0.22E+03   c2DIIS       1.
   5  -958.335815371 -1181.983451438   293.186556077  -0.25E-03*   0.20E-02*   0.15E-02*    0.29E-02   0.22E+03   QNRc2DIIS    1.
   6  -958.335843329 -1181.989936622   293.193013304  -0.28E-04*   0.12E-02*   0.69E-03*    0.41E-03   0.22E+03   QNRc2DIIS    1.
   7  -958.335847787 -1181.986533268   293.189605492  -0.45E-05*   0.46E-04*   0.82E-04     0.68E-04   0.22E+03   QNRc2DIIS    1.
   8  -958.335847804 -1181.987437369   293.190509576  -0.17E-07*   0.20E-05    0.18E-05     0.89E-05   0.22E+03   QNRc2DIIS    1.
   9  -958.335847804 -1181.987486029   293.190558235  -0.23E-10    0.56E-06    0.70E-06     0.80E-03   0.22E+03   QNRc2DIIS    1.

       Convergence after  9 Macro Iterations
--

 *****************************************************************************************************************************
 *                                                                                                                           *
 *                                             SCF/KS-DFT Program, Final results                                             *
 *                                                                                                                           *
 *                                                                                                                           *
 *                                                                                                                           *
 *                                                       Final Results                                                       *
 *                                                                                                                           *
 *****************************************************************************************************************************

::    Total SCF energy                               -958.3358478043
      One-electron energy                           -1181.9874860285
      Two-electron energy                             293.1905582352
      Nuclear repulsion energy                        -69.5389200110
      Kinetic energy (interpolated)                   970.0305254066
      Virial theorem                                    0.9879440107
      Total spin, S(S+1)                                0.0000000000
      Total spin, S                                     0.0000000000
      Max non-diagonal density matrix element           0.0000004539
      Max non-diagonal Fock matrix element              0.0000001188


      All orbitals with orbital energies smaller than  E(LUMO)+0.5 are printed

++    Molecular orbitals:
      -------------------

      Title: SCF orbitals

      Molecular orbitals for symmetry species 1: a  

          Orbital            1         2         3         4         5         6         7         8         9        10    
          Energy         -203.1697  -24.4833  -20.3906  -20.3906  -20.3824   -3.1682   -1.9881   -1.9881   -1.8424   -0.1745
          Occ. No.          2.0000    2.0000    2.0000    2.0000    2.0000    2.0000    2.0000    2.0000    2.0000    0.0000

        1 V      1s         1.0000   -0.0001    0.0000   -0.0000   -0.0000   -0.0000   -0.0000    0.0000    0.0000    0.0000
        2 V      2s         0.0001    1.0000   -0.0000   -0.0000   -0.0034   -0.0023    0.0000   -0.0000   -0.0007    0.0001
        3 V      3s        -0.0000   -0.0023    0.0000    0.0000    0.0006   -0.9946    0.0000   -0.0000   -0.0746   -0.0107
        4 V      4s         0.0000    0.0002   -0.0000   -0.0000   -0.0001    0.0148    0.0000   -0.0000    0.0064   -0.9588
        5 V      5s        -0.0000   -0.0003    0.0000    0.0000    0.0001   -0.0121   -0.0000    0.0000   -0.0062   -0.1933
        6 V      6s         0.0000    0.0008   -0.0000   -0.0000   -0.0002    0.0291   -0.0000   -0.0000    0.0125    0.0405
        7 V      7s        -0.0000   -0.0003    0.0000    0.0000    0.0001   -0.0128   -0.0000   -0.0000   -0.0038    0.0610
        8 V      8s         0.0000    0.0001    0.0000   -0.0000   -0.0000    0.0020   -0.0000    0.0000   -0.0003    0.0212
        9 V      9s        -0.0000    0.0000   -0.0000   -0.0000    0.0000    0.0022   -0.0000    0.0000    0.0007    0.0171
       10 V     10s         0.0000   -0.0001    0.0000   -0.0000   -0.0000   -0.0013   -0.0000   -0.0000   -0.0002    0.0051
       11 V      2px        0.0000    0.0000    1.0000    0.0000    0.0000    0.0000   -0.0000    0.0026    0.0000   -0.0000
       12 V      3px       -0.0000    0.0000   -0.0027   -0.0000   -0.0000   -0.0000   -0.0000    0.9898    0.0000    0.0000
       13 V      4px        0.0000   -0.0000    0.0004    0.0000    0.0000    0.0000    0.0000   -0.0123    0.0000    0.0000
       14 V      5px       -0.0000    0.0000   -0.0010   -0.0000   -0.0000   -0.0000   -0.0000    0.0288    0.0000    0.0000
       15 V      6px        0.0000   -0.0000    0.0004    0.0000    0.0000   -0.0000    0.0000   -0.0138   -0.0000    0.0000
       16 V      7px       -0.0000    0.0000   -0.0002   -0.0000   -0.0000    0.0000   -0.0000    0.0069    0.0000    0.0000
       17 V      8px        0.0000   -0.0000   -0.0001   -0.0000   -0.0000   -0.0000   -0.0000    0.0015   -0.0000   -0.0000
       18 V      9px       -0.0000   -0.0000    0.0001    0.0000    0.0000   -0.0000    0.0000   -0.0033   -0.0000   -0.0000
       19 V     10px        0.0000   -0.0000   -0.0002   -0.0000   -0.0000    0.0000    0.0000   -0.0004    0.0000   -0.0000
       20 V      2py       -0.0000    0.0000   -0.0000    1.0000   -0.0000    0.0000    0.0026    0.0000    0.0000    0.0000
       21 V      3py       -0.0000   -0.0000    0.0000   -0.0027    0.0000    0.0000    0.9898    0.0000    0.0000    0.0000
       22 V      4py        0.0000    0.0000   -0.0000    0.0004   -0.0000   -0.0000   -0.0123   -0.0000   -0.0000    0.0000
       23 V      5py       -0.0000   -0.0000    0.0000   -0.0010    0.0000    0.0000    0.0288    0.0000    0.0000    0.0000
       24 V      6py        0.0000    0.0000   -0.0000    0.0004   -0.0000   -0.0000   -0.0138   -0.0000    0.0000    0.0000
       25 V      7py       -0.0000   -0.0000    0.0000   -0.0002    0.0000   -0.0000    0.0069    0.0000    0.0000    0.0000
       26 V      8py        0.0000    0.0000    0.0000   -0.0001    0.0000    0.0000    0.0015    0.0000    0.0000    0.0000
       27 V      9py       -0.0000   -0.0000   -0.0000    0.0001   -0.0000    0.0000   -0.0033   -0.0000   -0.0000    0.0000
       28 V     10py        0.0000    0.0000    0.0000   -0.0002    0.0000   -0.0000   -0.0004   -0.0000   -0.0000    0.0000
       29 V      2pz        0.0000    0.0034   -0.0000   -0.0000    1.0000    0.0004    0.0000   -0.0000    0.0035    0.0000
       30 V      3pz       -0.0000    0.0004    0.0000   -0.0000   -0.0034   -0.0729    0.0000   -0.0000    0.9913    0.0040
       31 V      4pz        0.0000   -0.0001   -0.0000    0.0000    0.0006    0.0017   -0.0000    0.0000   -0.0114   -0.1779
       32 V      5pz       -0.0000    0.0002    0.0000   -0.0000   -0.0013    0.0002    0.0000   -0.0000    0.0375   -0.0327
       33 V      6pz        0.0000   -0.0001   -0.0000    0.0000    0.0006   -0.0020    0.0000    0.0000   -0.0216   -0.0265
       34 V      7pz       -0.0000    0.0001    0.0000   -0.0000   -0.0003    0.0017    0.0000   -0.0000    0.0112   -0.0034
       35 V      8pz        0.0000   -0.0000   -0.0000    0.0000   -0.0000    0.0001    0.0000   -0.0000    0.0028    0.0014
       36 V      9pz       -0.0000    0.0000   -0.0000   -0.0000    0.0001   -0.0006   -0.0000    0.0000   -0.0054    0.0013
       37 V     10pz        0.0000   -0.0000    0.0000    0.0000   -0.0002   -0.0001   -0.0000    0.0000   -0.0010    0.0003
       38 V      3d2-      -0.0000   -0.0000   -0.0000    0.0004   -0.0000    0.0000    0.0714    0.0000    0.0000    0.0000
       39 V      4d2-      -0.0000    0.0000    0.0000   -0.0002    0.0000   -0.0000   -0.0213   -0.0000   -0.0000    0.0000
       40 V      5d2-       0.0000   -0.0000   -0.0000    0.0001   -0.0000    0.0000   -0.0025   -0.0000   -0.0000    0.0000
       41 V      6d2-      -0.0000    0.0000   -0.0000    0.0001   -0.0000   -0.0000    0.0094    0.0000    0.0000    0.0000
       42 V      7d2-       0.0000   -0.0000    0.0000   -0.0001    0.0000    0.0000    0.0005    0.0000   -0.0000    0.0000
       43 V      8d2-      -0.0000   -0.0000   -0.0000    0.0001   -0.0000   -0.0000   -0.0023   -0.0000   -0.0000    0.0000
       44 V      9d2-       0.0000    0.0000    0.0000   -0.0000    0.0000    0.0000   -0.0006   -0.0000   -0.0000    0.0000
       45 V     10d2-      -0.0000   -0.0000   -0.0000    0.0000   -0.0000   -0.0000    0.0003    0.0000   -0.0000    0.0000
       46 V      3d1-      -0.0000   -0.0000   -0.0000    0.0006   -0.0000    0.0000    0.1052    0.0000    0.0000    0.0000
       47 V      4d1-       0.0000    0.0000    0.0000   -0.0004    0.0000   -0.0000   -0.0308   -0.0000   -0.0000    0.0000
       48 V      5d1-      -0.0000   -0.0000   -0.0000    0.0003   -0.0000   -0.0000   -0.0036   -0.0000   -0.0000    0.0000
       49 V      6d1-       0.0000    0.0000    0.0000   -0.0001    0.0000    0.0000    0.0129    0.0000    0.0000    0.0000
       50 V      7d1-      -0.0000   -0.0000    0.0000   -0.0000    0.0000   -0.0000    0.0008    0.0000    0.0000    0.0000
       51 V      8d1-       0.0000    0.0000   -0.0000    0.0000   -0.0000    0.0000   -0.0029   -0.0000   -0.0000    0.0000
       52 V      9d1-      -0.0000    0.0000   -0.0000    0.0000   -0.0000   -0.0000   -0.0008   -0.0000    0.0000   -0.0000
       53 V     10d1-       0.0000    0.0000    0.0000   -0.0000    0.0000    0.0000    0.0003    0.0000    0.0000   -0.0000
       54 V      3d0       -0.0000   -0.0003    0.0000   -0.0000   -0.0002    0.0315   -0.0000    0.0000   -0.0786    0.0296
       55 V      4d0        0.0000    0.0002    0.0000   -0.0000    0.0001   -0.0110    0.0000   -0.0000    0.0234    0.0326
       56 V      5d0       -0.0000   -0.0002   -0.0000    0.0000    0.0001   -0.0007    0.0000   -0.0000    0.0032    0.0070
       57 V      6d0        0.0000    0.0002    0.0000    0.0000   -0.0003    0.0059    0.0000    0.0000   -0.0109   -0.0003
       58 V      7d0       -0.0000   -0.0001   -0.0000   -0.0000    0.0004   -0.0006   -0.0000    0.0000   -0.0007    0.0005
       59 V      8d0        0.0000    0.0000    0.0000    0.0000   -0.0002   -0.0016   -0.0000   -0.0000    0.0031    0.0002
       60 V      9d0       -0.0000   -0.0000   -0.0000   -0.0000    0.0001   -0.0001   -0.0000   -0.0000    0.0007   -0.0002
       61 V     10d0        0.0000   -0.0000    0.0000   -0.0000   -0.0001    0.0002    0.0000    0.0000   -0.0004   -0.0001
       62 V      3d1+       0.0000   -0.0000    0.0006    0.0000    0.0000    0.0000   -0.0000    0.1052    0.0000    0.0000
       63 V      4d1+      -0.0000    0.0000   -0.0004   -0.0000   -0.0000   -0.0000    0.0000   -0.0308   -0.0000    0.0000
       64 V      5d1+      -0.0000   -0.0000    0.0003    0.0000    0.0000    0.0000    0.0000   -0.0036    0.0000    0.0000
       65 V      6d1+       0.0000    0.0000   -0.0001   -0.0000   -0.0000    0.0000   -0.0000    0.0129    0.0000    0.0000
       66 V      7d1+      -0.0000   -0.0000   -0.0000   -0.0000   -0.0000   -0.0000   -0.0000    0.0008   -0.0000    0.0000
       67 V      8d1+       0.0000   -0.0000    0.0000    0.0000    0.0000   -0.0000    0.0000   -0.0029   -0.0000   -0.0000
       68 V      9d1+      -0.0000    0.0000    0.0000    0.0000    0.0000    0.0000    0.0000   -0.0008    0.0000   -0.0000
       69 V     10d1+       0.0000   -0.0000   -0.0000   -0.0000   -0.0000    0.0000   -0.0000    0.0003    0.0000    0.0000
       70 V      3d2+      -0.0000   -0.0000   -0.0004   -0.0000   -0.0000    0.0000    0.0000   -0.0714   -0.0000    0.0000
       71 V      4d2+       0.0000    0.0000    0.0002    0.0000    0.0000   -0.0000   -0.0000    0.0213    0.0000    0.0000
       72 V      5d2+      -0.0000    0.0000   -0.0001   -0.0000   -0.0000   -0.0000   -0.0000    0.0025   -0.0000    0.0000
       73 V      6d2+       0.0000   -0.0000   -0.0001   -0.0000   -0.0000    0.0000    0.0000   -0.0094   -0.0000    0.0000
       74 V      7d2+       0.0000   -0.0000    0.0001    0.0000    0.0000    0.0000    0.0000   -0.0005    0.0000    0.0000
       75 V      8d2+      -0.0000    0.0000   -0.0001   -0.0000   -0.0000   -0.0000   -0.0000    0.0023    0.0000    0.0000
       76 V      9d2+       0.0000   -0.0000    0.0000    0.0000    0.0000   -0.0000   -0.0000    0.0006   -0.0000   -0.0000
       77 V     10d2+      -0.0000   -0.0000   -0.0000   -0.0000   -0.0000   -0.0000    0.0000   -0.0003   -0.0000   -0.0000
       78 V      4f3-       0.0000    0.0000    0.0000   -0.0000    0.0000    0.0000   -0.0000   -0.0000   -0.0000   -0.0000
       79 V      5f3-      -0.0000   -0.0000   -0.0000    0.0000   -0.0000   -0.0000    0.0000    0.0000   -0.0000    0.0000
       80 V      6f3-       0.0000    0.0000    0.0000   -0.0000   -0.0000    0.0000    0.0000    0.0000    0.0000   -0.0000
       81 V      7f3-      -0.0000   -0.0000   -0.0000    0.0000    0.0000   -0.0000   -0.0000   -0.0000   -0.0000    0.0000
       82 V      8f3-       0.0000    0.0000    0.0000   -0.0000    0.0000    0.0000   -0.0000   -0.0000   -0.0000   -0.0000
       83 V      9f3-      -0.0000   -0.0000    0.0000    0.0000    0.0000    0.0000    0.0000   -0.0000   -0.0000    0.0000
       84 V      4f2-       0.0000    0.0000    0.0000   -0.0001    0.0000   -0.0000   -0.0169   -0.0000   -0.0000    0.0000
       85 V      5f2-      -0.0000   -0.0000   -0.0000    0.0001   -0.0000    0.0000    0.0028    0.0000    0.0000   -0.0000
       86 V      6f2-       0.0000    0.0000    0.0000   -0.0001    0.0000   -0.0000    0.0041    0.0000    0.0000   -0.0000
       87 V      7f2-       0.0000   -0.0000   -0.0000    0.0000   -0.0000   -0.0000   -0.0034   -0.0000   -0.0000    0.0000
       88 V      8f2-      -0.0000   -0.0000   -0.0000    0.0000   -0.0000    0.0000   -0.0001   -0.0000    0.0000    0.0000
       89 V      9f2-       0.0000    0.0000    0.0000   -0.0000    0.0000   -0.0000    0.0012    0.0000    0.0000    0.0000
       90 V      4f1-       0.0000    0.0000    0.0000   -0.0001    0.0000    0.0000   -0.0125   -0.0000   -0.0000   -0.0000
       91 V      5f1-      -0.0000   -0.0000   -0.0000    0.0001   -0.0000   -0.0000    0.0018    0.0000    0.0000   -0.0000
       92 V      6f1-       0.0000    0.0000    0.0000   -0.0001    0.0000    0.0000    0.0023    0.0000    0.0000   -0.0000
       93 V      7f1-      -0.0000   -0.0000   -0.0000    0.0001   -0.0000   -0.0000   -0.0015   -0.0000    0.0000    0.0000
       94 V      8f1-       0.0000    0.0000    0.0000   -0.0001    0.0000    0.0000   -0.0001   -0.0000    0.0000    0.0000
       95 V      9f1-      -0.0000   -0.0000   -0.0000    0.0000   -0.0000    0.0000    0.0003    0.0000   -0.0000    0.0000
       96 V      4f0        0.0000   -0.0005    0.0000    0.0000   -0.0002    0.0411   -0.0000    0.0000   -0.0153    0.0196
       97 V      5f0       -0.0000    0.0004   -0.0000   -0.0000    0.0002   -0.0097    0.0000   -0.0000    0.0015    0.0258
       98 V      6f0        0.0000   -0.0002    0.0000    0.0000   -0.0001   -0.0073    0.0000   -0.0000    0.0030    0.0073
       99 V      7f0       -0.0000    0.0001   -0.0000   -0.0000    0.0001    0.0073   -0.0000    0.0000   -0.0015    0.0016
      100 V      8f0        0.0000    0.0000    0.0000    0.0000   -0.0001   -0.0001    0.0000   -0.0000   -0.0002    0.0011
      101 V      9f0       -0.0000   -0.0000   -0.0000   -0.0000    0.0000   -0.0022    0.0000   -0.0000    0.0003    0.0006
      102 V      4f1+      -0.0000    0.0000   -0.0001   -0.0000   -0.0000   -0.0000    0.0000   -0.0125   -0.0000   -0.0000
      103 V      5f1+       0.0000   -0.0000    0.0001    0.0000    0.0000    0.0000   -0.0000    0.0018    0.0000   -0.0000
      104 V      6f1+      -0.0000    0.0000   -0.0001   -0.0000   -0.0000    0.0000   -0.0000    0.0023    0.0000   -0.0000
      105 V      7f1+       0.0000   -0.0000    0.0001    0.0000    0.0000   -0.0000    0.0000   -0.0015   -0.0000   -0.0000
      106 V      8f1+      -0.0000   -0.0000   -0.0001   -0.0000   -0.0000    0.0000    0.0000   -0.0001    0.0000   -0.0000
      107 V      9f1+       0.0000    0.0000    0.0000    0.0000    0.0000    0.0000   -0.0000    0.0003    0.0000   -0.0000
      108 V      4f2+      -0.0000   -0.0000    0.0001    0.0000    0.0000   -0.0000   -0.0000    0.0169    0.0000   -0.0000
      109 V      5f2+       0.0000    0.0000   -0.0001   -0.0000   -0.0000   -0.0000    0.0000   -0.0028   -0.0000   -0.0000
      110 V      6f2+      -0.0000   -0.0000    0.0001    0.0000    0.0000    0.0000    0.0000   -0.0041    0.0000   -0.0000
      111 V      7f2+       0.0000    0.0000   -0.0000   -0.0000   -0.0000   -0.0000   -0.0000    0.0034    0.0000    0.0000
      112 V      8f2+      -0.0000   -0.0000   -0.0000   -0.0000   -0.0000   -0.0000   -0.0000    0.0001   -0.0000    0.0000
      113 V      9f2+       0.0000    0.0000    0.0000    0.0000    0.0000    0.0000    0.0000   -0.0012   -0.0000   -0.0000
      114 V      4f3+       0.0000   -0.0003   -0.0000    0.0000    0.0001    0.0264    0.0000   -0.0000    0.0209    0.0130
      115 V      5f3+      -0.0000    0.0002    0.0000   -0.0000   -0.0001   -0.0063    0.0000   -0.0000   -0.0031    0.0151
      116 V      6f3+       0.0000   -0.0001   -0.0000    0.0000    0.0001   -0.0047   -0.0000    0.0000   -0.0048    0.0036
      117 V      7f3+      -0.0000    0.0000   -0.0000   -0.0000   -0.0000    0.0047   -0.0000   -0.0000    0.0037    0.0008
      118 V      8f3+       0.0000    0.0000   -0.0000   -0.0000   -0.0000   -0.0001    0.0000   -0.0000    0.0002    0.0005
      119 V      9f3+      -0.0000   -0.0000    0.0000    0.0000    0.0000   -0.0014    0.0000    0.0000   -0.0013    0.0003
      120 V      5g4-       0.0000    0.0000    0.0000   -0.0002    0.0000   -0.0000   -0.0152   -0.0000   -0.0000   -0.0000
      121 V      6g4-      -0.0000   -0.0000   -0.0000    0.0001   -0.0000    0.0000   -0.0011   -0.0000   -0.0000   -0.0000
      122 V      7g4-       0.0000    0.0000    0.0000   -0.0001    0.0000   -0.0000    0.0040    0.0000    0.0000   -0.0000
      123 V      8g4-      -0.0000   -0.0000   -0.0000    0.0000   -0.0000    0.0000   -0.0015   -0.0000   -0.0000    0.0000
      124 V      5g3-      -0.0000   -0.0000   -0.0000    0.0000   -0.0000    0.0000    0.0000    0.0000    0.0000   -0.0000
      125 V      6g3-       0.0000    0.0000    0.0000   -0.0000   -0.0000   -0.0000    0.0000    0.0000   -0.0000   -0.0000
      126 V      7g3-      -0.0000   -0.0000    0.0000   -0.0000    0.0000    0.0000   -0.0000   -0.0000    0.0000   -0.0000
      127 V      8g3-       0.0000    0.0000   -0.0000    0.0000   -0.0000   -0.0000    0.0000    0.0000   -0.0000   -0.0000
      128 V      5g2-      -0.0000   -0.0000   -0.0000    0.0000   -0.0000   -0.0000    0.0012    0.0000    0.0000   -0.0000
      129 V      6g2-       0.0000    0.0000    0.0000   -0.0000    0.0000    0.0000   -0.0002   -0.0000   -0.0000    0.0000
      130 V      7g2-      -0.0000   -0.0000    0.0000   -0.0000   -0.0000   -0.0000   -0.0007   -0.0000   -0.0000   -0.0000
      131 V      8g2-       0.0000    0.0000   -0.0000    0.0000   -0.0000    0.0000    0.0006    0.0000    0.0000    0.0000
      132 V      5g1-       0.0000    0.0000    0.0000   -0.0002    0.0000   -0.0000   -0.0191   -0.0000   -0.0000   -0.0000
      133 V      6g1-       0.0000   -0.0000   -0.0000    0.0001   -0.0000   -0.0000   -0.0014   -0.0000   -0.0000   -0.0000
      134 V      7g1-      -0.0000    0.0000    0.0000   -0.0001    0.0000    0.0000    0.0049    0.0000    0.0000   -0.0000
      135 V      8g1-       0.0000   -0.0000   -0.0000    0.0000   -0.0000   -0.0000   -0.0017   -0.0000   -0.0000   -0.0000
      136 V      5g0        0.0000   -0.0000    0.0000    0.0000   -0.0004    0.0027   -0.0000    0.0000   -0.0324    0.0004
      137 V      6g0       -0.0000    0.0000   -0.0000   -0.0000    0.0002   -0.0000   -0.0000    0.0000   -0.0023    0.0022
      138 V      7g0       -0.0000   -0.0000    0.0000   -0.0000   -0.0001   -0.0008    0.0000   -0.0000    0.0089    0.0011
      139 V      8g0        0.0000    0.0000   -0.0000   -0.0000    0.0000    0.0004   -0.0000    0.0000   -0.0037    0.0000
      140 V      5g1+       0.0000    0.0000   -0.0002   -0.0000   -0.0000    0.0000    0.0000   -0.0191   -0.0000   -0.0000
      141 V      6g1+       0.0000   -0.0000    0.0001    0.0000    0.0000    0.0000    0.0000   -0.0014   -0.0000   -0.0000
      142 V      7g1+      -0.0000    0.0000   -0.0001   -0.0000   -0.0000   -0.0000   -0.0000    0.0049    0.0000   -0.0000
      143 V      8g1+       0.0000   -0.0000    0.0000    0.0000    0.0000   -0.0000    0.0000   -0.0017   -0.0000   -0.0000
      144 V      5g2+      -0.0000    0.0000   -0.0000   -0.0000   -0.0000   -0.0000    0.0000   -0.0012    0.0000   -0.0000
      145 V      6g2+       0.0000   -0.0000    0.0000    0.0000    0.0000    0.0000   -0.0000    0.0002    0.0000   -0.0000
      146 V      7g2+      -0.0000    0.0000    0.0000    0.0000   -0.0000    0.0000   -0.0000    0.0007   -0.0000   -0.0000
      147 V      8g2+      -0.0000   -0.0000   -0.0000   -0.0000    0.0000   -0.0000    0.0000   -0.0006   -0.0000   -0.0000
      148 V      5g3+      -0.0000    0.0002    0.0000   -0.0000   -0.0002   -0.0157    0.0000    0.0000   -0.0208   -0.0038
      149 V      6g3+       0.0000   -0.0001   -0.0000    0.0000    0.0001    0.0007   -0.0000    0.0000   -0.0012   -0.0047
      150 V      7g3+      -0.0000    0.0001   -0.0000   -0.0000   -0.0001    0.0046    0.0000   -0.0000    0.0059   -0.0005
      151 V      8g3+      -0.0000   -0.0000    0.0000    0.0000    0.0000   -0.0029    0.0000    0.0000   -0.0028    0.0005
      152 V      5g4+      -0.0000    0.0000   -0.0002   -0.0000   -0.0000   -0.0000    0.0000   -0.0152   -0.0000   -0.0000
      153 V      6g4+       0.0000   -0.0000    0.0001    0.0000    0.0000    0.0000    0.0000   -0.0011    0.0000   -0.0000
      154 V      7g4+      -0.0000    0.0000   -0.0001   -0.0000   -0.0000    0.0000   -0.0000    0.0040    0.0000   -0.0000
      155 V      8g4+      -0.0000   -0.0000    0.0000    0.0000    0.0000   -0.0000    0.0000   -0.0015   -0.0000   -0.0000
      156 V      6h5-      -0.0000   -0.0000   -0.0000    0.0000   -0.0000    0.0000    0.0021    0.0000   -0.0000    0.0000
      157 V      7h5-       0.0000    0.0000    0.0000   -0.0000   -0.0000    0.0000   -0.0003   -0.0000   -0.0000   -0.0000
      158 V      6h4-      -0.0000   -0.0000   -0.0000    0.0001   -0.0000    0.0000    0.0102    0.0000    0.0000    0.0000
      159 V      7h4-       0.0000    0.0000    0.0000   -0.0000    0.0000   -0.0000   -0.0003   -0.0000   -0.0000    0.0000
      160 V      6h3-      -0.0000   -0.0000    0.0000   -0.0000   -0.0000    0.0000   -0.0000   -0.0000   -0.0000    0.0000
      161 V      7h3-       0.0000    0.0000   -0.0000    0.0000   -0.0000   -0.0000    0.0000   -0.0000   -0.0000   -0.0000
      162 V      6h2-      -0.0000   -0.0000   -0.0000    0.0000   -0.0000    0.0000    0.0032    0.0000    0.0000   -0.0000
      163 V      7h2-       0.0000    0.0000    0.0000   -0.0000    0.0000   -0.0000   -0.0002   -0.0000   -0.0000   -0.0000
      164 V      6h1-       0.0000    0.0000   -0.0000    0.0000   -0.0000   -0.0000    0.0021    0.0000    0.0000   -0.0000
      165 V      7h1-      -0.0000   -0.0000    0.0000   -0.0000    0.0000    0.0000   -0.0005   -0.0000   -0.0000   -0.0000
      166 V      6h0        0.0000   -0.0000    0.0000   -0.0000   -0.0001    0.0034    0.0000    0.0000   -0.0065   -0.0000
      167 V      7h0       -0.0000    0.0000   -0.0000    0.0000    0.0000   -0.0005   -0.0000   -0.0000    0.0007    0.0005
      168 V      6h1+       0.0000   -0.0000    0.0000    0.0000    0.0000    0.0000   -0.0000    0.0021    0.0000    0.0000
      169 V      7h1+      -0.0000    0.0000   -0.0000   -0.0000   -0.0000   -0.0000    0.0000   -0.0005   -0.0000   -0.0000
      170 V      6h2+       0.0000   -0.0000   -0.0000   -0.0000   -0.0000    0.0000    0.0000   -0.0032    0.0000    0.0000
      171 V      7h2+      -0.0000    0.0000    0.0000    0.0000    0.0000    0.0000   -0.0000    0.0002   -0.0000    0.0000
      172 V      6h3+       0.0000   -0.0001   -0.0000    0.0000    0.0001    0.0052   -0.0000   -0.0000    0.0112    0.0007
      173 V      7h3+      -0.0000    0.0000    0.0000   -0.0000   -0.0000   -0.0008    0.0000   -0.0000   -0.0002    0.0007
      174 V      6h4+       0.0000   -0.0000    0.0001    0.0000    0.0000    0.0000   -0.0000    0.0102    0.0000    0.0000
      175 V      7h4+      -0.0000    0.0000   -0.0000   -0.0000   -0.0000   -0.0000    0.0000   -0.0003   -0.0000    0.0000
      176 V      6h5+       0.0000   -0.0000   -0.0000   -0.0000   -0.0000    0.0000    0.0000   -0.0021    0.0000    0.0000
      177 V      7h5+      -0.0000    0.0000    0.0000    0.0000    0.0000    0.0000   -0.0000    0.0003    0.0000    0.0000

          Orbital           11        12        13        14        15        16        17        18        19        20    
          Energy           -0.1093   -0.1093   -0.1002   -0.0665   -0.0350   -0.0350   -0.0307   -0.0307   -0.0252   -0.0197
          Occ. No.          0.0000    0.0000    0.0000    0.0000    0.0000    0.0000    0.0000    0.0000    0.0000    0.0000

        1 V      1s         0.0000   -0.0000    0.0000    0.0000   -0.0000    0.0000   -0.0000   -0.0000    0.0000   -0.0000
        2 V      2s        -0.0000    0.0000    0.0000    0.0001   -0.0000    0.0000   -0.0000    0.0000    0.0000    0.0000
        3 V      3s        -0.0000    0.0000   -0.0003   -0.0038   -0.0000    0.0000   -0.0000    0.0000    0.0034    0.0000
        4 V      4s         0.0000    0.0000   -0.1481   -0.1102   -0.0000    0.0000   -0.0000   -0.0000    0.0210   -0.0000
        5 V      5s         0.0000    0.0000   -0.0928    0.7936    0.0000   -0.0000    0.0000   -0.0000    0.0080    0.0000
        6 V      6s        -0.0000    0.0000   -0.0122    0.3769    0.0000   -0.0000    0.0000   -0.0000   -0.0101    0.0000
        7 V      7s        -0.0000   -0.0000   -0.0029    0.3816    0.0000   -0.0000    0.0000   -0.0000   -0.0127    0.0000
        8 V      8s        -0.0000   -0.0000    0.0001    0.1593    0.0000   -0.0000    0.0000   -0.0000   -0.0066    0.0000
        9 V      9s        -0.0000   -0.0000    0.0015    0.1408    0.0000   -0.0000    0.0000   -0.0000   -0.0071    0.0000
       10 V     10s        -0.0000   -0.0000    0.0007    0.0406    0.0000   -0.0000    0.0000   -0.0000   -0.0022    0.0000
       11 V      2px        0.0000   -0.0002   -0.0000   -0.0000   -0.0000    0.0000    0.0000   -0.0002   -0.0000    0.0000
       12 V      3px       -0.0000    0.0025    0.0000    0.0000   -0.0000    0.0042    0.0000   -0.0103    0.0000   -0.0000
       13 V      4px       -0.0000    0.8353   -0.0000    0.0000   -0.0000    0.0096   -0.0000    0.2317    0.0000   -0.0000
       14 V      5px       -0.0000    0.3342   -0.0000   -0.0000    0.0000   -0.0151    0.0000   -0.1196   -0.0000    0.0000
       15 V      6px       -0.0000    0.3861   -0.0000   -0.0000    0.0000   -0.0455    0.0000   -0.3816   -0.0000    0.0000
       16 V      7px       -0.0000    0.1371   -0.0000   -0.0000    0.0000   -0.0372    0.0000   -0.3350   -0.0000    0.0000
       17 V      8px       -0.0000    0.0895   -0.0000   -0.0000    0.0000   -0.0405    0.0000   -0.3716   -0.0000    0.0000
       18 V      9px       -0.0000    0.0259   -0.0000   -0.0000    0.0000   -0.0179    0.0000   -0.1631   -0.0000    0.0000
       19 V     10px       -0.0000    0.0023   -0.0000   -0.0000    0.0000   -0.0033    0.0000   -0.0296   -0.0000    0.0000
       20 V      2py       -0.0002   -0.0000    0.0000   -0.0000   -0.0000   -0.0000   -0.0002   -0.0000   -0.0000    0.0000
       21 V      3py        0.0025    0.0000   -0.0000    0.0000   -0.0042   -0.0000   -0.0103   -0.0000    0.0000   -0.0137
       22 V      4py        0.8353    0.0000    0.0000    0.0000   -0.0096   -0.0000    0.2317    0.0000    0.0000   -0.3550
       23 V      5py        0.3342    0.0000    0.0000   -0.0000    0.0151    0.0000   -0.1196   -0.0000    0.0000    0.0471
       24 V      6py        0.3861    0.0000    0.0000   -0.0000    0.0455    0.0000   -0.3816   -0.0000   -0.0000    0.3177
       25 V      7py        0.1371    0.0000    0.0000   -0.0000    0.0372    0.0000   -0.3350   -0.0000   -0.0000    0.3270
       26 V      8py        0.0895    0.0000   -0.0000   -0.0000    0.0405    0.0000   -0.3716   -0.0000   -0.0000    0.3808
       27 V      9py        0.0259    0.0000   -0.0000   -0.0000    0.0179    0.0000   -0.1631   -0.0000   -0.0000    0.1724
       28 V     10py        0.0023    0.0000   -0.0000   -0.0000    0.0033    0.0000   -0.0296   -0.0000   -0.0000    0.0323
       29 V      2pz        0.0000   -0.0000   -0.0002    0.0000   -0.0000   -0.0000    0.0000   -0.0000    0.0000   -0.0000
       30 V      3pz       -0.0000   -0.0000    0.0046    0.0029    0.0000   -0.0000    0.0000   -0.0000    0.0114   -0.0000
       31 V      4pz       -0.0000    0.0000    0.7765   -0.0228    0.0000    0.0000    0.0000   -0.0000    0.0791    0.0000
       32 V      5pz       -0.0000    0.0000    0.3563    0.0465    0.0000   -0.0000   -0.0000    0.0000   -0.0354   -0.0000
       33 V      6pz       -0.0000    0.0000    0.4351    0.0946    0.0000   -0.0000   -0.0000    0.0000   -0.1511   -0.0000
       34 V      7pz       -0.0000    0.0000    0.1693    0.0634    0.0000   -0.0000   -0.0000    0.0000   -0.1417   -0.0000
       35 V      8pz       -0.0000    0.0000    0.1209    0.0626    0.0000   -0.0000   -0.0000    0.0000   -0.1615   -0.0000
       36 V      9pz       -0.0000    0.0000    0.0383    0.0252   -0.0000   -0.0000   -0.0000    0.0000   -0.0729   -0.0000
       37 V     10pz       -0.0000    0.0000    0.0042    0.0041   -0.0000   -0.0000   -0.0000    0.0000   -0.0137   -0.0000
       38 V      3d2-       0.0060    0.0000   -0.0000    0.0000    0.3840    0.0000    0.0980    0.0000    0.0000    0.0510
       39 V      4d2-       0.0227    0.0000   -0.0000   -0.0000    0.5410    0.0000    0.2068    0.0000   -0.0000    0.1299
       40 V      5d2-       0.0095    0.0000   -0.0000   -0.0000    0.4993    0.0000    0.1921    0.0000   -0.0000    0.1436
       41 V      6d2-       0.0027    0.0000   -0.0000   -0.0000    0.2758    0.0000    0.1072    0.0000   -0.0000    0.0864
       42 V      7d2-       0.0025    0.0000   -0.0000   -0.0000    0.2221    0.0000    0.0875    0.0000   -0.0000    0.0709
       43 V      8d2-       0.0011    0.0000   -0.0000   -0.0000    0.1109    0.0000    0.0445    0.0000   -0.0000    0.0371
       44 V      9d2-       0.0003    0.0000   -0.0000   -0.0000    0.0497    0.0000    0.0199    0.0000   -0.0000    0.0171
       45 V     10d2-       0.0000    0.0000   -0.0000    0.0000    0.0088    0.0000    0.0035    0.0000   -0.0000    0.0031
       46 V      3d1-       0.0473    0.0000    0.0000    0.0000   -0.1842   -0.0000    0.2054    0.0000   -0.0000    0.1797
       47 V      4d1-       0.0846    0.0000    0.0000   -0.0000   -0.2351   -0.0000    0.3916    0.0000   -0.0000    0.3675
       48 V      5d1-       0.0536    0.0000   -0.0000   -0.0000   -0.2137   -0.0000    0.3588    0.0000   -0.0000    0.3933
       49 V      6d1-       0.0220    0.0000   -0.0000   -0.0000   -0.1178   -0.0000    0.1972    0.0000   -0.0000    0.2379
       50 V      7d1-       0.0169    0.0000   -0.0000   -0.0000   -0.0945   -0.0000    0.1594    0.0000   -0.0000    0.1966
       51 V      8d1-       0.0070    0.0000   -0.0000   -0.0000   -0.0468   -0.0000    0.0795    0.0000   -0.0000    0.1038
       52 V      9d1-       0.0027    0.0000   -0.0000   -0.0000   -0.0209   -0.0000    0.0354    0.0000   -0.0000    0.0479
       53 V     10d1-       0.0004    0.0000    0.0000   -0.0000   -0.0037   -0.0000    0.0062    0.0000   -0.0000    0.0087
       54 V      3d0       -0.0000    0.0000    0.0293    0.0303   -0.0000    0.0000    0.0000   -0.0000    0.2881    0.0000
       55 V      4d0       -0.0000    0.0000    0.0421    0.0367   -0.0000    0.0000    0.0000   -0.0000    0.5666    0.0000
       56 V      5d0       -0.0000    0.0000    0.0410    0.0193   -0.0000    0.0000    0.0000   -0.0000    0.5611    0.0000
       57 V      6d0       -0.0000    0.0000    0.0206    0.0075   -0.0000    0.0000    0.0000   -0.0000    0.3231    0.0000
       58 V      7d0       -0.0000    0.0000    0.0152    0.0063   -0.0000    0.0000    0.0000   -0.0000    0.2636    0.0000
       59 V      8d0       -0.0000    0.0000    0.0065    0.0029   -0.0000    0.0000    0.0000   -0.0000    0.1350    0.0000
       60 V      9d0       -0.0000    0.0000    0.0029    0.0011   -0.0000    0.0000    0.0000   -0.0000    0.0612    0.0000
       61 V     10d0       -0.0000    0.0000    0.0005    0.0002   -0.0000    0.0000    0.0000   -0.0000    0.0109    0.0000
       62 V      3d1+      -0.0000    0.0473   -0.0000    0.0000   -0.0000    0.1842   -0.0000    0.2054   -0.0000    0.0000
       63 V      4d1+      -0.0000    0.0846   -0.0000    0.0000   -0.0000    0.2351   -0.0000    0.3916   -0.0000    0.0000
       64 V      5d1+      -0.0000    0.0536   -0.0000    0.0000   -0.0000    0.2137   -0.0000    0.3588   -0.0000    0.0000
       65 V      6d1+      -0.0000    0.0220   -0.0000    0.0000   -0.0000    0.1178   -0.0000    0.1972   -0.0000    0.0000
       66 V      7d1+      -0.0000    0.0169   -0.0000    0.0000   -0.0000    0.0945   -0.0000    0.1594   -0.0000    0.0000
       67 V      8d1+      -0.0000    0.0070   -0.0000    0.0000   -0.0000    0.0468   -0.0000    0.0795   -0.0000    0.0000
       68 V      9d1+      -0.0000    0.0027   -0.0000    0.0000   -0.0000    0.0209   -0.0000    0.0354   -0.0000    0.0000
       69 V     10d1+      -0.0000    0.0004   -0.0000    0.0000   -0.0000    0.0037   -0.0000    0.0062   -0.0000    0.0000
       70 V      3d2+       0.0000   -0.0060    0.0000    0.0000   -0.0000    0.3840    0.0000   -0.0980   -0.0000   -0.0000
       71 V      4d2+       0.0000   -0.0227    0.0000    0.0000   -0.0000    0.5410    0.0000   -0.2068   -0.0000   -0.0000
       72 V      5d2+       0.0000   -0.0095    0.0000    0.0000   -0.0000    0.4993    0.0000   -0.1921   -0.0000   -0.0000
       73 V      6d2+       0.0000   -0.0027    0.0000    0.0000   -0.0000    0.2758    0.0000   -0.1072   -0.0000   -0.0000
       74 V      7d2+       0.0000   -0.0025    0.0000    0.0000   -0.0000    0.2221    0.0000   -0.0875   -0.0000   -0.0000
       75 V      8d2+       0.0000   -0.0011    0.0000    0.0000   -0.0000    0.1109    0.0000   -0.0445   -0.0000   -0.0000
       76 V      9d2+       0.0000   -0.0003    0.0000    0.0000   -0.0000    0.0497    0.0000   -0.0199   -0.0000   -0.0000
       77 V     10d2+       0.0000   -0.0000    0.0000    0.0000   -0.0000    0.0088    0.0000   -0.0035   -0.0000   -0.0000
       78 V      4f3-      -0.0000   -0.0000   -0.0000    0.0000   -0.0000   -0.0000   -0.0000   -0.0000   -0.0000    0.0000
       79 V      5f3-      -0.0000   -0.0000    0.0000   -0.0000   -0.0000   -0.0000   -0.0000   -0.0000   -0.0000    0.0000
       80 V      6f3-      -0.0000   -0.0000   -0.0000   -0.0000   -0.0000   -0.0000   -0.0000   -0.0000   -0.0000    0.0000
       81 V      7f3-      -0.0000   -0.0000   -0.0000   -0.0000   -0.0000   -0.0000   -0.0000   -0.0000   -0.0000    0.0000
       82 V      8f3-      -0.0000   -0.0000   -0.0000    0.0000   -0.0000   -0.0000   -0.0000   -0.0000   -0.0000    0.0000
       83 V      9f3-      -0.0000    0.0000   -0.0000    0.0000   -0.0000   -0.0000   -0.0000    0.0000   -0.0000    0.0000
       84 V      4f2-      -0.0008   -0.0000   -0.0000    0.0000    0.0253    0.0000    0.0127    0.0000   -0.0000    0.0125
       85 V      5f2-      -0.0026   -0.0000   -0.0000   -0.0000    0.0330    0.0000    0.0144    0.0000   -0.0000    0.0173
       86 V      6f2-      -0.0007   -0.0000   -0.0000   -0.0000    0.0277    0.0000    0.0126    0.0000   -0.0000    0.0132
       87 V      7f2-       0.0002    0.0000   -0.0000   -0.0000    0.0250    0.0000    0.0123    0.0000   -0.0000    0.0117
       88 V      8f2-      -0.0001   -0.0000   -0.0000   -0.0000    0.0157    0.0000    0.0074    0.0000   -0.0000    0.0076
       89 V      9f2-      -0.0002   -0.0000   -0.0000   -0.0000    0.0113    0.0000    0.0052    0.0000   -0.0000    0.0055
       90 V      4f1-      -0.0030   -0.0000   -0.0000   -0.0000   -0.0093   -0.0000    0.0046    0.0000   -0.0000    0.0118
       91 V      5f1-      -0.0065   -0.0000   -0.0000   -0.0000   -0.0143   -0.0000    0.0103    0.0000   -0.0000    0.0253
       92 V      6f1-      -0.0043   -0.0000   -0.0000   -0.0000   -0.0133   -0.0000    0.0140    0.0000   -0.0000    0.0256
       93 V      7f1-      -0.0023   -0.0000   -0.0000   -0.0000   -0.0119   -0.0000    0.0148    0.0000   -0.0000    0.0229
       94 V      8f1-      -0.0011   -0.0000   -0.0000   -0.0000   -0.0077   -0.0000    0.0103    0.0000   -0.0000    0.0150
       95 V      9f1-      -0.0007   -0.0000   -0.0000   -0.0000   -0.0057   -0.0000    0.0080    0.0000   -0.0000    0.0111
       96 V      4f0        0.0000   -0.0000   -0.0030    0.0115    0.0000   -0.0000   -0.0000    0.0000    0.0003   -0.0000
       97 V      5f0        0.0000   -0.0000   -0.0064    0.0151   -0.0000    0.0000   -0.0000    0.0000    0.0156    0.0000
       98 V      6f0       -0.0000   -0.0000   -0.0051    0.0043   -0.0000    0.0000   -0.0000    0.0000    0.0236    0.0000
       99 V      7f0       -0.0000   -0.0000   -0.0033    0.0008   -0.0000    0.0000   -0.0000    0.0000    0.0230    0.0000
      100 V      8f0       -0.0000    0.0000   -0.0017    0.0005   -0.0000    0.0000   -0.0000    0.0000    0.0162    0.0000
      101 V      9f0       -0.0000   -0.0000   -0.0010    0.0002   -0.0000    0.0000   -0.0000    0.0000    0.0129    0.0000
      102 V      4f1+       0.0000   -0.0030   -0.0000   -0.0000   -0.0000    0.0093   -0.0000    0.0046   -0.0000    0.0000
      103 V      5f1+       0.0000   -0.0065   -0.0000   -0.0000   -0.0000    0.0143   -0.0000    0.0103   -0.0000    0.0000
      104 V      6f1+       0.0000   -0.0043   -0.0000   -0.0000   -0.0000    0.0133   -0.0000    0.0140   -0.0000    0.0000
      105 V      7f1+       0.0000   -0.0023   -0.0000    0.0000   -0.0000    0.0119   -0.0000    0.0148   -0.0000    0.0000
      106 V      8f1+       0.0000   -0.0011   -0.0000    0.0000   -0.0000    0.0077   -0.0000    0.0103   -0.0000    0.0000
      107 V      9f1+       0.0000   -0.0007   -0.0000    0.0000   -0.0000    0.0057   -0.0000    0.0080   -0.0000    0.0000
      108 V      4f2+      -0.0000    0.0008   -0.0000    0.0000   -0.0000    0.0253    0.0000   -0.0127   -0.0000   -0.0000
      109 V      5f2+      -0.0000    0.0026   -0.0000    0.0000   -0.0000    0.0330    0.0000   -0.0144   -0.0000   -0.0000
      110 V      6f2+      -0.0000    0.0007   -0.0000    0.0000   -0.0000    0.0277    0.0000   -0.0126   -0.0000   -0.0000
      111 V      7f2+       0.0000   -0.0002   -0.0000    0.0000   -0.0000    0.0250    0.0000   -0.0123   -0.0000   -0.0000
      112 V      8f2+      -0.0000    0.0001   -0.0000    0.0000   -0.0000    0.0157    0.0000   -0.0074   -0.0000   -0.0000
      113 V      9f2+      -0.0000    0.0002   -0.0000    0.0000   -0.0000    0.0113    0.0000   -0.0052   -0.0000   -0.0000
      114 V      4f3+       0.0000   -0.0000    0.0041    0.0082    0.0000   -0.0000    0.0000   -0.0000    0.0083    0.0000
      115 V      5f3+       0.0000   -0.0000    0.0060    0.0092    0.0000   -0.0000    0.0000   -0.0000    0.0093    0.0000
      116 V      6f3+       0.0000   -0.0000    0.0025    0.0021    0.0000   -0.0000    0.0000    0.0000    0.0060    0.0000
      117 V      7f3+       0.0000   -0.0000    0.0011    0.0004    0.0000   -0.0000   -0.0000    0.0000    0.0050    0.0000
      118 V      8f3+       0.0000   -0.0000    0.0007    0.0002    0.0000   -0.0000   -0.0000    0.0000    0.0030    0.0000
      119 V      9f3+       0.0000   -0.0000    0.0005    0.0000    0.0000   -0.0000   -0.0000    0.0000    0.0020    0.0000
      120 V      5g4-      -0.0014   -0.0000   -0.0000   -0.0000   -0.0004   -0.0000    0.0008    0.0000   -0.0000    0.0032
      121 V      6g4-      -0.0040   -0.0000   -0.0000   -0.0000   -0.0004   -0.0000   -0.0016   -0.0000   -0.0000    0.0046
      122 V      7g4-      -0.0023   -0.0000   -0.0000    0.0000   -0.0001   -0.0000   -0.0014   -0.0000   -0.0000    0.0020
      123 V      8g4-      -0.0006   -0.0000   -0.0000   -0.0000   -0.0000   -0.0000   -0.0001   -0.0000   -0.0000    0.0007
      124 V      5g3-       0.0000    0.0000   -0.0000   -0.0000    0.0000    0.0000   -0.0000   -0.0000   -0.0000   -0.0000
      125 V      6g3-       0.0000    0.0000    0.0000   -0.0000    0.0000    0.0000   -0.0000   -0.0000   -0.0000   -0.0000
      126 V      7g3-       0.0000    0.0000   -0.0000   -0.0000    0.0000    0.0000   -0.0000   -0.0000   -0.0000   -0.0000
      127 V      8g3-       0.0000    0.0000    0.0000   -0.0000    0.0000    0.0000   -0.0000   -0.0000   -0.0000   -0.0000
      128 V      5g2-      -0.0004   -0.0000    0.0000   -0.0000   -0.0015   -0.0000   -0.0019   -0.0000    0.0000   -0.0011
      129 V      6g2-      -0.0006   -0.0000    0.0000    0.0000   -0.0018   -0.0000   -0.0017   -0.0000    0.0000   -0.0007
      130 V      7g2-      -0.0004   -0.0000    0.0000   -0.0000   -0.0010   -0.0000   -0.0007   -0.0000    0.0000    0.0000
      131 V      8g2-      -0.0003   -0.0000    0.0000    0.0000   -0.0006   -0.0000   -0.0005   -0.0000    0.0000   -0.0001
      132 V      5g1-      -0.0024   -0.0000   -0.0000   -0.0000    0.0041    0.0000   -0.0020   -0.0000    0.0000    0.0014
      133 V      6g1-      -0.0058   -0.0000   -0.0000   -0.0000    0.0034    0.0000   -0.0054   -0.0000    0.0000    0.0029
      134 V      7g1-      -0.0033   -0.0000   -0.0000   -0.0000    0.0010    0.0000   -0.0034   -0.0000    0.0000    0.0010
      135 V      8g1-      -0.0010   -0.0000   -0.0000   -0.0000    0.0007    0.0000   -0.0011   -0.0000    0.0000   -0.0000
      136 V      5g0        0.0000   -0.0000   -0.0031   -0.0001    0.0000   -0.0000   -0.0000    0.0000   -0.0060    0.0000
      137 V      6g0       -0.0000   -0.0000   -0.0068    0.0009    0.0000   -0.0000   -0.0000    0.0000   -0.0066    0.0000
      138 V      7g0       -0.0000   -0.0000   -0.0036    0.0004    0.0000   -0.0000   -0.0000    0.0000   -0.0028    0.0000
      139 V      8g0       -0.0000   -0.0000   -0.0011   -0.0001    0.0000   -0.0000   -0.0000    0.0000   -0.0018    0.0000
      140 V      5g1+       0.0000   -0.0024    0.0000   -0.0000    0.0000   -0.0041    0.0000   -0.0020   -0.0000    0.0000
      141 V      6g1+       0.0000   -0.0058    0.0000   -0.0000    0.0000   -0.0034    0.0000   -0.0054   -0.0000    0.0000
      142 V      7g1+       0.0000   -0.0033    0.0000   -0.0000    0.0000   -0.0010    0.0000   -0.0034   -0.0000    0.0000
      143 V      8g1+       0.0000   -0.0010    0.0000   -0.0000    0.0000   -0.0007    0.0000   -0.0011    0.0000   -0.0000
      144 V      5g2+      -0.0000    0.0004    0.0000   -0.0000    0.0000   -0.0015   -0.0000    0.0019   -0.0000    0.0000
      145 V      6g2+      -0.0000    0.0006    0.0000   -0.0000    0.0000   -0.0018   -0.0000    0.0017   -0.0000    0.0000
      146 V      7g2+      -0.0000    0.0004    0.0000   -0.0000    0.0000   -0.0010   -0.0000    0.0007   -0.0000   -0.0000
      147 V      8g2+      -0.0000    0.0003    0.0000   -0.0000    0.0000   -0.0006   -0.0000    0.0005   -0.0000    0.0000
      148 V      5g3+      -0.0000    0.0000   -0.0018   -0.0022    0.0000   -0.0000   -0.0000    0.0000   -0.0013   -0.0000
      149 V      6g3+       0.0000    0.0000   -0.0039   -0.0027    0.0000   -0.0000    0.0000   -0.0000   -0.0012   -0.0000
      150 V      7g3+       0.0000    0.0000   -0.0018   -0.0002    0.0000   -0.0000    0.0000   -0.0000   -0.0002   -0.0000
      151 V      8g3+      -0.0000    0.0000   -0.0003    0.0004    0.0000   -0.0000    0.0000   -0.0000   -0.0001   -0.0000
      152 V      5g4+       0.0000   -0.0014   -0.0000   -0.0000   -0.0000    0.0004   -0.0000    0.0008   -0.0000    0.0000
      153 V      6g4+       0.0000   -0.0040   -0.0000   -0.0000   -0.0000    0.0004    0.0000   -0.0016   -0.0000    0.0000
      154 V      7g4+       0.0000   -0.0023    0.0000   -0.0000   -0.0000    0.0001    0.0000   -0.0014   -0.0000    0.0000
      155 V      8g4+       0.0000   -0.0006    0.0000   -0.0000   -0.0000    0.0000    0.0000   -0.0001   -0.0000    0.0000
      156 V      6h5-      -0.0000   -0.0000    0.0000    0.0000   -0.0032   -0.0000   -0.0009   -0.0000    0.0000   -0.0006
      157 V      7h5-       0.0001    0.0000    0.0000   -0.0000   -0.0021   -0.0000   -0.0004   -0.0000   -0.0000   -0.0004
      158 V      6h4-       0.0001    0.0000    0.0000    0.0000    0.0009    0.0000   -0.0015   -0.0000    0.0000   -0.0019
      159 V      7h4-       0.0011    0.0000    0.0000   -0.0000    0.0006    0.0000   -0.0000   -0.0000    0.0000   -0.0019
      160 V      6h3-       0.0000   -0.0000   -0.0000    0.0000    0.0000    0.0000    0.0000    0.0000   -0.0000    0.0000
      161 V      7h3-       0.0000   -0.0000    0.0000   -0.0000   -0.0000    0.0000    0.0000   -0.0000   -0.0000    0.0000
      162 V      6h2-       0.0001    0.0000    0.0000   -0.0000   -0.0026   -0.0000   -0.0008   -0.0000    0.0000   -0.0007
      163 V      7h2-       0.0004    0.0000    0.0000   -0.0000   -0.0017   -0.0000   -0.0004   -0.0000    0.0000   -0.0008
      164 V      6h1-      -0.0005   -0.0000    0.0000    0.0000    0.0018    0.0000   -0.0024   -0.0000    0.0000   -0.0021
      165 V      7h1-      -0.0002   -0.0000    0.0000   -0.0000    0.0014    0.0000   -0.0016   -0.0000    0.0000   -0.0015
      166 V      6h0       -0.0000   -0.0000   -0.0006   -0.0003    0.0000   -0.0000   -0.0000    0.0000   -0.0041   -0.0000
      167 V      7h0       -0.0000   -0.0000   -0.0007    0.0001    0.0000   -0.0000   -0.0000    0.0000   -0.0028   -0.0000
      168 V      6h1+       0.0000   -0.0005    0.0000   -0.0000    0.0000   -0.0018    0.0000   -0.0024    0.0000   -0.0000
      169 V      7h1+       0.0000   -0.0002    0.0000   -0.0000    0.0000   -0.0014    0.0000   -0.0016    0.0000   -0.0000
      170 V      6h2+       0.0000   -0.0001   -0.0000   -0.0000    0.0000   -0.0026   -0.0000    0.0008    0.0000    0.0000
      171 V      7h2+       0.0000   -0.0004    0.0000    0.0000    0.0000   -0.0017   -0.0000    0.0004    0.0000    0.0000
      172 V      6h3+      -0.0000   -0.0000    0.0003    0.0004    0.0000   -0.0000   -0.0000   -0.0000   -0.0008    0.0000
      173 V      7h3+      -0.0000    0.0000    0.0011    0.0004    0.0000    0.0000   -0.0000    0.0000   -0.0006    0.0000
      174 V      6h4+      -0.0000    0.0001    0.0000    0.0000    0.0000   -0.0009    0.0000   -0.0015    0.0000   -0.0000
      175 V      7h4+      -0.0000    0.0011    0.0000    0.0000    0.0000   -0.0006    0.0000   -0.0000    0.0000   -0.0000
      176 V      6h5+      -0.0000    0.0000   -0.0000   -0.0000    0.0000   -0.0032   -0.0000    0.0009    0.0000    0.0000
      177 V      7h5+       0.0000   -0.0001    0.0000    0.0000    0.0000   -0.0021   -0.0000    0.0004    0.0000    0.0000

          Orbital           21        22        23        24        25        26        27        28        29        30    
          Energy           -0.0197   -0.0171    0.0426    0.0761    0.0761    0.0780    0.0780    0.0792    0.0792    0.0797
          Occ. No.          0.0000    0.0000    0.0000    0.0000    0.0000    0.0000    0.0000    0.0000    0.0000    0.0000

        1 V      1s         0.0000    0.0000   -0.0000   -0.0000   -0.0000   -0.0000   -0.0000    0.0000    0.0000   -0.0000
        2 V      2s         0.0000   -0.0000   -0.0002   -0.0000    0.0000    0.0000    0.0000   -0.0000    0.0000   -0.0000
        3 V      3s         0.0000    0.0006    0.0060   -0.0000    0.0009    0.0000    0.0000    0.0000   -0.0000    0.0008
        4 V      4s         0.0000    0.0760    0.1524   -0.0000    0.0128    0.0000    0.0000    0.0000   -0.0000    0.0186
        5 V      5s        -0.0000   -0.0408   -0.4630    0.0000   -0.0129   -0.0000   -0.0000   -0.0000    0.0000   -0.0165
        6 V      6s        -0.0000   -0.0735    0.1364    0.0000   -0.0009   -0.0000   -0.0000   -0.0000    0.0000   -0.0015
        7 V      7s        -0.0000   -0.1078    0.4644   -0.0000    0.0080    0.0000    0.0000    0.0000   -0.0000    0.0096
        8 V      8s        -0.0000   -0.0617    0.3923   -0.0000    0.0092    0.0000    0.0000    0.0000   -0.0000    0.0117
        9 V      9s        -0.0000   -0.0717    0.5568   -0.0000    0.0146    0.0000    0.0000    0.0000   -0.0000    0.0187
       10 V     10s        -0.0000   -0.0236    0.1962   -0.0000    0.0053    0.0000    0.0000    0.0000   -0.0000    0.0068
       11 V      2px        0.0000    0.0000    0.0000    0.0000   -0.0000    0.0000    0.0000    0.0000   -0.0000   -0.0000
       12 V      3px       -0.0137    0.0000   -0.0000   -0.0000    0.0000    0.0020    0.0000   -0.0000    0.0005   -0.0000
       13 V      4px       -0.3550    0.0000    0.0000   -0.0000    0.0000   -0.0016   -0.0000   -0.0000    0.0145    0.0000
       14 V      5px        0.0471   -0.0000    0.0000   -0.0000    0.0000   -0.0013   -0.0000   -0.0000    0.0051    0.0000
       15 V      6px        0.3177   -0.0000    0.0000   -0.0000    0.0000   -0.0009   -0.0000   -0.0000    0.0009    0.0000
       16 V      7px        0.3270   -0.0000   -0.0000   -0.0000   -0.0000    0.0016    0.0000    0.0000   -0.0047   -0.0000
       17 V      8px        0.3808   -0.0000   -0.0000   -0.0000   -0.0000    0.0029    0.0000    0.0000   -0.0074   -0.0000
       18 V      9px        0.1724   -0.0000   -0.0000   -0.0000   -0.0000    0.0015    0.0000    0.0000   -0.0039   -0.0000
       19 V     10px        0.0323   -0.0000   -0.0000   -0.0000   -0.0000    0.0003    0.0000    0.0000   -0.0009   -0.0000
       20 V      2py       -0.0000   -0.0000    0.0000   -0.0000    0.0000    0.0000   -0.0000   -0.0000   -0.0000    0.0000
       21 V      3py        0.0000   -0.0000    0.0000   -0.0000    0.0000    0.0000   -0.0020    0.0005    0.0000   -0.0000
       22 V      4py        0.0000   -0.0000    0.0000    0.0000   -0.0000   -0.0000    0.0016    0.0145    0.0000   -0.0000
       23 V      5py       -0.0000   -0.0000    0.0000    0.0000   -0.0000   -0.0000    0.0013    0.0051    0.0000    0.0000
       24 V      6py       -0.0000   -0.0000    0.0000    0.0000    0.0000   -0.0000    0.0009    0.0009    0.0000    0.0000
       25 V      7py       -0.0000    0.0000   -0.0000   -0.0000    0.0000    0.0000   -0.0016   -0.0047   -0.0000   -0.0000
       26 V      8py       -0.0000    0.0000   -0.0000   -0.0000    0.0000    0.0000   -0.0029   -0.0074   -0.0000   -0.0000
       27 V      9py       -0.0000    0.0000   -0.0000   -0.0000   -0.0000    0.0000   -0.0015   -0.0039   -0.0000   -0.0000
       28 V     10py       -0.0000    0.0000   -0.0000   -0.0000   -0.0000    0.0000   -0.0003   -0.0009   -0.0000   -0.0000
       29 V      2pz        0.0000    0.0002   -0.0000   -0.0000    0.0000   -0.0000   -0.0000    0.0000    0.0000   -0.0000
       30 V      3pz        0.0000   -0.0016   -0.0058    0.0000   -0.0000   -0.0000   -0.0000   -0.0000    0.0000   -0.0006
       31 V      4pz       -0.0000   -0.4586   -0.0288    0.0000   -0.0059    0.0000    0.0000    0.0000   -0.0000    0.0158
       32 V      5pz        0.0000    0.0572   -0.0457    0.0000   -0.0056    0.0000    0.0000    0.0000   -0.0000    0.0035
       33 V      6pz        0.0000    0.4112   -0.0073    0.0000   -0.0020    0.0000    0.0000    0.0000    0.0000    0.0001
       34 V      7pz        0.0000    0.4363    0.0514   -0.0000    0.0050   -0.0000   -0.0000   -0.0000    0.0000   -0.0039
       35 V      8pz        0.0000    0.5127    0.0865   -0.0000    0.0090   -0.0000   -0.0000   -0.0000    0.0000   -0.0057
       36 V      9pz        0.0000    0.2333    0.0482   -0.0000    0.0051   -0.0000   -0.0000   -0.0000   -0.0000   -0.0028
       37 V     10pz        0.0000    0.0441    0.0109   -0.0000    0.0012   -0.0000   -0.0000   -0.0000   -0.0000   -0.0006
       38 V      3d2-      -0.0000    0.0000   -0.0000    0.0000   -0.0000   -0.0000    0.0477   -0.0048   -0.0000    0.0000
       39 V      4d2-      -0.0000    0.0000    0.0000    0.0000    0.0000    0.0000   -0.0235   -0.0024   -0.0000   -0.0000
       40 V      5d2-      -0.0000    0.0000    0.0000    0.0000    0.0000    0.0000   -0.0617   -0.0013   -0.0000   -0.0000
       41 V      6d2-      -0.0000    0.0000    0.0000    0.0000    0.0000    0.0000   -0.0548   -0.0002   -0.0000   -0.0000
       42 V      7d2-      -0.0000    0.0000    0.0000    0.0000    0.0000    0.0000   -0.0504   -0.0001   -0.0000   -0.0000
       43 V      8d2-      -0.0000    0.0000    0.0000    0.0000    0.0000    0.0000   -0.0319    0.0001    0.0000   -0.0000
       44 V      9d2-      -0.0000    0.0000    0.0000    0.0000    0.0000    0.0000   -0.0160    0.0000    0.0000   -0.0000
       45 V     10d2-      -0.0000    0.0000    0.0000    0.0000    0.0000    0.0000   -0.0030    0.0000    0.0000   -0.0000
       46 V      3d1-      -0.0000    0.0000   -0.0000    0.0000    0.0000    0.0000   -0.0104   -0.0022   -0.0000   -0.0000
       47 V      4d1-      -0.0000    0.0000   -0.0000   -0.0000    0.0000   -0.0000    0.0027   -0.0264   -0.0000    0.0000
       48 V      5d1-      -0.0000    0.0000    0.0000   -0.0000   -0.0000   -0.0000    0.0038   -0.0382   -0.0000    0.0000
       49 V      6d1-      -0.0000    0.0000    0.0000   -0.0000   -0.0000   -0.0000    0.0028   -0.0287   -0.0000    0.0000
       50 V      7d1-      -0.0000    0.0000    0.0000   -0.0000   -0.0000   -0.0000    0.0026   -0.0259   -0.0000    0.0000
       51 V      8d1-      -0.0000    0.0000    0.0000   -0.0000   -0.0000   -0.0000    0.0016   -0.0159   -0.0000    0.0000
       52 V      9d1-      -0.0000    0.0000    0.0000   -0.0000   -0.0000   -0.0000    0.0008   -0.0080   -0.0000    0.0000
       53 V     10d1-      -0.0000    0.0000    0.0000   -0.0000   -0.0000   -0.0000    0.0001   -0.0015   -0.0000    0.0000
       54 V      3d0        0.0000    0.0660   -0.0408   -0.0000    0.0098   -0.0000   -0.0000   -0.0000    0.0000   -0.0218
       55 V      4d0        0.0000    0.1559    0.0011   -0.0000    0.0012   -0.0000   -0.0000   -0.0000    0.0000   -0.0279
       56 V      5d0        0.0000    0.1582    0.0457    0.0000   -0.0054   -0.0000   -0.0000   -0.0000    0.0000   -0.0250
       57 V      6d0        0.0000    0.0981    0.0412    0.0000   -0.0064   -0.0000   -0.0000   -0.0000    0.0000   -0.0146
       58 V      7d0        0.0000    0.0836    0.0359    0.0000   -0.0061   -0.0000   -0.0000   -0.0000    0.0000   -0.0127
       59 V      8d0        0.0000    0.0459    0.0215    0.0000   -0.0040   -0.0000   -0.0000   -0.0000    0.0000   -0.0073
       60 V      9d0        0.0000    0.0213    0.0105    0.0000   -0.0021   -0.0000   -0.0000   -0.0000    0.0000   -0.0036
       61 V     10d0        0.0000    0.0038    0.0020    0.0000   -0.0004   -0.0000   -0.0000   -0.0000    0.0000   -0.0007
       62 V      3d1+       0.1797   -0.0000   -0.0000   -0.0000    0.0000    0.0104    0.0000    0.0000   -0.0022   -0.0000
       63 V      4d1+       0.3675   -0.0000    0.0000   -0.0000   -0.0000   -0.0027   -0.0000    0.0000   -0.0264   -0.0000
       64 V      5d1+       0.3933   -0.0000    0.0000    0.0000   -0.0000   -0.0038   -0.0000    0.0000   -0.0382   -0.0000
       65 V      6d1+       0.2379   -0.0000    0.0000    0.0000   -0.0000   -0.0028   -0.0000    0.0000   -0.0287   -0.0000
       66 V      7d1+       0.1966   -0.0000    0.0000    0.0000   -0.0000   -0.0026   -0.0000    0.0000   -0.0259   -0.0000
       67 V      8d1+       0.1038   -0.0000    0.0000    0.0000   -0.0000   -0.0016   -0.0000    0.0000   -0.0159    0.0000
       68 V      9d1+       0.0479   -0.0000    0.0000    0.0000   -0.0000   -0.0008   -0.0000    0.0000   -0.0080    0.0000
       69 V     10d1+       0.0087   -0.0000    0.0000    0.0000   -0.0000   -0.0001   -0.0000    0.0000   -0.0015   -0.0000
       70 V      3d2+      -0.0510    0.0000   -0.0000   -0.0000    0.0000    0.0477    0.0000   -0.0000    0.0048   -0.0000
       71 V      4d2+      -0.1299    0.0000    0.0000    0.0000    0.0000   -0.0235   -0.0000   -0.0000    0.0024    0.0000
       72 V      5d2+      -0.1436    0.0000    0.0000    0.0000    0.0000   -0.0617   -0.0000   -0.0000    0.0013    0.0000
       73 V      6d2+      -0.0864    0.0000    0.0000    0.0000    0.0000   -0.0548   -0.0000   -0.0000    0.0002    0.0000
       74 V      7d2+      -0.0709    0.0000    0.0000    0.0000    0.0000   -0.0504   -0.0000   -0.0000    0.0001    0.0000
       75 V      8d2+      -0.0371    0.0000    0.0000    0.0000    0.0000   -0.0319   -0.0000    0.0000   -0.0001    0.0000
       76 V      9d2+      -0.0171    0.0000    0.0000    0.0000    0.0000   -0.0160   -0.0000    0.0000   -0.0000    0.0000
       77 V     10d2+      -0.0031    0.0000    0.0000    0.0000    0.0000   -0.0030   -0.0000    0.0000   -0.0000    0.0000
       78 V      4f3-      -0.0000   -0.0000   -0.0000    0.1249    0.0000    0.0000   -0.0000   -0.0000    0.0000   -0.0000
       79 V      5f3-      -0.0000   -0.0000   -0.0000    0.3784    0.0000    0.0000   -0.0000   -0.0000    0.0000   -0.0000
       80 V      6f3-       0.0000   -0.0000    0.0000    0.5082    0.0000    0.0000   -0.0000   -0.0000    0.0000   -0.0000
       81 V      7f3-       0.0000   -0.0000    0.0000    0.5486    0.0000    0.0000   -0.0000   -0.0000    0.0000   -0.0000
       82 V      8f3-       0.0000    0.0000    0.0000    0.4089    0.0000    0.0000   -0.0000   -0.0000    0.0000   -0.0000
       83 V      9f3-       0.0000    0.0000    0.0000    0.3387    0.0000    0.0000   -0.0000   -0.0000    0.0000   -0.0000
       84 V      4f2-      -0.0000    0.0000    0.0000    0.0000   -0.0000   -0.0000    0.1254    0.0163    0.0000    0.0000
       85 V      5f2-      -0.0000    0.0000    0.0000    0.0000   -0.0000   -0.0000    0.3717    0.0515    0.0000    0.0000
       86 V      6f2-      -0.0000    0.0000    0.0000    0.0000   -0.0000   -0.0000    0.4985    0.0704    0.0000    0.0000
       87 V      7f2-      -0.0000    0.0000    0.0000    0.0000   -0.0000   -0.0000    0.5395    0.0767    0.0000    0.0000
       88 V      8f2-      -0.0000    0.0000    0.0000    0.0000   -0.0000   -0.0000    0.4027    0.0574    0.0000    0.0000
       89 V      9f2-      -0.0000    0.0000    0.0000    0.0000   -0.0000   -0.0000    0.3339    0.0478    0.0000    0.0000
       90 V      4f1-      -0.0000    0.0000    0.0000    0.0000    0.0000    0.0000   -0.0180    0.1204    0.0000   -0.0000
       91 V      5f1-      -0.0000    0.0000   -0.0000    0.0000    0.0000    0.0000   -0.0525    0.3694    0.0000   -0.0000
       92 V      6f1-      -0.0000    0.0000   -0.0000    0.0000    0.0000    0.0000   -0.0700    0.5005    0.0000   -0.0000
       93 V      7f1-      -0.0000    0.0000   -0.0000    0.0000    0.0000    0.0000   -0.0756    0.5434    0.0000   -0.0000
       94 V      8f1-      -0.0000    0.0000   -0.0000    0.0000    0.0000    0.0000   -0.0564    0.4067    0.0000   -0.0000
       95 V      9f1-      -0.0000    0.0000   -0.0000    0.0000    0.0000    0.0000   -0.0468    0.3379    0.0000   -0.0000
       96 V      4f0        0.0000    0.0065   -0.0216    0.0000   -0.0188    0.0000    0.0000    0.0000   -0.0000    0.1184
       97 V      5f0        0.0000    0.0168   -0.0290    0.0000   -0.0528    0.0000    0.0000    0.0000   -0.0000    0.3672
       98 V      6f0        0.0000    0.0157   -0.0109    0.0000   -0.0688    0.0000    0.0000    0.0000   -0.0000    0.5005
       99 V      7f0        0.0000    0.0123   -0.0054    0.0000   -0.0740    0.0000    0.0000    0.0000   -0.0000    0.5448
      100 V      8f0        0.0000    0.0076   -0.0040    0.0000   -0.0551    0.0000    0.0000    0.0000   -0.0000    0.4081
      101 V      9f0        0.0000    0.0054   -0.0031    0.0000   -0.0456    0.0000    0.0000    0.0000   -0.0000    0.3394
      102 V      4f1+       0.0118   -0.0000   -0.0000   -0.0000    0.0000    0.0180    0.0000   -0.0000    0.1204    0.0000
      103 V      5f1+       0.0253   -0.0000    0.0000   -0.0000    0.0000    0.0525    0.0000   -0.0000    0.3694    0.0000
      104 V      6f1+       0.0256   -0.0000   -0.0000   -0.0000    0.0000    0.0700    0.0000   -0.0000    0.5005    0.0000
      105 V      7f1+       0.0229   -0.0000   -0.0000   -0.0000    0.0000    0.0756    0.0000   -0.0000    0.5434    0.0000
      106 V      8f1+       0.0150   -0.0000   -0.0000   -0.0000    0.0000    0.0564    0.0000   -0.0000    0.4067    0.0000
      107 V      9f1+       0.0111   -0.0000   -0.0000   -0.0000    0.0000    0.0468    0.0000   -0.0000    0.3379    0.0000
      108 V      4f2+      -0.0125    0.0000   -0.0000   -0.0000    0.0000    0.1254    0.0000    0.0000   -0.0163   -0.0000
      109 V      5f2+      -0.0173    0.0000    0.0000   -0.0000    0.0000    0.3717    0.0000    0.0000   -0.0515   -0.0000
      110 V      6f2+      -0.0132    0.0000    0.0000   -0.0000    0.0000    0.4985    0.0000    0.0000   -0.0704   -0.0000
      111 V      7f2+      -0.0117    0.0000    0.0000   -0.0000    0.0000    0.5395    0.0000    0.0000   -0.0767   -0.0000
      112 V      8f2+      -0.0076    0.0000    0.0000   -0.0000    0.0000    0.4027    0.0000    0.0000   -0.0574   -0.0000
      113 V      9f2+      -0.0055    0.0000    0.0000   -0.0000    0.0000    0.3339    0.0000    0.0000   -0.0478   -0.0000
      114 V      4f3+       0.0000   -0.0018   -0.0184   -0.0000    0.1233    0.0000    0.0000   -0.0000   -0.0000    0.0141
      115 V      5f3+       0.0000   -0.0043   -0.0245   -0.0000    0.3742    0.0000    0.0000   -0.0000   -0.0000    0.0485
      116 V      6f3+       0.0000   -0.0019   -0.0130   -0.0000    0.5032    0.0000    0.0000   -0.0000   -0.0000    0.0683
      117 V      7f3+       0.0000   -0.0007   -0.0101   -0.0000    0.5434    0.0000    0.0000   -0.0000   -0.0000    0.0748
      118 V      8f3+       0.0000   -0.0006   -0.0072   -0.0000    0.4050    0.0000    0.0000    0.0000   -0.0000    0.0562
      119 V      9f3+       0.0000   -0.0004   -0.0057   -0.0000    0.3355    0.0000    0.0000    0.0000   -0.0000    0.0468
      120 V      5g4-      -0.0000    0.0000    0.0000   -0.0000    0.0000   -0.0000    0.0000    0.0003    0.0000   -0.0000
      121 V      6g4-      -0.0000    0.0000    0.0000   -0.0000    0.0000    0.0000   -0.0001    0.0007    0.0000    0.0000
      122 V      7g4-      -0.0000   -0.0000   -0.0000   -0.0000    0.0000    0.0000   -0.0001    0.0006    0.0000   -0.0000
      123 V      8g4-      -0.0000    0.0000   -0.0000   -0.0000    0.0000    0.0000   -0.0000    0.0004    0.0000    0.0000
      124 V      5g3-       0.0000   -0.0000    0.0000    0.0024    0.0000    0.0000   -0.0000   -0.0000   -0.0000    0.0000
      125 V      6g3-       0.0000   -0.0000   -0.0000    0.0057    0.0000    0.0000   -0.0000   -0.0000    0.0000    0.0000
      126 V      7g3-       0.0000   -0.0000    0.0000    0.0051    0.0000    0.0000   -0.0000   -0.0000    0.0000   -0.0000
      127 V      8g3-       0.0000   -0.0000   -0.0000    0.0035    0.0000    0.0000   -0.0000   -0.0000    0.0000   -0.0000
      128 V      5g2-       0.0000   -0.0000   -0.0000    0.0000   -0.0000   -0.0000    0.0014    0.0009    0.0000   -0.0000
      129 V      6g2-       0.0000   -0.0000    0.0000    0.0000   -0.0000   -0.0000    0.0044    0.0018    0.0000   -0.0000
      130 V      7g2-      -0.0000   -0.0000   -0.0000    0.0000   -0.0000   -0.0000    0.0044    0.0015    0.0000    0.0000
      131 V      8g2-       0.0000   -0.0000    0.0000    0.0000   -0.0000   -0.0000    0.0033    0.0010    0.0000    0.0000
      132 V      5g1-      -0.0000    0.0000    0.0000   -0.0000   -0.0000   -0.0000    0.0001    0.0009    0.0000   -0.0000
      133 V      6g1-      -0.0000   -0.0000    0.0000    0.0000    0.0000    0.0000   -0.0010    0.0032    0.0000   -0.0000
      134 V      7g1-      -0.0000   -0.0000    0.0000    0.0000    0.0000    0.0000   -0.0012    0.0036    0.0000   -0.0000
      135 V      8g1-       0.0000   -0.0000   -0.0000    0.0000    0.0000    0.0000   -0.0007    0.0029    0.0000   -0.0000
      136 V      5g0        0.0000    0.0022    0.0007    0.0000   -0.0005    0.0000    0.0000    0.0000    0.0000    0.0010
      137 V      6g0        0.0000    0.0068   -0.0003    0.0000   -0.0010    0.0000    0.0000    0.0000    0.0000    0.0028
      138 V      7g0        0.0000    0.0035   -0.0002    0.0000   -0.0008    0.0000    0.0000    0.0000    0.0000    0.0032
      139 V      8g0       -0.0000    0.0005    0.0003    0.0000   -0.0006    0.0000    0.0000    0.0000    0.0000    0.0028
      140 V      5g1+       0.0014   -0.0000    0.0000    0.0000   -0.0000   -0.0001   -0.0000   -0.0000    0.0009    0.0000
      141 V      6g1+       0.0029   -0.0000    0.0000   -0.0000    0.0000    0.0010    0.0000   -0.0000    0.0032   -0.0000
      142 V      7g1+       0.0010   -0.0000   -0.0000   -0.0000    0.0000    0.0012    0.0000   -0.0000    0.0036   -0.0000
      143 V      8g1+      -0.0000    0.0000    0.0000   -0.0000    0.0000    0.0007    0.0000   -0.0000    0.0029   -0.0000
      144 V      5g2+       0.0011   -0.0000    0.0000   -0.0000    0.0000    0.0014    0.0000    0.0000   -0.0009   -0.0000
      145 V      6g2+       0.0007   -0.0000    0.0000   -0.0000    0.0000    0.0044    0.0000    0.0000   -0.0018   -0.0000
      146 V      7g2+      -0.0000   -0.0000    0.0000   -0.0000    0.0000    0.0044    0.0000    0.0000   -0.0015   -0.0000
      147 V      8g2+       0.0001   -0.0000    0.0000   -0.0000    0.0000    0.0033    0.0000    0.0000   -0.0010   -0.0000
      148 V      5g3+      -0.0000    0.0017    0.0043   -0.0000    0.0025    0.0000    0.0000    0.0000   -0.0000    0.0016
      149 V      6g3+      -0.0000    0.0043    0.0051   -0.0000    0.0057    0.0000    0.0000    0.0000   -0.0000    0.0028
      150 V      7g3+      -0.0000    0.0021    0.0003   -0.0000    0.0049   -0.0000   -0.0000    0.0000   -0.0000    0.0019
      151 V      8g3+      -0.0000    0.0003   -0.0006   -0.0000    0.0034   -0.0000   -0.0000    0.0000   -0.0000    0.0012
      152 V      5g4+       0.0032   -0.0000    0.0000   -0.0000   -0.0000   -0.0000   -0.0000   -0.0000    0.0003    0.0000
      153 V      6g4+       0.0046   -0.0000    0.0000    0.0000   -0.0000    0.0001    0.0000   -0.0000    0.0007   -0.0000
      154 V      7g4+       0.0020   -0.0000   -0.0000    0.0000   -0.0000    0.0001    0.0000   -0.0000    0.0006   -0.0000
      155 V      8g4+       0.0007   -0.0000    0.0000    0.0000   -0.0000    0.0000    0.0000   -0.0000    0.0004   -0.0000
      156 V      6h5-       0.0000   -0.0000    0.0000   -0.0000    0.0000    0.0000   -0.0005    0.0001    0.0000   -0.0000
      157 V      7h5-       0.0000   -0.0000   -0.0000   -0.0000    0.0000    0.0000   -0.0001    0.0001    0.0000   -0.0000
      158 V      6h4-       0.0000   -0.0000   -0.0000   -0.0000   -0.0000    0.0000   -0.0000    0.0000    0.0000   -0.0000
[...]
         2   12       6.67997850E-04  1.42339927E-05  4.18253440E+05  7.05957948E-17  4.18253440E+05
         2   14       6.67994925E-04  4.18251618E+05  1.42333470E-05  4.58683834E-08  4.18251618E+05
         2   16       2.19338400E-03  1.72969364E-05  1.45837355E+06  2.03344022E-17  1.45837355E+06
         2   18       2.19338943E-03  1.45837720E+06  1.72966984E-05  3.66645742E-07  1.45837720E+06
         3    7       1.26207866E-03  2.95218849E-08  3.37990831E+03  9.94756142E-19  3.37990831E+03
         3    9       1.60007476E-01  8.22126023E-05  9.41234695E+06  1.03173220E-15  9.41234695E+06
         3   11       3.04877314E-01  4.55984269E+07  3.52241041E-03  8.39465427E+06  5.39930812E+07
         3   13       2.57476374E-01  3.52242856E-03  4.55984840E+07  6.95407565E-05  4.55984840E+07
         3   15       1.67396470E-01  7.72828215E+06  3.16491842E-04  2.54141493E+07  3.31424315E+07
         3   17       3.90339585E-02  3.16478505E-04  7.72824153E+06  6.06338964E-06  7.72824153E+06
         4    8       1.26207866E-03  2.95218849E-08  3.37990831E+03  9.94756142E-19  3.37990831E+03
         4   10       1.60007476E-01  8.22126023E-05  9.41234695E+06  1.03173220E-15  9.41234695E+06
         4   12       3.04877314E-01  4.55984269E+07  3.52241041E-03  8.39465427E+06  5.39930812E+07
         4   14       2.57476374E-01  3.52242856E-03  4.55984840E+07  6.95407565E-05  4.55984840E+07
         4   16       1.67396470E-01  7.72828215E+06  3.16491842E-04  2.54141493E+07  3.31424315E+07
         4   18       3.90339585E-02  3.16478505E-04  7.72824153E+06  6.06338964E-06  7.72824153E+06
         5    7       1.26207676E-03  3.37989789E+03  2.95215095E-08  1.80005846E-10  3.37989789E+03
         5    9       1.60007538E-01  9.41234745E+06  8.22116960E-05  5.24797021E-08  9.41234745E+06
         5   11       2.57476048E-01  3.52240905E-03  4.55984157E+07  6.95446577E-05  4.55984157E+07
         5   13       3.04877266E-01  4.55984373E+07  3.52242701E-03  8.39462717E+06  5.39930645E+07
         5   15       3.90341678E-02  3.16497511E-04  7.72828121E+06  6.06264515E-06  7.72828121E+06
         5   17       1.67396415E-01  7.72823546E+06  3.16479216E-04  2.54141805E+07  3.31424159E+07
         6    8       1.26207676E-03  3.37989789E+03  2.95215095E-08  1.80005846E-10  3.37989789E+03
         6   10       1.60007538E-01  9.41234745E+06  8.22116960E-05  5.24797021E-08  9.41234745E+06
         6   12       2.57476048E-01  3.52240905E-03  4.55984157E+07  6.95446577E-05  4.55984157E+07
         6   14       3.04877266E-01  4.55984373E+07  3.52242701E-03  8.39462717E+06  5.39930645E+07
         6   16       3.90341678E-02  3.16497511E-04  7.72828121E+06  6.06264515E-06  7.72828121E+06
         6   18       1.67396415E-01  7.72823546E+06  3.16479216E-04  2.54141805E+07  3.31424159E+07
         7    9       1.83070197E-01  1.16047808E-09  3.50107305E-16  6.66373787E+06  6.66373787E+06
         7   11       4.79465169E-02  2.22271671E-04  6.53127488E+06  3.32088516E-17  6.53127488E+06
         7   13       4.79463310E-02  6.53124987E+06  2.22263902E-04  2.78921490E-06  6.53124987E+06
         7   15       1.61085843E-01  2.95384966E-04  2.49059087E+07  1.20450345E-14  2.49059087E+07
         7   17       1.61086051E-01  2.49059421E+07  2.95390759E-04  1.46421954E-06  2.49059421E+07
         8   10       1.83070197E-01  1.16047808E-09  3.50107305E-16  6.66373787E+06  6.66373787E+06
         8   12       4.79465169E-02  2.22271671E-04  6.53127488E+06  3.32088516E-17  6.53127488E+06
         8   14       4.79463310E-02  6.53124987E+06  2.22263902E-04  2.78921490E-06  6.53124987E+06
         8   16       1.61085843E-01  2.95384966E-04  2.49059087E+07  1.20450345E-14  2.49059087E+07
         8   18       1.61086051E-01  2.49059421E+07  2.95390759E-04  1.46421954E-06  2.49059421E+07
         9   11       2.40842709E-03  2.60541672E-06  7.65594741E+04  7.06270289E-18  7.65594741E+04
         9   13       2.40837290E-03  7.65577593E+04  2.60496699E-06  1.56813010E-07  7.65577594E+04
         9   15       2.85341755E-01  1.38665002E-04  1.16916163E+07  1.36199799E-16  1.16916163E+07
         9   17       2.85341808E-01  1.16916196E+07  1.38665460E-04  4.08749447E-07  1.16916196E+07
        10   12       2.40842709E-03  2.60541672E-06  7.65594741E+04  7.06270289E-18  7.65594741E+04
        10   14       2.40837290E-03  7.65577593E+04  2.60496699E-06  1.56813010E-07  7.65577594E+04
        10   16       2.85341755E-01  1.38665002E-04  1.16916163E+07  1.36199799E-16  1.16916163E+07
        10   18       2.85341808E-01  1.16916196E+07  1.38665460E-04  4.08749447E-07  1.16916196E+07
        11   15       5.73878088E-04  2.20266591E+02  1.89589968E-08  1.13828073E+02  3.34094664E+02
        11   17       3.78354698E-04  1.89590854E-08  2.20266980E+02  6.50090938E-10  2.20266980E+02
        12   16       5.73878088E-04  2.20266591E+02  1.89589968E-08  1.13828073E+02  3.34094664E+02
        12   18       3.78354698E-04  1.89590854E-08  2.20266980E+02  6.50090938E-10  2.20266980E+02
        13   15       3.78355774E-04  1.89590072E-08  2.20267257E+02  6.50027028E-10  2.20267257E+02
        13   17       5.73876877E-04  2.20266637E+02  1.89592756E-08  1.13827360E+02  3.34093997E+02
        14   16       3.78355774E-04  1.89590072E-08  2.20267257E+02  6.50027028E-10  2.20267257E+02
        14   18       5.73876877E-04  2.20266637E+02  1.89592756E-08  1.13827360E+02  3.34093997E+02
     -----------------------------------------------------------------------------------------------
--

++ Velocity transition strengths (SO states):
   ------------------------------------------
    for osc. strength at least    1.0000000000000001E-005

      From   To        Osc. strength     Einstein coefficients Ax, Ay, Az (sec-1)    Total A (sec-1)
     -----------------------------------------------------------------------------------------------
         1    3       3.28112002E-01  3.93306098E-04  4.50289656E+07  2.44243598E-16  4.50289656E+07
         1    5       3.28111994E-01  4.50289745E+07  3.93306240E-04  1.04437853E-07  4.50289745E+07
         1    7       3.03939671E-01  7.41441257E-08  6.25685063E-16  5.41792652E+07  5.41792652E+07
         1    9       6.62459168E-03  2.29894429E-07  2.67426572E-16  2.48925469E+06  2.48925469E+06
         1   11       6.14133821E-04  1.30862164E-05  3.84528897E+05  7.33048578E-17  3.84528897E+05
         1   13       6.14131362E-04  3.84527365E+05  1.30858232E-05  3.72955272E-08  3.84527365E+05
         1   15       1.67842851E-03  1.32358778E-05  1.11598528E+06  2.65906430E-17  1.11598528E+06
         1   17       1.67843344E-03  1.11598859E+06  1.32358714E-05  3.16890960E-07  1.11598859E+06
         2    4       3.28112002E-01  3.93306098E-04  4.50289656E+07  2.44243598E-16  4.50289656E+07
         2    6       3.28111994E-01  4.50289745E+07  3.93306240E-04  1.04437853E-07  4.50289745E+07
         2    8       3.03939671E-01  7.41441257E-08  6.25685063E-16  5.41792652E+07  5.41792652E+07
         2   10       6.62459168E-03  2.29894429E-07  2.67426572E-16  2.48925469E+06  2.48925469E+06
         2   12       6.14133821E-04  1.30862164E-05  3.84528897E+05  7.33048578E-17  3.84528897E+05
         2   14       6.14131362E-04  3.84527365E+05  1.30858232E-05  3.72955272E-08  3.84527365E+05
         2   16       1.67842851E-03  1.32358778E-05  1.11598528E+06  2.65906430E-17  1.11598528E+06
         2   18       1.67843344E-03  1.11598859E+06  1.32358714E-05  3.16890960E-07  1.11598859E+06
         3    9       1.77350231E-01  9.11237395E-05  1.04325607E+07  1.48967020E-15  1.04325607E+07
         3   11       1.90696831E-01  2.86160088E+07  2.21054364E-03  5.15608498E+06  3.37720938E+07
         3   13       1.61582784E-01  2.21055509E-03  2.86160454E+07  4.27126958E-05  2.86160454E+07
         3   15       9.22443159E-02  4.55149021E+06  1.86394923E-04  1.37118073E+07  1.82632975E+07
         3   17       2.29885564E-02  1.86386655E-04  4.55146598E+06  3.27141486E-06  4.55146598E+06
         4   10       1.77350231E-01  9.11237395E-05  1.04325607E+07  1.48967020E-15  1.04325607E+07
         4   12       1.90696831E-01  2.86160088E+07  2.21054364E-03  5.15608498E+06  3.37720938E+07
         4   14       1.61582784E-01  2.21055509E-03  2.86160454E+07  4.27126958E-05  2.86160454E+07
         4   16       9.22443159E-02  4.55149021E+06  1.86394923E-04  1.37118073E+07  1.82632975E+07
         4   18       2.29885564E-02  1.86386655E-04  4.55146598E+06  3.27141486E-06  4.55146598E+06
         5    9       1.77350301E-01  1.04325614E+07  9.11230751E-05  5.15995361E-08  1.04325614E+07
         5   11       1.61582558E-01  2.21054477E-03  2.86159987E+07  4.27149753E-05  2.86159987E+07
         5   13       1.90696774E-01  2.86160099E+07  2.21055605E-03  5.15606870E+06  3.37720786E+07
         5   15       2.29886741E-02  1.86396854E-04  4.55148823E+06  3.27096595E-06  4.55148823E+06
         5   17       9.22442583E-02  4.55146051E+06  1.86387155E-04  1.37118231E+07  1.82632837E+07
         6   10       1.77350301E-01  1.04325614E+07  9.11230751E-05  5.15995361E-08  1.04325614E+07
         6   12       1.61582558E-01  2.21054477E-03  2.86159987E+07  4.27149753E-05  2.86159987E+07
         6   14       1.90696774E-01  2.86160099E+07  2.21055605E-03  5.15606870E+06  3.37720786E+07
         6   16       2.29886741E-02  1.86396854E-04  4.55148823E+06  3.27096595E-06  4.55148823E+06
         6   18       9.22442583E-02  4.55146051E+06  1.86387155E-04  1.37118231E+07  1.82632837E+07
         7    9       2.11953152E-01  2.81427032E-09  2.86357819E-16  7.71510155E+06  7.71510155E+06
         7   11       2.59991325E-02  1.20528073E-04  3.54161433E+06  1.37107413E-18  3.54161433E+06
         7   13       2.59990237E-02  3.54159967E+06  1.20522862E-04  1.08385891E-06  3.54159967E+06
         7   15       9.69545295E-02  1.77787576E-04  1.49904486E+07  2.68364662E-15  1.49904486E+07
         7   17       9.69546411E-02  1.49904667E+07  1.77790809E-04  5.78413951E-07  1.49904667E+07
         8   10       2.11953152E-01  2.81427032E-09  2.86357819E-16  7.71510155E+06  7.71510155E+06
         8   12       2.59991325E-02  1.20528073E-04  3.54161433E+06  1.37107413E-18  3.54161433E+06
         8   14       2.59990237E-02  3.54159967E+06  1.20522862E-04  1.08385891E-06  3.54159967E+06
         8   16       9.69545295E-02  1.77787576E-04  1.49904486E+07  2.68364662E-15  1.49904486E+07
         8   18       9.69546411E-02  1.49904667E+07  1.77790809E-04  5.78413951E-07  1.49904667E+07
         9   11       2.77048354E-03  2.99722900E-06  8.80688901E+04  4.48217678E-17  8.80688901E+04
         9   13       2.77044443E-03  8.80676556E+04  2.99665494E-06  1.13763487E-07  8.80676556E+04
         9   15       1.14000649E-01  5.54002135E-05  4.67108810E+06  2.13835969E-19  4.67108810E+06
         9   17       1.14000725E-01  4.67109170E+06  5.54002668E-05  2.42688609E-07  4.67109170E+06
        10   12       2.77048354E-03  2.99722900E-06  8.80688901E+04  4.48217678E-17  8.80688901E+04
        10   14       2.77044443E-03  8.80676556E+04  2.99665494E-06  1.13763487E-07  8.80676556E+04
        10   16       1.14000649E-01  5.54002135E-05  4.67108810E+06  2.13835969E-19  4.67108810E+06
        10   18       1.14000725E-01  4.67109170E+06  5.54002668E-05  2.42688609E-07  4.67109170E+06
        11   15       1.60046283E+00  8.34615459E+05  7.18380505E-05  9.71293849E+04  9.31744844E+05
        11   17       1.43362280E+00  7.18379988E-05  8.34615943E+05  5.54728919E-07  8.34615943E+05
        12   16       1.60046283E+00  8.34615459E+05  7.18380505E-05  9.71293849E+04  9.31744844E+05
        12   18       1.43362280E+00  7.18379988E-05  8.34615943E+05  5.54728919E-07  8.34615943E+05
        13   15       1.43362415E+00  7.18380513E-05  8.34615399E+05  5.54725031E-07  8.34615399E+05
        13   17       1.60046198E+00  8.34615026E+05  7.18380091E-05  9.71294337E+04  9.31744460E+05
        14   16       1.43362415E+00  7.18380513E-05  8.34615399E+05  5.54725031E-07  8.34615399E+05
        14   18       1.60046198E+00  8.34615026E+05  7.18380091E-05  9.71294337E+04  9.31744460E+05
     -----------------------------------------------------------------------------------------------
--

++ Length and velocity gauge comparison (SO states):

 --------------------------------------------------
 A comparison between the dipole oscillator strengths in 
 length and velocity gauge will be performed

 All dipole oscillator differences above the tolerance of   0.10000000000000001       will be printed 

 Due to basis set deficiency these oscillator may be problematic 

 The tolerance is defined as ABS(1-O_l/O_v) 
 O_l : dipole oscillator strength in length gauge
 O_p : dipole oscillator strength in velocity gauge
 --------------------------------------------------

  Problematic transitions have been found

      From   To       Difference (%) Osc. st. (len.) Osc. st. (vel.)
     ---------------------------------------------------------------
         1   15            30.680812  2.19338400E-03  1.67842851E-03
         1   17            30.680751  2.19338943E-03  1.67843344E-03
         2   16            30.680812  2.19338400E-03  1.67842851E-03
         2   18            30.680751  2.19338943E-03  1.67843344E-03
         3    7      ---------------  1.26207866E-03 below threshold
         3   11            59.875397  3.04877314E-01  1.90696831E-01
         3   13            59.346416  2.57476374E-01  1.61582784E-01
         3   15            81.470770  1.67396470E-01  9.22443159E-02
         3   17            69.797345  3.90339585E-02  2.29885564E-02
         4    8      ---------------  1.26207866E-03 below threshold
         4   12            59.875397  3.04877314E-01  1.90696831E-01
         4   14            59.346416  2.57476374E-01  1.61582784E-01
         4   16            81.470770  1.67396470E-01  9.22443159E-02
         4   18            69.797345  3.90339585E-02  2.29885564E-02
         5    7      ---------------  1.26207676E-03 below threshold
         5   11            59.346437  2.57476048E-01  1.61582558E-01
         5   13            59.875419  3.04877266E-01  1.90696774E-01
         5   15            69.797387  3.90341678E-02  2.29886741E-02
         5   17            81.470823  1.67396415E-01  9.22442583E-02
         6    8      ---------------  1.26207676E-03 below threshold
         6   12            59.346437  2.57476048E-01  1.61582558E-01
         6   14            59.875419  3.04877266E-01  1.90696774E-01
         6   16            69.797387  3.90341678E-02  2.29886741E-02
         6   18            81.470823  1.67396415E-01  9.22442583E-02
         7    9            13.627047  1.83070197E-01  2.11953152E-01
         7   11            84.415834  4.79465169E-02  2.59991325E-02
         7   13            84.415891  4.79463310E-02  2.59990237E-02
         7   15            66.145763  1.61085843E-01  9.69545295E-02
         7   17            66.145786  1.61086051E-01  9.69546411E-02
         8   10            13.627047  1.83070197E-01  2.11953152E-01
         8   12            84.415834  4.79465169E-02  2.59991325E-02
         8   14            84.415891  4.79463310E-02  2.59990237E-02
         8   16            66.145763  1.61085843E-01  9.69545295E-02
         8   18            66.145786  1.61086051E-01  9.69546411E-02
         9   11            13.068349  2.40842709E-03  2.77048354E-03
         9   13            13.069077  2.40837290E-03  2.77044443E-03
         9   15           150.298360  2.85341755E-01  1.14000649E-01
         9   17           150.298239  2.85341808E-01  1.14000725E-01
        10   12            13.068349  2.40842709E-03  2.77048354E-03
        10   14            13.069077  2.40837290E-03  2.77044443E-03
        10   16           150.298360  2.85341755E-01  1.14000649E-01
        10   18           150.298239  2.85341808E-01  1.14000725E-01
        11   15            99.964143  5.73878088E-04  1.60046283E+00
        11   17            99.973608  3.78354698E-04  1.43362280E+00
        12   16            99.964143  5.73878088E-04  1.60046283E+00
        12   18            99.973608  3.78354698E-04  1.43362280E+00
        13   15            99.973608  3.78355774E-04  1.43362415E+00
        13   17            99.964143  5.73876877E-04  1.60046198E+00
        14   16            99.973608  3.78355774E-04  1.43362415E+00
        14   18            99.964143  5.73876877E-04  1.60046198E+00
     ---------------------------------------------------------------

 Number of problematic transitions =                    50

--

 Electric-dipole - electric-octupole not included
++ I/O STATISTICS
 
  I. General I/O information
  - - - - - - - - - - - - - - - - - - - - - - - - - - - - - - - - - - - - - - - - - - -
  Unit  Name          Flsize      Write/Read            MBytes           Write/Read
                      (MBytes)       Calls              In/Out           Time, sec.
  - - - - - - - - - - - - - - - - - - - - - - - - - - - - - - - - - - - - - - - - - - -
   1  SCRATCH           0.00 .       9/      45 .      0.0/      0.0 .       0/       0
   2  ANNI              0.00 .       0/       0 .      0.0/      0.0 .       0/       0
   3  RUNFILE          14.79 .     322/   10085 .      2.3/     73.1 .       0/       0
   4  ONEINT            5.45 .       0/   23543 .      0.0/   3734.6 .       0/       0
   5  JOBIPH            6.30 .       0/      92 .      0.0/      0.8 .       0/       0
   6  ORDINT          473.53 .       1/    3789 .      0.0/    947.0 .       0/       0
  - - - - - - - - - - - - - - - - - - - - - - - - - - - - - - - - - - - - - - - - - - -
   *  TOTAL           500.08 .     332/   37554 .      2.3/   4755.5 .       0/       0
  - - - - - - - - - - - - - - - - - - - - - - - - - - - - - - - - - - - - - - - - - - -
 
  II. I/O Access Patterns
  - - - - - - - - - - - - - - - - - - - -
  Unit  Name               % of random
                         Write/Read calls
  - - - - - - - - - - - - - - - - - - - -
   1  SCRATCH             88.9/ 100.0
   2  ANNI                 0.0/   0.0
   3  RUNFILE             28.6/  10.8
   4  ONEINT               0.0/  16.4
   5  JOBIPH               0.0/  76.1
   6  ORDINT             100.0/   0.1
  - - - - - - - - - - - - - - - - - - - -
--
--- Stop Module: rassi at Fri Jan 10 02:32:58 2025 /rc=_RC_ALL_IS_WELL_ ---
*** files: xmldump
    saved to directory /home4/s4752295/Internship/Initial_simulations/Point_charge_model/1_electron/active_space_9_non_rel/V/varying_bond_length
--- Module rassi spent 3 seconds ---

.##################.
.# Happy landing! #.
.##################.

    Timing: Wall=48.44 User=36.08 System=7.33

###############################################################################
Hbrk Cluster
Job 14556697 for user s4752295
Finished at: Fri Jan 10 02:32:59 CET 2025

Job details:
============

Job ID                         : 14556697
Name                           : V_no_c_light
User                           : s4752295
Partition                      : regularmedium
Nodes                          : node101
Number of Nodes                : 1
Cores                          : 1
Number of Tasks                : 1
State                          : RUNNING  
Submit                         : 2025-01-10T02:32:05
Start                          : 2025-01-10T02:32:06
End                            : --
Reserved walltime              : 15:00:00
Used walltime                  : 00:00:53
Used CPU time                  : -- 
% User (Computation)           : --
% System (I/O)                 : --
Total memory reserved          : 25000M
Maximum memory used            : --

Acknowledgements:
=================

Please see this page for information about acknowledging Hbrk in your publications:

https://wiki.hpc.rug.nl/habrok/introduction/scientific_output

################################################################################
