   This run of MOLCAS is using the pymolcas driver

                             OPE
                             OPE          NMOL  CASOP  ENMOLC A   SO
                 OPE        NMOLC        AS  OP EN  MO LC     AS  OP
                OPENM       OL CA        SO  PE NM  OL CA     SOP EN
                OP EN      MO   LC       AS  OP ENMOL  CASO   PENMOL
                OP  EN     MO   LC       AS  OP EN     MO     LC ASO
               OP   E  NMOL  C  AS       OP  EN MO     LC     AS  OP
               OP  E   NMO   LC AS        OPEN  MO     LCASOP EN   M
               O  PEN   MO  LCA  SO
            OPE   NMO   L   CAS    OP
        OPENMOL  CASOP     ENMOL   CASOPE
     OPENMOLCA   SOPENMOLCASOPEN   MOLCASOPE
    OPENMOLCAS   OP           EN   MOL    CAS
    OPENMOLCAS       OP  ENM        O     LCA
    OPENMOLCAS    OPEN  MOLCASO     P  E  NMO
    OPENMOLCAS     OP               E  N  MOL
    OPENMOLCA   SO           PENM   O  L  CAS    OPEN    MO    LCAS
    OPENMOLCA   SOP           ENM   O  L  CAS   OP  EN  MOLC  AS   O
    OPENMOLCA   SOPE           NM      O  LCA   S      OP  EN MO
    OPENMOLC                AS         O  PEN   M      OL  CA  SOPE
    OPENMO        LCASOPE  NMOL        C  ASO   P      ENMOLC     AS
    OPE     NMO      LCA  SO     P     E   NM   OL  CA SO  PE N   MO
          OPENMOLCA            SOPE   NMO        LCAS  O    P  ENMO
     OPENMOLCASOPENMOLCASOPENMOLCASOPENMOLCA
        OPENMOLCASOPENMOLCASOPENMOLCASOPE
            OPENMOLCASOPENMOLCASOPENM
               OPENMOLCASOPENMOLCA        version: o91e1abe7de707b ?
                   OPENMOLCASO
                       OPE                tag:

 OpenMolcas is free software; you can redistribute it and/or modify it
 under the terms of the GNU Lesser General Public License version 2.1.
 OpenMolcas is distributed in the hope that it will be useful, but it
 is provided "as is" and without any express or implied warranties.
 For more details see the full text of the license in the file
 LICENSE or in <http://www.gnu.org/licenses/>.

                 Copyright (C) The OpenMolcas Authors
           For the author list and the recommended citation,
                   consult the file CONTRIBUTORS.md

           *************************************************
           * pymolcas version py2.10                       *
           *   build 3068ae8b88c9345ec6cfef6fef7f1169      *
           *   (after the EMIL interpreter by V. Veryazov) *
           *************************************************

configuration info
------------------
Host name: login1 (Linux)
C Compiler ID: GNU
C flags: -std=gnu99
Fortran Compiler ID: GNU
Fortran flags: -fno-aggressive-loop-optimizations -cpp -fdefault-integer-8 -fmax-stack-var-size=1048576
Definitions: _MOLCAS_;_I8_;_LINUX_;_MKL_
Parallel: OFF (GA=OFF)


   ---------------------------------------------------------------------------------------------------------------------------------------------
  |
  |           Project: vanadium_so_cf
  |    Submitted from: /home4/s4752295/Internship/Initial_simulations/Point_charge_model/1_electron/active_space_9_non_rel/V/varying_bond_length
  |      Scratch area: /tmp/vanadium_so_cf
  |   Save outputs to: /home4/s4752295/Internship/Initial_simulations/Point_charge_model/1_electron/active_space_9_non_rel/V/varying_bond_length
  |            Molcas: /home4/s4752295/Internship/Molcas/recomp_try/OpenMolcas-master/build
  |
  | Scratch area is empty
  |
  |    MOLCAS_DRIVER = /home4/s4752295/Internship/Molcas/bin/pymolcas
  |    MOLCAS_NPROCS = 1
  |    MOLCAS_SOURCE = /home4/s4752295/Internship/Molcas/recomp_try/OpenMolcas-master
  | MOLCAS_STRUCTURE = 0
  |
   ---------------------------------------------------------------------------------------------------------------------------------------------

++ ---------   Input file   ---------

&SEWARD
AMFi

CLIG
$R

Basis Set
V.ANO-rcc.Roos.21s15p10d6f4g2h.10s9p8d6f4g2h.
Spherical d
V            0.0        0.0     0.0
End of Basis

Xfield

4
0.000000,  0.00000,  1.7010     -1.0
1.473109,  0.00000, -0.8505     -1.0
-0.736555,  1.27575, -0.8505    -1.0
-0.736555, -1.27575, -0.8505    -1.0

End of input

&SCF
Occupied
9
Iterations
   50  100
End of Input

&RASSCF
LumOrb
Symmetry
1
Spin
2
Nactel
1 0 0
CIRoot
9 9 1
inactive
9
ras2
9
End of Input

>>> COPY vanadium_so_cf.JobIph $SLURM_SUBMIT_DIR/vanadium_so_cf.doublet.JobIph

>>> COPY $SLURM_SUBMIT_DIR/vanadium_so_cf.doublet.JobIph ./JOB002

&RASSI
NROFJobIph
1 All
SpinOrbit
End of Input

EOF

-- ----------------------------------

--- Start Module: seward at Fri Jan 10 02:20:29 2025 ---

()()()()()()()()()()()()()()()()()()()()()()()()()()()()()()()()()()()()()()()()()()()()()()()()()()

                                              &SEWARD

                                   only a single process is used
                       available to each process: 4.1 GB of memory, 1 thread?
                                            pid: 1091510
()()()()()()()()()()()()()()()()()()()()()()()()()()()()()()()()()()()()()()()()()()()()()()()()()()

 The speed of LIGHT in this CALCULATION =   137.03599917700001     
               SEWARD will generate:
                  Multipole Moment integrals up to order  2
                  Kinetic Energy integrals
                  Nuclear Attraction integrals (point charge)
                  One-Electron Hamiltonian integrals
                  Velocity integrals
                  Relativistic Douglas-Kroll-Hess integrals:
                    - Parametrization         : EXP
                    - DKH order of Hamiltonian: 2
                    - DKH order of Properties : 0
                         - multipole moment operators
                         - electric potential operators
                         - contact operators
                  External field from     4 point(s) added to the one-electron Hamiltonian
                  Orbital angular momentum around ( 0.0000  0.0000  0.0000 )
                  Velocity quadrupole around ( 0.0000  0.0000  0.0000 )
                  Atomic mean-field integrals
                  Two-Electron Repulsion integrals

                   Integrals are discarded if absolute value <: 0.10E-13
                   Integral cutoff threshold is set to       <: 0.10E-15

++    Symmetry information:
      ---------------------

                    Character Table for C1 

                             E  
                    a        1  x, y, xy, Rz, z, xz, Ry, yz, Rx, I
--


++    Basis set information:
      ----------------------


      Basis set label: V.ANO-RCC.ROOS.21S15P10D6F4G2H.10S9P8D6F4G2H......

      Electronic valence basis set:
      ------------------
      Associated Effective Charge  23.000000 au
      Associated Actual Charge     23.000000 au
      Nuclear Model: Point charge

      Shell  nPrim  nBasis  Cartesian Spherical Contaminant
         s      21      10        X                  
         p      15       9        X                  
         d      10       8                 X         
         f       6       6                 X         
         g       4       4                 X         
         h       2       2                 X         
--


++    Molecular structure info:
      -------------------------

                    ************************************************ 
                    **** Cartesian Coordinates / Bohr, Angstrom **** 
                    ************************************************ 

     Center  Label                x              y              z                     x              y              z
        1      V                0.000000       0.000000       0.000000              0.000000       0.000000       0.000000
--


++    Operator info:
      --------------


  Net charge from external field:   -4.0000000000000000     
--


            Nuclear Potential Energy              0.00000000 au

                    Nuclear-External Field Potential Energy     -54.08583061 au
                    External Field Potential Energy               2.19403334 au 


            Total Nuclear Potential Energy            -54.08583061 au


      Basis set specifications :
      Symmetry species         a  
      Basis functions          177

 Sorry, Molden does not know how to handle
 functions with angular momentum larger than g
Note: The following floating-point exceptions are signalling: IEEE_UNDERFLOW_FLAG IEEE_DENORMAL
--- Stop Module: seward at Fri Jan 10 02:20:37 2025 /rc=_RC_ALL_IS_WELL_ ---
*** files: vanadium_so_cf.GssOrb xmldump
    saved to directory /home4/s4752295/Internship/Initial_simulations/Point_charge_model/1_electron/active_space_9_non_rel/V/varying_bond_length
--- Module seward spent 8 seconds ---

*** symbolic link created: INPORB -> vanadium_so_cf.GssOrb
--- Start Module: scf at Fri Jan 10 02:20:37 2025 ---

()()()()()()()()()()()()()()()()()()()()()()()()()()()()()()()()()()()()()()()()()()()()()()()()()()

                                                &SCF

                                   only a single process is used
                       available to each process: 4.1 GB of memory, 1 thread?
                                            pid: 1091521
()()()()()()()()()()()()()()()()()()()()()()()()()()()()()()()()()()()()()()()()()()()()()()()()()()

++    Input section:
      --------------

      Header of the integral files:
      
       Integrals generated by seward 4.2.0  , Fri Jan 10 02:20:29 2025


      Cartesian coordinates in Angstrom:
      -----------------------------------------------------
      No.  Label        X            Y            Z        
      -----------------------------------------------------
       1   V          0.00000000   0.00000000   0.00000000
      -----------------------------------------------------
      Nuclear repulsion energy =  -54.08583061
--

++    Orbital specifications:
      -----------------------

      Symmetry species               1
                                     a
      Frozen orbitals                0
      Occupied orbitals              9
      Secondary orbitals           168
      Deleted orbitals               0
      Total number of orbitals     177
      Number of basis functions    177
--

      Molecular charge                           5.000

++    Optimization specifications:
      ----------------------------

      SCF Algorithm: Conventional
      Minimized density differences are used
      Number of density matrices in core                5
      Maximum number of NDDO SCF iterations            50
      Maximum number of HF SCF iterations             100
      Threshold for SCF energy change            0.10E-08
      Threshold for density matrix               0.10E-03
      Threshold for Fock matrix                  0.15E-03
      Threshold for linear dependence            0.10E-08
      Threshold at which DIIS is turned on       0.15E+00
      Threshold at which QNR/C2DIIS is turned on 0.75E-01
      Threshold for Norm(delta) (QNR/C2DIIS)     0.20E-04
      DIIS extrapolation of the SCF procedure
      All orbitals punched on: SCFORB
--

      Detected guessorb starting orbitals                                             


++ Convergence information
                                   SCF        iterations: Energy and convergence statistics

Iter     Tot. SCF        One-elec.       Two-elec.     Energy      Max Dij or  Max Fij      DNorm      TNorm      AccCon     Time
         Energy          Energy          Energy        Change      Delta Norm                                                in Sec.
   1  -953.938478789 -1189.332415792   289.479767612   0.00E+00    0.12E+00*   0.24E+00*    0.60E+01   0.22E+03   None         1.
   2  -954.268366461 -1197.476201501   297.293665649  -0.33E+00*   0.24E-01*   0.48E-01*    0.81E+00   0.22E+03   EDIIS        1.
   3  -954.277410212 -1196.316143605   296.124564002  -0.90E-02*   0.70E-02*   0.10E-01*    0.13E+00   0.22E+03   EDIIS        1.
   4  -954.278080099 -1196.510316793   296.318067303  -0.67E-03*   0.31E-02*   0.34E-02*    0.21E-01   0.22E+03   c2DIIS       1.
   5  -954.278158020 -1196.476128471   296.283801061  -0.78E-04*   0.14E-02*   0.11E-02*    0.29E-02   0.22E+03   QNRc2DIIS    1.
   6  -954.278171869 -1196.478095661   296.285754401  -0.14E-04*   0.89E-03*   0.50E-03*    0.34E-03   0.22E+03   QNRc2DIIS    1.
   7  -954.278174270 -1196.476472262   296.284128600  -0.24E-05*   0.22E-04*   0.41E-04     0.57E-04   0.22E+03   QNRc2DIIS    1.
   8  -954.278174274 -1196.476834604   296.284490939  -0.41E-08*   0.15E-05    0.14E-05     0.21E-04   0.22E+03   QNRc2DIIS    1.
   9  -954.278174274 -1196.476862947   296.284519282  -0.15E-10    0.22E-06    0.57E-06     0.16E-02   0.22E+03   QNRc2DIIS    1.

       Convergence after  9 Macro Iterations
--

 *****************************************************************************************************************************
 *                                                                                                                           *
 *                                             SCF/KS-DFT Program, Final results                                             *
 *                                                                                                                           *
 *                                                                                                                           *
 *                                                                                                                           *
 *                                                       Final Results                                                       *
 *                                                                                                                           *
 *****************************************************************************************************************************

::    Total SCF energy                               -954.2781742743
      One-electron energy                           -1196.4768629475
      Two-electron energy                             296.2845192822
      Nuclear repulsion energy                        -54.0858306090
      Kinetic energy (interpolated)                   973.3335446009
      Virial theorem                                    0.9804225690
      Total spin, S(S+1)                                0.0000000000
      Total spin, S                                     0.0000000000
      Max non-diagonal density matrix element           0.0000001831
      Max non-diagonal Fock matrix element              0.0000000571


      All orbitals with orbital energies smaller than  E(LUMO)+0.5 are printed

++    Molecular orbitals:
      -------------------

      Title: SCF orbitals

      Molecular orbitals for symmetry species 1: a  

          Orbital            1         2         3         4         5         6         7         8         9        10    
          Energy         -203.5649  -24.9347  -20.8345  -20.8345  -20.8314   -3.6813   -2.4493   -2.4493   -2.3738   -0.1947
          Occ. No.          2.0000    2.0000    2.0000    2.0000    2.0000    2.0000    2.0000    2.0000    2.0000    0.0000

        1 V      1s         1.0000   -0.0001   -0.0000   -0.0000   -0.0000    0.0000    0.0000    0.0000    0.0000    0.0000
        2 V      2s         0.0001    1.0000   -0.0000   -0.0000   -0.0015    0.0016    0.0000   -0.0000   -0.0004    0.0000
        3 V      3s        -0.0000   -0.0016    0.0000    0.0000    0.0004    0.9962    0.0000   -0.0000   -0.0442   -0.0244
        4 V      4s         0.0000    0.0001   -0.0000   -0.0000   -0.0000   -0.0333    0.0000    0.0000    0.0081   -0.9393
        5 V      5s        -0.0000   -0.0001    0.0000    0.0000    0.0000    0.0279   -0.0000   -0.0000   -0.0075   -0.0816
        6 V      6s         0.0000    0.0003   -0.0000   -0.0000   -0.0001   -0.0466   -0.0000    0.0000    0.0121    0.0209
        7 V      7s        -0.0000   -0.0001    0.0000    0.0000    0.0000    0.0069   -0.0000    0.0000   -0.0013    0.0468
        8 V      8s         0.0000   -0.0000   -0.0000   -0.0000   -0.0000    0.0063   -0.0000   -0.0000   -0.0020    0.0172
        9 V      9s        -0.0000    0.0001   -0.0000    0.0000    0.0000   -0.0007   -0.0000   -0.0000    0.0001    0.0108
       10 V     10s         0.0000   -0.0002   -0.0000   -0.0000   -0.0000   -0.0010   -0.0000    0.0000    0.0004    0.0029
       11 V      2px        0.0000    0.0000   -0.0000    1.0000   -0.0000   -0.0000   -0.0000    0.0022   -0.0000    0.0000
       12 V      3px       -0.0000    0.0000    0.0000   -0.0022    0.0000    0.0000   -0.0000    0.9933   -0.0000   -0.0000
       13 V      4px        0.0000   -0.0000   -0.0000    0.0003   -0.0000    0.0000    0.0000   -0.0453    0.0000   -0.0000
       14 V      5px       -0.0000    0.0000    0.0000   -0.0006    0.0000   -0.0000   -0.0000    0.0657   -0.0000   -0.0000
       15 V      6px        0.0000   -0.0000   -0.0000    0.0002   -0.0000    0.0000    0.0000   -0.0098    0.0000   -0.0000
       16 V      7px       -0.0000    0.0000   -0.0000    0.0000   -0.0000    0.0000    0.0000   -0.0062   -0.0000   -0.0000
       17 V      8px        0.0000   -0.0000    0.0000   -0.0002    0.0000   -0.0000   -0.0000    0.0026   -0.0000    0.0000
       18 V      9px       -0.0000    0.0000   -0.0000    0.0002   -0.0000   -0.0000   -0.0000    0.0006    0.0000    0.0000
       19 V     10px        0.0000   -0.0000    0.0000   -0.0003    0.0000    0.0000    0.0000   -0.0008    0.0000    0.0000
       20 V      2py       -0.0000    0.0000    1.0000    0.0000   -0.0000   -0.0000    0.0022    0.0000    0.0000    0.0000
       21 V      3py       -0.0000   -0.0000   -0.0022   -0.0000    0.0000   -0.0000    0.9933    0.0000    0.0000    0.0000
       22 V      4py        0.0000    0.0000    0.0003    0.0000   -0.0000    0.0000   -0.0453   -0.0000   -0.0000    0.0000
       23 V      5py       -0.0000   -0.0000   -0.0006   -0.0000    0.0000   -0.0000    0.0657    0.0000    0.0000   -0.0000
       24 V      6py        0.0000    0.0000    0.0002    0.0000   -0.0000    0.0000   -0.0098   -0.0000    0.0000   -0.0000
       25 V      7py       -0.0000   -0.0000    0.0000    0.0000   -0.0000    0.0000   -0.0062   -0.0000    0.0000    0.0000
       26 V      8py        0.0000    0.0000   -0.0002   -0.0000    0.0000   -0.0000    0.0026    0.0000    0.0000    0.0000
       27 V      9py       -0.0000   -0.0000    0.0002    0.0000   -0.0000   -0.0000    0.0006    0.0000   -0.0000    0.0000
       28 V     10py        0.0000    0.0000   -0.0003   -0.0000    0.0000    0.0000   -0.0008   -0.0000   -0.0000    0.0000
       29 V      2pz        0.0000    0.0015    0.0000    0.0000    1.0000   -0.0003    0.0000    0.0000    0.0026    0.0001
       30 V      3pz       -0.0000    0.0003   -0.0000   -0.0000   -0.0025    0.0448   -0.0000    0.0000    0.9930    0.0004
       31 V      4pz        0.0000   -0.0000    0.0000    0.0000    0.0004   -0.0005    0.0000   -0.0000   -0.0512   -0.2520
       32 V      5pz       -0.0000    0.0001   -0.0000   -0.0000   -0.0008   -0.0015   -0.0000    0.0000    0.0784   -0.0206
       33 V      6pz        0.0000   -0.0000    0.0000    0.0000    0.0003    0.0017    0.0000   -0.0000   -0.0139   -0.0182
       34 V      7pz       -0.0000    0.0000   -0.0000   -0.0000   -0.0000   -0.0008    0.0000   -0.0000   -0.0067   -0.0025
       35 V      8pz        0.0000   -0.0000   -0.0000   -0.0000   -0.0001   -0.0004   -0.0000    0.0000    0.0041    0.0036
       36 V      9pz       -0.0000    0.0000    0.0000    0.0000    0.0002    0.0004   -0.0000    0.0000    0.0002    0.0026
       37 V     10pz        0.0000   -0.0000   -0.0000   -0.0000   -0.0003    0.0002   -0.0000   -0.0000   -0.0015    0.0003
       38 V      3d2-      -0.0000   -0.0000    0.0001    0.0000   -0.0000   -0.0000    0.0402    0.0000    0.0000    0.0000
       39 V      4d2-      -0.0000    0.0000   -0.0001   -0.0000    0.0000    0.0000   -0.0092   -0.0000   -0.0000    0.0000
       40 V      5d2-       0.0000   -0.0000    0.0000    0.0000   -0.0000   -0.0000   -0.0047   -0.0000   -0.0000    0.0000
       41 V      6d2-      -0.0000    0.0000    0.0001    0.0000   -0.0000    0.0000    0.0054    0.0000    0.0000    0.0000
       42 V      7d2-       0.0000   -0.0000   -0.0001   -0.0000    0.0000   -0.0000    0.0022    0.0000    0.0000    0.0000
       43 V      8d2-      -0.0000   -0.0000    0.0000    0.0000   -0.0000    0.0000   -0.0007   -0.0000   -0.0000    0.0000
       44 V      9d2-       0.0000    0.0000   -0.0000   -0.0000    0.0000   -0.0000   -0.0016   -0.0000   -0.0000    0.0000
       45 V     10d2-      -0.0000   -0.0000    0.0000    0.0000   -0.0000    0.0000   -0.0003   -0.0000   -0.0000    0.0000
       46 V      3d1-      -0.0000   -0.0000    0.0003    0.0000   -0.0000   -0.0000    0.0638    0.0000    0.0000   -0.0000
       47 V      4d1-       0.0000    0.0000   -0.0002   -0.0000    0.0000    0.0000   -0.0152   -0.0000   -0.0000    0.0000
       48 V      5d1-      -0.0000   -0.0000    0.0001    0.0000   -0.0000    0.0000   -0.0064   -0.0000   -0.0000    0.0000
       49 V      6d1-       0.0000    0.0000   -0.0000   -0.0000    0.0000   -0.0000    0.0081    0.0000    0.0000   -0.0000
       50 V      7d1-      -0.0000   -0.0000   -0.0000   -0.0000    0.0000    0.0000    0.0029    0.0000    0.0000   -0.0000
       51 V      8d1-       0.0000    0.0000    0.0000    0.0000   -0.0000   -0.0000   -0.0010   -0.0000   -0.0000   -0.0000
       52 V      9d1-      -0.0000    0.0000    0.0000    0.0000   -0.0000    0.0000   -0.0021   -0.0000   -0.0000   -0.0000
       53 V     10d1-       0.0000    0.0000   -0.0000   -0.0000    0.0000   -0.0000   -0.0004   -0.0000   -0.0000   -0.0000
       54 V      3d0       -0.0000   -0.0001   -0.0000   -0.0000   -0.0001   -0.0176    0.0000   -0.0000   -0.0372    0.1810
       55 V      4d0        0.0000    0.0001   -0.0000    0.0000   -0.0000    0.0047    0.0000    0.0000    0.0076    0.0478
       56 V      5d0       -0.0000   -0.0001    0.0000    0.0000    0.0001    0.0021   -0.0000    0.0000    0.0057    0.0196
       57 V      6d0        0.0000    0.0001   -0.0000   -0.0000   -0.0002   -0.0034    0.0000   -0.0000   -0.0054   -0.0024
       58 V      7d0       -0.0000   -0.0000    0.0000    0.0000    0.0002   -0.0006   -0.0000   -0.0000   -0.0028   -0.0010
       59 V      8d0       -0.0000    0.0000   -0.0000   -0.0000   -0.0001    0.0007   -0.0000   -0.0000    0.0007   -0.0005
       60 V      9d0        0.0000   -0.0000    0.0000    0.0000    0.0000    0.0007   -0.0000    0.0000    0.0021    0.0004
       61 V     10d0        0.0000   -0.0000   -0.0000   -0.0000   -0.0000    0.0001    0.0000    0.0000    0.0005    0.0001
       62 V      3d1+      -0.0000    0.0000   -0.0000    0.0003   -0.0000    0.0000   -0.0000    0.0638   -0.0000    0.0000
       63 V      4d1+       0.0000   -0.0000    0.0000   -0.0002    0.0000   -0.0000    0.0000   -0.0152    0.0000   -0.0000
       64 V      5d1+      -0.0000    0.0000   -0.0000    0.0001   -0.0000    0.0000    0.0000   -0.0064   -0.0000   -0.0000
       65 V      6d1+      -0.0000   -0.0000    0.0000   -0.0000   -0.0000    0.0000   -0.0000    0.0081   -0.0000   -0.0000
       66 V      7d1+       0.0000    0.0000    0.0000   -0.0000    0.0000   -0.0000   -0.0000    0.0029    0.0000   -0.0000
       67 V      8d1+      -0.0000    0.0000   -0.0000    0.0000   -0.0000   -0.0000    0.0000   -0.0010    0.0000   -0.0000
       68 V      9d1+       0.0000   -0.0000   -0.0000    0.0000    0.0000    0.0000    0.0000   -0.0021    0.0000   -0.0000
       69 V     10d1+      -0.0000    0.0000    0.0000   -0.0000   -0.0000    0.0000    0.0000   -0.0004   -0.0000   -0.0000
       70 V      3d2+       0.0000   -0.0000    0.0000   -0.0001    0.0000   -0.0000    0.0000   -0.0402    0.0000    0.0000
       71 V      4d2+       0.0000    0.0000   -0.0000    0.0001   -0.0000    0.0000   -0.0000    0.0092   -0.0000    0.0000
       72 V      5d2+      -0.0000   -0.0000    0.0000   -0.0000    0.0000    0.0000   -0.0000    0.0047   -0.0000    0.0000
       73 V      6d2+       0.0000    0.0000    0.0000   -0.0001    0.0000   -0.0000    0.0000   -0.0054    0.0000    0.0000
       74 V      7d2+      -0.0000   -0.0000   -0.0000    0.0001   -0.0000    0.0000    0.0000   -0.0022    0.0000    0.0000
       75 V      8d2+       0.0000    0.0000    0.0000   -0.0000    0.0000    0.0000   -0.0000    0.0007   -0.0000   -0.0000
       76 V      9d2+      -0.0000    0.0000   -0.0000    0.0000   -0.0000    0.0000   -0.0000    0.0016   -0.0000   -0.0000
       77 V     10d2+       0.0000   -0.0000    0.0000   -0.0000    0.0000   -0.0000   -0.0000    0.0003   -0.0000    0.0000
       78 V      4f3-       0.0000    0.0000   -0.0000   -0.0000    0.0000   -0.0000   -0.0000   -0.0000   -0.0000    0.0000
       79 V      5f3-      -0.0000   -0.0000    0.0000    0.0000   -0.0000    0.0000    0.0000    0.0000   -0.0000    0.0000
       80 V      6f3-       0.0000    0.0000   -0.0000   -0.0000   -0.0000   -0.0000    0.0000    0.0000    0.0000   -0.0000
       81 V      7f3-      -0.0000   -0.0000    0.0000    0.0000    0.0000    0.0000   -0.0000   -0.0000   -0.0000   -0.0000
       82 V      8f3-       0.0000    0.0000   -0.0000   -0.0000    0.0000   -0.0000   -0.0000   -0.0000   -0.0000   -0.0000
       83 V      9f3-      -0.0000   -0.0000    0.0000    0.0000    0.0000   -0.0000    0.0000   -0.0000   -0.0000    0.0000
       84 V      4f2-       0.0000    0.0000   -0.0000   -0.0000    0.0000    0.0000   -0.0113   -0.0000   -0.0000    0.0000
       85 V      5f2-      -0.0000   -0.0000    0.0000    0.0000   -0.0000   -0.0000   -0.0007   -0.0000   -0.0000    0.0000
       86 V      6f2-      -0.0000    0.0000   -0.0000   -0.0000    0.0000    0.0000    0.0044    0.0000    0.0000    0.0000
       87 V      7f2-       0.0000   -0.0000    0.0000    0.0000    0.0000    0.0000   -0.0013   -0.0000   -0.0000    0.0000
       88 V      8f2-      -0.0000   -0.0000    0.0000    0.0000   -0.0000   -0.0000   -0.0011   -0.0000   -0.0000    0.0000
       89 V      9f2-       0.0000    0.0000    0.0000    0.0000    0.0000    0.0000    0.0005    0.0000    0.0000    0.0000
       90 V      4f1-       0.0000    0.0000   -0.0001   -0.0000    0.0000   -0.0000   -0.0085   -0.0000   -0.0000   -0.0000
       91 V      5f1-      -0.0000   -0.0000    0.0001    0.0000   -0.0000    0.0000    0.0001    0.0000    0.0000   -0.0000
       92 V      6f1-       0.0000    0.0000   -0.0000   -0.0000    0.0000   -0.0000    0.0023    0.0000    0.0000   -0.0000
       93 V      7f1-      -0.0000   -0.0000    0.0000    0.0000   -0.0000    0.0000   -0.0007   -0.0000    0.0000   -0.0000
       94 V      8f1-       0.0000    0.0000   -0.0000   -0.0000    0.0000   -0.0000   -0.0004   -0.0000    0.0000    0.0000
       95 V      9f1-      -0.0000   -0.0000    0.0000    0.0000   -0.0000   -0.0000    0.0001    0.0000   -0.0000    0.0000
       96 V      4f0        0.0000   -0.0002   -0.0000   -0.0000   -0.0001   -0.0239    0.0000   -0.0000   -0.0119    0.0430
       97 V      5f0       -0.0000    0.0001    0.0000    0.0000    0.0001    0.0015    0.0000    0.0000   -0.0002    0.0543
       98 V      6f0        0.0000   -0.0001   -0.0000   -0.0000   -0.0001    0.0074   -0.0000   -0.0000    0.0034    0.0181
       99 V      7f0       -0.0000   -0.0000    0.0000    0.0000    0.0000   -0.0034    0.0000   -0.0000   -0.0009    0.0016
      100 V      8f0        0.0000    0.0000   -0.0000   -0.0000   -0.0000   -0.0016    0.0000    0.0000   -0.0006    0.0005
      101 V      9f0       -0.0000   -0.0000    0.0000    0.0000    0.0000    0.0012    0.0000    0.0000    0.0001    0.0015
      102 V      4f1+       0.0000   -0.0000    0.0000   -0.0001    0.0000   -0.0000    0.0000   -0.0085    0.0000    0.0000
      103 V      5f1+      -0.0000    0.0000   -0.0000    0.0001   -0.0000    0.0000   -0.0000    0.0001   -0.0000    0.0000
      104 V      6f1+       0.0000   -0.0000    0.0000   -0.0000    0.0000    0.0000   -0.0000    0.0023   -0.0000    0.0000
      105 V      7f1+      -0.0000    0.0000   -0.0000    0.0000   -0.0000   -0.0000    0.0000   -0.0007    0.0000    0.0000
      106 V      8f1+       0.0000    0.0000    0.0000   -0.0000    0.0000   -0.0000    0.0000   -0.0004    0.0000    0.0000
      107 V      9f1+      -0.0000   -0.0000   -0.0000    0.0000   -0.0000    0.0000   -0.0000    0.0001   -0.0000    0.0000
      108 V      4f2+      -0.0000    0.0000   -0.0000    0.0000   -0.0000    0.0000   -0.0000    0.0113   -0.0000    0.0000
      109 V      5f2+       0.0000   -0.0000    0.0000   -0.0000    0.0000   -0.0000   -0.0000    0.0007    0.0000    0.0000
      110 V      6f2+      -0.0000    0.0000   -0.0000    0.0000   -0.0000   -0.0000    0.0000   -0.0044    0.0000    0.0000
      111 V      7f2+       0.0000   -0.0000    0.0000   -0.0000    0.0000    0.0000   -0.0000    0.0013   -0.0000    0.0000
      112 V      8f2+      -0.0000   -0.0000    0.0000   -0.0000   -0.0000    0.0000   -0.0000    0.0011   -0.0000    0.0000
      113 V      9f2+       0.0000    0.0000    0.0000   -0.0000    0.0000   -0.0000    0.0000   -0.0005    0.0000    0.0000
      114 V      4f3+       0.0000   -0.0001    0.0000   -0.0000    0.0000   -0.0155   -0.0000   -0.0000    0.0117    0.0324
      115 V      5f3+      -0.0000    0.0001   -0.0000    0.0000   -0.0000    0.0010   -0.0000    0.0000    0.0007    0.0340
      116 V      6f3+       0.0000   -0.0000    0.0000   -0.0000    0.0000    0.0048    0.0000   -0.0000   -0.0044    0.0082
      117 V      7f3+      -0.0000   -0.0000   -0.0000    0.0000   -0.0000   -0.0022   -0.0000   -0.0000    0.0013    0.0002
      118 V      8f3+       0.0000    0.0000    0.0000   -0.0000   -0.0000   -0.0010   -0.0000    0.0000    0.0011    0.0003
      119 V      9f3+      -0.0000   -0.0000   -0.0000    0.0000    0.0000    0.0008    0.0000    0.0000   -0.0005    0.0009
      120 V      5g4-       0.0000    0.0000   -0.0001   -0.0000    0.0000    0.0000   -0.0102   -0.0000   -0.0000   -0.0000
      121 V      6g4-      -0.0000   -0.0000    0.0000    0.0000   -0.0000   -0.0000   -0.0031   -0.0000   -0.0000   -0.0000
      122 V      7g4-       0.0000    0.0000   -0.0000   -0.0000    0.0000    0.0000    0.0033    0.0000    0.0000   -0.0000
      123 V      8g4-      -0.0000   -0.0000   -0.0000   -0.0000    0.0000   -0.0000    0.0005    0.0000    0.0000   -0.0000
      124 V      5g3-      -0.0000   -0.0000    0.0000    0.0000   -0.0000   -0.0000    0.0000    0.0000    0.0000    0.0000
      125 V      6g3-       0.0000    0.0000   -0.0000   -0.0000   -0.0000    0.0000    0.0000    0.0000   -0.0000   -0.0000
      126 V      7g3-      -0.0000   -0.0000    0.0000    0.0000    0.0000   -0.0000   -0.0000   -0.0000    0.0000    0.0000
      127 V      8g3-       0.0000    0.0000   -0.0000    0.0000   -0.0000    0.0000    0.0000    0.0000   -0.0000   -0.0000
      128 V      5g2-      -0.0000    0.0000   -0.0000   -0.0000    0.0000    0.0000    0.0008    0.0000    0.0000   -0.0000
      129 V      6g2-       0.0000    0.0000    0.0000    0.0000   -0.0000   -0.0000    0.0004    0.0000    0.0000   -0.0000
      130 V      7g2-      -0.0000   -0.0000   -0.0000   -0.0000    0.0000    0.0000   -0.0005   -0.0000   -0.0000   -0.0000
      131 V      8g2-       0.0000    0.0000    0.0000    0.0000    0.0000   -0.0000   -0.0000   -0.0000   -0.0000    0.0000
      132 V      5g1-       0.0000    0.0000   -0.0001   -0.0000    0.0000    0.0000   -0.0126   -0.0000   -0.0000    0.0000
      133 V      6g1-       0.0000   -0.0000    0.0000    0.0000   -0.0000    0.0000   -0.0039   -0.0000   -0.0000   -0.0000
      134 V      7g1-      -0.0000    0.0000   -0.0000   -0.0000    0.0000   -0.0000    0.0040    0.0000    0.0000   -0.0000
      135 V      8g1-       0.0000   -0.0000   -0.0000   -0.0000   -0.0000    0.0000    0.0006    0.0000    0.0000   -0.0000
      136 V      5g0        0.0000   -0.0000   -0.0000   -0.0000   -0.0001   -0.0013    0.0000   -0.0000   -0.0208    0.0002
      137 V      6g0       -0.0000    0.0000    0.0000    0.0000    0.0001   -0.0004    0.0000   -0.0000   -0.0067    0.0043
      138 V      7g0       -0.0000   -0.0000   -0.0000   -0.0000   -0.0000    0.0005   -0.0000    0.0000    0.0071    0.0035
      139 V      8g0        0.0000   -0.0000   -0.0000    0.0000   -0.0000    0.0000   -0.0000    0.0000    0.0010    0.0007
      140 V      5g1+      -0.0000   -0.0000    0.0000   -0.0001    0.0000    0.0000    0.0000   -0.0126    0.0000   -0.0000
      141 V      6g1+      -0.0000    0.0000   -0.0000    0.0000   -0.0000    0.0000    0.0000   -0.0039   -0.0000   -0.0000
      142 V      7g1+       0.0000   -0.0000    0.0000   -0.0000    0.0000   -0.0000   -0.0000    0.0040   -0.0000    0.0000
      143 V      8g1+       0.0000   -0.0000    0.0000   -0.0000    0.0000   -0.0000   -0.0000    0.0006    0.0000    0.0000
      144 V      5g2+       0.0000   -0.0000   -0.0000    0.0000    0.0000   -0.0000    0.0000   -0.0008    0.0000   -0.0000
      145 V      6g2+      -0.0000    0.0000    0.0000   -0.0000   -0.0000   -0.0000    0.0000   -0.0004    0.0000   -0.0000
      146 V      7g2+      -0.0000   -0.0000   -0.0000    0.0000    0.0000    0.0000   -0.0000    0.0005   -0.0000   -0.0000
      147 V      8g2+       0.0000    0.0000    0.0000   -0.0000   -0.0000   -0.0000   -0.0000    0.0000    0.0000   -0.0000
      148 V      5g3+      -0.0000    0.0001   -0.0000    0.0000   -0.0001    0.0090    0.0000    0.0000   -0.0124   -0.0085
      149 V      6g3+       0.0000   -0.0000    0.0000   -0.0000    0.0000    0.0021    0.0000   -0.0000   -0.0040   -0.0105
      150 V      7g3+       0.0000    0.0000   -0.0000    0.0000   -0.0000   -0.0034   -0.0000   -0.0000    0.0044   -0.0016
      151 V      8g3+      -0.0000   -0.0000   -0.0000   -0.0000   -0.0000    0.0002   -0.0000    0.0000    0.0006    0.0021
      152 V      5g4+      -0.0000    0.0000    0.0000   -0.0001    0.0000    0.0000    0.0000   -0.0102   -0.0000   -0.0000
      153 V      6g4+       0.0000   -0.0000   -0.0000    0.0000   -0.0000    0.0000    0.0000   -0.0031   -0.0000   -0.0000
      154 V      7g4+       0.0000    0.0000    0.0000   -0.0000    0.0000   -0.0000   -0.0000    0.0033    0.0000    0.0000
      155 V      8g4+       0.0000   -0.0000    0.0000   -0.0000    0.0000   -0.0000   -0.0000    0.0005    0.0000    0.0000
      156 V      6h5-      -0.0000   -0.0000    0.0000    0.0000   -0.0000   -0.0000    0.0014    0.0000   -0.0000   -0.0000
      157 V      7h5-       0.0000    0.0000   -0.0000   -0.0000   -0.0000   -0.0000    0.0006    0.0000   -0.0000   -0.0000
      158 V      6h4-      -0.0000   -0.0000    0.0000    0.0000   -0.0000   -0.0000    0.0067    0.0000    0.0000    0.0000
      159 V      7h4-      -0.0000    0.0000   -0.0000   -0.0000    0.0000   -0.0000    0.0026    0.0000    0.0000    0.0000
      160 V      6h3-      -0.0000   -0.0000   -0.0000    0.0000   -0.0000   -0.0000   -0.0000   -0.0000   -0.0000    0.0000
      161 V      7h3-       0.0000    0.0000    0.0000   -0.0000   -0.0000    0.0000   -0.0000   -0.0000   -0.0000   -0.0000
      162 V      6h2-      -0.0000    0.0000    0.0000    0.0000   -0.0000   -0.0000    0.0021    0.0000    0.0000   -0.0000
      163 V      7h2-      -0.0000    0.0000   -0.0000   -0.0000    0.0000    0.0000    0.0008    0.0000    0.0000   -0.0000
      164 V      6h1-       0.0000    0.0000    0.0000    0.0000   -0.0000    0.0000    0.0015    0.0000    0.0000   -0.0000
      165 V      7h1-      -0.0000   -0.0000   -0.0000   -0.0000   -0.0000   -0.0000    0.0007    0.0000   -0.0000    0.0000
      166 V      6h0        0.0000   -0.0000   -0.0000   -0.0000   -0.0000   -0.0019    0.0000   -0.0000   -0.0043   -0.0024
      167 V      7h0       -0.0000    0.0000    0.0000    0.0000    0.0000   -0.0006   -0.0000   -0.0000   -0.0020   -0.0011
      168 V      6h1+      -0.0000    0.0000   -0.0000    0.0000   -0.0000    0.0000   -0.0000    0.0015   -0.0000   -0.0000
      169 V      7h1+       0.0000   -0.0000    0.0000   -0.0000    0.0000   -0.0000   -0.0000    0.0007    0.0000   -0.0000
      170 V      6h2+       0.0000   -0.0000    0.0000   -0.0000   -0.0000   -0.0000    0.0000   -0.0021   -0.0000   -0.0000
      171 V      7h2+      -0.0000    0.0000   -0.0000    0.0000    0.0000    0.0000    0.0000   -0.0008   -0.0000   -0.0000
      172 V      6h3+       0.0000   -0.0000    0.0000   -0.0000    0.0000   -0.0030   -0.0000   -0.0000    0.0067    0.0007
      173 V      7h3+      -0.0000    0.0000   -0.0000    0.0000   -0.0000   -0.0009   -0.0000    0.0000    0.0026    0.0013
      174 V      6h4+       0.0000   -0.0000   -0.0000    0.0000   -0.0000   -0.0000   -0.0000    0.0067    0.0000   -0.0000
      175 V      7h4+       0.0000   -0.0000    0.0000   -0.0000    0.0000   -0.0000   -0.0000    0.0026    0.0000    0.0000
      176 V      6h5+       0.0000   -0.0000    0.0000   -0.0000    0.0000   -0.0000    0.0000   -0.0014    0.0000   -0.0000
      177 V      7h5+      -0.0000    0.0000   -0.0000    0.0000   -0.0000   -0.0000    0.0000   -0.0006    0.0000   -0.0000

          Orbital           11        12        13        14        15        16        17        18        19        20    
          Energy           -0.1748   -0.1748   -0.1279   -0.1279   -0.0977   -0.0821   -0.0738   -0.0738   -0.0618   -0.0228
          Occ. No.          0.0000    0.0000    0.0000    0.0000    0.0000    0.0000    0.0000    0.0000    0.0000    0.0000

        1 V      1s        -0.0000   -0.0000   -0.0000    0.0000    0.0000    0.0000   -0.0000   -0.0000   -0.0000   -0.0000
        2 V      2s         0.0000   -0.0000   -0.0000   -0.0000    0.0000    0.0001   -0.0000    0.0000    0.0001    0.0000
        3 V      3s         0.0000    0.0000    0.0000   -0.0000   -0.0045    0.0035    0.0000    0.0000    0.0172   -0.0000
        4 V      4s         0.0000    0.0000    0.0000   -0.0000   -0.2014    0.1099   -0.0000   -0.0000    0.1478   -0.0000
        5 V      5s         0.0000    0.0000    0.0000   -0.0000   -0.1085    0.6281   -0.0000   -0.0000   -0.5460    0.0000
        6 V      6s        -0.0000   -0.0000   -0.0000   -0.0000   -0.0164    0.1755   -0.0000   -0.0000   -0.3044    0.0000
        7 V      7s        -0.0000   -0.0000   -0.0000    0.0000   -0.0032    0.1576   -0.0000   -0.0000   -0.3211    0.0000
        8 V      8s        -0.0000   -0.0000   -0.0000    0.0000    0.0007    0.0592   -0.0000   -0.0000   -0.1378    0.0000
        9 V      9s        -0.0000   -0.0000   -0.0000    0.0000    0.0018    0.0427   -0.0000   -0.0000   -0.1258    0.0000
       10 V     10s        -0.0000   -0.0000   -0.0000    0.0000    0.0008    0.0105   -0.0000   -0.0000   -0.0371    0.0000
       11 V      2px       -0.0000   -0.0000    0.0000   -0.0003   -0.0000    0.0000    0.0000    0.0004    0.0000   -0.0000
       12 V      3px        0.0033    0.0000    0.0000   -0.0026   -0.0000    0.0000    0.0000    0.0457    0.0000   -0.0000
       13 V      4px        0.0084    0.0000   -0.0000    0.8184   -0.0000    0.0000    0.0000    0.2310    0.0000   -0.0000
       14 V      5px        0.0081    0.0000   -0.0000    0.1984   -0.0000    0.0000    0.0000    0.3062   -0.0000    0.0000
       15 V      6px        0.0023    0.0000   -0.0000    0.2320   -0.0000    0.0000    0.0000    0.4094   -0.0000    0.0000
       16 V      7px       -0.0010   -0.0000   -0.0000    0.0728   -0.0000    0.0000    0.0000    0.2046   -0.0000    0.0000
       17 V      8px        0.0002    0.0000   -0.0000    0.0334   -0.0000    0.0000    0.0000    0.1858   -0.0000    0.0000
       18 V      9px        0.0003    0.0000   -0.0000    0.0054   -0.0000    0.0000    0.0000    0.0713   -0.0000    0.0000
       19 V     10px       -0.0001   -0.0000    0.0000   -0.0000   -0.0000    0.0000    0.0000    0.0101   -0.0000    0.0000
       20 V      2py       -0.0000    0.0000   -0.0003   -0.0000    0.0000   -0.0000   -0.0004    0.0000    0.0000   -0.0001
       21 V      3py        0.0000   -0.0033   -0.0026   -0.0000    0.0000   -0.0000   -0.0457    0.0000    0.0000   -0.0358
       22 V      4py        0.0000   -0.0084    0.8184    0.0000    0.0000   -0.0000   -0.2310    0.0000    0.0000   -0.3997
       23 V      5py        0.0000   -0.0081    0.1984    0.0000    0.0000   -0.0000   -0.3062    0.0000    0.0000    0.0780
       24 V      6py        0.0000   -0.0023    0.2320    0.0000    0.0000   -0.0000   -0.4094    0.0000    0.0000    0.4165
       25 V      7py       -0.0000    0.0010    0.0728    0.0000    0.0000   -0.0000   -0.2046    0.0000    0.0000    0.4112
       26 V      8py        0.0000   -0.0002    0.0334    0.0000   -0.0000   -0.0000   -0.1858    0.0000    0.0000    0.4712
       27 V      9py        0.0000   -0.0003    0.0054    0.0000   -0.0000   -0.0000   -0.0713    0.0000    0.0000    0.2111
       28 V     10py       -0.0000    0.0001   -0.0000   -0.0000   -0.0000   -0.0000   -0.0101    0.0000    0.0000    0.0393
       29 V      2pz       -0.0000   -0.0000    0.0000    0.0000   -0.0001    0.0001    0.0000   -0.0000    0.0001   -0.0000
       30 V      3pz       -0.0000   -0.0000   -0.0000   -0.0000    0.0195    0.0174    0.0000   -0.0000    0.0176    0.0000
       31 V      4pz        0.0000    0.0000   -0.0000   -0.0000    0.7596   -0.0452    0.0000    0.0000   -0.0088    0.0000
       32 V      5pz        0.0000   -0.0000   -0.0000   -0.0000    0.3471    0.0853    0.0000    0.0000   -0.0181   -0.0000
       33 V      6pz        0.0000    0.0000   -0.0000   -0.0000    0.4381    0.1013   -0.0000    0.0000   -0.0891   -0.0000
       34 V      7pz        0.0000    0.0000   -0.0000   -0.0000    0.1761    0.0496   -0.0000    0.0000   -0.0706   -0.0000
       35 V      8pz       -0.0000    0.0000   -0.0000   -0.0000    0.1275    0.0499   -0.0000    0.0000   -0.0675   -0.0000
       36 V      9pz       -0.0000   -0.0000   -0.0000   -0.0000    0.0412    0.0199   -0.0000    0.0000   -0.0272   -0.0000
       37 V     10pz       -0.0000   -0.0000   -0.0000   -0.0000    0.0048    0.0025    0.0000    0.0000   -0.0050   -0.0000
       38 V      3d2-      -0.0000    0.8690    0.2181    0.0000    0.0000    0.0000    0.3413   -0.0000   -0.0000    0.1151
       39 V      4d2-      -0.0000    0.0379    0.0626    0.0000   -0.0000    0.0000    0.0947   -0.0000   -0.0000    0.1859
       40 V      5d2-      -0.0000    0.0685    0.0477    0.0000   -0.0000    0.0000    0.1089   -0.0000   -0.0000    0.2188
       41 V      6d2-      -0.0000    0.0081    0.0091    0.0000   -0.0000    0.0000    0.0384   -0.0000   -0.0000    0.1293
       42 V      7d2-      -0.0000    0.0045    0.0064    0.0000   -0.0000    0.0000    0.0285   -0.0000   -0.0000    0.1051
       43 V      8d2-       0.0000   -0.0026    0.0017    0.0000   -0.0000    0.0000    0.0114   -0.0000   -0.0000    0.0540
       44 V      9d2-      -0.0000    0.0003    0.0018    0.0000   -0.0000    0.0000    0.0070   -0.0000   -0.0000    0.0254
       45 V     10d2-      -0.0000    0.0003    0.0004    0.0000   -0.0000    0.0000    0.0015   -0.0000   -0.0000    0.0047
       46 V      3d1-       0.0000   -0.4818    0.3773    0.0000   -0.0000    0.0000    0.6440   -0.0000   -0.0000    0.2567
       47 V      4d1-       0.0000   -0.0172    0.1393    0.0000   -0.0000    0.0000    0.1176   -0.0000   -0.0000    0.0403
       48 V      5d1-       0.0000   -0.0344    0.1093    0.0000   -0.0000    0.0000    0.1467   -0.0000   -0.0000    0.1090
       49 V      6d1-       0.0000   -0.0051    0.0298    0.0000   -0.0000    0.0000    0.0431   -0.0000   -0.0000    0.0641
       50 V      7d1-       0.0000   -0.0034    0.0209    0.0000   -0.0000    0.0000    0.0308   -0.0000   -0.0000    0.0542
       51 V      8d1-      -0.0000    0.0012    0.0064    0.0000   -0.0000    0.0000    0.0097   -0.0000   -0.0000    0.0291
       52 V      9d1-      -0.0000    0.0004    0.0040    0.0000   -0.0000    0.0000    0.0070   -0.0000   -0.0000    0.0153
       53 V     10d1-      -0.0000    0.0000    0.0008    0.0000    0.0000    0.0000    0.0016   -0.0000   -0.0000    0.0031
       54 V      3d0        0.0000    0.0000   -0.0000   -0.0000    0.0281    0.6750   -0.0000   -0.0000    0.5962    0.0000
       55 V      4d0       -0.0000   -0.0000    0.0000   -0.0000    0.0477    0.1338   -0.0000   -0.0000    0.1429    0.0000
       56 V      5d0        0.0000    0.0000   -0.0000   -0.0000    0.0535    0.1621   -0.0000   -0.0000    0.1964    0.0000
       57 V      6d0        0.0000    0.0000   -0.0000   -0.0000    0.0290    0.0526   -0.0000   -0.0000    0.0811    0.0000
       58 V      7d0        0.0000    0.0000   -0.0000   -0.0000    0.0216    0.0392   -0.0000   -0.0000    0.0616    0.0000
       59 V      8d0       -0.0000    0.0000   -0.0000   -0.0000    0.0094    0.0142   -0.0000   -0.0000    0.0255    0.0000
       60 V      9d0       -0.0000    0.0000   -0.0000   -0.0000    0.0041    0.0089   -0.0000   -0.0000    0.0137    0.0000
       61 V     10d0        0.0000    0.0000    0.0000   -0.0000    0.0008    0.0019   -0.0000   -0.0000    0.0028    0.0000
       62 V      3d1+       0.4818    0.0000   -0.0000    0.3773    0.0000   -0.0000   -0.0000   -0.6440   -0.0000    0.0000
       63 V      4d1+       0.0172    0.0000   -0.0000    0.1393    0.0000   -0.0000   -0.0000   -0.1176   -0.0000    0.0000
       64 V      5d1+       0.0344    0.0000   -0.0000    0.1093    0.0000   -0.0000   -0.0000   -0.1467   -0.0000    0.0000
       65 V      6d1+       0.0051    0.0000   -0.0000    0.0298    0.0000   -0.0000   -0.0000   -0.0431   -0.0000    0.0000
       66 V      7d1+       0.0034    0.0000   -0.0000    0.0209    0.0000   -0.0000   -0.0000   -0.0308   -0.0000    0.0000
       67 V      8d1+      -0.0012   -0.0000   -0.0000    0.0064    0.0000   -0.0000   -0.0000   -0.0097   -0.0000    0.0000
       68 V      9d1+      -0.0004   -0.0000   -0.0000    0.0040    0.0000   -0.0000   -0.0000   -0.0070   -0.0000    0.0000
       69 V     10d1+      -0.0000   -0.0000   -0.0000    0.0008    0.0000   -0.0000   -0.0000   -0.0016   -0.0000    0.0000
       70 V      3d2+       0.8690    0.0000    0.0000   -0.2181   -0.0000   -0.0000    0.0000    0.3413   -0.0000   -0.0000
       71 V      4d2+       0.0379    0.0000    0.0000   -0.0626   -0.0000   -0.0000    0.0000    0.0947   -0.0000   -0.0000
       72 V      5d2+       0.0685    0.0000    0.0000   -0.0477   -0.0000   -0.0000    0.0000    0.1089   -0.0000   -0.0000
       73 V      6d2+       0.0081    0.0000    0.0000   -0.0091   -0.0000   -0.0000    0.0000    0.0384   -0.0000   -0.0000
       74 V      7d2+       0.0045    0.0000    0.0000   -0.0064   -0.0000   -0.0000    0.0000    0.0285   -0.0000   -0.0000
       75 V      8d2+      -0.0026   -0.0000    0.0000   -0.0017   -0.0000   -0.0000    0.0000    0.0114   -0.0000   -0.0000
       76 V      9d2+       0.0003    0.0000    0.0000   -0.0018   -0.0000   -0.0000    0.0000    0.0070   -0.0000   -0.0000
       77 V     10d2+       0.0003    0.0000    0.0000   -0.0004   -0.0000    0.0000    0.0000    0.0015   -0.0000   -0.0000
       78 V      4f3-      -0.0000    0.0000    0.0000    0.0000   -0.0000    0.0000    0.0000   -0.0000    0.0000    0.0000
       79 V      5f3-      -0.0000    0.0000    0.0000   -0.0000   -0.0000    0.0000    0.0000   -0.0000    0.0000    0.0000
       80 V      6f3-      -0.0000    0.0000   -0.0000   -0.0000   -0.0000   -0.0000    0.0000   -0.0000   -0.0000    0.0000
       81 V      7f3-      -0.0000    0.0000    0.0000    0.0000   -0.0000   -0.0000    0.0000   -0.0000   -0.0000    0.0000
       82 V      8f3-      -0.0000    0.0000    0.0000    0.0000   -0.0000   -0.0000    0.0000   -0.0000   -0.0000    0.0000
       83 V      9f3-       0.0000    0.0000    0.0000    0.0000   -0.0000   -0.0000    0.0000   -0.0000   -0.0000    0.0000
       84 V      4f2-      -0.0000    0.0507    0.0267    0.0000   -0.0000    0.0000    0.0638   -0.0000   -0.0000    0.0370
       85 V      5f2-      -0.0000    0.0333    0.0143    0.0000   -0.0000    0.0000    0.0489   -0.0000   -0.0000    0.0462
       86 V      6f2-      -0.0000    0.0033    0.0000    0.0000   -0.0000    0.0000    0.0129   -0.0000   -0.0000    0.0303
       87 V      7f2-      -0.0000    0.0021    0.0027    0.0000   -0.0000    0.0000    0.0123   -0.0000   -0.0000    0.0261
       88 V      8f2-      -0.0000    0.0015    0.0020    0.0000   -0.0000    0.0000    0.0084   -0.0000   -0.0000    0.0176
       89 V      9f2-      -0.0000    0.0010    0.0007    0.0000   -0.0000    0.0000    0.0053   -0.0000   -0.0000    0.0132
       90 V      4f1-       0.0000   -0.0188   -0.0012   -0.0000   -0.0000    0.0000    0.0154   -0.0000   -0.0000    0.0163
       91 V      5f1-       0.0000   -0.0134   -0.0062   -0.0000   -0.0000    0.0000    0.0185   -0.0000   -0.0000    0.0245
       92 V      6f1-       0.0000   -0.0029   -0.0037   -0.0000   -0.0000    0.0000    0.0143   -0.0000   -0.0000    0.0184
       93 V      7f1-       0.0000   -0.0013   -0.0006   -0.0000   -0.0000    0.0000    0.0123   -0.0000   -0.0000    0.0137
       94 V      8f1-       0.0000   -0.0005    0.0000    0.0000   -0.0000    0.0000    0.0074   -0.0000   -0.0000    0.0079
       95 V      9f1-       0.0000   -0.0004   -0.0000   -0.0000   -0.0000    0.0000    0.0049   -0.0000   -0.0000    0.0053
       96 V      4f0       -0.0000   -0.0000   -0.0000    0.0000   -0.0030   -0.0038   -0.0000    0.0000   -0.0350   -0.0000
       97 V      5f0       -0.0000   -0.0000   -0.0000    0.0000   -0.0075    0.0095   -0.0000    0.0000   -0.0256   -0.0000
       98 V      6f0       -0.0000   -0.0000   -0.0000    0.0000   -0.0072    0.0108   -0.0000    0.0000    0.0040   -0.0000
       99 V      7f0       -0.0000   -0.0000   -0.0000    0.0000   -0.0050    0.0023   -0.0000    0.0000    0.0069   -0.0000
      100 V      8f0       -0.0000   -0.0000   -0.0000    0.0000   -0.0025    0.0002    0.0000    0.0000    0.0038   -0.0000
      101 V      9f0       -0.0000   -0.0000   -0.0000    0.0000   -0.0014    0.0008   -0.0000    0.0000    0.0028   -0.0000
      102 V      4f1+       0.0188    0.0000    0.0000   -0.0012    0.0000    0.0000   -0.0000   -0.0154    0.0000    0.0000
      103 V      5f1+       0.0134    0.0000    0.0000   -0.0062    0.0000    0.0000   -0.0000   -0.0185    0.0000    0.0000
      104 V      6f1+       0.0029    0.0000    0.0000   -0.0037    0.0000    0.0000   -0.0000   -0.0143    0.0000    0.0000
      105 V      7f1+       0.0013    0.0000    0.0000   -0.0006    0.0000    0.0000   -0.0000   -0.0123    0.0000    0.0000
      106 V      8f1+       0.0005    0.0000   -0.0000    0.0000    0.0000    0.0000   -0.0000   -0.0074    0.0000    0.0000
      107 V      9f1+       0.0004    0.0000    0.0000   -0.0000    0.0000    0.0000   -0.0000   -0.0049    0.0000    0.0000
      108 V      4f2+       0.0507    0.0000    0.0000   -0.0267   -0.0000    0.0000    0.0000    0.0638    0.0000   -0.0000
      109 V      5f2+       0.0333    0.0000    0.0000   -0.0143   -0.0000    0.0000    0.0000    0.0489    0.0000   -0.0000
      110 V      6f2+       0.0033    0.0000    0.0000   -0.0000   -0.0000    0.0000    0.0000    0.0129   -0.0000   -0.0000
      111 V      7f2+       0.0021    0.0000    0.0000   -0.0027   -0.0000    0.0000    0.0000    0.0123   -0.0000   -0.0000
      112 V      8f2+       0.0015    0.0000    0.0000   -0.0020   -0.0000    0.0000    0.0000    0.0084   -0.0000   -0.0000
      113 V      9f2+       0.0010    0.0000    0.0000   -0.0007   -0.0000    0.0000    0.0000    0.0053   -0.0000   -0.0000
      114 V      4f3+       0.0000   -0.0000   -0.0000    0.0000    0.0127    0.0322   -0.0000   -0.0000    0.0110    0.0000
      115 V      5f3+       0.0000   -0.0000   -0.0000   -0.0000    0.0166    0.0241   -0.0000    0.0000    0.0029    0.0000
      116 V      6f3+       0.0000    0.0000    0.0000   -0.0000    0.0076    0.0024    0.0000    0.0000   -0.0007   -0.0000
      117 V      7f3+       0.0000    0.0000    0.0000   -0.0000    0.0033    0.0003    0.0000    0.0000    0.0027   -0.0000
      118 V      8f3+       0.0000    0.0000    0.0000   -0.0000    0.0019    0.0007    0.0000    0.0000    0.0021   -0.0000
      119 V      9f3+       0.0000   -0.0000   -0.0000   -0.0000    0.0015    0.0008    0.0000    0.0000    0.0014   -0.0000
      120 V      5g4-       0.0000   -0.0022   -0.0001   -0.0000   -0.0000    0.0000    0.0099   -0.0000   -0.0000    0.0090
      121 V      6g4-       0.0000   -0.0019   -0.0061   -0.0000   -0.0000    0.0000    0.0079   -0.0000   -0.0000    0.0125
      122 V      7g4-       0.0000   -0.0003   -0.0060   -0.0000   -0.0000   -0.0000   -0.0000    0.0000   -0.0000    0.0051
      123 V      8g4-      -0.0000    0.0002   -0.0021   -0.0000   -0.0000   -0.0000   -0.0005    0.0000    0.0000    0.0011
      124 V      5g3-      -0.0000    0.0000   -0.0000   -0.0000   -0.0000   -0.0000   -0.0000    0.0000   -0.0000   -0.0000
      125 V      6g3-       0.0000   -0.0000   -0.0000   -0.0000    0.0000    0.0000   -0.0000    0.0000    0.0000   -0.0000
      126 V      7g3-       0.0000   -0.0000    0.0000    0.0000   -0.0000   -0.0000    0.0000   -0.0000   -0.0000    0.0000
      127 V      8g3-      -0.0000    0.0000    0.0000   -0.0000    0.0000    0.0000    0.0000   -0.0000    0.0000    0.0000
      128 V      5g2-       0.0000   -0.0034   -0.0054   -0.0000    0.0000   -0.0000   -0.0093    0.0000    0.0000   -0.0033
      129 V      6g2-       0.0000   -0.0027   -0.0049   -0.0000    0.0000   -0.0000   -0.0072    0.0000    0.0000   -0.0023
      130 V      7g2-       0.0000   -0.0004   -0.0007   -0.0000   -0.0000    0.0000    0.0005   -0.0000    0.0000    0.0007
      131 V      8g2-      -0.0000    0.0001   -0.0000   -0.0000   -0.0000    0.0000    0.0012   -0.0000   -0.0000    0.0008
      132 V      5g1-      -0.0000    0.0116   -0.0073   -0.0000   -0.0000   -0.0000   -0.0012    0.0000   -0.0000    0.0054
      133 V      6g1-      -0.0000    0.0093   -0.0147   -0.0000   -0.0000   -0.0000   -0.0027    0.0000   -0.0000    0.0105
      134 V      7g1-      -0.0000    0.0003   -0.0092   -0.0000   -0.0000   -0.0000   -0.0024    0.0000   -0.0000    0.0057
      135 V      8g1-       0.0000   -0.0011   -0.0028   -0.0000   -0.0000   -0.0000   -0.0004    0.0000   -0.0000    0.0017
      136 V      5g0       -0.0000    0.0000    0.0000    0.0000   -0.0082   -0.0157    0.0000    0.0000   -0.0169   -0.0000
      137 V      6g0       -0.0000    0.0000   -0.0000    0.0000   -0.0151   -0.0117   -0.0000    0.0000   -0.0154   -0.0000
      138 V      7g0       -0.0000    0.0000   -0.0000    0.0000   -0.0085    0.0005   -0.0000   -0.0000   -0.0019   -0.0000
      139 V      8g0       -0.0000    0.0000   -0.0000    0.0000   -0.0027    0.0010   -0.0000   -0.0000    0.0007   -0.0000
      140 V      5g1+      -0.0116   -0.0000    0.0000   -0.0073   -0.0000    0.0000    0.0000    0.0012   -0.0000    0.0000
      141 V      6g1+      -0.0093   -0.0000    0.0000   -0.0147   -0.0000   -0.0000    0.0000    0.0027   -0.0000    0.0000
      142 V      7g1+      -0.0003   -0.0000    0.0000   -0.0092   -0.0000   -0.0000    0.0000    0.0024   -0.0000    0.0000
      143 V      8g1+       0.0011    0.0000    0.0000   -0.0028   -0.0000   -0.0000    0.0000    0.0004   -0.0000    0.0000
      144 V      5g2+      -0.0034   -0.0000   -0.0000    0.0054    0.0000   -0.0000   -0.0000   -0.0093   -0.0000    0.0000
      145 V      6g2+      -0.0027   -0.0000   -0.0000    0.0049    0.0000   -0.0000   -0.0000   -0.0072   -0.0000    0.0000
      146 V      7g2+      -0.0004   -0.0000   -0.0000    0.0007    0.0000    0.0000    0.0000    0.0005    0.0000   -0.0000
      147 V      8g2+       0.0001    0.0000   -0.0000    0.0000   -0.0000    0.0000    0.0000    0.0012    0.0000   -0.0000
      148 V      5g3+       0.0000    0.0000    0.0000   -0.0000   -0.0058   -0.0050    0.0000    0.0000    0.0006   -0.0000
      149 V      6g3+       0.0000    0.0000    0.0000   -0.0000   -0.0098   -0.0038    0.0000   -0.0000    0.0029   -0.0000
      150 V      7g3+      -0.0000    0.0000    0.0000    0.0000   -0.0046    0.0011   -0.0000   -0.0000    0.0018   -0.0000
      151 V      8g3+      -0.0000   -0.0000    0.0000   -0.0000   -0.0008    0.0016   -0.0000    0.0000   -0.0002   -0.0000
      152 V      5g4+       0.0022    0.0000    0.0000   -0.0001    0.0000   -0.0000   -0.0000   -0.0099   -0.0000    0.0000
      153 V      6g4+       0.0019    0.0000    0.0000   -0.0061    0.0000   -0.0000   -0.0000   -0.0079   -0.0000    0.0000
      154 V      7g4+       0.0003    0.0000    0.0000   -0.0060   -0.0000   -0.0000    0.0000    0.0000   -0.0000    0.0000
      155 V      8g4+      -0.0002   -0.0000    0.0000   -0.0021   -0.0000    0.0000    0.0000    0.0005    0.0000    0.0000
      156 V      6h5-       0.0000   -0.0099   -0.0029   -0.0000   -0.0000   -0.0000   -0.0055    0.0000    0.0000   -0.0020
      157 V      7h5-       0.0000   -0.0085   -0.0023   -0.0000   -0.0000   -0.0000   -0.0049    0.0000    0.0000   -0.0022
      158 V      6h4-      -0.0000    0.0035   -0.0034   -0.0000    0.0000   -0.0000   -0.0096    0.0000    0.0000   -0.0056
      159 V      7h4-      -0.0000    0.0030   -0.0010   -0.0000    0.0000   -0.0000   -0.0080    0.0000    0.0000   -0.0064
      160 V      6h3-       0.0000   -0.0000    0.0000   -0.0000   -0.0000   -0.0000    0.0000   -0.0000   -0.0000    0.0000
      161 V      7h3-       0.0000   -0.0000    0.0000   -0.0000    0.0000    0.0000    0.0000   -0.0000    0.0000    0.0000
      162 V      6h2-       0.0000   -0.0078   -0.0024   -0.0000    0.0000   -0.0000   -0.0052    0.0000    0.0000   -0.0023
      163 V      7h2-       0.0000   -0.0068   -0.0016   -0.0000    0.0000   -0.0000   -0.0048    0.0000    0.0000   -0.0028
      164 V      6h1-      -0.0000    0.0064   -0.0069   -0.0000    0.0000   -0.0000   -0.0132    0.0000    0.0000   -0.0057
      165 V      7h1-      -0.0000    0.0057   -0.0060   -0.0000    0.0000   -0.0000   -0.0117    0.0000    0.0000   -0.0052
      166 V      6h0       -0.0000   -0.0000    0.0000    0.0000   -0.0012   -0.0156    0.0000    0.0000   -0.0149    0.0000
      167 V      7h0       -0.0000   -0.0000   -0.0000    0.0000   -0.0018   -0.0134    0.0000    0.0000   -0.0135   -0.0000
      168 V      6h1+      -0.0064   -0.0000    0.0000   -0.0069   -0.0000    0.0000    0.0000    0.0132   -0.0000   -0.0000
      169 V      7h1+      -0.0057   -0.0000    0.0000   -0.0060   -0.0000    0.0000    0.0000    0.0117   -0.0000   -0.0000
      170 V      6h2+      -0.0078   -0.0000   -0.0000    0.0024    0.0000    0.0000   -0.0000   -0.0052    0.0000    0.0000
      171 V      7h2+      -0.0068   -0.0000   -0.0000    0.0016    0.0000    0.0000   -0.0000   -0.0048    0.0000    0.0000
      172 V      6h3+      -0.0000   -0.0000   -0.0000    0.0000    0.0015   -0.0034    0.0000   -0.0000   -0.0041    0.0000
      173 V      7h3+      -0.0000   -0.0000   -0.0000    0.0000    0.0028   -0.0033    0.0000    0.0000   -0.0044    0.0000
      174 V      6h4+      -0.0035   -0.0000    0.0000   -0.0034   -0.0000    0.0000    0.0000    0.0096    0.0000   -0.0000
      175 V      7h4+      -0.0030   -0.0000    0.0000   -0.0010   -0.0000    0.0000    0.0000    0.0080    0.0000   -0.0000
      176 V      6h5+      -0.0099   -0.0000   -0.0000    0.0029    0.0000    0.0000   -0.0000   -0.0055    0.0000    0.0000
      177 V      7h5+      -0.0085   -0.0000   -0.0000    0.0023    0.0000    0.0000   -0.0000   -0.0049    0.0000    0.0000

          Orbital           21        22        23        24        25        26        27        28        29        30    
          Energy           -0.0228   -0.0175   -0.0158   -0.0158   -0.0017   -0.0017   -0.0008    0.0352    0.0745    0.0747
          Occ. No.          0.0000    0.0000    0.0000    0.0000    0.0000    0.0000    0.0000    0.0000    0.0000    0.0000

        1 V      1s         0.0000    0.0000    0.0000   -0.0000    0.0000    0.0000   -0.0000    0.0000   -0.0000   -0.0000
        2 V      2s         0.0000   -0.0000   -0.0000   -0.0000   -0.0000    0.0000   -0.0001    0.0000    0.0000   -0.0000
        3 V      3s         0.0000    0.0028    0.0000    0.0000   -0.0000    0.0000   -0.0028   -0.0211   -0.0000    0.0008
        4 V      4s         0.0000    0.0958    0.0000    0.0000    0.0000   -0.0000    0.0297   -0.1130   -0.0000    0.0185
        5 V      5s        -0.0000   -0.0635   -0.0000   -0.0000   -0.0000    0.0000   -0.0534    0.4371    0.0000   -0.0106
        6 V      6s        -0.0000   -0.1051   -0.0000   -0.0000    0.0000   -0.0000    0.0547   -0.1734    0.0000   -0.0002
        7 V      7s        -0.0000   -0.1541   -0.0000   -0.0000    0.0000   -0.0000    0.0826   -0.4728   -0.0000    0.0043
        8 V      8s        -0.0000   -0.0885   -0.0000   -0.0000    0.0000   -0.0000    0.0505   -0.3781   -0.0000    0.0052
        9 V      9s        -0.0000   -0.1028   -0.0000   -0.0000    0.0000   -0.0000    0.0627   -0.5267   -0.0000    0.0084
       10 V     10s        -0.0000   -0.0338   -0.0000   -0.0000    0.0000   -0.0000    0.0211   -0.1841   -0.0000    0.0030
       11 V      2px        0.0001   -0.0000   -0.0000   -0.0000    0.0000    0.0003    0.0000    0.0000    0.0000    0.0000
       12 V      3px        0.0358   -0.0000   -0.0000   -0.0131    0.0000    0.0332    0.0000   -0.0000    0.0000    0.0000
       13 V      4px        0.3997   -0.0000   -0.0000   -0.1218    0.0000    0.0194    0.0000    0.0000   -0.0000    0.0000
       14 V      5px       -0.0780    0.0000    0.0000    0.0004    0.0000    0.0413    0.0000    0.0000    0.0000    0.0000
       15 V      6px       -0.4165    0.0000    0.0000    0.0823   -0.0000   -0.0638   -0.0000    0.0000   -0.0000    0.0000
       16 V      7px       -0.4112    0.0000    0.0000    0.0924   -0.0000   -0.1031   -0.0000   -0.0000   -0.0000   -0.0000
       17 V      8px       -0.4712    0.0000    0.0000    0.1076   -0.0000   -0.1264   -0.0000   -0.0000   -0.0000   -0.0000
       18 V      9px       -0.2111    0.0000    0.0000    0.0486   -0.0000   -0.0603   -0.0000   -0.0000   -0.0000   -0.0000
       19 V     10px       -0.0393    0.0000    0.0000    0.0092   -0.0000   -0.0126   -0.0000   -0.0000   -0.0000   -0.0000
       20 V      2py       -0.0000   -0.0000    0.0000   -0.0000    0.0003   -0.0000    0.0000   -0.0000   -0.0000    0.0000
       21 V      3py       -0.0000   -0.0000    0.0131   -0.0000    0.0332   -0.0000   -0.0000    0.0000   -0.0000    0.0000
       22 V      4py       -0.0000   -0.0000    0.1218   -0.0000    0.0194   -0.0000   -0.0000   -0.0000    0.0000   -0.0000
       23 V      5py        0.0000   -0.0000   -0.0004    0.0000    0.0413   -0.0000   -0.0000   -0.0000    0.0000    0.0000
       24 V      6py        0.0000    0.0000   -0.0823    0.0000   -0.0638    0.0000    0.0000   -0.0000   -0.0000    0.0000
       25 V      7py        0.0000    0.0000   -0.0924    0.0000   -0.1031    0.0000    0.0000    0.0000   -0.0000   -0.0000
       26 V      8py        0.0000    0.0000   -0.1076    0.0000   -0.1264    0.0000    0.0000    0.0000   -0.0000   -0.0000
       27 V      9py        0.0000    0.0000   -0.0486    0.0000   -0.0603    0.0000    0.0000    0.0000   -0.0000   -0.0000
       28 V     10py        0.0000    0.0000   -0.0092    0.0000   -0.0126    0.0000    0.0000    0.0000   -0.0000   -0.0000
       29 V      2pz        0.0000    0.0001    0.0000    0.0000   -0.0000    0.0000   -0.0000   -0.0000   -0.0000   -0.0000
       30 V      3pz       -0.0000   -0.0206   -0.0000   -0.0000   -0.0000    0.0000   -0.0199   -0.0049    0.0000   -0.0011
       31 V      4pz       -0.0000   -0.4427   -0.0000   -0.0000   -0.0000    0.0000   -0.1458    0.0396    0.0000   -0.0158
       32 V      5pz        0.0000    0.0797    0.0000    0.0000   -0.0000    0.0000   -0.0369    0.0499    0.0000   -0.0149
       33 V      6pz        0.0000    0.4233    0.0000    0.0000    0.0000   -0.0000    0.0621    0.0042    0.0000   -0.0045
       34 V      7pz        0.0000    0.4353    0.0000    0.0000    0.0000   -0.0000    0.1010   -0.0725   -0.0000    0.0128
       35 V      8pz        0.0000    0.5114    0.0000    0.0000    0.0000   -0.0000    0.1234   -0.1221   -0.0000    0.0221
       36 V      9pz        0.0000    0.2324    0.0000    0.0000    0.0000   -0.0000    0.0576   -0.0672   -0.0000    0.0124
       37 V     10pz        0.0000    0.0436    0.0000    0.0000    0.0000   -0.0000    0.0116   -0.0148   -0.0000    0.0028
       38 V      3d2-       0.0000    0.0000   -0.1168    0.0000   -0.1730    0.0000    0.0000   -0.0000    0.0000    0.0000
       39 V      4d2-       0.0000   -0.0000    0.5003   -0.0000    0.2265   -0.0000   -0.0000   -0.0000   -0.0000    0.0000
       40 V      5d2-       0.0000   -0.0000    0.4968   -0.0000    0.2321   -0.0000   -0.0000    0.0000   -0.0000    0.0000
       41 V      6d2-       0.0000   -0.0000    0.3142   -0.0000    0.1659   -0.0000   -0.0000    0.0000   -0.0000    0.0000
       42 V      7d2-       0.0000   -0.0000    0.2596   -0.0000    0.1398   -0.0000   -0.0000    0.0000   -0.0000    0.0000
       43 V      8d2-       0.0000   -0.0000    0.1381   -0.0000    0.0770   -0.0000   -0.0000    0.0000   -0.0000    0.0000
       44 V      9d2-       0.0000   -0.0000    0.0622   -0.0000    0.0339   -0.0000   -0.0000    0.0000   -0.0000    0.0000
       45 V     10d2-       0.0000   -0.0000    0.0111   -0.0000    0.0059   -0.0000   -0.0000   -0.0000   -0.0000    0.0000
       46 V      3d1-       0.0000    0.0000   -0.0586    0.0000   -0.3187    0.0000    0.0000   -0.0000    0.0000   -0.0000
       47 V      4d1-       0.0000    0.0000   -0.2837    0.0000    0.4669   -0.0000   -0.0000    0.0000   -0.0000    0.0000
       48 V      5d1-       0.0000    0.0000   -0.3081    0.0000    0.4776   -0.0000   -0.0000    0.0000   -0.0000    0.0000
       49 V      6d1-       0.0000    0.0000   -0.1895    0.0000    0.3332   -0.0000   -0.0000    0.0000   -0.0000    0.0000
       50 V      7d1-       0.0000    0.0000   -0.1568    0.0000    0.2799   -0.0000   -0.0000    0.0000   -0.0000    0.0000
       51 V      8d1-       0.0000    0.0000   -0.0834    0.0000    0.1540   -0.0000   -0.0000    0.0000   -0.0000   -0.0000
       52 V      9d1-       0.0000    0.0000   -0.0388    0.0000    0.0688   -0.0000   -0.0000    0.0000   -0.0000   -0.0000
       53 V     10d1-       0.0000    0.0000   -0.0071    0.0000    0.0122   -0.0000   -0.0000    0.0000   -0.0000    0.0000
       54 V      3d0        0.0000    0.0090    0.0000    0.0000   -0.0000    0.0000   -0.3099   -0.1881    0.0000   -0.0163
       55 V      4d0       -0.0000   -0.1200   -0.0000   -0.0000    0.0000   -0.0000    0.5140    0.0869   -0.0000    0.0057
       56 V      5d0       -0.0000   -0.1293   -0.0000   -0.0000    0.0000   -0.0000    0.5321    0.0450    0.0000   -0.0016
       57 V      6d0       -0.0000   -0.0773   -0.0000   -0.0000    0.0000   -0.0000    0.3705    0.0420    0.0000   -0.0019
       58 V      7d0       -0.0000   -0.0600   -0.0000   -0.0000    0.0000   -0.0000    0.3129    0.0383    0.0000   -0.0021
       59 V      8d0       -0.0000   -0.0283   -0.0000   -0.0000    0.0000   -0.0000    0.1738    0.0245    0.0000   -0.0016
       60 V      9d0       -0.0000   -0.0120   -0.0000   -0.0000    0.0000   -0.0000    0.0786    0.0107    0.0000   -0.0010
       61 V     10d0       -0.0000   -0.0021   -0.0000   -0.0000    0.0000   -0.0000    0.0140    0.0018    0.0000   -0.0002
       62 V      3d1+      -0.2567    0.0000    0.0000    0.0586   -0.0000   -0.3187   -0.0000   -0.0000   -0.0000   -0.0000
       63 V      4d1+      -0.0403   -0.0000    0.0000    0.2837    0.0000    0.4669    0.0000    0.0000   -0.0000   -0.0000
       64 V      5d1+      -0.1090   -0.0000    0.0000    0.3081    0.0000    0.4776    0.0000   -0.0000   -0.0000   -0.0000
       65 V      6d1+      -0.0641   -0.0000    0.0000    0.1895    0.0000    0.3332    0.0000   -0.0000   -0.0000   -0.0000
       66 V      7d1+      -0.0542   -0.0000    0.0000    0.1568    0.0000    0.2799    0.0000   -0.0000   -0.0000   -0.0000
       67 V      8d1+      -0.0291   -0.0000    0.0000    0.0834    0.0000    0.1540    0.0000   -0.0000    0.0000   -0.0000
       68 V      9d1+      -0.0153   -0.0000    0.0000    0.0388    0.0000    0.0688    0.0000   -0.0000    0.0000   -0.0000
       69 V     10d1+      -0.0031   -0.0000    0.0000    0.0071    0.0000    0.0122    0.0000   -0.0000    0.0000   -0.0000
       70 V      3d2+       0.1151    0.0000   -0.0000   -0.1168    0.0000    0.1730    0.0000   -0.0000    0.0000    0.0000
       71 V      4d2+       0.1859   -0.0000    0.0000    0.5003   -0.0000   -0.2265   -0.0000    0.0000    0.0000   -0.0000
       72 V      5d2+       0.2188   -0.0000    0.0000    0.4968   -0.0000   -0.2321   -0.0000   -0.0000    0.0000   -0.0000
       73 V      6d2+       0.1293   -0.0000    0.0000    0.3142   -0.0000   -0.1659   -0.0000   -0.0000    0.0000   -0.0000
       74 V      7d2+       0.1051   -0.0000    0.0000    0.2596   -0.0000   -0.1398   -0.0000   -0.0000    0.0000   -0.0000
       75 V      8d2+       0.0540   -0.0000    0.0000    0.1381   -0.0000   -0.0770   -0.0000   -0.0000    0.0000   -0.0000
       76 V      9d2+       0.0254   -0.0000    0.0000    0.0622   -0.0000   -0.0339   -0.0000   -0.0000    0.0000   -0.0000
       77 V     10d2+       0.0047   -0.0000    0.0000    0.0111   -0.0000   -0.0059   -0.0000   -0.0000    0.0000   -0.0000
       78 V      4f3-       0.0000    0.0000    0.0000   -0.0000   -0.0000    0.0000   -0.0000   -0.0000    0.1282    0.0000
       79 V      5f3-       0.0000   -0.0000    0.0000   -0.0000    0.0000    0.0000   -0.0000   -0.0000    0.3819    0.0000
       80 V      6f3-       0.0000   -0.0000    0.0000   -0.0000    0.0000    0.0000   -0.0000   -0.0000    0.5091    0.0000
       81 V      7f3-       0.0000   -0.0000    0.0000   -0.0000    0.0000    0.0000   -0.0000   -0.0000    0.5474    0.0000
       82 V      8f3-       0.0000    0.0000    0.0000   -0.0000    0.0000    0.0000   -0.0000   -0.0000    0.4069    0.0000
       83 V      9f3-       0.0000    0.0000    0.0000   -0.0000    0.0000    0.0000   -0.0000   -0.0000    0.3364    0.0000
       84 V      4f2-       0.0000    0.0000   -0.0098    0.0000   -0.0337    0.0000    0.0000   -0.0000   -0.0000   -0.0000
       85 V      5f2-       0.0000   -0.0000    0.0201   -0.0000   -0.0026    0.0000    0.0000   -0.0000   -0.0000   -0.0000
       86 V      6f2-       0.0000   -0.0000    0.0397   -0.0000    0.0263   -0.0000   -0.0000   -0.0000   -0.0000   -0.0000
       87 V      7f2-       0.0000   -0.0000    0.0375   -0.0000    0.0228   -0.0000   -0.0000   -0.0000   -0.0000   -0.0000
       88 V      8f2-       0.0000   -0.0000    0.0250   -0.0000    0.0148   -0.0000   -0.0000   -0.0000   -0.0000   -0.0000
       89 V      9f2-       0.0000   -0.0000    0.0191   -0.0000    0.0119   -0.0000   -0.0000   -0.0000   -0.0000   -0.0000
       90 V      4f1-       0.0000    0.0000   -0.0089    0.0000    0.0011   -0.0000   -0.0000    0.0000    0.0000    0.0000
       91 V      5f1-       0.0000    0.0000   -0.0269    0.0000    0.0221   -0.0000   -0.0000    0.0000    0.0000    0.0000
       92 V      6f1-       0.0000    0.0000   -0.0316    0.0000    0.0345   -0.0000   -0.0000    0.0000    0.0000    0.0000
       93 V      7f1-       0.0000    0.0000   -0.0295    0.0000    0.0366   -0.0000   -0.0000    0.0000    0.0000    0.0000
       94 V      8f1-       0.0000    0.0000   -0.0198    0.0000    0.0268   -0.0000   -0.0000    0.0000    0.0000    0.0000
       95 V      9f1-       0.0000    0.0000   -0.0149    0.0000    0.0218   -0.0000   -0.0000    0.0000    0.0000    0.0000
       96 V      4f0        0.0000    0.0074    0.0000    0.0000    0.0000   -0.0000    0.0196    0.0529    0.0000   -0.0252
       97 V      5f0        0.0000    0.0114    0.0000    0.0000    0.0000   -0.0000    0.0354    0.0619    0.0000   -0.0701
       98 V      6f0        0.0000    0.0045   -0.0000   -0.0000    0.0000   -0.0000    0.0418    0.0257    0.0000   -0.0897
       99 V      7f0        0.0000   -0.0015   -0.0000   -0.0000    0.0000   -0.0000    0.0477    0.0157    0.0000   -0.0950
      100 V      8f0        0.0000   -0.0029   -0.0000   -0.0000    0.0000   -0.0000    0.0345    0.0126    0.0000   -0.0705
      101 V      9f0        0.0000   -0.0031   -0.0000   -0.0000    0.0000   -0.0000    0.0267    0.0119    0.0000   -0.0583
      102 V      4f1+      -0.0163    0.0000    0.0000    0.0089    0.0000    0.0011    0.0000   -0.0000   -0.0000   -0.0000
      103 V      5f1+      -0.0245   -0.0000    0.0000    0.0269    0.0000    0.0221    0.0000   -0.0000   -0.0000   -0.0000
      104 V      6f1+      -0.0184   -0.0000    0.0000    0.0316    0.0000    0.0345    0.0000   -0.0000   -0.0000   -0.0000
      105 V      7f1+      -0.0137   -0.0000    0.0000    0.0295    0.0000    0.0366    0.0000   -0.0000   -0.0000   -0.0000
      106 V      8f1+      -0.0079   -0.0000    0.0000    0.0198    0.0000    0.0268    0.0000   -0.0000   -0.0000   -0.0000
      107 V      9f1+      -0.0053   -0.0000    0.0000    0.0149    0.0000    0.0218    0.0000   -0.0000   -0.0000   -0.0000
      108 V      4f2+       0.0370   -0.0000   -0.0000   -0.0098    0.0000    0.0337    0.0000   -0.0000   -0.0000   -0.0000
      109 V      5f2+       0.0462   -0.0000    0.0000    0.0201    0.0000    0.0026    0.0000   -0.0000   -0.0000   -0.0000
      110 V      6f2+       0.0303   -0.0000    0.0000    0.0397   -0.0000   -0.0263   -0.0000   -0.0000   -0.0000   -0.0000
      111 V      7f2+       0.0261   -0.0000    0.0000    0.0375   -0.0000   -0.0228   -0.0000   -0.0000   -0.0000   -0.0000
      112 V      8f2+       0.0176   -0.0000    0.0000    0.0250   -0.0000   -0.0148   -0.0000   -0.0000   -0.0000   -0.0000
      113 V      9f2+       0.0132   -0.0000    0.0000    0.0191   -0.0000   -0.0119   -0.0000   -0.0000   -0.0000   -0.0000
      114 V      4f3+      -0.0000   -0.0117   -0.0000   -0.0000   -0.0000    0.0000   -0.0211    0.0210   -0.0000    0.1236
      115 V      5f3+      -0.0000   -0.0194   -0.0000   -0.0000   -0.0000    0.0000   -0.0113    0.0312   -0.0000    0.3735
      116 V      6f3+       0.0000   -0.0131   -0.0000    0.0000   -0.0000   -0.0000    0.0048    0.0153   -0.0000    0.5007
      117 V      7f3+       0.0000   -0.0085   -0.0000    0.0000   -0.0000   -0.0000    0.0052    0.0071   -0.0000    0.5391
      118 V      8f3+       0.0000   -0.0052    0.0000    0.0000   -0.0000   -0.0000    0.0028    0.0051   -0.0000    0.4008
      119 V      9f3+       0.0000   -0.0039    0.0000    0.0000   -0.0000   -0.0000    0.0017    0.0050   -0.0000    0.3314
      120 V      5g4-       0.0000    0.0000   -0.0027    0.0000   -0.0065    0.0000    0.0000   -0.0000    0.0000    0.0000
      121 V      6g4-       0.0000    0.0000   -0.0040    0.0000   -0.0040    0.0000    0.0000   -0.0000    0.0000    0.0000
      122 V      7g4-       0.0000    0.0000   -0.0018    0.0000    0.0015   -0.0000   -0.0000    0.0000    0.0000    0.0000
      123 V      8g4-       0.0000    0.0000   -0.0006    0.0000    0.0011   -0.0000   -0.0000    0.0000    0.0000    0.0000
      124 V      5g3-      -0.0000    0.0000    0.0000   -0.0000    0.0000   -0.0000   -0.0000   -0.0000    0.0044    0.0000
      125 V      6g3-      -0.0000    0.0000    0.0000   -0.0000    0.0000   -0.0000   -0.0000   -0.0000    0.0108    0.0000
      126 V      7g3-      -0.0000    0.0000    0.0000   -0.0000   -0.0000    0.0000   -0.0000   -0.0000    0.0097    0.0000
      127 V      8g3-       0.0000   -0.0000   -0.0000    0.0000   -0.0000    0.0000   -0.0000    0.0000    0.0066    0.0000
      128 V      5g2-      -0.0000   -0.0000    0.0019   -0.0000    0.0061   -0.0000   -0.0000    0.0000   -0.0000   -0.0000
      129 V      6g2-      -0.0000   -0.0000    0.0005   -0.0000    0.0033   -0.0000   -0.0000    0.0000   -0.0000   -0.0000
      130 V      7g2-       0.0000    0.0000   -0.0013    0.0000   -0.0019    0.0000    0.0000    0.0000   -0.0000   -0.0000
      131 V      8g2-       0.0000    0.0000   -0.0011    0.0000   -0.0016    0.0000    0.0000   -0.0000   -0.0000   -0.0000
      132 V      5g1-       0.0000    0.0000   -0.0034    0.0000   -0.0002    0.0000   -0.0000   -0.0000    0.0000    0.0000
      133 V      6g1-       0.0000    0.0000   -0.0024    0.0000   -0.0006    0.0000    0.0000   -0.0000    0.0000    0.0000
      134 V      7g1-       0.0000   -0.0000    0.0007   -0.0000   -0.0005    0.0000    0.0000    0.0000    0.0000    0.0000
      135 V      8g1-       0.0000   -0.0000    0.0010   -0.0000   -0.0012    0.0000    0.0000    0.0000    0.0000    0.0000
      136 V      5g0        0.0000    0.0094    0.0000    0.0000    0.0000   -0.0000    0.0130    0.0073   -0.0000    0.0002
      137 V      6g0        0.0000    0.0183    0.0000    0.0000    0.0000   -0.0000    0.0101    0.0064    0.0000   -0.0008
      138 V      7g0        0.0000    0.0106    0.0000    0.0000    0.0000    0.0000   -0.0008    0.0000    0.0000   -0.0014
      139 V      8g0        0.0000    0.0032    0.0000    0.0000    0.0000    0.0000   -0.0020   -0.0013    0.0000   -0.0012
      140 V      5g1+      -0.0054    0.0000    0.0000    0.0034   -0.0000   -0.0002   -0.0000   -0.0000   -0.0000   -0.0000
      141 V      6g1+      -0.0105    0.0000    0.0000    0.0024   -0.0000   -0.0006    0.0000   -0.0000   -0.0000   -0.0000
      142 V      7g1+      -0.0057    0.0000   -0.0000   -0.0007   -0.0000   -0.0005    0.0000    0.0000   -0.0000   -0.0000
      143 V      8g1+      -0.0017    0.0000   -0.0000   -0.0010   -0.0000   -0.0012   -0.0000    0.0000   -0.0000   -0.0000
      144 V      5g2+      -0.0033   -0.0000    0.0000    0.0019   -0.0000   -0.0061   -0.0000    0.0000   -0.0000   -0.0000
      145 V      6g2+      -0.0023    0.0000    0.0000    0.0005   -0.0000   -0.0033   -0.0000    0.0000   -0.0000   -0.0000
      146 V      7g2+       0.0007    0.0000   -0.0000   -0.0013    0.0000    0.0019    0.0000   -0.0000   -0.0000   -0.0000
      147 V      8g2+       0.0008    0.0000   -0.0000   -0.0011    0.0000    0.0016    0.0000   -0.0000   -0.0000   -0.0000
      148 V      5g3+       0.0000    0.0058    0.0000    0.0000    0.0000   -0.0000    0.0052   -0.0064   -0.0000    0.0048
      149 V      6g3+       0.0000    0.0103    0.0000    0.0000    0.0000   -0.0000    0.0057   -0.0090   -0.0000    0.0109
      150 V      7g3+       0.0000    0.0051    0.0000    0.0000    0.0000   -0.0000    0.0010   -0.0019   -0.0000    0.0093
      151 V      8g3+       0.0000    0.0009    0.0000    0.0000   -0.0000    0.0000   -0.0005    0.0020   -0.0000    0.0061
      152 V      5g4+      -0.0090    0.0000    0.0000    0.0027   -0.0000   -0.0065   -0.0000   -0.0000   -0.0000    0.0000
      153 V      6g4+      -0.0125    0.0000    0.0000    0.0040   -0.0000   -0.0040   -0.0000   -0.0000   -0.0000    0.0000
      154 V      7g4+      -0.0051    0.0000    0.0000    0.0018    0.0000    0.0015    0.0000   -0.0000   -0.0000    0.0000
      155 V      8g4+      -0.0011   -0.0000    0.0000    0.0006    0.0000    0.0011    0.0000    0.0000    0.0000    0.0000
      156 V      6h5-      -0.0000   -0.0000    0.0029   -0.0000    0.0038   -0.0000   -0.0000   -0.0000   -0.0000   -0.0000
      157 V      7h5-      -0.0000   -0.0000    0.0017   -0.0000    0.0028   -0.0000   -0.0000    0.0000   -0.0000   -0.0000
      158 V      6h4-      -0.0000   -0.0000    0.0014   -0.0000    0.0066   -0.0000   -0.0000    0.0000   -0.0000    0.0000
[...]
      ****************************************************************************************************


++ Dipole transition strengths (SO states):
   ----------------------------------------
    for osc. strength at least    1.0000000000000001E-005

      From   To        Osc. strength     Einstein coefficients Ax, Ay, Az (sec-1)    Total A (sec-1)
     -----------------------------------------------------------------------------------------------
         1    7       7.90035145E-03  6.63176726E-06  1.09454394E+06  2.88359751E-05  1.09454394E+06
         1    9       9.67796932E-03  1.09442119E+06  6.63048189E-06  2.46402117E+05  1.34082330E+06
         1   11       4.18966865E-03  1.38411467E+06  6.10197624E-05  2.77078548E-03  1.38411468E+06
         1   15       4.51800003E-03  4.30884075E-05  1.85628866E+06  5.72778480E-05  1.85628866E+06
         1   17       6.46461652E-03  1.85606575E+06  4.30864657E-05  8.00021254E+05  2.65608700E+06
         2    8       7.90035145E-03  6.63176726E-06  1.09454394E+06  2.88359751E-05  1.09454394E+06
         2   10       9.67796932E-03  1.09442119E+06  6.63048189E-06  2.46402117E+05  1.34082330E+06
         2   12       4.18966865E-03  1.38411467E+06  6.10197624E-05  2.77078548E-03  1.38411468E+06
         2   16       4.51800003E-03  4.30884075E-05  1.85628866E+06  5.72778480E-05  1.85628866E+06
         2   18       6.46461652E-03  1.85606575E+06  4.30864657E-05  8.00021254E+05  2.65608700E+06
         3    7       9.67840870E-03  1.09448081E+06  6.63208401E-06  2.46401437E+05  1.34088225E+06
         3    9       7.89991022E-03  6.63002144E-06  1.09448385E+06  2.88360677E-05  1.09448385E+06
         3   11       4.18969327E-03  6.10196929E-05  1.38412259E+06  1.29897313E-13  1.38412259E+06
         3   15       6.46489443E-03  1.85617506E+06  4.30917804E-05  8.00024239E+05  2.65619929E+06
         3   17       4.51770763E-03  4.30841272E-05  1.85616932E+06  5.72778099E-05  1.85616932E+06
         4    8       9.67840870E-03  1.09448081E+06  6.63208401E-06  2.46401437E+05  1.34088225E+06
         4   10       7.89991022E-03  6.63002144E-06  1.09448385E+06  2.88360677E-05  1.09448385E+06
         4   12       4.18969327E-03  6.10196929E-05  1.38412259E+06  1.29897313E-13  1.38412259E+06
         4   16       6.46489443E-03  1.85617506E+06  4.30917804E-05  8.00024239E+05  2.65619929E+06
         4   18       4.51770763E-03  4.30841272E-05  1.85616932E+06  5.72778099E-05  1.85616932E+06
         5    7       1.90621430E-01  4.26561478E-04  2.44335411E+07  3.61157268E-15  2.44335411E+07
         5    9       1.90622529E-01  2.44337123E+07  4.26559495E-04  3.56355586E-06  2.44337123E+07
         5   11       2.50594344E-01  2.71852121E-06  9.50683314E-16  7.87487626E+07  7.87487626E+07
         5   13       7.03373464E-04  3.91202904E-05  7.96359088E-16  2.26175392E+05  2.26175392E+05
         5   15       1.21472291E-01  1.58371773E-04  4.77227649E+07  4.77048700E-14  4.77227649E+07
         5   17       1.21472611E-01  4.77229185E+07  1.58372422E-04  1.66380246E-04  4.77229185E+07
         6    8       1.90621430E-01  4.26561478E-04  2.44335411E+07  3.61157268E-15  2.44335411E+07
         6   10       1.90622529E-01  2.44337123E+07  4.26559495E-04  3.56355586E-06  2.44337123E+07
         6   12       2.50594344E-01  2.71852121E-06  9.50683314E-16  7.87487626E+07  7.87487626E+07
         6   14       7.03373464E-04  3.91202904E-05  7.96359088E-16  2.26175392E+05  2.26175392E+05
         6   16       1.21472291E-01  1.58371773E-04  4.77227649E+07  4.77048700E-14  4.77227649E+07
         6   18       1.21472611E-01  4.77229185E+07  1.58372422E-04  1.66380246E-04  4.77229185E+07
         7   11       7.09479457E-05  5.08227079E-08  2.91098162E+03  3.13647652E-18  2.91098162E+03
         7   13       9.07468182E-03  6.92291454E-06  3.96546076E+05  9.02634817E-16  3.96546076E+05
         7   15       1.25834234E-03  7.39680585E+04  2.66280673E-06  1.69332576E+04  9.09013160E+04
         7   17       1.02394884E-03  2.66285504E-06  7.39690794E+04  9.40457273E-08  7.39690794E+04
         8   12       7.09479457E-05  5.08227079E-08  2.91098162E+03  3.13647652E-18  2.91098162E+03
         8   14       9.07468182E-03  6.92291454E-06  3.96546076E+05  9.02634817E-16  3.96546076E+05
         8   16       1.25834234E-03  7.39680585E+04  2.66280673E-06  1.69332576E+04  9.09013160E+04
         8   18       1.02394884E-03  2.66285504E-06  7.39690794E+04  9.40457273E-08  7.39690794E+04
         9   11       7.09458793E-05  2.91089044E+03  5.08147265E-08  1.18521248E-06  2.91089044E+03
         9   13       9.07468209E-03  3.96545244E+05  6.92282034E-06  1.80283909E-08  3.96545244E+05
         9   15       1.02394893E-03  2.66283340E-06  7.39688623E+04  9.40335985E-08  7.39688623E+04
         9   17       1.25834680E-03  7.39678808E+04  2.66283996E-06  1.69337312E+04  9.09016120E+04
        10   12       7.09458793E-05  2.91089044E+03  5.08147265E-08  1.18521248E-06  2.91089044E+03
        10   14       9.07468209E-03  3.96545244E+05  6.92282034E-06  1.80283909E-08  3.96545244E+05
        10   16       1.02394893E-03  2.66283340E-06  7.39688623E+04  9.40335985E-08  7.39688623E+04
        10   18       1.25834680E-03  7.39678808E+04  2.66283996E-06  1.69337312E+04  9.09016120E+04
        11   13       5.39610721E-03  7.61581092E-11  2.66107894E-21  2.26769112E+02  2.26769112E+02
        11   15       6.59310971E-03  9.59293739E-08  2.89068553E+04  9.27585962E-18  2.89068553E+04
        11   17       6.59314829E-03  2.89071843E+04  9.59310002E-08  6.28934265E-08  2.89071843E+04
        12   14       5.39610721E-03  7.61581092E-11  2.66107894E-21  2.26769112E+02  2.26769112E+02
        12   16       6.59310971E-03  9.59293739E-08  2.89068553E+04  9.27585962E-18  2.89068553E+04
        12   18       6.59314829E-03  2.89071843E+04  9.59310002E-08  6.28934265E-08  2.89071843E+04
        13   15       1.07458501E-02  1.27235875E-07  3.83404952E+04  7.03940595E-17  3.83404952E+04
        13   17       1.07458839E-02  3.83408505E+04  1.27237223E-07  1.72906679E-07  3.83408505E+04
        14   16       1.07458501E-02  1.27235875E-07  3.83404952E+04  7.03940595E-17  3.83404952E+04
        14   18       1.07458839E-02  3.83408505E+04  1.27237223E-07  1.72906679E-07  3.83408505E+04
     -----------------------------------------------------------------------------------------------
--

++ Velocity transition strengths (SO states):
   ------------------------------------------
    for osc. strength at least    1.0000000000000001E-005

      From   To        Osc. strength     Einstein coefficients Ax, Ay, Az (sec-1)    Total A (sec-1)
     -----------------------------------------------------------------------------------------------
         1    5       1.41004949E-04  2.84104990E+01  1.25242893E-09  1.38027095E-08  2.84104990E+01
         1    7       4.34892028E-03  3.65066086E-06  6.02517613E+05  1.69437852E-05  6.02517613E+05
         1    9       5.39329685E-03  6.02426838E+05  3.64971880E-06  1.44783967E+05  7.47210805E+05
         1   11       3.38948266E-03  1.11976612E+06  4.93660406E-05  2.76810266E-03  1.11976612E+06
         1   15       4.64301267E-03  4.42808450E-05  1.90765862E+06  5.18612208E-05  1.90765862E+06
         1   17       6.40548377E-03  1.90743723E+06  4.42789685E-05  7.24363329E+05  2.63180055E+06
         2    6       1.41004949E-04  2.84104990E+01  1.25242893E-09  1.38027095E-08  2.84104990E+01
         2    8       4.34892028E-03  3.65066086E-06  6.02517613E+05  1.69437852E-05  6.02517613E+05
         2   10       5.39329685E-03  6.02426838E+05  3.64971880E-06  1.44783967E+05  7.47210805E+05
         2   12       3.38948266E-03  1.11976612E+06  4.93660406E-05  2.76810266E-03  1.11976612E+06
         2   16       4.64301267E-03  4.42808450E-05  1.90765862E+06  5.18612208E-05  1.90765862E+06
         2   18       6.40548377E-03  1.90743723E+06  4.42789685E-05  7.24363329E+05  2.63180055E+06
         3    5       1.41003494E-04  1.25258231E-09  2.84100254E+01  6.22160376E-18  2.84100254E+01
         3    7       5.39361978E-03  6.02471130E+05  3.65088526E-06  1.44783341E+05  7.47254471E+05
         3    9       4.34859636E-03  3.64939972E-06  6.02473310E+05  1.69438056E-05  6.02473310E+05
         3   11       3.38950395E-03  4.93654618E-05  1.11977298E+06  1.29329226E-13  1.11977298E+06
         3   15       6.40575850E-03  1.90754536E+06  4.42842760E-05  7.24366197E+05  2.63191156E+06
         3   17       4.64272243E-03  4.42765183E-05  1.90754019E+06  5.18610672E-05  1.90754019E+06
         4    6       1.41003494E-04  1.25258231E-09  2.84100254E+01  6.22160376E-18  2.84100254E+01
         4    8       5.39361978E-03  6.02471130E+05  3.65088526E-06  1.44783341E+05  7.47254471E+05
         4   10       4.34859636E-03  3.64939972E-06  6.02473310E+05  1.69438056E-05  6.02473310E+05
         4   12       3.38950395E-03  4.93654618E-05  1.11977298E+06  1.29329226E-13  1.11977298E+06
         4   16       6.40575850E-03  1.90754536E+06  4.42842760E-05  7.24366197E+05  2.63191156E+06
         4   18       4.64272243E-03  4.42765183E-05  1.90754019E+06  5.18610672E-05  1.90754019E+06
         5    7       1.90265877E-01  4.25767492E-04  2.43880517E+07  1.01597908E-14  2.43880517E+07
         5    9       1.90266728E-01  2.43881911E+07  4.25764678E-04  1.65719608E-06  2.43881911E+07
         5   11       2.50731674E-01  1.15188757E-06  8.97236993E-16  7.87921923E+07  7.87921923E+07
         5   13       8.92333698E-04  3.41512196E-05  3.39076460E-17  2.86938072E+05  2.86938072E+05
         5   15       1.16932182E-01  1.52453351E-04  4.59392543E+07  3.86379917E-14  4.59392543E+07
         5   17       1.16932512E-01  4.59394106E+07  1.52453308E-04  1.55575889E-04  4.59394106E+07
         6    8       1.90265877E-01  4.25767492E-04  2.43880517E+07  1.01597908E-14  2.43880517E+07
         6   10       1.90266728E-01  2.43881911E+07  4.25764678E-04  1.65719608E-06  2.43881911E+07
         6   12       2.50731674E-01  1.15188757E-06  8.97236993E-16  7.87921923E+07  7.87921923E+07
         6   14       8.92333698E-04  3.41512196E-05  3.39076460E-17  2.86938072E+05  2.86938072E+05
         6   16       1.16932182E-01  1.52453351E-04  4.59392543E+07  3.86379917E-14  4.59392543E+07
         6   18       1.16932512E-01  4.59394106E+07  1.52453308E-04  1.55575889E-04  4.59394106E+07
         7   11       3.62949616E-04  2.59981434E-07  1.48918101E+04  3.73999491E-18  1.48918101E+04
         7   13       6.54504600E-03  4.99308743E-06  2.86006869E+05  1.15445217E-20  2.86006869E+05
         7   15       1.15541837E-03  6.83819923E+04  2.46170851E-06  1.50844958E+04  8.34664881E+04
         7   17       9.46613911E-04  2.46174569E-06  6.83827160E+04  8.37738262E-08  6.83827160E+04
         8   12       3.62949616E-04  2.59981434E-07  1.48918101E+04  3.73999491E-18  1.48918101E+04
         8   14       6.54504600E-03  4.99308743E-06  2.86006869E+05  1.15445217E-20  2.86006869E+05
         8   16       1.15541837E-03  6.83819923E+04  2.46170851E-06  1.50844958E+04  8.34664881E+04
         8   18       9.46613911E-04  2.46174569E-06  6.83827160E+04  8.37738262E-08  6.83827160E+04
         9   11       3.62945916E-04  1.48916256E+04  2.59975701E-07  1.30154482E-06  1.48916256E+04
         9   13       6.54504551E-03  2.86006238E+05  4.99308528E-06  9.08524926E-09  2.86006239E+05
         9   15       9.46617729E-04  2.46173681E-06  6.83827855E+04  8.37691773E-08  6.83827855E+04
         9   17       1.15542162E-03  6.83818388E+04  2.46174042E-06  1.50848593E+04  8.34666981E+04
        10   12       3.62945916E-04  1.48916256E+04  2.59975701E-07  1.30154482E-06  1.48916256E+04
        10   14       6.54504551E-03  2.86006238E+05  4.99308528E-06  9.08524926E-09  2.86006239E+05
        10   16       9.46617729E-04  2.46173681E-06  6.83827855E+04  8.37691773E-08  6.83827855E+04
        10   18       1.15542162E-03  6.83818388E+04  2.46174042E-06  1.50848593E+04  8.34666981E+04
        11   13       1.20288946E-03  1.31025015E-09  5.41903043E-18  5.05510942E+01  5.05510942E+01
        11   15       1.24194971E-02  1.80705206E-07  5.44522797E+04  7.62472241E-19  5.44522797E+04
        11   17       1.24195281E-02  5.44527167E+04  1.80704135E-07  8.84221791E-10  5.44527167E+04
        12   14       1.20288946E-03  1.31025015E-09  5.41903043E-18  5.05510942E+01  5.05510942E+01
        12   16       1.24194971E-02  1.80705206E-07  5.44522797E+04  7.62472241E-19  5.44522797E+04
        12   18       1.24195281E-02  5.44527167E+04  1.80704135E-07  8.84221791E-10  5.44527167E+04
        13   15       3.67194807E-03  4.34779979E-08  1.31013177E+04  1.46383378E-19  1.31013177E+04
        13   17       3.67196262E-03  1.31014499E+04  4.34784895E-08  2.42102932E-07  1.31014499E+04
        14   16       3.67194807E-03  4.34779979E-08  1.31013177E+04  1.46383378E-19  1.31013177E+04
        14   18       3.67196262E-03  1.31014499E+04  4.34784895E-08  2.42102932E-07  1.31014499E+04
     -----------------------------------------------------------------------------------------------
--

++ Length and velocity gauge comparison (SO states):

 --------------------------------------------------
 A comparison between the dipole oscillator strengths in 
 length and velocity gauge will be performed

 All dipole oscillator differences above the tolerance of   0.10000000000000001       will be printed 

 Due to basis set deficiency these oscillator may be problematic 

 The tolerance is defined as ABS(1-O_l/O_v) 
 O_l : dipole oscillator strength in length gauge
 O_p : dipole oscillator strength in velocity gauge
 --------------------------------------------------

  Problematic transitions have been found

      From   To       Difference (%) Osc. st. (len.) Osc. st. (vel.)
     ---------------------------------------------------------------
         1    5      --------------- below threshold  1.41004949E-04
         1    7            81.662365  7.90035145E-03  4.34892028E-03
         1    9            79.444403  9.67796932E-03  5.39329685E-03
         1   11            23.607909  4.18966865E-03  3.38948266E-03
         2    6      --------------- below threshold  1.41004949E-04
         2    8            81.662365  7.90035145E-03  4.34892028E-03
         2   10            79.444403  9.67796932E-03  5.39329685E-03
         2   12            23.607909  4.18966865E-03  3.38948266E-03
         3    5      --------------- below threshold  1.41003494E-04
         3    7            79.441805  9.67840870E-03  5.39361978E-03
         3    9            81.665750  7.89991022E-03  4.34859636E-03
         3   11            23.607859  4.18969327E-03  3.38950395E-03
         4    6      --------------- below threshold  1.41003494E-04
         4    8            79.441805  9.67840870E-03  5.39361978E-03
         4   10            81.665750  7.89991022E-03  4.34859636E-03
         4   12            23.607859  4.18969327E-03  3.38950395E-03
         5   13            21.175961  7.03373464E-04  8.92333698E-04
         6   14            21.175961  7.03373464E-04  8.92333698E-04
         7   11            80.452398  7.09479457E-05  3.62949616E-04
         7   13            38.649626  9.07468182E-03  6.54504600E-03
         8   12            80.452398  7.09479457E-05  3.62949616E-04
         8   14            38.649626  9.07468182E-03  6.54504600E-03
         9   11            80.452768  7.09458793E-05  3.62945916E-04
         9   13            38.649641  9.07468209E-03  6.54504551E-03
        10   12            80.452768  7.09458793E-05  3.62945916E-04
        10   14            38.649641  9.07468209E-03  6.54504551E-03
        11   13           348.595435  5.39610721E-03  1.20288946E-03
        11   15            46.913231  6.59310971E-03  1.24194971E-02
        11   17            46.913053  6.59314829E-03  1.24195281E-02
        12   14           348.595435  5.39610721E-03  1.20288946E-03
        12   16            46.913231  6.59310971E-03  1.24194971E-02
        12   18            46.913053  6.59314829E-03  1.24195281E-02
        13   15           192.647116  1.07458501E-02  3.67194807E-03
        13   17           192.646875  1.07458839E-02  3.67196262E-03
        14   16           192.647116  1.07458501E-02  3.67194807E-03
        14   18           192.646875  1.07458839E-02  3.67196262E-03
     ---------------------------------------------------------------

 Number of problematic transitions =                    36

--

 Electric-dipole - electric-octupole not included
++ I/O STATISTICS
 
  I. General I/O information
  - - - - - - - - - - - - - - - - - - - - - - - - - - - - - - - - - - - - - - - - - - -
  Unit  Name          Flsize      Write/Read            MBytes           Write/Read
                      (MBytes)       Calls              In/Out           Time, sec.
  - - - - - - - - - - - - - - - - - - - - - - - - - - - - - - - - - - - - - - - - - - -
   1  SCRATCH           0.00 .       9/      45 .      0.0/      0.0 .       0/       0
   2  ANNI              0.00 .       0/       0 .      0.0/      0.0 .       0/       0
   3  RUNFILE          14.79 .     322/   10517 .      2.3/     76.3 .       0/       0
   4  ONEINT            5.45 .       0/   23543 .      0.0/   3734.6 .       0/       0
   5  JOBIPH            6.30 .       0/      92 .      0.0/      0.8 .       0/       0
   6  ORDINT          473.53 .       1/    3789 .      0.0/    947.0 .       0/       0
  - - - - - - - - - - - - - - - - - - - - - - - - - - - - - - - - - - - - - - - - - - -
   *  TOTAL           500.08 .     332/   37986 .      2.3/   4758.7 .       0/       0
  - - - - - - - - - - - - - - - - - - - - - - - - - - - - - - - - - - - - - - - - - - -
 
  II. I/O Access Patterns
  - - - - - - - - - - - - - - - - - - - -
  Unit  Name               % of random
                         Write/Read calls
  - - - - - - - - - - - - - - - - - - - -
   1  SCRATCH             88.9/ 100.0
   2  ANNI                 0.0/   0.0
   3  RUNFILE             28.6/  10.8
   4  ONEINT               0.0/  16.4
   5  JOBIPH               0.0/  76.1
   6  ORDINT             100.0/   0.1
  - - - - - - - - - - - - - - - - - - - -
--
--- Stop Module: rassi at Fri Jan 10 02:21:41 2025 /rc=_RC_ALL_IS_WELL_ ---
*** files: xmldump
    saved to directory /home4/s4752295/Internship/Initial_simulations/Point_charge_model/1_electron/active_space_9_non_rel/V/varying_bond_length
--- Module rassi spent 3 seconds ---

.##################.
.# Happy landing! #.
.##################.

    Timing: Wall=70.57 User=52.95 System=11.71

###############################################################################
Hbrk Cluster
Job 14556677 for user s4752295
Finished at: Fri Jan 10 02:21:41 CET 2025

Job details:
============

Job ID                         : 14556677
Name                           : V_no_c_light
User                           : s4752295
Partition                      : regularmedium
Nodes                          : node101
Number of Nodes                : 1
Cores                          : 1
Number of Tasks                : 1
State                          : COMPLETED  
Submit                         : 2025-01-10T02:20:25
Start                          : 2025-01-10T02:20:26
End                            : 2025-01-10T02:21:41
Reserved walltime              : 15:00:00
Used walltime                  : 00:01:15
Used CPU time                  : 00:01:06 (Efficiency: 87.53%)
% User (Computation)           : 81.80%
% System (I/O)                 : 18.20%
Total memory reserved          : 25000M
Maximum memory used            : 1.90G

Acknowledgements:
=================

Please see this page for information about acknowledging Hbrk in your publications:

https://wiki.hpc.rug.nl/habrok/introduction/scientific_output

################################################################################
