   This run of MOLCAS is using the pymolcas driver

                             OPE
                             OPE          NMOL  CASOP  ENMOLC A   SO
                 OPE        NMOLC        AS  OP EN  MO LC     AS  OP
                OPENM       OL CA        SO  PE NM  OL CA     SOP EN
                OP EN      MO   LC       AS  OP ENMOL  CASO   PENMOL
                OP  EN     MO   LC       AS  OP EN     MO     LC ASO
               OP   E  NMOL  C  AS       OP  EN MO     LC     AS  OP
               OP  E   NMO   LC AS        OPEN  MO     LCASOP EN   M
               O  PEN   MO  LCA  SO
            OPE   NMO   L   CAS    OP
        OPENMOL  CASOP     ENMOL   CASOPE
     OPENMOLCA   SOPENMOLCASOPEN   MOLCASOPE
    OPENMOLCAS   OP           EN   MOL    CAS
    OPENMOLCAS       OP  ENM        O     LCA
    OPENMOLCAS    OPEN  MOLCASO     P  E  NMO
    OPENMOLCAS     OP               E  N  MOL
    OPENMOLCA   SO           PENM   O  L  CAS    OPEN    MO    LCAS
    OPENMOLCA   SOP           ENM   O  L  CAS   OP  EN  MOLC  AS   O
    OPENMOLCA   SOPE           NM      O  LCA   S      OP  EN MO
    OPENMOLC                AS         O  PEN   M      OL  CA  SOPE
    OPENMO        LCASOPE  NMOL        C  ASO   P      ENMOLC     AS
    OPE     NMO      LCA  SO     P     E   NM   OL  CA SO  PE N   MO
          OPENMOLCA            SOPE   NMO        LCAS  O    P  ENMO
     OPENMOLCASOPENMOLCASOPENMOLCASOPENMOLCA
        OPENMOLCASOPENMOLCASOPENMOLCASOPE
            OPENMOLCASOPENMOLCASOPENM
               OPENMOLCASOPENMOLCA        version: o91e1abe7de707b ?
                   OPENMOLCASO
                       OPE                tag:

 OpenMolcas is free software; you can redistribute it and/or modify it
 under the terms of the GNU Lesser General Public License version 2.1.
 OpenMolcas is distributed in the hope that it will be useful, but it
 is provided "as is" and without any express or implied warranties.
 For more details see the full text of the license in the file
 LICENSE or in <http://www.gnu.org/licenses/>.

                 Copyright (C) The OpenMolcas Authors
           For the author list and the recommended citation,
                   consult the file CONTRIBUTORS.md

           *************************************************
           * pymolcas version py2.10                       *
           *   build 3068ae8b88c9345ec6cfef6fef7f1169      *
           *   (after the EMIL interpreter by V. Veryazov) *
           *************************************************

configuration info
------------------
Host name: login1 (Linux)
C Compiler ID: GNU
C flags: -std=gnu99
Fortran Compiler ID: GNU
Fortran flags: -fno-aggressive-loop-optimizations -cpp -fdefault-integer-8 -fmax-stack-var-size=1048576
Definitions: _MOLCAS_;_I8_;_LINUX_;_MKL_
Parallel: OFF (GA=OFF)


   -----------------------------------------------------------------------------------------------------------------------------------
  |
  |           Project: chromium_so_cf
  |    Submitted from: /home4/s4752295/Internship/Initial_simulations/Point_charge_model/1_electron/Madelung_charges_9_active_space/Cr
  |      Scratch area: /tmp/chromium_so_cf
  |   Save outputs to: /home4/s4752295/Internship/Initial_simulations/Point_charge_model/1_electron/Madelung_charges_9_active_space/Cr
  |            Molcas: /home4/s4752295/Internship/Molcas/recomp_try/OpenMolcas-master/build
  |
  | Scratch area is empty
  |
  |    MOLCAS_DRIVER = /home4/s4752295/Internship/Molcas/bin/pymolcas
  |    MOLCAS_NPROCS = 1
  |    MOLCAS_SOURCE = /home4/s4752295/Internship/Molcas/recomp_try/OpenMolcas-master
  | MOLCAS_STRUCTURE = 0
  |
   -----------------------------------------------------------------------------------------------------------------------------------

++ ---------   Input file   ---------

&SEWARD
AMFi

CLIG
$R

Basis Set
Cr.ANO-rcc.Roos.21s15p10d6f4g2h.10s10p8d6f4g2h.
Spherical d
Cr            -1.0658140267135469e-14   -3.5527134223784897e-15 0.008753588724385739
End of Basis

Xfield

414
-5.603081511999999,-2.1559999999999997,1.2447666        -0.625931
-5.603081511999999,-0.0,-2.4895346      -0.625931
-5.603081511999999,2.1559999999999997,1.2447666 -0.625931
-5.593484498,0.0,0.0    1.892092
3.722851566,-2.1559999999999997,-1.2447666      2.515516
3.722851566,0.0,2.4895346       2.515516
3.722851566,2.1559999999999997,-1.2447666       2.515516
4.9881835919999995,-4.311999999999999,0.0       0.004632
4.9881835919999995,-2.1559999999999997,-3.7343012       0.004632
4.9881835919999995,-2.1559999999999997,3.7343012        0.004632
4.9881835919999995,2.1559999999999997,-3.7343012        0.004632
4.9881835919999995,2.1559999999999997,3.7343012 0.004632
4.9881835919999995,4.311999999999999,0.0        0.004632
5.7808105460000005,-2.1559999999999997,1.2447666        -2.519484
5.7808105460000005,-0.0,-2.4895346      -2.519484
5.7808105460000005,2.1559999999999997,1.2447666 -2.519484
-4.106347658,-0.0,-0.0  -3.142907
-6.965136724,-4.311999999999999,-2.4895346      -0.625931
-6.965136724,0.0,4.9790678      -0.625931
-6.965136724,4.311999999999999,-2.4895346       -0.625931
-9.253124999999999,-4.311999999999999,0.0       1.892092
-9.253124999999999,-2.1559999999999997,-3.7343012       1.892092
-9.253124999999999,-2.1559999999999997,3.7343012        1.892092
-9.253124999999999,2.1559999999999997,-3.7343012        1.892092
-9.253124999999999,2.1559999999999997,3.7343012 1.892092
-9.253124999999999,4.311999999999999,0.0        1.892092
35.240624999999994,-4.311999999999999,2.4895346 2.515516
35.240624999999994,-0.0,-4.9790678      2.515516
35.240624999999994,4.311999999999999,2.4895346  2.515516
5.094140631999999,-4.311999999999999,-2.4895346 -2.519484
5.094140631999999,0.0,4.9790678 -2.519484
5.094140631999999,4.311999999999999,-2.4895346  -2.519484
-4.525390632,-4.311999999999999,-0.0    -3.142907
-4.525390632,-2.1559999999999997,-3.7343012     -3.142907
-4.525390632,-2.1559999999999997,3.7343012      -3.142907
-4.525390632,2.1559999999999997,-3.7343012      -3.142907
-4.525390632,2.1559999999999997,3.7343012       -3.142907
-4.525390632,4.311999999999999,-0.0     -3.142907
-13.3328125,-4.311999999999999,4.9790678        -0.625931
-13.3328125,4.311999999999999,4.9790678 -0.625931
-13.3328125,-6.468,1.2447666    -0.625931
-13.3328125,6.468,1.2447666     -0.625931
-13.3328125,-2.1559999999999997,-6.2238358      -0.625931
-13.3328125,2.1559999999999997,-6.2238358       -0.625931
8.4109375,-2.1559999999999997,-1.2447666        4.409069
8.4109375,2.1559999999999997,-1.2447666 4.409069
8.4109375,0.0,2.4895346 4.409069
-245.35,-0.0,-0.0       -5.030367
-245.35,0.0,0.0 5.039632
18.924609368,-4.311999999999999,-4.9790678      2.515516
18.924609368,4.311999999999999,-4.9790678       2.515516
18.924609368,-6.468,-1.2447666  2.515516
18.924609368,6.468,-1.2447666   2.515516
18.924609368,-2.1559999999999997,6.2238358      2.515516
18.924609368,2.1559999999999997,6.2238358       2.515516
26.654687499999998,-6.468,-3.7343012    0.004632
26.654687499999998,-6.468,3.7343012     0.004632
26.654687499999998,6.468,-3.7343012     0.004632
26.654687499999998,6.468,3.7343012      0.004632
26.654687499999998,-0.0,-7.4686024      0.004632
26.654687499999998,0.0,7.4686024        0.004632
67.30937499999999,-4.311999999999999,4.9790678  -2.519484
67.30937499999999,4.311999999999999,4.9790678   -2.519484
67.30937499999999,-6.468,1.2447666      -2.519484
67.30937499999999,6.468,1.2447666       -2.519484
67.30937499999999,-2.1559999999999997,-6.2238358        -2.519484
67.30937499999999,2.1559999999999997,-6.2238358 -2.519484
-204.225,-6.468,-3.7343012      1.892092
-204.225,-6.468,3.7343012       1.892092
-204.225,6.468,-3.7343012       1.892092
-204.225,6.468,3.7343012        1.892092
-204.225,-0.0,-7.4686024        1.892092
-204.225,0.0,7.4686024  1.892092
-164.85,-4.311999999999999,2.4895346    4.409069
-164.85,-0.0,-4.9790678 4.409069
-164.85,4.311999999999999,2.4895346     4.409069
-124.6,-4.311999999999999,-0.0  -5.030367
-124.6,-2.1559999999999997,-3.7343012   -5.030367
-124.6,-2.1559999999999997,3.7343012    -5.030367
-124.6,2.1559999999999997,-3.7343012    -5.030367
-124.6,-4.311999999999999,0.0   5.039632
-124.6,4.311999999999999,-0.0   -5.030367
-124.6,2.1559999999999997,3.7343012     -5.030367
-124.6,-2.1559999999999997,-3.7343012   5.039632
-124.6,-2.1559999999999997,3.7343012    5.039632
-124.6,2.1559999999999997,-3.7343012    5.039632
-124.6,4.311999999999999,0.0    5.039632
-124.6,2.1559999999999997,3.7343012     5.039632
-65.27499999999999,-2.1559999999999997,-1.2447666       -5.660931
-65.27499999999999,0.0,2.4895346        -5.660931
-65.27499999999999,2.1559999999999997,-1.2447666        -5.660931
1.2359375,-8.6239986,0.0        0.004632
1.2359375,-4.311999999999999,-7.4686024 0.004632
1.2359375,-4.311999999999999,7.4686024  0.004632
1.2359375,4.311999999999999,-7.4686024  0.004632
1.2359375,8.6239986,0.0 0.004632
1.2359375,4.311999999999999,7.4686024   0.004632
95.1125,-6.468,3.7343012        -3.142907
95.1125,-6.468,-3.7343012       -3.142907
95.1125,6.468,-3.7343012        -3.142907
95.1125,6.468,3.7343012 -3.142907
95.1125,-0.0,-7.4686024 -3.142907
95.1125,0.0,7.4686024   -3.142907
120.925,-8.6239986,-2.4895346   -0.625931
120.925,-6.468,-6.2238358       -0.625931
120.925,-2.1559999999999997,8.713369    -0.625931
120.925,6.468,-6.2238358        -0.625931
120.925,8.6239986,-2.4895346    -0.625931
120.925,2.1559999999999997,8.713369     -0.625931
1.676171868,-8.6239986,0.0      1.892092
1.676171868,-4.311999999999999,-7.4686024       1.892092
1.676171868,-4.311999999999999,7.4686024        1.892092
1.676171868,4.311999999999999,-7.4686024        1.892092
1.676171868,8.6239986,0.0       1.892092
1.676171868,4.311999999999999,7.4686024 1.892092
47.381249999999994,-4.311999999999999,-4.9790678        4.409069
47.381249999999994,4.311999999999999,-4.9790678 4.409069
47.381249999999994,-6.468,-1.2447666    4.409069
47.381249999999994,6.468,-1.2447666     4.409069
47.381249999999994,-2.1559999999999997,6.2238358        4.409069
47.381249999999994,2.1559999999999997,6.2238358 4.409069
227.36874999999998,-4.311999999999999,2.4895346 -5.660931
227.36874999999998,-0.0,-4.9790678      -5.660931
227.36874999999998,4.311999999999999,2.4895346  -5.660931
0.48124999999999996,-8.6239986,2.4895346        2.515516
0.48124999999999996,-2.1559999999999997,-8.713369       2.515516
0.48124999999999996,-6.468,6.2238358    2.515516
0.48124999999999996,2.1559999999999997,-8.713369        2.515516
0.48124999999999996,8.6239986,2.4895346 2.515516
0.48124999999999996,6.468,6.2238358     2.515516
-131.86249999999998,-8.6239986,-2.4895346       -2.519484
-131.86249999999998,-6.468,-6.2238358   -2.519484
-131.86249999999998,-2.1559999999999997,8.713369        -2.519484
-131.86249999999998,6.468,-6.2238358    -2.519484
-131.86249999999998,2.1559999999999997,8.713369 -2.519484
-131.86249999999998,8.6239986,-2.4895346        -2.519484
-30.898437499999996,-8.6239986,-0.0     -3.142907
-30.898437499999996,-4.311999999999999,-7.4686024       -3.142907
-30.898437499999996,-4.311999999999999,7.4686024        -3.142907
-30.898437499999996,4.311999999999999,-7.4686024        -3.142907
-30.898437499999996,4.311999999999999,7.4686024 -3.142907
-30.898437499999996,8.6239986,-0.0      -3.142907
849.0999999999999,0.0,0.0       6.927092
452.54999999999995,-8.6239986,4.9790678 -0.625931
452.54999999999995,8.6239986,4.9790678  -0.625931
452.54999999999995,-0.0,-9.958137       -0.625931
-7.590624999999999,-6.468,3.7343012     -5.030367
-7.590624999999999,-6.468,-3.7343012    -5.030367
-7.590624999999999,-6.468,3.7343012     5.039632
-7.590624999999999,-6.468,-3.7343012    5.039632
-7.590624999999999,6.468,-3.7343012     -5.030367
-7.590624999999999,6.468,3.7343012      -5.030367
-7.590624999999999,6.468,-3.7343012     5.039632
-7.590624999999999,6.468,3.7343012      5.039632
-7.590624999999999,-0.0,-7.4686024      -5.030367
-7.590624999999999,0.0,7.4686024        -5.030367
-7.590624999999999,-0.0,-7.4686024      5.039632
-7.590624999999999,0.0,7.4686024        5.039632
128.5375,-4.311999999999999,-4.9790678  -5.660931
128.5375,4.311999999999999,-4.9790678   -5.660931
128.5375,-6.468,-1.2447666      -5.660931
128.5375,6.468,-1.2447666       -5.660931
128.5375,-2.1559999999999997,6.2238358  -5.660931
128.5375,2.1559999999999997,6.2238358   -5.660931
420.7,-8.6239986,-4.9790678     2.515516
420.7,8.6239986,-4.9790678      2.515516
420.7,0.0,9.958137      2.515516
-724.15,-8.6239986,4.9790678    -2.519484
-724.15,8.6239986,4.9790678     -2.519484
-724.15,-0.0,-9.958137  -2.519484
74.9875,-4.311999999999999,0.0  6.927092
74.9875,-2.1559999999999997,-3.7343012  6.927092
74.9875,-2.1559999999999997,3.7343012   6.927092
74.9875,2.1559999999999997,-3.7343012   6.927092
74.9875,2.1559999999999997,3.7343012    6.927092
74.9875,4.311999999999999,0.0   6.927092
-77.35,-2.1559999999999997,1.2447666    7.550516
-77.35,0.0,-2.4895346   7.550516
-77.35,2.1559999999999997,1.2447666     7.550516
21.74375,-2.1559999999999997,-1.2447666 -7.554483
21.74375,2.1559999999999997,-1.2447666  -7.554483
21.74375,-0.0,2.4895346 -7.554483
-174.825,-10.779998599999999,1.2447666  -0.625931
-174.825,-6.468,8.713369        -0.625931
-174.825,-4.311999999999999,-9.958137   -0.625931
-174.825,4.311999999999999,-9.958137    -0.625931
-174.825,10.779998599999999,1.2447666   -0.625931
-174.825,6.468,8.713369 -0.625931
-94.4125,-8.6239986,2.4895346   4.409069
-94.4125,-6.468,6.2238358       4.409069
-94.4125,-2.1559999999999997,-8.713369  4.409069
-94.4125,2.1559999999999997,-8.713369   4.409069
-94.4125,6.468,6.2238358        4.409069
-94.4125,8.6239986,2.4895346    4.409069
68.81875,-8.6239986,-0.0        -5.030367
68.81875,-4.311999999999999,-7.4686024  -5.030367
68.81875,-4.311999999999999,7.4686024   -5.030367
68.81875,-8.6239986,0.0 5.039632
68.81875,-4.311999999999999,-7.4686024  5.039632
68.81875,4.311999999999999,-7.4686024   -5.030367
68.81875,4.311999999999999,7.4686024    -5.030367
68.81875,8.6239986,-0.0 -5.030367
68.81875,-4.311999999999999,7.4686024   5.039632
68.81875,4.311999999999999,-7.4686024   5.039632
68.81875,8.6239986,0.0  5.039632
68.81875,4.311999999999999,7.4686024    5.039632
253.04999999999998,-10.779998599999999,-1.2447666       2.515516
253.04999999999998,-6.468,-8.713369     2.515516
253.04999999999998,-4.311999999999999,9.958137  2.515516
253.04999999999998,6.468,-8.713369      2.515516
253.04999999999998,10.779998599999999,-1.2447666        2.515516
253.04999999999998,4.311999999999999,9.958137   2.515516
-32.68125,-10.779998599999999,-3.7343012        0.004632
-32.68125,-10.779998599999999,3.7343012 0.004632
-32.68125,-8.6239986,-7.4686024 0.004632
-32.68125,-8.6239986,7.4686024  0.004632
-32.68125,-2.1559999999999997,-11.202903599999999       0.004632
-32.68125,2.1559999999999997,-11.202903599999999        0.004632
-32.68125,-2.1559999999999997,11.202903599999999        0.004632
-32.68125,8.6239986,-7.4686024  0.004632
-32.68125,2.1559999999999997,11.202903599999999 0.004632
-32.68125,10.779998599999999,-3.7343012 0.004632
-32.68125,10.779998599999999,3.7343012  0.004632
-32.68125,8.6239986,7.4686024   0.004632
-200.375,-10.779998599999999,1.2447666  -2.519484
-200.375,-6.468,8.713369        -2.519484
-200.375,-4.311999999999999,-9.958137   -2.519484
-200.375,4.311999999999999,-9.958137    -2.519484
-200.375,10.779998599999999,1.2447666   -2.519484
-200.375,6.468,8.713369 -2.519484
4244.8,-0.0,-0.0        -8.177907
-162.39999999999998,-4.311999999999999,-2.4895346       7.550516
-162.39999999999998,0.0,4.9790678       7.550516
-162.39999999999998,4.311999999999999,-2.4895346        7.550516
-844.9,-4.311999999999999,2.4895346     -7.554483
-844.9,-0.0,-4.9790678  -7.554483
-844.9,4.311999999999999,2.4895346      -7.554483
68.46875,-10.779998599999999,3.7343012  1.892092
68.46875,-10.779998599999999,-3.7343012 1.892092
68.46875,-8.6239986,-7.4686024  1.892092
68.46875,-8.6239986,7.4686024   1.892092
68.46875,-2.1559999999999997,-11.202903599999999        1.892092
68.46875,2.1559999999999997,-11.202903599999999 1.892092
68.46875,-2.1559999999999997,11.202903599999999 1.892092
68.46875,8.6239986,-7.4686024   1.892092
68.46875,2.1559999999999997,11.202903599999999  1.892092
68.46875,10.779998599999999,-3.7343012  1.892092
68.46875,10.779998599999999,3.7343012   1.892092
68.46875,8.6239986,7.4686024    1.892092
-707.0,-8.6239986,-4.9790678    4.409069
-707.0,8.6239986,-4.9790678     4.409069
-707.0,0.0,9.958137     4.409069
36.1484375,-8.6239986,2.4895346 -5.660931
36.1484375,-2.1559999999999997,-8.713369        -5.660931
36.1484375,-6.468,6.2238358     -5.660931
36.1484375,2.1559999999999997,-8.713369 -5.660931
36.1484375,6.468,6.2238358      -5.660931
36.1484375,8.6239986,2.4895346  -5.660931
-81.46249999999999,-8.6239986,-7.4686024        -3.142907
-81.46249999999999,-10.779998599999999,3.7343012        -3.142907
-81.46249999999999,-10.779998599999999,-3.7343012       -3.142907
-81.46249999999999,-8.6239986,7.4686024 -3.142907
-81.46249999999999,-2.1559999999999997,-11.202903599999999      -3.142907
-81.46249999999999,2.1559999999999997,-11.202903599999999       -3.142907
-81.46249999999999,-2.1559999999999997,11.202903599999999       -3.142907
-81.46249999999999,10.779998599999999,-3.7343012        -3.142907
-81.46249999999999,8.6239986,-7.4686024 -3.142907
-81.46249999999999,2.1559999999999997,11.202903599999999        -3.142907
-81.46249999999999,10.779998599999999,3.7343012 -3.142907
-81.46249999999999,8.6239986,7.4686024  -3.142907
91.56875,-6.468,-3.7343012      6.927092
91.56875,-6.468,3.7343012       6.927092
91.56875,6.468,-3.7343012       6.927092
91.56875,6.468,3.7343012        6.927092
91.56875,-0.0,-7.4686024        6.927092
91.56875,0.0,7.4686024  6.927092
-116.55,-4.311999999999999,-0.0 -8.177907
-116.55,-2.1559999999999997,3.7343012   -8.177907
-116.55,-2.1559999999999997,-3.7343012  -8.177907
-116.55,2.1559999999999997,-3.7343012   -8.177907
-116.55,4.311999999999999,-0.0  -8.177907
-116.55,2.1559999999999997,3.7343012    -8.177907
-127.26875,-4.311999999999999,4.9790678 7.550516
-127.26875,4.311999999999999,4.9790678  7.550516
-127.26875,-6.468,1.2447666     7.550516
-127.26875,6.468,1.2447666      7.550516
-127.26875,-2.1559999999999997,-6.2238358       7.550516
-127.26875,2.1559999999999997,-6.2238358        7.550516
-63.9625,-4.311999999999999,-4.9790678  -7.554483
-63.9625,4.311999999999999,-4.9790678   -7.554483
-63.9625,-6.468,-1.2447666      -7.554483
-63.9625,6.468,-1.2447666       -7.554483
-63.9625,-2.1559999999999997,6.2238358  -7.554483
-63.9625,2.1559999999999997,6.2238358   -7.554483
-700.3499999999999,0.0,12.4476702       -0.625931
-700.3499999999999,-10.779998599999999,-6.2238358       -0.625931
-700.3499999999999,10.779998599999999,-6.2238358        -0.625931
-377.65,-10.779998599999999,-1.2447666  4.409069
-377.65,-6.468,-8.713369        4.409069
-377.65,-4.311999999999999,9.958137     4.409069
-377.65,6.468,-8.713369 4.409069
-377.65,10.779998599999999,-1.2447666   4.409069
-377.65,4.311999999999999,9.958137      4.409069
434.525,-8.6239986,-4.9790678   -5.660931
434.525,8.6239986,-4.9790678    -5.660931
434.525,0.0,9.958137    -5.660931
821.8,-0.0,-12.4476702  2.515516
821.8,-10.779998599999999,6.2238358     2.515516
821.8,10.779998599999999,6.2238358      2.515516
-131.42499999999998,-12.935998599999998,-0.0    0.004632
-131.42499999999998,6.468,-11.202903599999999   0.004632
-131.42499999999998,-6.468,11.202903599999999   0.004632
-131.42499999999998,12.935998599999998,-0.0     0.004632
-131.42499999999998,-6.468,-11.202903599999999  0.004632
-131.42499999999998,6.468,11.202903599999999    0.004632
-540.05,0.0,12.4476702  -2.519484
-540.05,-10.779998599999999,-6.2238358  -2.519484
-540.05,10.779998599999999,-6.2238358   -2.519484
319.2,-8.6239986,0.0    6.927092
319.2,-4.311999999999999,-7.4686024     6.927092
319.2,-4.311999999999999,7.4686024      6.927092
319.2,4.311999999999999,-7.4686024      6.927092
319.2,8.6239986,0.0     6.927092
319.2,4.311999999999999,7.4686024       6.927092
296.625,-12.935998599999998,-2.4895346  -0.625931
296.625,-4.311999999999999,12.4476702   -0.625931
296.625,-8.6239986,-9.958137    -0.625931
296.625,8.6239986,-9.958137     -0.625931
296.625,4.311999999999999,12.4476702    -0.625931
296.625,12.935998599999998,-2.4895346   -0.625931
156.71249999999998,-12.935998599999998,0.0      1.892092
156.71249999999998,-6.468,-11.202903599999999   1.892092
156.71249999999998,-6.468,11.202903599999999    1.892092
156.71249999999998,6.468,-11.202903599999999    1.892092
156.71249999999998,12.935998599999998,0.0       1.892092
156.71249999999998,6.468,11.202903599999999     1.892092
-6.0484374999999995,-10.779998599999999,3.7343012       -5.030367
-6.0484374999999995,-10.779998599999999,-3.7343012      -5.030367
-6.0484374999999995,-8.6239986,-7.4686024       -5.030367
-6.0484374999999995,-8.6239986,7.4686024        -5.030367
-6.0484374999999995,-10.779998599999999,3.7343012       5.039632
-6.0484374999999995,2.1559999999999997,-11.202903599999999      -5.030367
-6.0484374999999995,-2.1559999999999997,-11.202903599999999     -5.030367
-6.0484374999999995,-10.779998599999999,-3.7343012      5.039632
-6.0484374999999995,-8.6239986,-7.4686024       5.039632
-6.0484374999999995,-2.1559999999999997,11.202903599999999      -5.030367
-6.0484374999999995,2.1559999999999997,-11.202903599999999      5.039632
-6.0484374999999995,-8.6239986,7.4686024        5.039632
-6.0484374999999995,-2.1559999999999997,-11.202903599999999     5.039632
-6.0484374999999995,8.6239986,-7.4686024        -5.030367
-6.0484374999999995,2.1559999999999997,11.202903599999999       -5.030367
-6.0484374999999995,10.779998599999999,-3.7343012       -5.030367
-6.0484374999999995,10.779998599999999,3.7343012        -5.030367
-6.0484374999999995,8.6239986,7.4686024 -5.030367
-6.0484374999999995,-2.1559999999999997,11.202903599999999      5.039632
-6.0484374999999995,8.6239986,-7.4686024        5.039632
-6.0484374999999995,10.779998599999999,-3.7343012       5.039632
-6.0484374999999995,2.1559999999999997,11.202903599999999       5.039632
-6.0484374999999995,10.779998599999999,3.7343012        5.039632
-6.0484374999999995,8.6239986,7.4686024 5.039632
-0.9624999999999999,-10.779998599999999,-1.2447666      -5.660931
-0.9624999999999999,-6.468,-8.713369    -5.660931
-0.9624999999999999,-4.311999999999999,9.958137 -5.660931
-0.9624999999999999,6.468,-8.713369     -5.660931
-0.9624999999999999,4.311999999999999,9.958137  -5.660931
-0.9624999999999999,10.779998599999999,-1.2447666       -5.660931
162.39999999999998,-2.1559999999999997,1.2447666        9.444068
162.39999999999998,0.0,-2.4895346       9.444068
162.39999999999998,2.1559999999999997,1.2447666 9.444068
71.83749999999999,-12.935998599999998,2.4895346 2.515516
71.83749999999999,-4.311999999999999,-12.4476702        2.515516
71.83749999999999,4.311999999999999,-12.4476702 2.515516
71.83749999999999,-8.6239986,9.958137   2.515516
71.83749999999999,12.935998599999998,2.4895346  2.515516
71.83749999999999,8.6239986,9.958137    2.515516
219.625,-12.935998599999998,-2.4895346  -2.519484
219.625,-4.311999999999999,12.4476702   -2.519484
219.625,-8.6239986,-9.958137    -2.519484
219.625,8.6239986,-9.958137     -2.519484
219.625,12.935998599999998,-2.4895346   -2.519484
219.625,4.311999999999999,12.4476702    -2.519484
307.47499999999997,-12.935998599999998,-0.0     -3.142907
307.47499999999997,-6.468,-11.202903599999999   -3.142907
307.47499999999997,-6.468,11.202903599999999    -3.142907
307.47499999999997,6.468,-11.202903599999999    -3.142907
307.47499999999997,12.935998599999998,-0.0      -3.142907
307.47499999999997,6.468,11.202903599999999     -3.142907
12.103710933999999,-6.468,-3.7343012    -8.177907
12.103710933999999,-6.468,3.7343012     -8.177907
12.103710933999999,6.468,3.7343012      -8.177907
12.103710933999999,6.468,-3.7343012     -8.177907
12.103710933999999,-0.0,-7.4686024      -8.177907
12.103710933999999,0.0,7.4686024        -8.177907
352.625,-6.468,-6.2238358       7.550516
352.625,-8.6239986,-2.4895346   7.550516
352.625,-2.1559999999999997,8.713369    7.550516
352.625,6.468,-6.2238358        7.550516
352.625,2.1559999999999997,8.713369     7.550516
352.625,8.6239986,-2.4895346    7.550516
-487.2,-6.468,6.2238358 -7.554483
-487.2,-8.6239986,2.4895346     -7.554483
-487.2,-2.1559999999999997,-8.713369    -7.554483
-487.2,2.1559999999999997,-8.713369     -7.554483
-487.2,8.6239986,2.4895346      -7.554483
-487.2,6.468,6.2238358  -7.554483
99.771875,-10.779998599999999,8.713369  -0.625931
99.771875,-12.935998599999998,4.9790678 -0.625931
99.771875,-2.1559999999999997,-13.692438199999998       -0.625931
99.771875,2.1559999999999997,-13.692438199999998        -0.625931
99.771875,12.935998599999998,4.9790678  -0.625931
99.771875,10.779998599999999,8.713369   -0.625931
-677.25,-0.0,-12.4476702        4.409069
-677.25,-10.779998599999999,6.2238358   4.409069
-677.25,10.779998599999999,6.2238358    4.409069

End of input

&SCF
Occupied
9
Iterations
   50  100
End of Input

&RASSCF
LumOrb
Symmetry
1
Spin
2
Nactel
1 0 0
CIRoot
9 9 1
inactive
9
ras2
9
End of Input

>>> COPY chromium_so_cf.JobIph $SLURM_SUBMIT_DIR/chromium_so_cf.doublet.JobIph

>>> COPY $SLURM_SUBMIT_DIR/chromium_so_cf.doublet.JobIph ./JOB002

&RASSI
NROFJobIph
1 All
SpinOrbit
End of Input

EOF

-- ----------------------------------

--- Start Module: seward at Wed Mar 26 15:55:56 2025 ---

()()()()()()()()()()()()()()()()()()()()()()()()()()()()()()()()()()()()()()()()()()()()()()()()()()

                                              &SEWARD

                                   only a single process is used
                       available to each process: 4.1 GB of memory, 1 thread?
                                            pid: 642865
()()()()()()()()()()()()()()()()()()()()()()()()()()()()()()()()()()()()()()()()()()()()()()()()()()

 The speed of LIGHT in this CALCULATION =   137.03599917700001     
               SEWARD will generate:
                  Multipole Moment integrals up to order  2
                  Kinetic Energy integrals
                  Nuclear Attraction integrals (point charge)
                  One-Electron Hamiltonian integrals
                  Velocity integrals
                  Relativistic Douglas-Kroll-Hess integrals:
                    - Parametrization         : EXP
                    - DKH order of Hamiltonian: 2
                    - DKH order of Properties : 0
                         - multipole moment operators
                         - electric potential operators
                         - contact operators
                  External field from   414 point(s) added to the one-electron Hamiltonian
                  Orbital angular momentum around (-0.0000 -0.0000  0.0088 )
                  Velocity quadrupole around (-0.0000 -0.0000  0.0088 )
                  Atomic mean-field integrals
                  Two-Electron Repulsion integrals

                   Integrals are discarded if absolute value <: 0.10E-13
                   Integral cutoff threshold is set to       <: 0.10E-15

++    Symmetry information:
      ---------------------

                    Character Table for C1 

                             E  
                    a        1  x, y, xy, Rz, z, xz, Ry, yz, Rx, I
--


++    Basis set information:
      ----------------------


      Basis set label: CR.ANO-RCC.ROOS.21S15P10D6F4G2H.10S10P8D6F4G2H......

      Electronic valence basis set:
      ------------------
      Associated Effective Charge  24.000000 au
      Associated Actual Charge     24.000000 au
      Nuclear Model: Point charge

      Shell  nPrim  nBasis  Cartesian Spherical Contaminant
         s      21      10        X                  
         p      15      10        X                  
         d      10       8                 X         
         f       6       6                 X         
         g       4       4                 X         
         h       2       2                 X         
--


++    Molecular structure info:
      -------------------------

                    ************************************************ 
                    **** Cartesian Coordinates / Bohr, Angstrom **** 
                    ************************************************ 

     Center  Label                x              y              z                     x              y              z
        1      CR              -0.000000      -0.000000       0.008754             -0.000000      -0.000000       0.004632
--


++    Operator info:
      --------------


  Net charge from external field:   -39.268449999999902     
--


            Nuclear Potential Energy              0.00000000 au

                    Nuclear-External Field Potential Energy    -156.83946840 au
                    External Field Potential Energy            1146.88350099 au 


            Total Nuclear Potential Energy           -156.83946840 au


      Basis set specifications :
      Symmetry species         a  
      Basis functions          180

 Sorry, Molden does not know how to handle
 functions with angular momentum larger than g
Note: The following floating-point exceptions are signalling: IEEE_UNDERFLOW_FLAG IEEE_DENORMAL
--- Stop Module: seward at Wed Mar 26 15:56:07 2025 /rc=_RC_ALL_IS_WELL_ ---
*** files: chromium_so_cf.GssOrb xmldump
    saved to directory /home4/s4752295/Internship/Initial_simulations/Point_charge_model/1_electron/Madelung_charges_9_active_space/Cr
--- Module seward spent 11 seconds ---

*** symbolic link created: INPORB -> chromium_so_cf.GssOrb
--- Start Module: scf at Wed Mar 26 15:56:07 2025 ---

()()()()()()()()()()()()()()()()()()()()()()()()()()()()()()()()()()()()()()()()()()()()()()()()()()

                                                &SCF

                                   only a single process is used
                       available to each process: 4.1 GB of memory, 1 thread?
                                            pid: 642869
()()()()()()()()()()()()()()()()()()()()()()()()()()()()()()()()()()()()()()()()()()()()()()()()()()

++    Input section:
      --------------

      Header of the integral files:
      
       Integrals generated by seward 4.2.0  , Wed Mar 26 15:55:56 2025


      Cartesian coordinates in Angstrom:
      -----------------------------------------------------
      No.  Label        X            Y            Z        
      -----------------------------------------------------
       1   CR        -0.00000000  -0.00000000   0.00463220
      -----------------------------------------------------
      Nuclear repulsion energy = -156.83946840
--

++    Orbital specifications:
      -----------------------

      Symmetry species               1
                                     a
      Frozen orbitals                0
      Occupied orbitals              9
      Secondary orbitals           171
      Deleted orbitals               0
      Total number of orbitals     180
      Number of basis functions    180
--

      Molecular charge                           6.000

++    Optimization specifications:
      ----------------------------

      SCF Algorithm: Conventional
      Minimized density differences are used
      Number of density matrices in core                5
      Maximum number of NDDO SCF iterations            50
      Maximum number of HF SCF iterations             100
      Threshold for SCF energy change            0.10E-08
      Threshold for density matrix               0.10E-03
      Threshold for Fock matrix                  0.15E-03
      Threshold for linear dependence            0.10E-08
      Threshold at which DIIS is turned on       0.15E+00
      Threshold at which QNR/C2DIIS is turned on 0.75E-01
      Threshold for Norm(delta) (QNR/C2DIIS)     0.20E-04
      DIIS extrapolation of the SCF procedure
      All orbitals punched on: SCFORB
--

      Detected guessorb starting orbitals                                             


++ Convergence information
                                   SCF        iterations: Energy and convergence statistics

Iter     Tot. SCF        One-elec.       Two-elec.     Energy      Max Dij or  Max Fij      DNorm      TNorm      AccCon     Time
         Energy          Energy          Energy        Change      Delta Norm                                                in Sec.

 The total and one-electron energies are shifted by a value of      1000. a.u.

   1   -78.817171743  -227.354366420   305.376663078   0.00E+00    0.16E+00*   0.40E+00*    0.60E+01   0.25E+03   None         1.
   2   -79.517971348  -239.722169773   317.043666827  -0.70E+00*   0.23E-01*   0.75E-01*    0.12E+01   0.25E+03   EDIIS        1.
   3   -79.530748521  -238.280958300   315.589678180  -0.13E-01*   0.77E-02*   0.13E-01*    0.11E+00   0.25E+03   EDIIS        1.
   4   -79.531172444  -238.514906983   315.823202941  -0.42E-03*   0.34E-03*   0.24E-02*    0.12E-01   0.25E+03   c2DIIS       1.
   5   -79.531192261  -238.486154499   315.794430640  -0.20E-04*   0.99E-04*   0.20E-03*    0.11E-02   0.25E+03   QNRc2DIIS    1.
   6   -79.531192340  -238.484888870   315.793164931  -0.80E-07*   0.25E-04*   0.39E-04     0.15E-03   0.25E+03   QNRc2DIIS    1.
   7   -79.531192345  -238.485065014   315.793341070  -0.45E-08*   0.58E-05    0.80E-05     0.25E-04   0.25E+03   QNRc2DIIS    1.
   8   -79.531192345  -238.485107125   315.793383182  -0.19E-09    0.19E-05    0.23E-05     0.15E-03   0.25E+03   QNRc2DIIS    1.

       Convergence after  8 Macro Iterations
--

 *****************************************************************************************************************************
 *                                                                                                                           *
 *                                             SCF/KS-DFT Program, Final results                                             *
 *                                                                                                                           *
 *                                                                                                                           *
 *                                                                                                                           *
 *                                                       Final Results                                                       *
 *                                                                                                                           *
 *****************************************************************************************************************************

::    Total SCF energy                              -1079.5311923452
      One-electron energy                           -1238.4851071253
      Two-electron energy                             315.7933831816
      Nuclear repulsion energy                       -156.8394684015
      Kinetic energy (interpolated)                  1078.1818604708
      Virial theorem                                    1.0012514882
      Total spin, S(S+1)                                0.0000000000
      Total spin, S                                     0.0000000000
      Max non-diagonal density matrix element           0.0000025820
      Max non-diagonal Fock matrix element              0.0000011032


      All orbitals with orbital energies smaller than  E(LUMO)+0.5 are printed

++    Molecular orbitals:
      -------------------

      Title: SCF orbitals

      Molecular orbitals for symmetry species 1: a  

          Orbital            1         2         3         4         5         6         7         8         9        10    
          Energy         -219.7912  -24.4665  -20.0908  -20.0908  -20.0899   -0.7782    0.6083    0.6083    0.6415    3.2535
          Occ. No.          2.0000    2.0000    2.0000    2.0000    2.0000    2.0000    2.0000    2.0000    2.0000    0.0000

        1 CR     1s         1.0000   -0.0001    0.0000   -0.0000   -0.0000    0.0001   -0.0000   -0.0000    0.0000   -0.0000
        2 CR     2s         0.0001    1.0000    0.0000   -0.0000   -0.0035    0.0021    0.0000   -0.0000   -0.0010   -0.0000
        3 CR     3s        -0.0001   -0.0022   -0.0000    0.0000    0.0010    0.9888    0.0001   -0.0000   -0.1131   -0.0000
        4 CR     4s         0.0000    0.0001    0.0000   -0.0000   -0.0001   -0.0481   -0.0000    0.0000    0.0245   -0.0000
        5 CR     5s        -0.0000   -0.0005   -0.0000    0.0000    0.0003    0.0706    0.0000   -0.0000   -0.0369    0.0000
        6 CR     6s         0.0000    0.0003    0.0000   -0.0000   -0.0002   -0.0290   -0.0000    0.0000    0.0144    0.0000
        7 CR     7s        -0.0000   -0.0001   -0.0000    0.0000    0.0001   -0.0084   -0.0000    0.0000    0.0052   -0.0000
        8 CR     8s         0.0000   -0.0000    0.0000   -0.0000   -0.0000    0.0061    0.0000   -0.0000   -0.0036   -0.0000
        9 CR     9s        -0.0001    0.0002    0.0000   -0.0000   -0.0000    0.0020    0.0000   -0.0000   -0.0014   -0.0000
       10 CR    10s         0.0001   -0.0003   -0.0000    0.0000    0.0000    0.0004    0.0000   -0.0000   -0.0001   -0.0000
       11 CR     2px        0.0000    0.0035   -0.0020    0.0000    1.0000   -0.0006   -0.0000    0.0000    0.0034    0.0000
       12 CR     3px       -0.0000    0.0007    0.0000   -0.0000   -0.0032    0.1184   -0.0014    0.0000    0.9800    0.0000
       13 CR     4px        0.0000   -0.0001   -0.0000    0.0000    0.0005   -0.0018    0.0001   -0.0000   -0.0872   -0.0000
       14 CR     5px       -0.0000    0.0002    0.0000   -0.0000   -0.0009   -0.0031   -0.0001    0.0000    0.0961    0.0000
       15 CR     6px        0.0000   -0.0001   -0.0000    0.0000    0.0002    0.0031    0.0000   -0.0000   -0.0034    0.0000
       16 CR     7px       -0.0000    0.0001    0.0000   -0.0000   -0.0000   -0.0022    0.0000   -0.0000   -0.0139   -0.0000
       17 CR     8px        0.0000   -0.0000    0.0000   -0.0000   -0.0002   -0.0007   -0.0000    0.0000    0.0027   -0.0000
       18 CR     9px       -0.0000    0.0000   -0.0000    0.0000    0.0003    0.0008   -0.0000    0.0000    0.0033   -0.0000
       19 CR    10px        0.0000   -0.0000    0.0000   -0.0000   -0.0003    0.0004    0.0000   -0.0000   -0.0002   -0.0000
       20 CR    11px       -0.0000    0.0000   -0.0000    0.0000    0.0002    0.0000    0.0000   -0.0000   -0.0005   -0.0000
       21 CR     2py       -0.0000   -0.0000    0.0000    1.0000   -0.0000   -0.0000    0.0000    0.0032    0.0000    0.0001
       22 CR     3py        0.0000    0.0000   -0.0000   -0.0031    0.0000   -0.0000    0.0000    0.9889   -0.0000    0.0081
       23 CR     4py       -0.0000   -0.0000    0.0000    0.0005   -0.0000    0.0000   -0.0000   -0.0884    0.0000   -0.0145
       24 CR     5py        0.0000    0.0000   -0.0000   -0.0008    0.0000   -0.0000    0.0000    0.0952   -0.0000    0.0088
       25 CR     6py       -0.0000   -0.0000    0.0000    0.0002   -0.0000    0.0000   -0.0000   -0.0020    0.0000    0.0025
       26 CR     7py        0.0000    0.0000   -0.0000   -0.0000    0.0000   -0.0000   -0.0000   -0.0149    0.0000   -0.0025
       27 CR     8py       -0.0000   -0.0000   -0.0000   -0.0002    0.0000    0.0000    0.0000    0.0024   -0.0000   -0.0008
       28 CR     9py        0.0000    0.0000    0.0000    0.0003   -0.0000   -0.0000    0.0000    0.0036   -0.0000    0.0004
       29 CR    10py       -0.0000   -0.0000   -0.0000   -0.0003    0.0000    0.0000    0.0000    0.0001   -0.0000    0.0002
       30 CR    11py        0.0000    0.0000    0.0000    0.0002   -0.0000   -0.0000   -0.0000   -0.0004    0.0000    0.0000
       31 CR     2pz        0.0000    0.0000    1.0000   -0.0000    0.0020   -0.0000    0.0032   -0.0000    0.0000    0.0000
       32 CR     3pz       -0.0000    0.0000   -0.0031    0.0000   -0.0000    0.0001    0.9889   -0.0000    0.0014    0.0000
       33 CR     4pz        0.0000   -0.0000    0.0005   -0.0000    0.0000   -0.0000   -0.0884    0.0000   -0.0001   -0.0000
       34 CR     5pz       -0.0000    0.0000   -0.0008    0.0000   -0.0000   -0.0000    0.0952   -0.0000    0.0001    0.0000
       35 CR     6pz        0.0000   -0.0000    0.0002   -0.0000    0.0000    0.0000   -0.0020    0.0000   -0.0000    0.0000
       36 CR     7pz       -0.0000    0.0000   -0.0000    0.0000   -0.0000   -0.0000   -0.0149    0.0000   -0.0000   -0.0000
       37 CR     8pz        0.0000   -0.0000   -0.0002    0.0000   -0.0000   -0.0000    0.0024   -0.0000    0.0000   -0.0000
       38 CR     9pz       -0.0000    0.0000    0.0003   -0.0000    0.0000    0.0000    0.0036   -0.0000    0.0000    0.0000
       39 CR    10pz        0.0000   -0.0000   -0.0003    0.0000   -0.0000    0.0000    0.0001   -0.0000   -0.0000    0.0000
       40 CR    11pz       -0.0000    0.0000    0.0002   -0.0000    0.0000    0.0000   -0.0004    0.0000   -0.0000    0.0000
       41 CR     3d2-       0.0000    0.0000    0.0000    0.0003   -0.0000   -0.0000    0.0000    0.0683   -0.0000   -0.1398
       42 CR     4d2-      -0.0000   -0.0000   -0.0000   -0.0003    0.0000    0.0000   -0.0000   -0.0152    0.0000    0.0393
       43 CR     5d2-       0.0000    0.0000    0.0000    0.0002   -0.0000    0.0000   -0.0000   -0.0088    0.0000   -0.0012
       44 CR     6d2-      -0.0000   -0.0000   -0.0000   -0.0001    0.0000    0.0000    0.0000    0.0045   -0.0000   -0.0016
       45 CR     7d2-       0.0000    0.0000    0.0000    0.0000   -0.0000   -0.0000    0.0000    0.0025   -0.0000   -0.0010
       46 CR     8d2-      -0.0000   -0.0000   -0.0000   -0.0000    0.0000    0.0000   -0.0000   -0.0008   -0.0000    0.0009
       47 CR     9d2-       0.0000    0.0000    0.0000    0.0000   -0.0000   -0.0000   -0.0000   -0.0013    0.0000    0.0002
       48 CR    10d2-      -0.0000    0.0000   -0.0000   -0.0001    0.0000   -0.0000   -0.0000   -0.0002   -0.0000   -0.0001
       49 CR     3d1-      -0.0000    0.0000    0.0000    0.0000    0.0000   -0.0000   -0.0000   -0.0000   -0.0000    0.9371
       50 CR     4d1-       0.0000   -0.0000   -0.0000   -0.0000   -0.0000    0.0000   -0.0000   -0.0000    0.0000   -0.3087
       51 CR     5d1-      -0.0000    0.0000    0.0000    0.0000    0.0000   -0.0000   -0.0000   -0.0000   -0.0000   -0.0020
       52 CR     6d1-      -0.0000   -0.0000   -0.0000   -0.0000   -0.0000    0.0000    0.0000    0.0000    0.0000    0.0171
       53 CR     7d1-       0.0000    0.0000    0.0000    0.0000    0.0000   -0.0000   -0.0000   -0.0000   -0.0000    0.0149
       54 CR     8d1-      -0.0000   -0.0000   -0.0000   -0.0000   -0.0000   -0.0000   -0.0000   -0.0000    0.0000   -0.0045
       55 CR     9d1-       0.0000    0.0000    0.0000    0.0000    0.0000   -0.0000   -0.0000   -0.0000   -0.0000   -0.0040
       56 CR    10d1-       0.0000   -0.0000   -0.0000   -0.0000   -0.0000    0.0000   -0.0000   -0.0000    0.0000   -0.0003
       57 CR     3d0        0.0000    0.0000    0.0000   -0.0000   -0.0002   -0.0009    0.0002   -0.0000   -0.0416   -0.0000
       58 CR     4d0       -0.0000   -0.0000   -0.0000    0.0000    0.0002   -0.0003    0.0000   -0.0000    0.0092    0.0000
       59 CR     5d0        0.0000    0.0000    0.0000   -0.0000   -0.0001    0.0004   -0.0000    0.0000    0.0053    0.0000
       60 CR     6d0       -0.0000    0.0000   -0.0000    0.0000    0.0001    0.0000    0.0000   -0.0000   -0.0027   -0.0000
       61 CR     7d0        0.0000   -0.0000    0.0000   -0.0000   -0.0000   -0.0001    0.0000   -0.0000   -0.0015   -0.0000
       62 CR     8d0       -0.0000    0.0000    0.0000    0.0000    0.0000   -0.0000    0.0000   -0.0000    0.0005    0.0000
       63 CR     9d0        0.0000   -0.0000    0.0000   -0.0000   -0.0000    0.0001    0.0000   -0.0000    0.0008    0.0000
       64 CR    10d0       -0.0000    0.0000   -0.0000    0.0000    0.0000    0.0000    0.0000    0.0000    0.0001    0.0000
       65 CR     3d1+      -0.0000   -0.0000    0.0003   -0.0000    0.0000   -0.0000    0.0683   -0.0000    0.0002   -0.0000
       66 CR     4d1+       0.0000    0.0000   -0.0003    0.0000   -0.0000    0.0000   -0.0152    0.0000   -0.0000    0.0000
       67 CR     5d1+      -0.0000   -0.0000    0.0002   -0.0000    0.0000    0.0000   -0.0088    0.0000   -0.0000   -0.0000
       68 CR     6d1+       0.0000    0.0000   -0.0001    0.0000   -0.0000   -0.0000    0.0045   -0.0000    0.0000   -0.0000
       69 CR     7d1+      -0.0000   -0.0000    0.0000   -0.0000    0.0000   -0.0000    0.0025   -0.0000    0.0000   -0.0000
       70 CR     8d1+       0.0000   -0.0000   -0.0000    0.0000   -0.0000    0.0000   -0.0008    0.0000   -0.0000    0.0000
       71 CR     9d1+      -0.0000    0.0000    0.0000   -0.0000    0.0000    0.0000   -0.0013    0.0000   -0.0000    0.0000
       72 CR    10d1+       0.0000   -0.0000   -0.0001    0.0000   -0.0000   -0.0000   -0.0002    0.0000   -0.0000   -0.0000
       73 CR     3d2+      -0.0000   -0.0000   -0.0000    0.0000    0.0004    0.0016   -0.0001    0.0000    0.0721   -0.0000
       74 CR     4d2+       0.0000    0.0000    0.0000   -0.0000   -0.0003    0.0005    0.0000   -0.0000   -0.0160    0.0000
       75 CR     5d2+      -0.0000   -0.0000   -0.0000    0.0000    0.0002   -0.0006    0.0000   -0.0000   -0.0091    0.0000
       76 CR     6d2+       0.0000   -0.0000    0.0000   -0.0000   -0.0001   -0.0001   -0.0000    0.0000    0.0047   -0.0000
       77 CR     7d2+      -0.0000    0.0000   -0.0000    0.0000    0.0000    0.0002   -0.0000    0.0000    0.0026   -0.0000
       78 CR     8d2+       0.0000   -0.0000    0.0000   -0.0000   -0.0000    0.0001    0.0000   -0.0000   -0.0008    0.0000
       79 CR     9d2+      -0.0000    0.0000   -0.0000    0.0000    0.0000   -0.0001    0.0000   -0.0000   -0.0014    0.0000
       80 CR    10d2+       0.0000   -0.0000    0.0000   -0.0000   -0.0001   -0.0000    0.0000   -0.0000   -0.0002    0.0000
       81 CR     4f3-      -0.0000   -0.0000   -0.0000   -0.0000    0.0000    0.0000    0.0000    0.0008   -0.0000   -0.0123
       82 CR     5f3-       0.0000    0.0000    0.0000    0.0000   -0.0000   -0.0000    0.0000    0.0009   -0.0000   -0.0076
       83 CR     6f3-      -0.0000   -0.0000   -0.0000   -0.0000    0.0000    0.0000   -0.0000   -0.0001   -0.0000   -0.0009
       84 CR     7f3-       0.0000    0.0000    0.0000    0.0000   -0.0000   -0.0000   -0.0000   -0.0003    0.0000    0.0007
       85 CR     8f3-      -0.0000   -0.0000   -0.0000   -0.0000    0.0000    0.0000   -0.0000   -0.0000   -0.0000    0.0008
       86 CR     9f3-       0.0000    0.0000    0.0000    0.0000   -0.0000   -0.0000    0.0000    0.0001   -0.0000    0.0006
       87 CR     4f2-      -0.0000   -0.0000   -0.0000   -0.0000    0.0000   -0.0000   -0.0000   -0.0002   -0.0000    0.0586
       88 CR     5f2-       0.0000    0.0000    0.0000    0.0000   -0.0000    0.0000   -0.0000   -0.0001    0.0000    0.0273
       89 CR     6f2-      -0.0000   -0.0000   -0.0000   -0.0000   -0.0000   -0.0000   -0.0000   -0.0000   -0.0000   -0.0052
       90 CR     7f2-       0.0000   -0.0000   -0.0000   -0.0000    0.0000   -0.0000    0.0000    0.0000    0.0000   -0.0063
       91 CR     8f2-      -0.0000    0.0000   -0.0000   -0.0000   -0.0000    0.0000    0.0000    0.0000   -0.0000   -0.0016
       92 CR     9f2-       0.0000   -0.0000   -0.0000   -0.0000    0.0000   -0.0000   -0.0000   -0.0000    0.0000    0.0011
       93 CR     4f1-      -0.0000   -0.0000    0.0000    0.0000   -0.0000    0.0000   -0.0000   -0.0002   -0.0000    0.0032
       94 CR     5f1-       0.0000    0.0000   -0.0000   -0.0000    0.0000   -0.0000   -0.0000   -0.0002    0.0000    0.0020
       95 CR     6f1-      -0.0000   -0.0000    0.0000    0.0000   -0.0000    0.0000    0.0000    0.0000   -0.0000    0.0002
       96 CR     7f1-       0.0000    0.0000   -0.0000   -0.0000    0.0000   -0.0000    0.0000    0.0001    0.0000   -0.0002
       97 CR     8f1-      -0.0000   -0.0000    0.0000    0.0000   -0.0000    0.0000    0.0000    0.0000   -0.0000   -0.0002
       98 CR     9f1-      -0.0000    0.0000   -0.0000   -0.0000    0.0000   -0.0000   -0.0000   -0.0000    0.0000   -0.0002
       99 CR     4f0       -0.0000    0.0000    0.0000   -0.0000    0.0000    0.0000   -0.0005    0.0000    0.0001    0.0000
      100 CR     5f0        0.0000    0.0000   -0.0000    0.0000   -0.0000    0.0000   -0.0006    0.0000    0.0001    0.0000
      101 CR     6f0        0.0000   -0.0000    0.0000   -0.0000    0.0000   -0.0000    0.0000   -0.0000    0.0000    0.0000
      102 CR     7f0        0.0000   -0.0000   -0.0000    0.0000    0.0000   -0.0000    0.0002   -0.0000   -0.0000   -0.0000
      103 CR     8f0        0.0000   -0.0000    0.0000   -0.0000    0.0000   -0.0000    0.0000   -0.0000   -0.0000   -0.0000
      104 CR     9f0        0.0000   -0.0000   -0.0000    0.0000   -0.0000   -0.0000   -0.0001    0.0000    0.0000   -0.0000
      105 CR     4f1+       0.0000   -0.0000    0.0000   -0.0000    0.0000   -0.0003    0.0001   -0.0000   -0.0005   -0.0000
      106 CR     5f1+      -0.0000    0.0000   -0.0000   -0.0000   -0.0000   -0.0001    0.0001   -0.0000   -0.0007   -0.0000
      107 CR     6f1+       0.0000   -0.0000    0.0000    0.0000    0.0000    0.0001    0.0000   -0.0000    0.0000    0.0000
      108 CR     7f1+      -0.0000   -0.0000    0.0000   -0.0000   -0.0000    0.0000   -0.0000    0.0000    0.0003    0.0000
      109 CR     8f1+       0.0000    0.0000   -0.0000    0.0000    0.0000   -0.0000   -0.0000    0.0000    0.0000    0.0000
      110 CR     9f1+      -0.0000   -0.0000    0.0000   -0.0000   -0.0000   -0.0000    0.0000   -0.0000   -0.0001   -0.0000
      111 CR     4f2+      -0.0000    0.0000   -0.0000    0.0000    0.0000    0.0000    0.0007   -0.0000    0.0001   -0.0000
      112 CR     5f2+       0.0000   -0.0000    0.0000   -0.0000   -0.0000    0.0000    0.0008   -0.0000    0.0001   -0.0000
      113 CR     6f2+      -0.0000   -0.0000   -0.0000    0.0000   -0.0000   -0.0000   -0.0001    0.0000    0.0000   -0.0000
      114 CR     7f2+       0.0000   -0.0000    0.0000   -0.0000    0.0000   -0.0000   -0.0003    0.0000   -0.0000    0.0000
      115 CR     8f2+      -0.0000   -0.0000   -0.0000    0.0000   -0.0000   -0.0000   -0.0000    0.0000   -0.0000    0.0000
      116 CR     9f2+       0.0000   -0.0000    0.0000   -0.0000    0.0000   -0.0000    0.0001   -0.0000    0.0000    0.0000
      117 CR     4f3+      -0.0000    0.0000    0.0000   -0.0000   -0.0000    0.0004    0.0001   -0.0000    0.0007   -0.0000
      118 CR     5f3+       0.0000   -0.0000   -0.0000    0.0000    0.0000    0.0001    0.0001   -0.0000    0.0009   -0.0000
      119 CR     6f3+      -0.0000    0.0000    0.0000   -0.0000   -0.0000   -0.0001    0.0000   -0.0000   -0.0001    0.0000
      120 CR     7f3+       0.0000    0.0000    0.0000   -0.0000    0.0000   -0.0000   -0.0000    0.0000   -0.0004    0.0000
      121 CR     8f3+      -0.0000   -0.0000    0.0000   -0.0000   -0.0000    0.0000   -0.0000    0.0000   -0.0000    0.0000
      122 CR     9f3+       0.0000    0.0000    0.0000    0.0000    0.0000    0.0000    0.0000   -0.0000    0.0001   -0.0000
      123 CR     5g4-      -0.0000   -0.0000    0.0000    0.0000   -0.0000    0.0000    0.0000    0.0003   -0.0000   -0.0005
      124 CR     6g4-       0.0000    0.0000   -0.0000   -0.0000    0.0000    0.0000    0.0000    0.0003   -0.0000   -0.0014
      125 CR     7g4-      -0.0000   -0.0000    0.0000    0.0000   -0.0000   -0.0000    0.0000    0.0001    0.0000   -0.0015
      126 CR     8g4-       0.0000    0.0000    0.0000    0.0000    0.0000    0.0000   -0.0000   -0.0000   -0.0000   -0.0011
      127 CR     5g3-       0.0000    0.0000   -0.0000   -0.0000    0.0000    0.0000   -0.0000   -0.0001   -0.0000    0.0019
      128 CR     6g3-      -0.0000   -0.0000    0.0000    0.0000    0.0000   -0.0000   -0.0000   -0.0001    0.0000    0.0042
      129 CR     7g3-       0.0000    0.0000   -0.0000   -0.0000   -0.0000    0.0000   -0.0000   -0.0001   -0.0000    0.0035
      130 CR     8g3-      -0.0000   -0.0000   -0.0000   -0.0000    0.0000   -0.0000   -0.0000   -0.0000   -0.0000    0.0017
      131 CR     5g2-      -0.0000   -0.0000   -0.0000   -0.0000    0.0000   -0.0000   -0.0000   -0.0001   -0.0000    0.0002
      132 CR     6g2-       0.0000    0.0000    0.0000    0.0000   -0.0000   -0.0000   -0.0000   -0.0001    0.0000    0.0005
      133 CR     7g2-      -0.0000   -0.0000   -0.0000   -0.0000   -0.0000    0.0000   -0.0000   -0.0000   -0.0000    0.0006
      134 CR     8g2-       0.0000    0.0000   -0.0000   -0.0000    0.0000   -0.0000    0.0000    0.0000   -0.0000    0.0004
      135 CR     5g1-      -0.0000   -0.0000    0.0000    0.0000   -0.0000    0.0000    0.0000    0.0000    0.0000   -0.0008
      136 CR     6g1-       0.0000    0.0000    0.0000    0.0000   -0.0000   -0.0000    0.0000    0.0000   -0.0000   -0.0017
      137 CR     7g1-      -0.0000   -0.0000   -0.0000   -0.0000    0.0000    0.0000    0.0000    0.0000    0.0000   -0.0014
      138 CR     8g1-       0.0000    0.0000    0.0000    0.0000    0.0000   -0.0000    0.0000    0.0000   -0.0000   -0.0008
      139 CR     5g0        0.0000   -0.0000   -0.0000    0.0000    0.0000   -0.0000   -0.0000    0.0000    0.0001    0.0000
      140 CR     6g0       -0.0000    0.0000    0.0000   -0.0000   -0.0000   -0.0000   -0.0001    0.0000    0.0001    0.0000
      141 CR     7g0       -0.0000   -0.0000   -0.0000    0.0000    0.0000    0.0000   -0.0000    0.0000    0.0000    0.0000
      142 CR     8g0       -0.0000    0.0000   -0.0000    0.0000    0.0000    0.0000   -0.0000    0.0000   -0.0000    0.0000
      143 CR     5g1+      -0.0000    0.0000   -0.0000    0.0000    0.0000    0.0001   -0.0002    0.0000    0.0000    0.0000
      144 CR     6g1+      -0.0000   -0.0000    0.0000   -0.0000    0.0000    0.0001   -0.0002    0.0000    0.0001    0.0000
      145 CR     7g1+       0.0000    0.0000   -0.0000    0.0000    0.0000    0.0000   -0.0001    0.0000    0.0001    0.0000
      146 CR     8g1+       0.0000   -0.0000   -0.0000    0.0000    0.0000   -0.0000    0.0000   -0.0000    0.0000    0.0000
      147 CR     5g2+      -0.0000    0.0000    0.0000   -0.0000   -0.0000    0.0000    0.0000   -0.0000   -0.0002   -0.0000
      148 CR     6g2+       0.0000   -0.0000   -0.0000    0.0000    0.0000    0.0000    0.0001   -0.0000   -0.0002   -0.0000
      149 CR     7g2+       0.0000    0.0000   -0.0000    0.0000   -0.0000   -0.0000    0.0000   -0.0000   -0.0000   -0.0000
      150 CR     8g2+       0.0000   -0.0000    0.0000   -0.0000   -0.0000   -0.0000    0.0000   -0.0000    0.0000   -0.0000
      151 CR     5g3+      -0.0000    0.0000    0.0000   -0.0000    0.0000    0.0001    0.0002   -0.0000    0.0001   -0.0000
      152 CR     6g3+      -0.0000   -0.0000   -0.0000    0.0000    0.0000    0.0001    0.0002   -0.0000    0.0001   -0.0000
      153 CR     7g3+       0.0000    0.0000    0.0000   -0.0000    0.0000    0.0000    0.0000   -0.0000    0.0001   -0.0000
      154 CR     8g3+       0.0000   -0.0000    0.0000   -0.0000    0.0000   -0.0000   -0.0000    0.0000    0.0000   -0.0000
      155 CR     5g4+       0.0000   -0.0000    0.0000   -0.0000    0.0000   -0.0000    0.0001   -0.0000    0.0003   -0.0000
      156 CR     6g4+      -0.0000    0.0000   -0.0000    0.0000   -0.0000   -0.0000    0.0001   -0.0000    0.0002   -0.0000
      157 CR     7g4+      -0.0000   -0.0000    0.0000   -0.0000    0.0000    0.0000    0.0000   -0.0000    0.0000   -0.0000
      158 CR     8g4+      -0.0000    0.0000    0.0000   -0.0000    0.0000    0.0000    0.0000   -0.0000   -0.0001   -0.0000
      159 CR     6h5-      -0.0000   -0.0000   -0.0000   -0.0000   -0.0000    0.0000   -0.0000   -0.0000   -0.0000   -0.0000
      160 CR     7h5-       0.0000    0.0000    0.0000    0.0000    0.0000   -0.0000   -0.0000   -0.0000   -0.0000   -0.0001
      161 CR     6h4-      -0.0000   -0.0000    0.0000    0.0000   -0.0000   -0.0000    0.0000    0.0000   -0.0000    0.0004
      162 CR     7h4-       0.0000    0.0000   -0.0000   -0.0000    0.0000    0.0000    0.0000    0.0000   -0.0000    0.0006
      163 CR     6h3-      -0.0000   -0.0000    0.0000    0.0000   -0.0000    0.0000    0.0000    0.0000    0.0000    0.0000
      164 CR     7h3-       0.0000    0.0000   -0.0000   -0.0000    0.0000   -0.0000    0.0000    0.0000   -0.0000    0.0000
      165 CR     6h2-       0.0000    0.0000    0.0000    0.0000   -0.0000    0.0000    0.0000    0.0001   -0.0000   -0.0003
      166 CR     7h2-       0.0000   -0.0000   -0.0000   -0.0000    0.0000    0.0000    0.0000    0.0001   -0.0000   -0.0004
      167 CR     6h1-      -0.0000   -0.0000   -0.0000   -0.0000   -0.0000    0.0000   -0.0000   -0.0000    0.0000   -0.0000
      168 CR     7h1-       0.0000    0.0000    0.0000    0.0000    0.0000   -0.0000   -0.0000   -0.0000   -0.0000   -0.0000
      169 CR     6h0        0.0000   -0.0000   -0.0000    0.0000   -0.0000   -0.0000   -0.0000    0.0000   -0.0000   -0.0000
      170 CR     7h0        0.0000   -0.0000    0.0000   -0.0000    0.0000   -0.0000   -0.0000   -0.0000   -0.0001   -0.0000
      171 CR     6h1+       0.0000    0.0000    0.0000   -0.0000   -0.0000   -0.0000    0.0000   -0.0000   -0.0000    0.0000
      172 CR     7h1+       0.0000   -0.0000   -0.0000    0.0000    0.0000   -0.0000    0.0000   -0.0000   -0.0001    0.0000
      173 CR     6h2+      -0.0000    0.0000    0.0000   -0.0000    0.0000    0.0000    0.0000   -0.0000    0.0000    0.0000
      174 CR     7h2+      -0.0000    0.0000   -0.0000    0.0000   -0.0000    0.0000    0.0000   -0.0000    0.0000    0.0000
      175 CR     6h3+      -0.0000   -0.0000    0.0000   -0.0000    0.0000    0.0000    0.0001   -0.0000    0.0001   -0.0000
      176 CR     7h3+      -0.0000    0.0000   -0.0000    0.0000   -0.0000    0.0000    0.0001   -0.0000    0.0001   -0.0000
      177 CR     6h4+      -0.0000    0.0000   -0.0000    0.0000    0.0000    0.0000   -0.0000    0.0000    0.0001   -0.0000
      178 CR     7h4+      -0.0000    0.0000    0.0000   -0.0000   -0.0000    0.0001   -0.0000    0.0000    0.0001   -0.0000
      179 CR     6h5+       0.0000    0.0000    0.0000   -0.0000   -0.0000   -0.0000    0.0000   -0.0000   -0.0001   -0.0000
      180 CR     7h5+       0.0000   -0.0000   -0.0000    0.0000    0.0000   -0.0000    0.0000   -0.0000   -0.0001   -0.0000

          Orbital           11        12        13        14        15    
          Energy            3.2535    3.2602    3.2603    3.2615    3.6928
          Occ. No.          0.0000    0.0000    0.0000    0.0000    0.0000

        1 CR     1s        -0.0000    0.0000    0.0000   -0.0000   -0.0000
        2 CR     2s         0.0000   -0.0000    0.0000    0.0001   -0.0000
        3 CR     3s         0.0000   -0.0001   -0.0000    0.0102    0.0391
        4 CR     4s         0.0001   -0.0005   -0.0000    0.0555    0.5891
        5 CR     5s        -0.0000    0.0002    0.0000   -0.0204   -0.2557
        6 CR     6s        -0.0000    0.0001    0.0000   -0.0134   -0.0857
        7 CR     7s         0.0000   -0.0000   -0.0000    0.0036    0.0331
        8 CR     8s         0.0000   -0.0000   -0.0000    0.0046    0.0263
        9 CR     9s         0.0000   -0.0000   -0.0000    0.0007    0.0040
       10 CR    10s         0.0000    0.0000   -0.0000    0.0000    0.0004
       11 CR     2px       -0.0000    0.0000    0.0000   -0.0008    0.0000
       12 CR     3px       -0.0001    0.0005    0.0000   -0.0657    0.0558
       13 CR     4px        0.0003   -0.0011   -0.0000    0.1392    0.6176
       14 CR     5px       -0.0001    0.0006    0.0000   -0.0766   -0.0822
       15 CR     6px       -0.0001    0.0002    0.0000   -0.0265   -0.1548
       16 CR     7px        0.0000   -0.0002   -0.0000    0.0213    0.0126
       17 CR     8px        0.0000   -0.0001   -0.0000    0.0089    0.0573
       18 CR     9px        0.0000    0.0000    0.0000   -0.0023    0.0363
       19 CR    10px       -0.0000    0.0000    0.0000   -0.0012    0.0131
       20 CR    11px        0.0000    0.0000    0.0000   -0.0001    0.0019
       21 CR     2py        0.0000   -0.0000   -0.0007   -0.0000    0.0000
       22 CR     3py        0.0000   -0.0000   -0.0553   -0.0000    0.0000
       23 CR     4py       -0.0000    0.0000    0.0876    0.0000    0.0000
       24 CR     5py        0.0000   -0.0000   -0.0601   -0.0000    0.0000
       25 CR     6py        0.0000   -0.0000   -0.0140   -0.0000    0.0000
       26 CR     7py       -0.0000    0.0000    0.0175    0.0000   -0.0000
       27 CR     8py       -0.0000    0.0000    0.0044    0.0000    0.0000
       28 CR     9py        0.0000   -0.0000   -0.0039   -0.0000    0.0000
       29 CR    10py        0.0000   -0.0000   -0.0018   -0.0000    0.0000
       30 CR    11py        0.0000   -0.0000   -0.0002   -0.0000    0.0000
       31 CR     2pz       -0.0001   -0.0007    0.0000   -0.0000    0.0000
       32 CR     3pz       -0.0078   -0.0553    0.0000   -0.0004    0.0000
       33 CR     4pz        0.0140    0.0878   -0.0000    0.0007    0.0003
       34 CR     5pz       -0.0084   -0.0601    0.0000   -0.0005   -0.0001
       35 CR     6pz       -0.0024   -0.0140    0.0000   -0.0001   -0.0001
       36 CR     7pz        0.0024    0.0175   -0.0000    0.0001    0.0000
       37 CR     8pz        0.0008    0.0044   -0.0000    0.0000    0.0001
       38 CR     9pz       -0.0004   -0.0039    0.0000   -0.0000    0.0001
       39 CR    10pz       -0.0002   -0.0018    0.0000   -0.0000    0.0000
       40 CR    11pz       -0.0000   -0.0002    0.0000   -0.0000    0.0000
       41 CR     3d2-      -0.0000    0.0000    0.9358    0.0000   -0.0000
       42 CR     4d2-       0.0000   -0.0000   -0.2814   -0.0000    0.0000
       43 CR     5d2-      -0.0000    0.0000    0.0022    0.0000    0.0000
       44 CR     6d2-      -0.0000    0.0000    0.0117    0.0000    0.0000
       45 CR     7d2-      -0.0000    0.0000    0.0102    0.0000   -0.0000
       46 CR     8d2-       0.0000   -0.0000   -0.0037   -0.0000   -0.0000
       47 CR     9d2-       0.0000   -0.0000   -0.0017   -0.0000   -0.0000
       48 CR    10d2-      -0.0000    0.0000    0.0003    0.0000    0.0000
       49 CR     3d1-       0.0000    0.0000    0.1388    0.0000    0.0000
       50 CR     4d1-      -0.0000   -0.0000   -0.0488   -0.0000   -0.0000
       51 CR     5d1-      -0.0000   -0.0000   -0.0014   -0.0000   -0.0000
       52 CR     6d1-       0.0000    0.0000    0.0026    0.0000    0.0000
       53 CR     7d1-       0.0000    0.0000    0.0028    0.0000    0.0000
       54 CR     8d1-      -0.0000   -0.0000   -0.0001   -0.0000    0.0000
       55 CR     9d1-      -0.0000   -0.0000   -0.0005   -0.0000    0.0000
       56 CR    10d1-      -0.0000   -0.0000   -0.0001   -0.0000    0.0000
       57 CR     3d0        0.8117   -0.1102    0.0000   -0.4728    0.0244
       58 CR     4d0       -0.2675    0.0391   -0.0000    0.1326   -0.1774
       59 CR     5d0       -0.0018    0.0013   -0.0000   -0.0029   -0.0426
       60 CR     6d0        0.0148   -0.0021    0.0000   -0.0042    0.0168
       61 CR     7d0        0.0129   -0.0023    0.0000   -0.0033    0.0336
       62 CR     8d0       -0.0039    0.0001   -0.0000    0.0019    0.0147
       63 CR     9d0       -0.0035    0.0004   -0.0000   -0.0001   -0.0056
       64 CR    10d0       -0.0003    0.0001    0.0000   -0.0005   -0.0027
       65 CR     3d1+       0.1329    0.9368   -0.0000    0.0077   -0.0000
       66 CR     4d1+      -0.0372   -0.2816    0.0000   -0.0023    0.0004
       67 CR     5d1+       0.0012    0.0022   -0.0000    0.0000    0.0001
       68 CR     6d1+       0.0015    0.0117   -0.0000    0.0001   -0.0001
       69 CR     7d1+       0.0009    0.0102   -0.0000    0.0001   -0.0001
       70 CR     8d1+      -0.0009   -0.0038    0.0000   -0.0000   -0.0000
       71 CR     9d1+      -0.0002   -0.0017    0.0000   -0.0000    0.0001
       72 CR    10d1+       0.0001    0.0003   -0.0000    0.0000    0.0000
       73 CR     3d2+       0.4702   -0.0728   -0.0000    0.8139   -0.0423
       74 CR     4d2+      -0.1548    0.0252    0.0000   -0.2279    0.3081
       75 CR     5d2+      -0.0010    0.0007   -0.0000    0.0051    0.0742
       76 CR     6d2+       0.0086   -0.0013    0.0000    0.0072   -0.0290
       77 CR     7d2+       0.0074   -0.0014    0.0000    0.0057   -0.0584
       78 CR     8d2+      -0.0022    0.0001    0.0000   -0.0032   -0.0255
       79 CR     9d2+      -0.0020    0.0003   -0.0000    0.0001    0.0096
       80 CR    10d2+      -0.0001    0.0000   -0.0000    0.0008    0.0047
       81 CR     4f3-      -0.0000    0.0000    0.0767    0.0000    0.0000
       82 CR     5f3-      -0.0000    0.0000    0.0403    0.0000    0.0000
       83 CR     6f3-      -0.0000   -0.0000   -0.0023   -0.0000    0.0000
       84 CR     7f3-       0.0000   -0.0000   -0.0074   -0.0000    0.0000
       85 CR     8f3-       0.0000   -0.0000   -0.0034   -0.0000   -0.0000
       86 CR     9f3-       0.0000   -0.0000   -0.0006   -0.0000   -0.0000
       87 CR     4f2-       0.0000    0.0000    0.0070    0.0000   -0.0000
       88 CR     5f2-       0.0000    0.0000    0.0007    0.0000   -0.0000
       89 CR     6f2-      -0.0000   -0.0000   -0.0035   -0.0000   -0.0000
       90 CR     7f2-      -0.0000   -0.0000   -0.0018   -0.0000   -0.0000
       91 CR     8f2-      -0.0000    0.0000    0.0004    0.0000    0.0000
       92 CR     9f2-       0.0000    0.0000    0.0014    0.0000    0.0000
       93 CR     4f1-       0.0000   -0.0000   -0.0198   -0.0000   -0.0000
       94 CR     5f1-       0.0000   -0.0000   -0.0104   -0.0000   -0.0000
       95 CR     6f1-       0.0000    0.0000    0.0006    0.0000   -0.0000
       96 CR     7f1-      -0.0000    0.0000    0.0019    0.0000   -0.0000
       97 CR     8f1-      -0.0000    0.0000    0.0009    0.0000    0.0000
       98 CR     9f1-      -0.0000    0.0000    0.0001    0.0000    0.0000
       99 CR     4f0       -0.0074   -0.0486    0.0000    0.0003    0.0054
      100 CR     5f0       -0.0046   -0.0256    0.0000    0.0011    0.0116
      101 CR     6f0       -0.0006    0.0014   -0.0000    0.0013    0.0116
      102 CR     7f0        0.0004    0.0047   -0.0000    0.0006    0.0058
      103 CR     8f0        0.0005    0.0022   -0.0000   -0.0001   -0.0007
      104 CR     9f0        0.0004    0.0004   -0.0000   -0.0004   -0.0034
      105 CR     4f1+       0.0463   -0.0047    0.0000   -0.0526   -0.0214
      106 CR     5f1+       0.0216   -0.0002    0.0000   -0.0279   -0.0478
      107 CR     6f1+      -0.0041    0.0027   -0.0000    0.0018   -0.0361
      108 CR     7f1+      -0.0050    0.0014   -0.0000    0.0056   -0.0063
      109 CR     8f1+      -0.0013   -0.0003   -0.0000    0.0025    0.0111
      110 CR     9f1+       0.0009   -0.0011    0.0000    0.0003    0.0163
      111 CR     4f2+       0.0096    0.0627   -0.0000    0.0011    0.0044
      112 CR     5f2+       0.0060    0.0331   -0.0000    0.0014    0.0094
      113 CR     6f2+       0.0008   -0.0018    0.0000    0.0010    0.0093
      114 CR     7f2+      -0.0005   -0.0060    0.0000    0.0004    0.0046
      115 CR     8f2+      -0.0006   -0.0028    0.0000   -0.0001   -0.0007
      116 CR     9f2+      -0.0005   -0.0005    0.0000   -0.0003   -0.0028
      117 CR     4f3+       0.0360   -0.0045   -0.0000    0.0677    0.0280
      118 CR     5f3+       0.0168   -0.0006   -0.0000    0.0360    0.0625
      119 CR     6f3+      -0.0032    0.0022   -0.0000   -0.0022    0.0473
      120 CR     7f3+      -0.0039    0.0012    0.0000   -0.0072    0.0084
      121 CR     8f3+      -0.0010   -0.0002    0.0000   -0.0033   -0.0145
      122 CR     9f3+       0.0007   -0.0008    0.0000   -0.0005   -0.0213
      123 CR     5g4-      -0.0000    0.0000    0.0030    0.0000    0.0000
      124 CR     6g4-      -0.0000    0.0000    0.0072    0.0000    0.0000
      125 CR     7g4-      -0.0000    0.0000    0.0064    0.0000    0.0000
      126 CR     8g4-      -0.0000    0.0000    0.0037    0.0000    0.0000
      127 CR     5g3-       0.0000   -0.0000   -0.0005   -0.0000   -0.0000
      128 CR     6g3-       0.0000   -0.0000   -0.0013   -0.0000   -0.0000
      129 CR     7g3-       0.0000   -0.0000   -0.0018   -0.0000   -0.0000
      130 CR     8g3-       0.0000   -0.0000   -0.0017   -0.0000   -0.0000
      131 CR     5g2-       0.0000   -0.0000   -0.0011   -0.0000   -0.0000
      132 CR     6g2-       0.0000   -0.0000   -0.0027   -0.0000   -0.0000
      133 CR     7g2-       0.0000   -0.0000   -0.0024   -0.0000   -0.0000
      134 CR     8g2-       0.0000   -0.0000   -0.0014   -0.0000   -0.0000
      135 CR     5g1-      -0.0000    0.0000    0.0004    0.0000    0.0000
      136 CR     6g1-      -0.0000    0.0000    0.0010    0.0000    0.0000
      137 CR     7g1-      -0.0000    0.0000    0.0011    0.0000    0.0000
      138 CR     8g1-      -0.0000    0.0000    0.0009    0.0000    0.0000
      139 CR     5g0       -0.0011   -0.0001   -0.0000    0.0011    0.0018
      140 CR     6g0       -0.0024   -0.0005    0.0000    0.0024    0.0038
      141 CR     7g0       -0.0020   -0.0009    0.0000    0.0018    0.0037
      142 CR     8g0       -0.0010   -0.0009    0.0000    0.0007    0.0024
      143 CR     5g1+      -0.0004   -0.0025    0.0000    0.0003    0.0030
      144 CR     6g1+      -0.0011   -0.0058    0.0000    0.0009    0.0091
      145 CR     7g1+      -0.0012   -0.0052    0.0000    0.0013    0.0124
      146 CR     8g1+      -0.0009   -0.0030    0.0000    0.0012    0.0114
      147 CR     5g2+       0.0010    0.0005   -0.0000   -0.0016   -0.0028
      148 CR     6g2+       0.0023    0.0011   -0.0000   -0.0035   -0.0059
      149 CR     7g2+       0.0019    0.0014   -0.0000   -0.0027   -0.0057
      150 CR     8g2+       0.0010    0.0012   -0.0000   -0.0011   -0.0037
      151 CR     5g3+       0.0004    0.0022   -0.0000    0.0004    0.0035
      152 CR     6g3+       0.0010    0.0051   -0.0000    0.0012    0.0106
      153 CR     7g3+       0.0011    0.0046   -0.0000    0.0016    0.0144
      154 CR     8g3+       0.0008    0.0026   -0.0000    0.0014    0.0132
      155 CR     5g4+       0.0013    0.0004   -0.0000    0.0021    0.0038
      156 CR     6g4+       0.0030    0.0011   -0.0000    0.0047    0.0082
      157 CR     7g4+       0.0025    0.0014   -0.0000    0.0037    0.0081
      158 CR     8g4+       0.0012    0.0013   -0.0000    0.0015    0.0054
      159 CR     6h5-      -0.0000    0.0000    0.0006    0.0000    0.0000
      160 CR     7h5-      -0.0000    0.0000    0.0009    0.0000    0.0000
      161 CR     6h4-       0.0000   -0.0000   -0.0001   -0.0000   -0.0000
      162 CR     7h4-       0.0000   -0.0000   -0.0001   -0.0000   -0.0000
      163 CR     6h3-       0.0000   -0.0000   -0.0003   -0.0000   -0.0000
      164 CR     7h3-       0.0000   -0.0000   -0.0004   -0.0000    0.0000
      165 CR     6h2-      -0.0000    0.0000    0.0002    0.0000    0.0000
      166 CR     7h2-      -0.0000    0.0000    0.0004    0.0000    0.0000
      167 CR     6h1-      -0.0000    0.0000    0.0001   -0.0000    0.0000
      168 CR     7h1-      -0.0000    0.0000    0.0001    0.0000   -0.0000
      169 CR     6h0        0.0000    0.0003   -0.0000   -0.0001   -0.0007
      170 CR     7h0        0.0000    0.0005   -0.0000   -0.0002   -0.0013
      171 CR     6h1+      -0.0003   -0.0000   -0.0000    0.0003   -0.0001
      172 CR     7h1+      -0.0004   -0.0001   -0.0000    0.0003   -0.0003
      173 CR     6h2+      -0.0000   -0.0004    0.0000    0.0001    0.0004
      174 CR     7h2+      -0.0000   -0.0006    0.0000    0.0001    0.0008
      175 CR     6h3+       0.0002    0.0002   -0.0000   -0.0003    0.0001
      176 CR     7h3+       0.0002    0.0003   -0.0000   -0.0003    0.0003
      177 CR     6h4+       0.0000    0.0004   -0.0000    0.0002    0.0010
      178 CR     7h4+       0.0000    0.0005   -0.0000    0.0003    0.0021
      179 CR     6h5+       0.0003    0.0001   -0.0000    0.0004   -0.0002
      180 CR     7h5+       0.0005    0.0003   -0.0000    0.0005   -0.0003
--


++    Molecular charges:
      ------------------

      Mulliken charges per centre and basis function type
      ---------------------------------------------------

                CR    
      1s       2.0000
      2s       2.0000
      2px      2.0000
      2pz      2.0000
      2py      2.0000
      3s       1.9810
      3px      1.9491
      3pz      1.9558
      3py      1.9558
      4s       0.0058
      3d2+     0.0104
      3d1+     0.0093
      3d0      0.0035
      3d1-     0.0000
      3d2-     0.0093
      4px      0.0152
      4pz      0.0156
      4py      0.0156
      5s       0.0127
      4d2+     0.0005
      4d1+     0.0005
      4d0      0.0002
      4d1-     0.0000
      4d2-     0.0005
      5px      0.0185
      5pz      0.0181
      5py      0.0181
      6s       0.0021
      4f3+     0.0000
      4f2+     0.0000
      4f1+     0.0000
      4f0      0.0000
      4f1-     0.0000
      4f2-     0.0000
      4f3-     0.0000
      5d2+     0.0002
      5d1+     0.0002
      5d0      0.0001
      5d1-     0.0000
      5d2-     0.0002
      6px      0.0000
      6pz      0.0000
      6py      0.0000
      7s       0.0002
      5f3+     0.0000
      5f2+     0.0000
      5f1+     0.0000
      5f0      0.0000
      5f1-     0.0000
      5f2-     0.0000
      5f3-     0.0000
      6d2+     0.0000
      6d1+     0.0000
      6d0      0.0000
      6d1-     0.0000
      6d2-     0.0000
      7px      0.0004
      7pz      0.0004
      7py      0.0004
      5g4+     0.0000
      5g3+     0.0000
      5g2+     0.0000
      5g1+     0.0000
      5g0      0.0000
      5g1-     0.0000
      5g2-     0.0000
      5g3-     0.0000
      5g4-     0.0000
      6f3+     0.0000
      6f2+     0.0000
      6f1+     0.0000
      6f0      0.0000
      6f1-     0.0000
      6f2-     0.0000
      6f3-     0.0000
      6g4+     0.0000
      6g3+     0.0000
      6g2+     0.0000
      6g1+     0.0000
      6g0      0.0000
      6g1-     0.0000
      6g2-     0.0000
      6g3-     0.0000
      6g4-     0.0000
      6h5+     0.0000
      6h4+     0.0000
      6h3+     0.0000
      6h2+     0.0000
      6h1+     0.0000
      6h0      0.0000
      6h1-     0.0000
      6h2-     0.0000
      6h3-     0.0000
      6h4-     0.0000
      6h5-     0.0000
      7d2+     0.0000
      7d1+     0.0000
      7d0      0.0000
      7d1-     0.0000
      7d2-     0.0000
      7f3+     0.0000
      7f2+     0.0000
      7f1+     0.0000
      7f0      0.0000
      7f1-     0.0000
      7f2-     0.0000
      7f3-     0.0000
      7g4+     0.0000
      7g3+     0.0000
      7g2+     0.0000
      7g1+     0.0000
      7g0      0.0000
      7g1-     0.0000
      7g2-     0.0000
      7g3-     0.0000
      7g4-     0.0000
      7h5+     0.0000
      7h4+     0.0000
      7h3+     0.0000
      7h2+     0.0000
      7h1+     0.0000
      7h0      0.0000
      7h1-     0.0000
      7h2-     0.0000
      7h3-     0.0000
      7h4-     0.0000
      7h5-     0.0000
      8s       0.0001
      8px      0.0000
      8pz      0.0000
      8py      0.0000
      8d2+     0.0000
      8d1+     0.0000
      8d0      0.0000
      8d1-     0.0000
      8d2-     0.0000
      8f3+     0.0000
      8f2+     0.0000
      8f1+     0.0000
      8f0      0.0000
      8f1-     0.0000
      8f2-     0.0000
      8f3-     0.0000
      8g4+     0.0000
      8g3+     0.0000
      8g2+     0.0000
      8g1+     0.0000
      8g0      0.0000
      8g1-     0.0000
      8g2-     0.0000
      8g3-     0.0000
      8g4-     0.0000
      9s       0.0000
      9px      0.0000
      9pz      0.0000
      9py      0.0000
      9d2+     0.0000
      9d1+     0.0000
      9d0      0.0000
      9d1-     0.0000
      9d2-     0.0000
      9f3+     0.0000
      9f2+     0.0000
      9f1+     0.0000
      9f0      0.0000
      9f1-     0.0000
      9f2-     0.0000
      9f3-     0.0000
     10s       0.0000
     10px      0.0000
     10pz      0.0000
     10py      0.0000
     10d2+     0.0000
     10d1+     0.0000
     10d0      0.0000
     10d1-     0.0000
     10d2-     0.0000
     11px      0.0000
     11pz      0.0000
     11py      0.0000
      Total   18.0000

      N-E      6.0000

      Total electronic charge=   18.000000

      Total            charge=    6.000000
--

 Sorry, Molden does not know how to handle
 functions with angular momentum larger than g

++    Static properties:
      ------------------


      LoProp Charges per center


                   CR    
      Nuclear     24.0000
      Electronic -18.0000

      Total        6.0000
--


++    Molecular properties:
      ---------------------

      Charge (e):
                      =    6.0000
      Dipole Moment (Debye):
      Origin of the operator (Ang)=    0.0000    0.0000    0.0000
                   X= -1.1092E+00               Y= -3.8979E-14               Z=  1.3280E-01           Total=  1.1171E+00
      Center of Charge (Ang)
                     X=   -0.03848778               Y=   -0.00000000               Z=    0.00460806
      Quadrupole Moment (Debye*Ang):
      Origin of the operator (Ang)=   -0.0000   -0.0000    0.0046
                  XX= -3.4671E+00              XY= -7.0686E-15              XZ=  4.2974E-05              YY= -3.4563E+00
                  YZ=  5.5570E-15              ZZ= -3.4563E+00
      In traceless form (Debye*Ang)
                  XX= -1.0865E-02              XY= -1.0603E-14              XZ=  6.4461E-05              YY=  5.4402E-03
                  YZ=  8.3356E-15              ZZ=  5.4252E-03
--

 Sorry, Molden does not know how to handle
 functions with angular momentum larger than g
 ###############################################################################
 ###############################################################################
 ###                                                                         ###
 ###                                                                         ###
 ###    WARNING: RunFile label nBas                                          ###
 ###    was used       62 times                                              ###
 ###                                                                         ###
 ###                                                                         ###
 ###############################################################################
 ###############################################################################
Note: The following floating-point exceptions are signalling: IEEE_UNDERFLOW_FLAG IEEE_DENORMAL
--- Stop Module: scf at Wed Mar 26 15:56:22 2025 /rc=_RC_ALL_IS_WELL_ ---
*** files: chromium_so_cf.LprOrb chromium_so_cf.ScfOrb xmldump
    saved to directory /home4/s4752295/Internship/Initial_simulations/Point_charge_model/1_electron/Madelung_charges_9_active_space/Cr
--- Module scf spent 15 seconds ---

*** symbolic link created: INPORB -> chromium_so_cf.ScfOrb
--- Start Module: rasscf at Wed Mar 26 15:56:23 2025 ---

()()()()()()()()()()()()()()()()()()()()()()()()()()()()()()()()()()()()()()()()()()()()()()()()()()

                                              &RASSCF

                                   only a single process is used
                       available to each process: 4.1 GB of memory, 1 thread?
                                            pid: 642879
()()()()()()()()()()()()()()()()()()()()()()()()()()()()()()()()()()()()()()()()()()()()()()()()()()


      Header of the ONEINT file:
      --------------------------
      
      Integrals generated by seward 4.2.0  , Wed Mar 26 15:55:56 2025


      OrdInt status: non-squared


      Cartesian coordinates in Angstrom:
      -----------------------------------------------------
[...]
         3   11       2.86972923E-04  1.57409676E+03  2.14393758E-14  2.10108810E+06  2.10266220E+06
         3   13       1.06321465E-02  6.12894333E+07  7.60843623E-13  1.85015236E+08  2.46304669E+08
         3   15       8.00221368E-03  1.59985355E-12  1.86165176E+08  7.68506138E-13  1.86165176E+08
         3   17       3.88176354E-05  7.47962556E+03  9.43129679E-14  1.51959793E+06  1.52707756E+06
         4   12       2.86972923E-04  1.57409676E+03  2.14393758E-14  2.10108810E+06  2.10266220E+06
         4   14       1.06321465E-02  6.12894333E+07  7.60843623E-13  1.85015236E+08  2.46304669E+08
         4   16       8.00221368E-03  1.59985355E-12  1.86165176E+08  7.68506138E-13  1.86165176E+08
         4   18       3.88176354E-05  7.47962556E+03  9.43129679E-14  1.51959793E+06  1.52707756E+06
         5   11       1.19974918E-02  7.64276519E+03  8.02094060E-09  8.50580986E+07  8.50657413E+07
         5   13       5.80463483E-02  1.31403550E+09  6.02663689E-10  6.14494400E+06  1.32018044E+09
         5   15       3.13211968E-04  1.27104330E-07  7.15402265E+06  5.94425546E-10  7.15402265E+06
         5   17       8.66800202E-03  6.57106021E+04  3.24899527E-08  3.36154416E+08  3.36220127E+08
         6   12       1.19974918E-02  7.64276519E+03  8.02094060E-09  8.50580986E+07  8.50657413E+07
         6   14       5.80463483E-02  1.31403550E+09  6.02663689E-10  6.14494400E+06  1.32018044E+09
         6   16       3.13211968E-04  1.27104330E-07  7.15402265E+06  5.94425546E-10  7.15402265E+06
         6   18       8.66800202E-03  6.57106021E+04  3.24899527E-08  3.36154416E+08  3.36220127E+08
         7   11       1.19015656E-02  1.88269908E-11  8.43655026E+07  8.08238906E-09  8.43655026E+07
         7   13       2.82145855E-04  1.27027944E-07  6.41614723E+06  4.86402503E-10  6.41614723E+06
         7   15       5.78420351E-02  1.31466087E+09  7.94790594E-10  6.32419262E+06  1.32098506E+09
         7   17       8.81466647E-03  5.48027247E-11  3.41874234E+08  3.19304422E-08  3.41874234E+08
         8   12       1.19015656E-02  1.88269908E-11  8.43655026E+07  8.08238906E-09  8.43655026E+07
         8   14       2.82145855E-04  1.27027944E-07  6.41614723E+06  4.86402503E-10  6.41614723E+06
         8   16       5.78420351E-02  1.31466087E+09  7.94790594E-10  6.32419262E+06  1.32098506E+09
         8   18       8.81466647E-03  5.48027247E-11  3.41874234E+08  3.19304422E-08  3.41874234E+08
         9   11       6.13815952E-02  4.30953787E+08  2.31028076E-12  3.06030232E+03  4.30956847E+08
         9   13       7.28340248E-03  3.70691683E+04  4.23052519E-13  1.64707811E+08  1.64744880E+08
         9   15       7.21691736E-03  3.63820225E-11  1.63941160E+08  2.11565157E-12  1.63941160E+08
         9   17       2.18067438E-02  8.42309370E+08  9.68676112E-12  2.79870483E+03  8.42312169E+08
        10   12       6.13815952E-02  4.30953787E+08  2.31028076E-12  3.06030232E+03  4.30956847E+08
        10   14       7.28340248E-03  3.70691683E+04  4.23052519E-13  1.64707811E+08  1.64744880E+08
        10   16       7.21691736E-03  3.63820225E-11  1.63941160E+08  2.11565157E-12  1.63941160E+08
        10   18       2.18067438E-02  8.42309370E+08  9.68676112E-12  2.79870483E+03  8.42312169E+08
        11   13       3.07682315E-01  1.61953788E+03  9.21521480E-12  1.36497906E+09  1.36498068E+09
        11   15       3.07780126E-01  5.14010890E-16  1.37865555E+09  9.37593506E-12  1.37865555E+09
        11   17       3.53101305E-01  4.48836089E+09  4.23728435E-15  2.12312800E+04  4.48838212E+09
        12   14       3.07682315E-01  1.61953788E+03  9.21521480E-12  1.36497906E+09  1.36498068E+09
        12   16       3.07780126E-01  5.14010890E-16  1.37865555E+09  9.37593506E-12  1.37865555E+09
        12   18       3.53101305E-01  4.48836089E+09  4.23728435E-15  2.12312800E+04  4.48838212E+09
        13   15       2.17634117E-04  3.29177179E-23  2.25892511E+01  5.98706751E-19  2.25892511E+01
        13   17       1.98077375E-03  8.07115696E+01  3.06751943E-14  4.21654650E+06  4.21662721E+06
        14   16       2.17634117E-04  3.29177179E-23  2.25892511E+01  5.98706751E-19  2.25892511E+01
        14   18       1.98077375E-03  8.07115696E+01  3.06751943E-14  4.21654650E+06  4.21662721E+06
        15   17       2.25843995E-03  1.90795537E-18  4.74080975E+06  3.09262570E-14  4.74080975E+06
        16   18       2.25843995E-03  1.90795537E-18  4.74080975E+06  3.09262570E-14  4.74080975E+06
     -----------------------------------------------------------------------------------------------
--

++ Velocity transition strengths (SO states):
   ------------------------------------------
    for osc. strength at least    1.0000000000000001E-005

      From   To        Osc. strength     Einstein coefficients Ax, Ay, Az (sec-1)    Total A (sec-1)
     -----------------------------------------------------------------------------------------------
         1    3       4.51050489E-05  8.96815088E-23  4.97682187E-04  1.17787783E-22  4.97682187E-04
         1    5       4.03196809E-03  7.94380204E-18  7.87530638E+03  7.45921331E-13  7.87530638E+03
         1    7       3.99741514E-03  3.28978493E-02  7.59506330E-13  7.92020568E+03  7.92023858E+03
         1    9       1.46281601E-04  2.17087666E-20  4.79431336E+02  2.48988934E-16  4.79431336E+02
         1   11       2.39997967E-04  4.43060339E-16  1.75861739E+06  4.94512116E-15  1.75861739E+06
         1   13       7.03101827E-03  9.12940333E-13  1.62888486E+08  6.76114364E-13  1.62888486E+08
         1   15       9.66246006E-03  5.97200829E+07  7.11813316E-13  1.65079986E+08  2.24800069E+08
         1   17       2.60597654E-05  4.66179817E-16  1.02522356E+06  8.61412080E-15  1.02522356E+06
         2    4       4.51050489E-05  8.96815088E-23  4.97682187E-04  1.17787783E-22  4.97682187E-04
         2    6       4.03196809E-03  7.94380204E-18  7.87530638E+03  7.45921331E-13  7.87530638E+03
         2    8       3.99741514E-03  3.28978493E-02  7.59506330E-13  7.92020568E+03  7.92023858E+03
         2   10       1.46281601E-04  2.17087666E-20  4.79431336E+02  2.48988934E-16  4.79431336E+02
         2   12       2.39997967E-04  4.43060339E-16  1.75861739E+06  4.94512116E-15  1.75861739E+06
         2   14       7.03101827E-03  9.12940333E-13  1.62888486E+08  6.76114364E-13  1.62888486E+08
         2   16       9.66246006E-03  5.97200829E+07  7.11813316E-13  1.65079986E+08  2.24800069E+08
         2   18       2.60597654E-05  4.66179817E-16  1.02522356E+06  8.61412080E-15  1.02522356E+06
         3    5       4.01100049E-03  1.13798081E-01  7.47921808E-13  7.79704157E+03  7.79715537E+03
         3    7       4.02497082E-03  2.34888841E-17  7.93724135E+03  7.39583611E-13  7.93724135E+03
         3    9       1.44074783E-04  7.20361180E-04  3.89777920E-16  4.70466652E+02  4.70467373E+02
         3   11       2.23664369E-04  1.34685896E+03  2.43793694E-14  1.63745670E+06  1.63880356E+06
         3   13       9.42292273E-03  5.56219939E+07  6.49528486E-13  1.62670516E+08  2.18292509E+08
         3   15       7.03100393E-03  1.59981687E-12  1.63571318E+08  6.50919637E-13  1.63571318E+08
         3   17       3.01312678E-05  6.86560002E+03  7.77565217E-14  1.17849622E+06  1.18536182E+06
         4    6       4.01100049E-03  1.13798081E-01  7.47921808E-13  7.79704157E+03  7.79715537E+03
         4    8       4.02497082E-03  2.34888841E-17  7.93724135E+03  7.39583611E-13  7.93724135E+03
         4   10       1.44074783E-04  7.20361180E-04  3.89777920E-16  4.70466652E+02  4.70467373E+02
         4   12       2.23664369E-04  1.34685896E+03  2.43793694E-14  1.63745670E+06  1.63880356E+06
         4   14       9.42292273E-03  5.56219939E+07  6.49528486E-13  1.62670516E+08  2.18292509E+08
         4   16       7.03100393E-03  1.59981687E-12  1.63571318E+08  6.50919637E-13  1.63571318E+08
         4   18       3.01312678E-05  6.86560002E+03  7.77565217E-14  1.17849622E+06  1.18536182E+06
         5    9       4.39134908E-02  4.73817140E-03  7.07392814E-13  7.48298698E+03  7.48299172E+03
         5   11       9.79430400E-03  6.52816882E+03  6.54545227E-09  6.94382056E+07  6.94447338E+07
         5   13       5.26383217E-02  1.19097821E+09  6.07723741E-10  6.20863254E+06  1.19718684E+09
         5   15       3.14991162E-04  1.15139256E-07  7.19468593E+06  6.00936395E-10  7.19468593E+06
         5   17       6.98673286E-03  5.82939388E+04  2.62143547E-08  2.70948608E+08  2.71006902E+08
         6   10       4.39134908E-02  4.73817140E-03  7.07392814E-13  7.48298698E+03  7.48299172E+03
         6   12       9.79430400E-03  6.52816882E+03  6.54545227E-09  6.94382056E+07  6.94447338E+07
         6   14       5.26383217E-02  1.19097821E+09  6.07723741E-10  6.20863254E+06  1.19718684E+09
         6   16       3.14991162E-04  1.15139256E-07  7.19468593E+06  6.00936395E-10  7.19468593E+06
         6   18       6.98673286E-03  5.82939388E+04  2.62143547E-08  2.70948608E+08  2.71006902E+08
         7    9       4.48114752E-02  2.59071975E-19  7.26960540E+03  6.93357706E-13  7.26960540E+03
         7   11       9.71893757E-03  1.62827313E-11  6.88939534E+07  6.59570201E-09  6.88939534E+07
         7   13       2.84723573E-04  1.15113029E-07  6.47478843E+06  4.90045761E-10  6.47478843E+06
         7   15       5.24418542E-02  1.19126115E+09  7.97983429E-10  6.39980172E+06  1.19766095E+09
         7   17       7.11332401E-03  5.03443184E-11  2.75889129E+08  2.57437513E-08  2.75889129E+08
         8   10       4.48114752E-02  2.59071975E-19  7.26960540E+03  6.93357706E-13  7.26960540E+03
         8   12       9.71893757E-03  1.62827313E-11  6.88939534E+07  6.59570201E-09  6.88939534E+07
         8   14       2.84723573E-04  1.15113029E-07  6.47478843E+06  4.90045761E-10  6.47478843E+06
         8   16       5.24418542E-02  1.19126115E+09  7.97983429E-10  6.39980172E+06  1.19766095E+09
         8   18       7.11332401E-03  5.03443184E-11  2.75889129E+08  2.57437513E-08  2.75889129E+08
         9   11       5.26665224E-02  3.69767564E+08  1.96381953E-12  2.51598253E+03  3.69770080E+08
         9   13       7.20976029E-03  3.55336101E+04  3.99098402E-13  1.63044185E+08  1.63079719E+08
         9   15       7.13805398E-03  3.37857736E-11  1.62150245E+08  2.13276358E-12  1.62150245E+08
         9   17       2.04875291E-02  7.91356743E+08  7.83421972E-12  1.89758530E+03  7.91358641E+08
        10   12       5.26665224E-02  3.69767564E+08  1.96381953E-12  2.51598253E+03  3.69770080E+08
        10   14       7.20976029E-03  3.55336101E+04  3.99098402E-13  1.63044185E+08  1.63079719E+08
        10   16       7.13805398E-03  3.37857736E-11  1.62150245E+08  2.13276358E-12  1.62150245E+08
        10   18       2.04875291E-02  7.91356743E+08  7.83421972E-12  1.89758530E+03  7.91358641E+08
        11   13       3.11873943E-01  2.35660684E+03  9.42361814E-12  1.38357858E+09  1.38358094E+09
        11   15       3.11268864E-01  3.21021316E-16  1.39428768E+09  9.44269932E-12  1.39428768E+09
        11   17       2.62117551E-01  3.33185641E+09  1.17365583E-15  1.40764591E+04  3.33187049E+09
        12   14       3.11873943E-01  2.35660684E+03  9.42361814E-12  1.38357858E+09  1.38358094E+09
        12   16       3.11268864E-01  3.21021316E-16  1.39428768E+09  9.44269932E-12  1.39428768E+09
        12   18       2.62117551E-01  3.33185641E+09  1.17365583E-15  1.40764591E+04  3.33187049E+09
        13   15       1.29175141E-04  3.66402207E-21  1.34077317E+01  4.70410770E-19  1.34077317E+01
        13   17       1.93295768E-03  4.93650227E+02  3.00415292E-14  4.11435808E+06  4.11485173E+06
        14   16       1.29175141E-04  3.66402207E-21  1.34077317E+01  4.70410770E-19  1.34077317E+01
        14   18       1.93295768E-03  4.93650227E+02  3.00415292E-14  4.11435808E+06  4.11485173E+06
        15   17       2.15383077E-03  9.73905067E-17  4.52123486E+06  2.63080338E-14  4.52123486E+06
        16   18       2.15383077E-03  9.73905067E-17  4.52123486E+06  2.63080338E-14  4.52123486E+06
     -----------------------------------------------------------------------------------------------
--

++ Length and velocity gauge comparison (SO states):

 --------------------------------------------------
 A comparison between the dipole oscillator strengths in 
 length and velocity gauge will be performed

 All dipole oscillator differences above the tolerance of   0.10000000000000001       will be printed 

 Due to basis set deficiency these oscillator may be problematic 

 The tolerance is defined as ABS(1-O_l/O_v) 
 O_l : dipole oscillator strength in length gauge
 O_p : dipole oscillator strength in velocity gauge
 --------------------------------------------------

  Problematic transitions have been found

      From   To       Difference (%) Osc. st. (len.) Osc. st. (vel.)
     ---------------------------------------------------------------
         1    3      --------------- below threshold  4.51050489E-05
         1    5      --------------- below threshold  4.03196809E-03
         1    7      --------------- below threshold  3.99741514E-03
         1    9      --------------- below threshold  1.46281601E-04
         1   11            28.216816  3.07717751E-04  2.39997967E-04
         1   13            13.736913  7.99686312E-03  7.03101827E-03
         1   15            12.818349  1.09010280E-02  9.66246006E-03
         1   17            30.434188  3.39908434E-05  2.60597654E-05
         2    4      --------------- below threshold  4.51050489E-05
         2    6      --------------- below threshold  4.03196809E-03
         2    8      --------------- below threshold  3.99741514E-03
         2   10      --------------- below threshold  1.46281601E-04
         2   12            28.216816  3.07717751E-04  2.39997967E-04
         2   14            13.736913  7.99686312E-03  7.03101827E-03
         2   16            12.818349  1.09010280E-02  9.66246006E-03
         2   18            30.434188  3.39908434E-05  2.60597654E-05
         3    5      --------------- below threshold  4.01100049E-03
         3    7      --------------- below threshold  4.02497082E-03
         3    9      --------------- below threshold  1.44074783E-04
         3   11            28.305158  2.86972923E-04  2.23664369E-04
         3   13            12.832788  1.06321465E-02  9.42292273E-03
         3   15            13.813244  8.00221368E-03  7.03100393E-03
         3   17            28.828417  3.88176354E-05  3.01312678E-05
         4    6      --------------- below threshold  4.01100049E-03
         4    8      --------------- below threshold  4.02497082E-03
         4   10      --------------- below threshold  1.44074783E-04
         4   12            28.305158  2.86972923E-04  2.23664369E-04
         4   14            12.832788  1.06321465E-02  9.42292273E-03
         4   16            13.813244  8.00221368E-03  7.03100393E-03
         4   18            28.828417  3.88176354E-05  3.01312678E-05
         5    9      --------------- below threshold  4.39134908E-02
         5   11            22.494583  1.19974918E-02  9.79430400E-03
         5   13            10.273934  5.80463483E-02  5.26383217E-02
         5   17            24.063739  8.66800202E-03  6.98673286E-03
         6   10      --------------- below threshold  4.39134908E-02
         6   12            22.494583  1.19974918E-02  9.79430400E-03
         6   14            10.273934  5.80463483E-02  5.26383217E-02
         6   18            24.063739  8.66800202E-03  6.98673286E-03
         7    9      --------------- below threshold  4.48114752E-02
         7   11            22.457475  1.19015656E-02  9.71893757E-03
         7   15            10.297464  5.78420351E-02  5.24418542E-02
         7   17            23.917685  8.81466647E-03  7.11332401E-03
         8   10      --------------- below threshold  4.48114752E-02
         8   12            22.457475  1.19015656E-02  9.71893757E-03
         8   16            10.297464  5.78420351E-02  5.24418542E-02
         8   18            23.917685  8.81466647E-03  7.11332401E-03
         9   11            16.547652  6.13815952E-02  5.26665224E-02
        10   12            16.547652  6.13815952E-02  5.26665224E-02
        11   17            34.711050  3.53101305E-01  2.62117551E-01
        12   18            34.711050  3.53101305E-01  2.62117551E-01
        13   15            68.479876  2.17634117E-04  1.29175141E-04
        14   16            68.479876  2.17634117E-04  1.29175141E-04
     ---------------------------------------------------------------

 Number of problematic transitions =                    52

--

 Electric-dipole - electric-octupole not included
++ I/O STATISTICS
 
  I. General I/O information
  - - - - - - - - - - - - - - - - - - - - - - - - - - - - - - - - - - - - - - - - - - -
  Unit  Name          Flsize      Write/Read            MBytes           Write/Read
                      (MBytes)       Calls              In/Out           Time, sec.
  - - - - - - - - - - - - - - - - - - - - - - - - - - - - - - - - - - - - - - - - - - -
   1  SCRATCH           0.00 .       9/      45 .      0.0/      0.0 .       0/       0
   2  ANNI              0.00 .       0/       0 .      0.0/      0.0 .       0/       0
   3  RUNFILE          14.88 .     322/   10733 .      2.3/     77.8 .       0/       0
   4  ONEINT            5.58 .       0/   23543 .      0.0/   3739.9 .       0/       0
   5  JOBIPH            6.48 .       0/      92 .      0.0/      0.8 .       0/       0
   6  ORDINT          506.53 .       1/    4053 .      0.0/   1013.0 .       0/       0
  - - - - - - - - - - - - - - - - - - - - - - - - - - - - - - - - - - - - - - - - - - -
   *  TOTAL           533.47 .     332/   38466 .      2.3/   4831.6 .       0/       0
  - - - - - - - - - - - - - - - - - - - - - - - - - - - - - - - - - - - - - - - - - - -
 
  II. I/O Access Patterns
  - - - - - - - - - - - - - - - - - - - -
  Unit  Name               % of random
                         Write/Read calls
  - - - - - - - - - - - - - - - - - - - -
   1  SCRATCH             88.9/ 100.0
   2  ANNI                 0.0/   0.0
   3  RUNFILE             28.6/  10.8
   4  ONEINT               0.0/  16.4
   5  JOBIPH               0.0/  76.1
   6  ORDINT             100.0/   0.0
  - - - - - - - - - - - - - - - - - - - -
--
--- Stop Module: rassi at Wed Mar 26 15:57:07 2025 /rc=_RC_ALL_IS_WELL_ ---
*** files: xmldump
    saved to directory /home4/s4752295/Internship/Initial_simulations/Point_charge_model/1_electron/Madelung_charges_9_active_space/Cr
--- Module rassi spent 3 seconds ---

.##################.
.# Happy landing! #.
.##################.

    Timing: Wall=71.53 User=48.74 System=21.78

###############################################################################
Hbrk Cluster
Job 15909454 for user s4752295
Finished at: Wed Mar 26 15:57:12 CET 2025

Job details:
============

Job ID                         : 15909454
Name                           : Cr_no_SO
User                           : s4752295
Partition                      : regularmedium
Nodes                          : node92
Number of Nodes                : 1
Cores                          : 1
Number of Tasks                : 1
State                          : COMPLETED  
Submit                         : 2025-03-26T15:54:05
Start                          : 2025-03-26T15:55:52
End                            : 2025-03-26T15:57:08
Reserved walltime              : 15:00:00
Used walltime                  : 00:01:16
Used CPU time                  : 00:01:12 (Efficiency: 94.39%)
% User (Computation)           : 69.26%
% System (I/O)                 : 30.74%
Total memory reserved          : 25000M
Maximum memory used            : 2.03G

Acknowledgements:
=================

Please see this page for information about acknowledging Hbrk in your publications:

https://wiki.hpc.rug.nl/habrok/introduction/scientific_output

################################################################################
