   This run of MOLCAS is using the pymolcas driver

                             OPE
                             OPE          NMOL  CASOP  ENMOLC A   SO
                 OPE        NMOLC        AS  OP EN  MO LC     AS  OP
                OPENM       OL CA        SO  PE NM  OL CA     SOP EN
                OP EN      MO   LC       AS  OP ENMOL  CASO   PENMOL
                OP  EN     MO   LC       AS  OP EN     MO     LC ASO
               OP   E  NMOL  C  AS       OP  EN MO     LC     AS  OP
               OP  E   NMO   LC AS        OPEN  MO     LCASOP EN   M
               O  PEN   MO  LCA  SO
            OPE   NMO   L   CAS    OP
        OPENMOL  CASOP     ENMOL   CASOPE
     OPENMOLCA   SOPENMOLCASOPEN   MOLCASOPE
    OPENMOLCAS   OP           EN   MOL    CAS
    OPENMOLCAS       OP  ENM        O     LCA
    OPENMOLCAS    OPEN  MOLCASO     P  E  NMO
    OPENMOLCAS     OP               E  N  MOL
    OPENMOLCA   SO           PENM   O  L  CAS    OPEN    MO    LCAS
    OPENMOLCA   SOP           ENM   O  L  CAS   OP  EN  MOLC  AS   O
    OPENMOLCA   SOPE           NM      O  LCA   S      OP  EN MO
    OPENMOLC                AS         O  PEN   M      OL  CA  SOPE
    OPENMO        LCASOPE  NMOL        C  ASO   P      ENMOLC     AS
    OPE     NMO      LCA  SO     P     E   NM   OL  CA SO  PE N   MO
          OPENMOLCA            SOPE   NMO        LCAS  O    P  ENMO
     OPENMOLCASOPENMOLCASOPENMOLCASOPENMOLCA
        OPENMOLCASOPENMOLCASOPENMOLCASOPE
            OPENMOLCASOPENMOLCASOPENM
               OPENMOLCASOPENMOLCA        version: o91e1abe7de707b ?
                   OPENMOLCASO
                       OPE                tag:

 OpenMolcas is free software; you can redistribute it and/or modify it
 under the terms of the GNU Lesser General Public License version 2.1.
 OpenMolcas is distributed in the hope that it will be useful, but it
 is provided "as is" and without any express or implied warranties.
 For more details see the full text of the license in the file
 LICENSE or in <http://www.gnu.org/licenses/>.

                 Copyright (C) The OpenMolcas Authors
           For the author list and the recommended citation,
                   consult the file CONTRIBUTORS.md

           *************************************************
           * pymolcas version py2.10                       *
           *   build 3068ae8b88c9345ec6cfef6fef7f1169      *
           *   (after the EMIL interpreter by V. Veryazov) *
           *************************************************

configuration info
------------------
Host name: login1 (Linux)
C Compiler ID: GNU
C flags: -std=gnu99
Fortran Compiler ID: GNU
Fortran flags: -fno-aggressive-loop-optimizations -cpp -fdefault-integer-8 -fmax-stack-var-size=1048576
Definitions: _MOLCAS_;_I8_;_LINUX_;_MKL_
Parallel: OFF (GA=OFF)


   -----------------------------------------------------------------------------------------------------------------------------------
  |
  |           Project: chromium_so_cf
  |    Submitted from: /home4/s4752295/Internship/Initial_simulations/Point_charge_model/1_electron/Madelung_charges_9_active_space/Cr
  |      Scratch area: /tmp/chromium_so_cf
  |   Save outputs to: /home4/s4752295/Internship/Initial_simulations/Point_charge_model/1_electron/Madelung_charges_9_active_space/Cr
  |            Molcas: /home4/s4752295/Internship/Molcas/recomp_try/OpenMolcas-master/build
  |
  | Scratch area is empty
  |
  |    MOLCAS_DRIVER = /home4/s4752295/Internship/Molcas/bin/pymolcas
  |    MOLCAS_NPROCS = 1
  |    MOLCAS_SOURCE = /home4/s4752295/Internship/Molcas/recomp_try/OpenMolcas-master
  | MOLCAS_STRUCTURE = 0
  |
   -----------------------------------------------------------------------------------------------------------------------------------

++ ---------   Input file   ---------

&SEWARD
AMFi

CLIG
$R

Basis Set
Cr.ANO-rcc.Roos.21s15p10d6f4g2h.10s10p8d6f4g2h.
Spherical d
Cr            -1.0658140267135469e-14   -3.5527134223784897e-15 0.008753588724385739
End of Basis

Xfield

414
-6.403521728,-2.4640000000000004,1.4225904      -0.625931
-6.403521728,-0.0,-2.8451824    -0.625931
-6.403521728,2.4640000000000004,1.4225904       -0.625931
-6.392553712000001,0.0,0.0      1.892092
4.2546875040000005,-2.4640000000000004,-1.4225904       2.515516
4.2546875040000005,0.0,2.8451824        2.515516
4.2546875040000005,2.4640000000000004,-1.4225904        2.515516
5.700781248,-4.928000000000001,0.0      0.004632
5.700781248,-2.4640000000000004,-4.2677728      0.004632
5.700781248,-2.4640000000000004,4.2677728       0.004632
5.700781248,2.4640000000000004,-4.2677728       0.004632
5.700781248,2.4640000000000004,4.2677728        0.004632
5.700781248,4.928000000000001,0.0       0.004632
6.606640624000001,-2.4640000000000004,1.4225904 -2.519484
6.606640624000001,-0.0,-2.8451824       -2.519484
6.606640624000001,2.4640000000000004,1.4225904  -2.519484
-4.6929687520000005,-0.0,-0.0   -3.142907
-7.960156256000001,-4.928000000000001,-2.8451824        -0.625931
-7.960156256000001,0.0,5.6903632        -0.625931
-7.960156256000001,4.928000000000001,-2.8451824 -0.625931
-10.575000000000001,-4.928000000000001,0.0      1.892092
-10.575000000000001,-2.4640000000000004,-4.2677728      1.892092
-10.575000000000001,-2.4640000000000004,4.2677728       1.892092
-10.575000000000001,2.4640000000000004,-4.2677728       1.892092
-10.575000000000001,2.4640000000000004,4.2677728        1.892092
-10.575000000000001,4.928000000000001,0.0       1.892092
40.275000000000006,-4.928000000000001,2.8451824 2.515516
40.275000000000006,-0.0,-5.6903632      2.515516
40.275000000000006,4.928000000000001,2.8451824  2.515516
5.821875008,-4.928000000000001,-2.8451824       -2.519484
5.821875008,0.0,5.6903632       -2.519484
5.821875008,4.928000000000001,-2.8451824        -2.519484
-5.171875008000001,-4.928000000000001,-0.0      -3.142907
-5.171875008000001,-2.4640000000000004,-4.2677728       -3.142907
-5.171875008000001,-2.4640000000000004,4.2677728        -3.142907
-5.171875008000001,2.4640000000000004,-4.2677728        -3.142907
-5.171875008000001,2.4640000000000004,4.2677728 -3.142907
-5.171875008000001,4.928000000000001,-0.0       -3.142907
-15.2375,-4.928000000000001,5.6903632   -0.625931
-15.2375,4.928000000000001,5.6903632    -0.625931
-15.2375,-7.392,1.4225904       -0.625931
-15.2375,7.392,1.4225904        -0.625931
-15.2375,-2.4640000000000004,-7.112955200000001 -0.625931
-15.2375,2.4640000000000004,-7.112955200000001  -0.625931
9.6125,-2.4640000000000004,-1.4225904   4.409069
9.6125,2.4640000000000004,-1.4225904    4.409069
9.6125,0.0,2.8451824    4.409069
-280.40000000000003,-0.0,-0.0   -5.030367
-280.40000000000003,0.0,0.0     5.039632
21.628124992,-4.928000000000001,-5.6903632      2.515516
21.628124992,4.928000000000001,-5.6903632       2.515516
21.628124992,-7.392,-1.4225904  2.515516
21.628124992,7.392,-1.4225904   2.515516
21.628124992,-2.4640000000000004,7.112955200000001      2.515516
21.628124992,2.4640000000000004,7.112955200000001       2.515516
30.462500000000002,-7.392,-4.2677728    0.004632
30.462500000000002,-7.392,4.2677728     0.004632
30.462500000000002,7.392,-4.2677728     0.004632
30.462500000000002,7.392,4.2677728      0.004632
30.462500000000002,-0.0,-8.5355456      0.004632
30.462500000000002,0.0,8.5355456        0.004632
76.92500000000001,-4.928000000000001,5.6903632  -2.519484
76.92500000000001,4.928000000000001,5.6903632   -2.519484
76.92500000000001,-7.392,1.4225904      -2.519484
76.92500000000001,7.392,1.4225904       -2.519484
76.92500000000001,-2.4640000000000004,-7.112955200000001        -2.519484
76.92500000000001,2.4640000000000004,-7.112955200000001 -2.519484
-233.4,-7.392,-4.2677728        1.892092
-233.4,-7.392,4.2677728 1.892092
-233.4,7.392,-4.2677728 1.892092
-233.4,7.392,4.2677728  1.892092
-233.4,-0.0,-8.5355456  1.892092
-233.4,0.0,8.5355456    1.892092
-188.4,-4.928000000000001,2.8451824     4.409069
-188.4,-0.0,-5.6903632  4.409069
-188.4,4.928000000000001,2.8451824      4.409069
-142.4,-4.928000000000001,-0.0  -5.030367
-142.4,-2.4640000000000004,-4.2677728   -5.030367
-142.4,-2.4640000000000004,4.2677728    -5.030367
-142.4,2.4640000000000004,-4.2677728    -5.030367
-142.4,-4.928000000000001,0.0   5.039632
-142.4,4.928000000000001,-0.0   -5.030367
-142.4,2.4640000000000004,4.2677728     -5.030367
-142.4,-2.4640000000000004,-4.2677728   5.039632
-142.4,-2.4640000000000004,4.2677728    5.039632
-142.4,2.4640000000000004,-4.2677728    5.039632
-142.4,4.928000000000001,0.0    5.039632
-142.4,2.4640000000000004,4.2677728     5.039632
-74.60000000000001,-2.4640000000000004,-1.4225904       -5.660931
-74.60000000000001,0.0,2.8451824        -5.660931
-74.60000000000001,2.4640000000000004,-1.4225904        -5.660931
1.4125,-9.8559984,0.0   0.004632
1.4125,-4.928000000000001,-8.5355456    0.004632
1.4125,-4.928000000000001,8.5355456     0.004632
1.4125,4.928000000000001,-8.5355456     0.004632
1.4125,9.8559984,0.0    0.004632
1.4125,4.928000000000001,8.5355456      0.004632
108.7,-7.392,4.2677728  -3.142907
108.7,-7.392,-4.2677728 -3.142907
108.7,7.392,-4.2677728  -3.142907
108.7,7.392,4.2677728   -3.142907
108.7,-0.0,-8.5355456   -3.142907
108.7,0.0,8.5355456     -3.142907
138.20000000000002,-9.8559984,-2.8451824        -0.625931
138.20000000000002,-7.392,-7.112955200000001    -0.625931
138.20000000000002,-2.4640000000000004,9.958136000000001        -0.625931
138.20000000000002,7.392,-7.112955200000001     -0.625931
138.20000000000002,9.8559984,-2.8451824 -0.625931
138.20000000000002,2.4640000000000004,9.958136000000001 -0.625931
1.9156249920000001,-9.8559984,0.0       1.892092
1.9156249920000001,-4.928000000000001,-8.5355456        1.892092
1.9156249920000001,-4.928000000000001,8.5355456 1.892092
1.9156249920000001,4.928000000000001,-8.5355456 1.892092
1.9156249920000001,9.8559984,0.0        1.892092
1.9156249920000001,4.928000000000001,8.5355456  1.892092
54.150000000000006,-4.928000000000001,-5.6903632        4.409069
54.150000000000006,4.928000000000001,-5.6903632 4.409069
54.150000000000006,-7.392,-1.4225904    4.409069
54.150000000000006,7.392,-1.4225904     4.409069
54.150000000000006,-2.4640000000000004,7.112955200000001        4.409069
54.150000000000006,2.4640000000000004,7.112955200000001 4.409069
259.85,-4.928000000000001,2.8451824     -5.660931
259.85,-0.0,-5.6903632  -5.660931
259.85,4.928000000000001,2.8451824      -5.660931
0.55,-9.8559984,2.8451824       2.515516
0.55,-2.4640000000000004,-9.958136000000001     2.515516
0.55,-7.392,7.112955200000001   2.515516
0.55,2.4640000000000004,-9.958136000000001      2.515516
0.55,9.8559984,2.8451824        2.515516
0.55,7.392,7.112955200000001    2.515516
-150.70000000000002,-9.8559984,-2.8451824       -2.519484
-150.70000000000002,-7.392,-7.112955200000001   -2.519484
-150.70000000000002,-2.4640000000000004,9.958136000000001       -2.519484
-150.70000000000002,7.392,-7.112955200000001    -2.519484
-150.70000000000002,2.4640000000000004,9.958136000000001        -2.519484
-150.70000000000002,9.8559984,-2.8451824        -2.519484
-35.3125,-9.8559984,-0.0        -3.142907
-35.3125,-4.928000000000001,-8.5355456  -3.142907
-35.3125,-4.928000000000001,8.5355456   -3.142907
-35.3125,4.928000000000001,-8.5355456   -3.142907
-35.3125,4.928000000000001,8.5355456    -3.142907
-35.3125,9.8559984,-0.0 -3.142907
970.4000000000001,0.0,0.0       6.927092
517.2,-9.8559984,5.6903632      -0.625931
517.2,9.8559984,5.6903632       -0.625931
517.2,-0.0,-11.380728000000001  -0.625931
-8.675,-7.392,4.2677728 -5.030367
-8.675,-7.392,-4.2677728        -5.030367
-8.675,-7.392,4.2677728 5.039632
-8.675,-7.392,-4.2677728        5.039632
-8.675,7.392,-4.2677728 -5.030367
-8.675,7.392,4.2677728  -5.030367
-8.675,7.392,-4.2677728 5.039632
-8.675,7.392,4.2677728  5.039632
-8.675,-0.0,-8.5355456  -5.030367
-8.675,0.0,8.5355456    -5.030367
-8.675,-0.0,-8.5355456  5.039632
-8.675,0.0,8.5355456    5.039632
146.9,-4.928000000000001,-5.6903632     -5.660931
146.9,4.928000000000001,-5.6903632      -5.660931
146.9,-7.392,-1.4225904 -5.660931
146.9,7.392,-1.4225904  -5.660931
146.9,-2.4640000000000004,7.112955200000001     -5.660931
146.9,2.4640000000000004,7.112955200000001      -5.660931
480.8,-9.8559984,-5.6903632     2.515516
480.8,9.8559984,-5.6903632      2.515516
480.8,0.0,11.380728000000001    2.515516
-827.6,-9.8559984,5.6903632     -2.519484
-827.6,9.8559984,5.6903632      -2.519484
-827.6,-0.0,-11.380728000000001 -2.519484
85.7,-4.928000000000001,0.0     6.927092
85.7,-2.4640000000000004,-4.2677728     6.927092
85.7,-2.4640000000000004,4.2677728      6.927092
85.7,2.4640000000000004,-4.2677728      6.927092
85.7,2.4640000000000004,4.2677728       6.927092
85.7,4.928000000000001,0.0      6.927092
-88.4,-2.4640000000000004,1.4225904     7.550516
-88.4,0.0,-2.8451824    7.550516
-88.4,2.4640000000000004,1.4225904      7.550516
24.85,-2.4640000000000004,-1.4225904    -7.554483
24.85,2.4640000000000004,-1.4225904     -7.554483
24.85,-0.0,2.8451824    -7.554483
-199.8,-12.319998400000001,1.4225904    -0.625931
-199.8,-7.392,9.958136000000001 -0.625931
-199.8,-4.928000000000001,-11.380728000000001   -0.625931
-199.8,4.928000000000001,-11.380728000000001    -0.625931
-199.8,12.319998400000001,1.4225904     -0.625931
-199.8,7.392,9.958136000000001  -0.625931
-107.9,-9.8559984,2.8451824     4.409069
-107.9,-7.392,7.112955200000001 4.409069
-107.9,-2.4640000000000004,-9.958136000000001   4.409069
-107.9,2.4640000000000004,-9.958136000000001    4.409069
-107.9,7.392,7.112955200000001  4.409069
-107.9,9.8559984,2.8451824      4.409069
78.65,-9.8559984,-0.0   -5.030367
78.65,-4.928000000000001,-8.5355456     -5.030367
78.65,-4.928000000000001,8.5355456      -5.030367
78.65,-9.8559984,0.0    5.039632
78.65,-4.928000000000001,-8.5355456     5.039632
78.65,4.928000000000001,-8.5355456      -5.030367
78.65,4.928000000000001,8.5355456       -5.030367
78.65,9.8559984,-0.0    -5.030367
78.65,-4.928000000000001,8.5355456      5.039632
78.65,4.928000000000001,-8.5355456      5.039632
78.65,9.8559984,0.0     5.039632
78.65,4.928000000000001,8.5355456       5.039632
289.2,-12.319998400000001,-1.4225904    2.515516
289.2,-7.392,-9.958136000000001 2.515516
289.2,-4.928000000000001,11.380728000000001     2.515516
289.2,7.392,-9.958136000000001  2.515516
289.2,12.319998400000001,-1.4225904     2.515516
289.2,4.928000000000001,11.380728000000001      2.515516
-37.35,-12.319998400000001,-4.2677728   0.004632
-37.35,-12.319998400000001,4.2677728    0.004632
-37.35,-9.8559984,-8.5355456    0.004632
-37.35,-9.8559984,8.5355456     0.004632
-37.35,-2.4640000000000004,-12.803318400000002  0.004632
-37.35,2.4640000000000004,-12.803318400000002   0.004632
-37.35,-2.4640000000000004,12.803318400000002   0.004632
-37.35,9.8559984,-8.5355456     0.004632
-37.35,2.4640000000000004,12.803318400000002    0.004632
-37.35,12.319998400000001,-4.2677728    0.004632
-37.35,12.319998400000001,4.2677728     0.004632
-37.35,9.8559984,8.5355456      0.004632
-229.0,-12.319998400000001,1.4225904    -2.519484
-229.0,-7.392,9.958136000000001 -2.519484
-229.0,-4.928000000000001,-11.380728000000001   -2.519484
-229.0,4.928000000000001,-11.380728000000001    -2.519484
-229.0,12.319998400000001,1.4225904     -2.519484
-229.0,7.392,9.958136000000001  -2.519484
4851.2,-0.0,-0.0        -8.177907
-185.60000000000002,-4.928000000000001,-2.8451824       7.550516
-185.60000000000002,0.0,5.6903632       7.550516
-185.60000000000002,4.928000000000001,-2.8451824        7.550516
-965.6,-4.928000000000001,2.8451824     -7.554483
-965.6,-0.0,-5.6903632  -7.554483
-965.6,4.928000000000001,2.8451824      -7.554483
78.25,-12.319998400000001,4.2677728     1.892092
78.25,-12.319998400000001,-4.2677728    1.892092
78.25,-9.8559984,-8.5355456     1.892092
78.25,-9.8559984,8.5355456      1.892092
78.25,-2.4640000000000004,-12.803318400000002   1.892092
78.25,2.4640000000000004,-12.803318400000002    1.892092
78.25,-2.4640000000000004,12.803318400000002    1.892092
78.25,9.8559984,-8.5355456      1.892092
78.25,2.4640000000000004,12.803318400000002     1.892092
78.25,12.319998400000001,-4.2677728     1.892092
78.25,12.319998400000001,4.2677728      1.892092
78.25,9.8559984,8.5355456       1.892092
-808.0,-9.8559984,-5.6903632    4.409069
-808.0,9.8559984,-5.6903632     4.409069
-808.0,0.0,11.380728000000001   4.409069
41.3125,-9.8559984,2.8451824    -5.660931
41.3125,-2.4640000000000004,-9.958136000000001  -5.660931
41.3125,-7.392,7.112955200000001        -5.660931
41.3125,2.4640000000000004,-9.958136000000001   -5.660931
41.3125,7.392,7.112955200000001 -5.660931
41.3125,9.8559984,2.8451824     -5.660931
-93.10000000000001,-9.8559984,-8.5355456        -3.142907
-93.10000000000001,-12.319998400000001,4.2677728        -3.142907
-93.10000000000001,-12.319998400000001,-4.2677728       -3.142907
-93.10000000000001,-9.8559984,8.5355456 -3.142907
-93.10000000000001,-2.4640000000000004,-12.803318400000002      -3.142907
-93.10000000000001,2.4640000000000004,-12.803318400000002       -3.142907
-93.10000000000001,-2.4640000000000004,12.803318400000002       -3.142907
-93.10000000000001,12.319998400000001,-4.2677728        -3.142907
-93.10000000000001,9.8559984,-8.5355456 -3.142907
-93.10000000000001,2.4640000000000004,12.803318400000002        -3.142907
-93.10000000000001,12.319998400000001,4.2677728 -3.142907
-93.10000000000001,9.8559984,8.5355456  -3.142907
104.65,-7.392,-4.2677728        6.927092
104.65,-7.392,4.2677728 6.927092
104.65,7.392,-4.2677728 6.927092
104.65,7.392,4.2677728  6.927092
104.65,-0.0,-8.5355456  6.927092
104.65,0.0,8.5355456    6.927092
-133.20000000000002,-4.928000000000001,-0.0     -8.177907
-133.20000000000002,-2.4640000000000004,4.2677728       -8.177907
-133.20000000000002,-2.4640000000000004,-4.2677728      -8.177907
-133.20000000000002,2.4640000000000004,-4.2677728       -8.177907
-133.20000000000002,4.928000000000001,-0.0      -8.177907
-133.20000000000002,2.4640000000000004,4.2677728        -8.177907
-145.45000000000002,-4.928000000000001,5.6903632        7.550516
-145.45000000000002,4.928000000000001,5.6903632 7.550516
-145.45000000000002,-7.392,1.4225904    7.550516
-145.45000000000002,7.392,1.4225904     7.550516
-145.45000000000002,-2.4640000000000004,-7.112955200000001      7.550516
-145.45000000000002,2.4640000000000004,-7.112955200000001       7.550516
-73.10000000000001,-4.928000000000001,-5.6903632        -7.554483
-73.10000000000001,4.928000000000001,-5.6903632 -7.554483
-73.10000000000001,-7.392,-1.4225904    -7.554483
-73.10000000000001,7.392,-1.4225904     -7.554483
-73.10000000000001,-2.4640000000000004,7.112955200000001        -7.554483
-73.10000000000001,2.4640000000000004,7.112955200000001 -7.554483
-800.4000000000001,0.0,14.2259088       -0.625931
-800.4000000000001,-12.319998400000001,-7.112955200000001       -0.625931
-800.4000000000001,12.319998400000001,-7.112955200000001        -0.625931
-431.6,-12.319998400000001,-1.4225904   4.409069
-431.6,-7.392,-9.958136000000001        4.409069
-431.6,-4.928000000000001,11.380728000000001    4.409069
-431.6,7.392,-9.958136000000001 4.409069
-431.6,12.319998400000001,-1.4225904    4.409069
-431.6,4.928000000000001,11.380728000000001     4.409069
496.6,-9.8559984,-5.6903632     -5.660931
496.6,9.8559984,-5.6903632      -5.660931
496.6,0.0,11.380728000000001    -5.660931
939.2,-0.0,-14.2259088  2.515516
939.2,-12.319998400000001,7.112955200000001     2.515516
939.2,12.319998400000001,7.112955200000001      2.515516
-150.20000000000002,-14.7839984,-0.0    0.004632
-150.20000000000002,7.392,-12.803318400000002   0.004632
-150.20000000000002,-7.392,12.803318400000002   0.004632
-150.20000000000002,14.7839984,-0.0     0.004632
-150.20000000000002,-7.392,-12.803318400000002  0.004632
-150.20000000000002,7.392,12.803318400000002    0.004632
-617.2,0.0,14.2259088   -2.519484
-617.2,-12.319998400000001,-7.112955200000001   -2.519484
-617.2,12.319998400000001,-7.112955200000001    -2.519484
364.8,-9.8559984,0.0    6.927092
364.8,-4.928000000000001,-8.5355456     6.927092
364.8,-4.928000000000001,8.5355456      6.927092
364.8,4.928000000000001,-8.5355456      6.927092
364.8,9.8559984,0.0     6.927092
364.8,4.928000000000001,8.5355456       6.927092
339.0,-14.7839984,-2.8451824    -0.625931
339.0,-4.928000000000001,14.2259088     -0.625931
339.0,-9.8559984,-11.380728000000001    -0.625931
339.0,9.8559984,-11.380728000000001     -0.625931
339.0,4.928000000000001,14.2259088      -0.625931
339.0,14.7839984,-2.8451824     -0.625931
179.10000000000002,-14.7839984,0.0      1.892092
179.10000000000002,-7.392,-12.803318400000002   1.892092
179.10000000000002,-7.392,12.803318400000002    1.892092
179.10000000000002,7.392,-12.803318400000002    1.892092
179.10000000000002,14.7839984,0.0       1.892092
179.10000000000002,7.392,12.803318400000002     1.892092
-6.9125000000000005,-12.319998400000001,4.2677728       -5.030367
-6.9125000000000005,-12.319998400000001,-4.2677728      -5.030367
-6.9125000000000005,-9.8559984,-8.5355456       -5.030367
-6.9125000000000005,-9.8559984,8.5355456        -5.030367
-6.9125000000000005,-12.319998400000001,4.2677728       5.039632
-6.9125000000000005,2.4640000000000004,-12.803318400000002      -5.030367
-6.9125000000000005,-2.4640000000000004,-12.803318400000002     -5.030367
-6.9125000000000005,-12.319998400000001,-4.2677728      5.039632
-6.9125000000000005,-9.8559984,-8.5355456       5.039632
-6.9125000000000005,-2.4640000000000004,12.803318400000002      -5.030367
-6.9125000000000005,2.4640000000000004,-12.803318400000002      5.039632
-6.9125000000000005,-9.8559984,8.5355456        5.039632
-6.9125000000000005,-2.4640000000000004,-12.803318400000002     5.039632
-6.9125000000000005,9.8559984,-8.5355456        -5.030367
-6.9125000000000005,2.4640000000000004,12.803318400000002       -5.030367
-6.9125000000000005,12.319998400000001,-4.2677728       -5.030367
-6.9125000000000005,12.319998400000001,4.2677728        -5.030367
-6.9125000000000005,9.8559984,8.5355456 -5.030367
-6.9125000000000005,-2.4640000000000004,12.803318400000002      5.039632
-6.9125000000000005,9.8559984,-8.5355456        5.039632
-6.9125000000000005,12.319998400000001,-4.2677728       5.039632
-6.9125000000000005,2.4640000000000004,12.803318400000002       5.039632
-6.9125000000000005,12.319998400000001,4.2677728        5.039632
-6.9125000000000005,9.8559984,8.5355456 5.039632
-1.1,-12.319998400000001,-1.4225904     -5.660931
-1.1,-7.392,-9.958136000000001  -5.660931
-1.1,-4.928000000000001,11.380728000000001      -5.660931
-1.1,7.392,-9.958136000000001   -5.660931
-1.1,4.928000000000001,11.380728000000001       -5.660931
-1.1,12.319998400000001,-1.4225904      -5.660931
185.60000000000002,-2.4640000000000004,1.4225904        9.444068
185.60000000000002,0.0,-2.8451824       9.444068
185.60000000000002,2.4640000000000004,1.4225904 9.444068
82.10000000000001,-14.7839984,2.8451824 2.515516
82.10000000000001,-4.928000000000001,-14.2259088        2.515516
82.10000000000001,4.928000000000001,-14.2259088 2.515516
82.10000000000001,-9.8559984,11.380728000000001 2.515516
82.10000000000001,14.7839984,2.8451824  2.515516
82.10000000000001,9.8559984,11.380728000000001  2.515516
251.0,-14.7839984,-2.8451824    -2.519484
251.0,-4.928000000000001,14.2259088     -2.519484
251.0,-9.8559984,-11.380728000000001    -2.519484
251.0,9.8559984,-11.380728000000001     -2.519484
251.0,14.7839984,-2.8451824     -2.519484
251.0,4.928000000000001,14.2259088      -2.519484
351.40000000000003,-14.7839984,-0.0     -3.142907
351.40000000000003,-7.392,-12.803318400000002   -3.142907
351.40000000000003,-7.392,12.803318400000002    -3.142907
351.40000000000003,7.392,-12.803318400000002    -3.142907
351.40000000000003,14.7839984,-0.0      -3.142907
351.40000000000003,7.392,12.803318400000002     -3.142907
13.832812496,-7.392,-4.2677728  -8.177907
13.832812496,-7.392,4.2677728   -8.177907
13.832812496,7.392,4.2677728    -8.177907
13.832812496,7.392,-4.2677728   -8.177907
13.832812496,-0.0,-8.5355456    -8.177907
13.832812496,0.0,8.5355456      -8.177907
403.0,-7.392,-7.112955200000001 7.550516
403.0,-9.8559984,-2.8451824     7.550516
403.0,-2.4640000000000004,9.958136000000001     7.550516
403.0,7.392,-7.112955200000001  7.550516
403.0,2.4640000000000004,9.958136000000001      7.550516
403.0,9.8559984,-2.8451824      7.550516
-556.8000000000001,-7.392,7.112955200000001     -7.554483
-556.8000000000001,-9.8559984,2.8451824 -7.554483
-556.8000000000001,-2.4640000000000004,-9.958136000000001       -7.554483
-556.8000000000001,2.4640000000000004,-9.958136000000001        -7.554483
-556.8000000000001,9.8559984,2.8451824  -7.554483
-556.8000000000001,7.392,7.112955200000001      -7.554483
114.025,-12.319998400000001,9.958136000000001   -0.625931
114.025,-14.7839984,5.6903632   -0.625931
114.025,-2.4640000000000004,-15.6485008 -0.625931
114.025,2.4640000000000004,-15.6485008  -0.625931
114.025,14.7839984,5.6903632    -0.625931
114.025,12.319998400000001,9.958136000000001    -0.625931
-774.0,-0.0,-14.2259088 4.409069
-774.0,-12.319998400000001,7.112955200000001    4.409069
-774.0,12.319998400000001,7.112955200000001     4.409069

End of input

&SCF
Occupied
9
Iterations
   50  100
End of Input

&RASSCF
LumOrb
Symmetry
1
Spin
2
Nactel
1 0 0
CIRoot
9 9 1
inactive
9
ras2
9
End of Input

>>> COPY chromium_so_cf.JobIph $SLURM_SUBMIT_DIR/chromium_so_cf.doublet.JobIph

>>> COPY $SLURM_SUBMIT_DIR/chromium_so_cf.doublet.JobIph ./JOB002

&RASSI
NROFJobIph
1 All
SpinOrbit
End of Input

EOF

-- ----------------------------------

--- Start Module: seward at Wed Mar 26 16:11:59 2025 ---

()()()()()()()()()()()()()()()()()()()()()()()()()()()()()()()()()()()()()()()()()()()()()()()()()()

                                              &SEWARD

                                   only a single process is used
                       available to each process: 4.1 GB of memory, 1 thread?
                                            pid: 1853683
()()()()()()()()()()()()()()()()()()()()()()()()()()()()()()()()()()()()()()()()()()()()()()()()()()

 The speed of LIGHT in this CALCULATION =   137.03599917700001     
               SEWARD will generate:
                  Multipole Moment integrals up to order  2
                  Kinetic Energy integrals
                  Nuclear Attraction integrals (point charge)
                  One-Electron Hamiltonian integrals
                  Velocity integrals
                  Relativistic Douglas-Kroll-Hess integrals:
                    - Parametrization         : EXP
                    - DKH order of Hamiltonian: 2
                    - DKH order of Properties : 0
                         - multipole moment operators
                         - electric potential operators
                         - contact operators
                  External field from   414 point(s) added to the one-electron Hamiltonian
                  Orbital angular momentum around (-0.0000 -0.0000  0.0088 )
                  Velocity quadrupole around (-0.0000 -0.0000  0.0088 )
                  Atomic mean-field integrals
                  Two-Electron Repulsion integrals

                   Integrals are discarded if absolute value <: 0.10E-13
                   Integral cutoff threshold is set to       <: 0.10E-15

++    Symmetry information:
      ---------------------

                    Character Table for C1 

                             E  
                    a        1  x, y, xy, Rz, z, xz, Ry, yz, Rx, I
--


++    Basis set information:
      ----------------------


      Basis set label: CR.ANO-RCC.ROOS.21S15P10D6F4G2H.10S10P8D6F4G2H......

      Electronic valence basis set:
      ------------------
      Associated Effective Charge  24.000000 au
      Associated Actual Charge     24.000000 au
      Nuclear Model: Point charge

      Shell  nPrim  nBasis  Cartesian Spherical Contaminant
         s      21      10        X                  
         p      15      10        X                  
         d      10       8                 X         
         f       6       6                 X         
         g       4       4                 X         
         h       2       2                 X         
--


++    Molecular structure info:
      -------------------------

                    ************************************************ 
                    **** Cartesian Coordinates / Bohr, Angstrom **** 
                    ************************************************ 

     Center  Label                x              y              z                     x              y              z
        1      CR              -0.000000      -0.000000       0.008754             -0.000000      -0.000000       0.004632
--


++    Operator info:
      --------------


  Net charge from external field:   -39.268449999999902     
--


            Nuclear Potential Energy              0.00000000 au

                    Nuclear-External Field Potential Energy    -137.23454239 au
                    External Field Potential Energy            1003.52306337 au 


            Total Nuclear Potential Energy           -137.23454239 au


      Basis set specifications :
      Symmetry species         a  
      Basis functions          180

 Sorry, Molden does not know how to handle
 functions with angular momentum larger than g
Note: The following floating-point exceptions are signalling: IEEE_UNDERFLOW_FLAG IEEE_DENORMAL
--- Stop Module: seward at Wed Mar 26 16:12:07 2025 /rc=_RC_ALL_IS_WELL_ ---
*** files: chromium_so_cf.GssOrb xmldump
    saved to directory /home4/s4752295/Internship/Initial_simulations/Point_charge_model/1_electron/Madelung_charges_9_active_space/Cr
--- Module seward spent 8 seconds ---

*** symbolic link created: INPORB -> chromium_so_cf.GssOrb
--- Start Module: scf at Wed Mar 26 16:12:07 2025 ---

()()()()()()()()()()()()()()()()()()()()()()()()()()()()()()()()()()()()()()()()()()()()()()()()()()

                                                &SCF

                                   only a single process is used
                       available to each process: 4.1 GB of memory, 1 thread?
                                            pid: 1853754
()()()()()()()()()()()()()()()()()()()()()()()()()()()()()()()()()()()()()()()()()()()()()()()()()()

++    Input section:
      --------------

      Header of the integral files:
      
       Integrals generated by seward 4.2.0  , Wed Mar 26 16:12:00 2025


      Cartesian coordinates in Angstrom:
      -----------------------------------------------------
      No.  Label        X            Y            Z        
      -----------------------------------------------------
       1   CR        -0.00000000  -0.00000000   0.00463220
      -----------------------------------------------------
      Nuclear repulsion energy = -137.23454239
--

++    Orbital specifications:
      -----------------------

      Symmetry species               1
                                     a
      Frozen orbitals                0
      Occupied orbitals              9
      Secondary orbitals           171
      Deleted orbitals               0
      Total number of orbitals     180
      Number of basis functions    180
--

      Molecular charge                           6.000

++    Optimization specifications:
      ----------------------------

      SCF Algorithm: Conventional
      Minimized density differences are used
      Number of density matrices in core                5
      Maximum number of NDDO SCF iterations            50
      Maximum number of HF SCF iterations             100
      Threshold for SCF energy change            0.10E-08
      Threshold for density matrix               0.10E-03
      Threshold for Fock matrix                  0.15E-03
      Threshold for linear dependence            0.10E-08
      Threshold at which DIIS is turned on       0.15E+00
      Threshold at which QNR/C2DIIS is turned on 0.75E-01
      Threshold for Norm(delta) (QNR/C2DIIS)     0.20E-04
      DIIS extrapolation of the SCF procedure
      All orbitals punched on: SCFORB
--

      Detected guessorb starting orbitals                                             


++ Convergence information
                                   SCF        iterations: Energy and convergence statistics

Iter     Tot. SCF        One-elec.       Two-elec.     Energy      Max Dij or  Max Fij      DNorm      TNorm      AccCon     Time
         Energy          Energy          Energy        Change      Delta Norm                                                in Sec.

 The total and one-electron energies are shifted by a value of      1000. a.u.

   1   -73.915938861  -242.058059548   305.376663078   0.00E+00    0.16E+00*   0.40E+00*    0.60E+01   0.25E+03   None         1.
   2   -74.570073494  -254.501416253   317.165885150  -0.65E+00*   0.19E-01*   0.76E-01*    0.11E+01   0.25E+03   EDIIS        1.
   3   -74.581070208  -253.053224863   315.706697047  -0.11E-01*   0.59E-02*   0.11E-01*    0.97E-01   0.25E+03   EDIIS        1.
   4   -74.581396221  -253.290318578   315.943464748  -0.33E-03*   0.33E-03*   0.19E-02*    0.10E-01   0.25E+03   c2DIIS       1.
   5   -74.581409875  -253.260848653   315.913981170  -0.14E-04*   0.79E-04*   0.15E-03     0.91E-03   0.25E+03   QNRc2DIIS    1.
   6   -74.581409926  -253.259836865   315.912969331  -0.52E-07*   0.17E-04    0.30E-04     0.12E-03   0.25E+03   QNRc2DIIS    1.
   7   -74.581409929  -253.259992463   315.913124926  -0.25E-08*   0.37E-05    0.56E-05     0.18E-04   0.25E+03   QNRc2DIIS    1.
   8   -74.581409929  -253.260024120   315.913156583  -0.84E-10    0.14E-05    0.19E-05     0.20E-03   0.25E+03   QNRc2DIIS    1.

       Convergence after  8 Macro Iterations
--

 *****************************************************************************************************************************
 *                                                                                                                           *
 *                                             SCF/KS-DFT Program, Final results                                             *
 *                                                                                                                           *
 *                                                                                                                           *
 *                                                                                                                           *
 *                                                       Final Results                                                       *
 *                                                                                                                           *
 *****************************************************************************************************************************

::    Total SCF energy                              -1074.5814099288
      One-electron energy                           -1253.2600241197
      Two-electron energy                             315.9131565825
      Nuclear repulsion energy                       -137.2345423916
      Kinetic energy (interpolated)                  1078.3285326341
      Virial theorem                                    0.9965250639
      Total spin, S(S+1)                                0.0000000000
      Total spin, S                                     0.0000000000
      Max non-diagonal density matrix element           0.0000020908
      Max non-diagonal Fock matrix element              0.0000008797


      All orbitals with orbital energies smaller than  E(LUMO)+0.5 are printed

++    Molecular orbitals:
      -------------------

      Title: SCF orbitals

      Molecular orbitals for symmetry species 1: a  

          Orbital            1         2         3         4         5         6         7         8         9        10    
          Energy         -220.5953  -25.2738  -20.8977  -20.8977  -20.8972   -1.5826   -0.1979   -0.1979   -0.1767    2.4488
          Occ. No.          2.0000    2.0000    2.0000    2.0000    2.0000    2.0000    2.0000    2.0000    2.0000    0.0000

        1 CR     1s         1.0000   -0.0001    0.0000   -0.0000   -0.0000    0.0001   -0.0000   -0.0000    0.0000   -0.0000
        2 CR     2s         0.0001    1.0000    0.0000   -0.0000   -0.0027    0.0021    0.0000   -0.0000   -0.0007   -0.0000
        3 CR     3s        -0.0001   -0.0021   -0.0000    0.0000    0.0008    0.9915    0.0001   -0.0000   -0.0875   -0.0000
        4 CR     4s         0.0000    0.0001    0.0000   -0.0000   -0.0001   -0.0491   -0.0000    0.0000    0.0188   -0.0000
        5 CR     5s        -0.0000   -0.0004   -0.0000    0.0000    0.0002    0.0720    0.0000   -0.0000   -0.0284    0.0000
        6 CR     6s         0.0000    0.0003    0.0000   -0.0000   -0.0001   -0.0295   -0.0000    0.0000    0.0112    0.0000
        7 CR     7s        -0.0000   -0.0001   -0.0000    0.0000    0.0000   -0.0087   -0.0000    0.0000    0.0040   -0.0000
        8 CR     8s         0.0000   -0.0000    0.0000   -0.0000   -0.0000    0.0063    0.0000   -0.0000   -0.0028   -0.0000
        9 CR     9s        -0.0001    0.0002    0.0000   -0.0000   -0.0000    0.0021    0.0000   -0.0000   -0.0010   -0.0000
       10 CR    10s         0.0001   -0.0003   -0.0000    0.0000    0.0000    0.0004    0.0000   -0.0000   -0.0001   -0.0000
       11 CR     2px        0.0000    0.0027   -0.0017    0.0000    1.0000   -0.0005   -0.0000    0.0000    0.0033    0.0000
       12 CR     3px       -0.0000    0.0005    0.0000   -0.0000   -0.0032    0.0916   -0.0013    0.0000    0.9844    0.0000
       13 CR     4px        0.0000   -0.0001   -0.0000    0.0000    0.0005   -0.0015    0.0001   -0.0000   -0.0892   -0.0000
       14 CR     5px       -0.0000    0.0002    0.0000   -0.0000   -0.0009   -0.0023   -0.0001    0.0000    0.0972    0.0000
       15 CR     6px        0.0000   -0.0001   -0.0000    0.0000    0.0002    0.0024    0.0000   -0.0000   -0.0027    0.0000
       16 CR     7px       -0.0000    0.0001    0.0000   -0.0000   -0.0000   -0.0017    0.0000   -0.0000   -0.0147   -0.0000
       17 CR     8px        0.0000   -0.0000    0.0000   -0.0000   -0.0002   -0.0005   -0.0000    0.0000    0.0026   -0.0000
       18 CR     9px       -0.0000    0.0000   -0.0000    0.0000    0.0003    0.0006   -0.0000    0.0000    0.0035    0.0000
       19 CR    10px        0.0000   -0.0000    0.0000   -0.0000   -0.0003    0.0003   -0.0000   -0.0000   -0.0001    0.0000
       20 CR    11px       -0.0000    0.0000   -0.0000    0.0000    0.0002    0.0000    0.0000   -0.0000   -0.0005    0.0000
       21 CR     2py       -0.0000   -0.0000    0.0000    1.0000   -0.0000   -0.0000    0.0000    0.0032    0.0000    0.0000
       22 CR     3py        0.0000    0.0000   -0.0000   -0.0031    0.0000   -0.0000    0.0000    0.9897   -0.0000    0.0029
       23 CR     4py       -0.0000   -0.0000    0.0000    0.0005   -0.0000    0.0000   -0.0000   -0.0895    0.0000   -0.0047
       24 CR     5py        0.0000    0.0000   -0.0000   -0.0008    0.0000   -0.0000    0.0000    0.0963   -0.0000    0.0031
       25 CR     6py       -0.0000   -0.0000    0.0000    0.0002   -0.0000    0.0000   -0.0000   -0.0019    0.0000    0.0007
       26 CR     7py        0.0000    0.0000   -0.0000   -0.0000    0.0000   -0.0000   -0.0000   -0.0152    0.0000   -0.0009
       27 CR     8py       -0.0000   -0.0000   -0.0000   -0.0002    0.0000    0.0000    0.0000    0.0024   -0.0000   -0.0002
       28 CR     9py        0.0000    0.0000    0.0000    0.0003   -0.0000   -0.0000    0.0000    0.0037   -0.0000    0.0002
       29 CR    10py       -0.0000   -0.0000   -0.0000   -0.0003    0.0000    0.0000    0.0000    0.0001   -0.0000    0.0001
       30 CR    11py        0.0000    0.0000    0.0000    0.0002   -0.0000   -0.0000   -0.0000   -0.0004    0.0000    0.0000
       31 CR     2pz        0.0000    0.0000    1.0000   -0.0000    0.0017   -0.0000    0.0032   -0.0000    0.0000    0.0000
       32 CR     3pz       -0.0000    0.0000   -0.0031    0.0000   -0.0000    0.0001    0.9897   -0.0000    0.0013    0.0000
       33 CR     4pz        0.0000   -0.0000    0.0005   -0.0000    0.0000   -0.0000   -0.0895    0.0000   -0.0001   -0.0000
       34 CR     5pz       -0.0000    0.0000   -0.0008    0.0000   -0.0000   -0.0000    0.0963   -0.0000    0.0001    0.0000
       35 CR     6pz        0.0000   -0.0000    0.0002   -0.0000    0.0000    0.0000   -0.0019    0.0000   -0.0000    0.0000
       36 CR     7pz       -0.0000    0.0000   -0.0000    0.0000   -0.0000   -0.0000   -0.0152    0.0000   -0.0000   -0.0000
       37 CR     8pz        0.0000   -0.0000   -0.0002    0.0000   -0.0000   -0.0000    0.0024   -0.0000    0.0000   -0.0000
       38 CR     9pz       -0.0000    0.0000    0.0003   -0.0000    0.0000    0.0000    0.0037   -0.0000    0.0000    0.0000
       39 CR    10pz        0.0000   -0.0000   -0.0003    0.0000   -0.0000    0.0000    0.0001   -0.0000   -0.0000    0.0000
       40 CR    11pz       -0.0000    0.0000    0.0002   -0.0000    0.0000    0.0000   -0.0004    0.0000   -0.0000    0.0000
       41 CR     3d2-       0.0000    0.0000    0.0000    0.0003   -0.0000   -0.0000    0.0000    0.0526   -0.0000   -0.0642
       42 CR     4d2-      -0.0000   -0.0000   -0.0000   -0.0002    0.0000    0.0000   -0.0000   -0.0118    0.0000    0.0197
       43 CR     5d2-       0.0000    0.0000    0.0000    0.0001   -0.0000    0.0000   -0.0000   -0.0068    0.0000   -0.0003
       44 CR     6d2-      -0.0000   -0.0000   -0.0000   -0.0001    0.0000    0.0000    0.0000    0.0035   -0.0000   -0.0010
       45 CR     7d2-       0.0000    0.0000    0.0000    0.0000   -0.0000   -0.0000    0.0000    0.0020   -0.0000   -0.0008
       46 CR     8d2-      -0.0000   -0.0000   -0.0000   -0.0000    0.0000    0.0000   -0.0000   -0.0006    0.0000    0.0004
       47 CR     9d2-       0.0000    0.0000    0.0000    0.0000   -0.0000   -0.0000   -0.0000   -0.0010    0.0000    0.0002
       48 CR    10d2-      -0.0000    0.0000   -0.0000   -0.0000    0.0000   -0.0000   -0.0000   -0.0002   -0.0000    0.0000
       49 CR     3d1-      -0.0000    0.0000    0.0000    0.0000    0.0000   -0.0000   -0.0000   -0.0000   -0.0000    0.9442
       50 CR     4d1-       0.0000   -0.0000   -0.0000   -0.0000   -0.0000    0.0000   -0.0000   -0.0000    0.0000   -0.3176
       51 CR     5d1-      -0.0000    0.0000    0.0000    0.0000    0.0000   -0.0000   -0.0000   -0.0000   -0.0000   -0.0018
       52 CR     6d1-      -0.0000   -0.0000   -0.0000   -0.0000   -0.0000    0.0000    0.0000    0.0000    0.0000    0.0184
       53 CR     7d1-       0.0000    0.0000    0.0000    0.0000    0.0000   -0.0000   -0.0000   -0.0000   -0.0000    0.0156
       54 CR     8d1-      -0.0000   -0.0000   -0.0000   -0.0000   -0.0000   -0.0000   -0.0000   -0.0000    0.0000   -0.0048
       55 CR     9d1-       0.0000    0.0000    0.0000    0.0000    0.0000   -0.0000    0.0000    0.0000   -0.0000   -0.0044
       56 CR    10d1-       0.0000   -0.0000   -0.0000   -0.0000   -0.0000    0.0000    0.0000    0.0000    0.0000   -0.0004
       57 CR     3d0        0.0000    0.0000    0.0000   -0.0000   -0.0002   -0.0003    0.0001   -0.0000   -0.0316   -0.0000
       58 CR     4d0       -0.0000   -0.0000   -0.0000    0.0000    0.0001   -0.0002   -0.0000    0.0000    0.0071    0.0000
       59 CR     5d0        0.0000    0.0000    0.0000   -0.0000   -0.0001    0.0002   -0.0000    0.0000    0.0040    0.0000
       60 CR     6d0       -0.0000   -0.0000   -0.0000    0.0000    0.0000    0.0000    0.0000   -0.0000   -0.0021   -0.0000
       61 CR     7d0        0.0000   -0.0000    0.0000   -0.0000   -0.0000   -0.0000    0.0000   -0.0000   -0.0012   -0.0000
       62 CR     8d0       -0.0000    0.0000   -0.0000    0.0000    0.0000   -0.0000   -0.0000    0.0000    0.0004    0.0000
       63 CR     9d0        0.0000   -0.0000    0.0000   -0.0000   -0.0000    0.0000   -0.0000    0.0000    0.0006    0.0000
       64 CR    10d0       -0.0000    0.0000   -0.0000    0.0000    0.0000    0.0000   -0.0000    0.0000    0.0001    0.0000
       65 CR     3d1+      -0.0000   -0.0000    0.0003   -0.0000    0.0000   -0.0000    0.0526   -0.0000    0.0001   -0.0000
       66 CR     4d1+       0.0000    0.0000   -0.0002    0.0000   -0.0000    0.0000   -0.0118    0.0000   -0.0000    0.0000
       67 CR     5d1+      -0.0000   -0.0000    0.0001   -0.0000    0.0000    0.0000   -0.0068    0.0000   -0.0000   -0.0000
       68 CR     6d1+       0.0000    0.0000   -0.0001    0.0000   -0.0000   -0.0000    0.0035   -0.0000    0.0000   -0.0000
       69 CR     7d1+      -0.0000   -0.0000    0.0000   -0.0000    0.0000   -0.0000    0.0020   -0.0000    0.0000   -0.0000
       70 CR     8d1+       0.0000   -0.0000   -0.0000    0.0000   -0.0000    0.0000   -0.0006    0.0000   -0.0000    0.0000
       71 CR     9d1+      -0.0000    0.0000    0.0000   -0.0000    0.0000    0.0000   -0.0010    0.0000   -0.0000    0.0000
       72 CR    10d1+       0.0000   -0.0000   -0.0000    0.0000   -0.0000    0.0000   -0.0002    0.0000   -0.0000    0.0000
       73 CR     3d2+      -0.0000   -0.0000   -0.0000    0.0000    0.0003    0.0006   -0.0001    0.0000    0.0548   -0.0000
       74 CR     4d2+       0.0000    0.0000    0.0000   -0.0000   -0.0002    0.0003    0.0000   -0.0000   -0.0123    0.0000
       75 CR     5d2+      -0.0000   -0.0000   -0.0000    0.0000    0.0001   -0.0003    0.0000   -0.0000   -0.0070    0.0000
       76 CR     6d2+       0.0000    0.0000    0.0000   -0.0000   -0.0001   -0.0001   -0.0000    0.0000    0.0036   -0.0000
       77 CR     7d2+      -0.0000    0.0000   -0.0000    0.0000    0.0000    0.0001   -0.0000    0.0000    0.0020   -0.0000
       78 CR     8d2+       0.0000   -0.0000    0.0000   -0.0000   -0.0000    0.0000    0.0000   -0.0000   -0.0006    0.0000
       79 CR     9d2+      -0.0000    0.0000   -0.0000    0.0000    0.0000   -0.0001    0.0000   -0.0000   -0.0011    0.0000
       80 CR    10d2+       0.0000   -0.0000    0.0000   -0.0000   -0.0000   -0.0000   -0.0000    0.0000   -0.0002    0.0000
       81 CR     4f3-      -0.0000   -0.0000   -0.0000   -0.0000    0.0000    0.0000    0.0000    0.0002   -0.0000   -0.0042
       82 CR     5f3-       0.0000    0.0000    0.0000    0.0000   -0.0000   -0.0000    0.0000    0.0005   -0.0000   -0.0024
       83 CR     6f3-      -0.0000   -0.0000   -0.0000   -0.0000    0.0000    0.0000    0.0000    0.0000   -0.0000   -0.0001
       84 CR     7f3-       0.0000    0.0000    0.0000    0.0000   -0.0000   -0.0000   -0.0000   -0.0002    0.0000    0.0003
       85 CR     8f3-      -0.0000   -0.0000   -0.0000   -0.0000    0.0000    0.0000   -0.0000   -0.0000   -0.0000    0.0002
       86 CR     9f3-       0.0000    0.0000    0.0000    0.0000   -0.0000   -0.0000    0.0000    0.0001   -0.0000    0.0000
       87 CR     4f2-      -0.0000   -0.0000   -0.0000   -0.0000    0.0000   -0.0000   -0.0000   -0.0001   -0.0000    0.0449
       88 CR     5f2-       0.0000    0.0000    0.0000    0.0000    0.0000    0.0000   -0.0000   -0.0001    0.0000    0.0200
       89 CR     6f2-      -0.0000   -0.0000   -0.0000   -0.0000   -0.0000   -0.0000   -0.0000   -0.0000   -0.0000   -0.0049
       90 CR     7f2-       0.0000   -0.0000   -0.0000   -0.0000    0.0000   -0.0000    0.0000    0.0000    0.0000   -0.0050
       91 CR     8f2-      -0.0000    0.0000   -0.0000   -0.0000   -0.0000    0.0000    0.0000    0.0000   -0.0000   -0.0009
       92 CR     9f2-       0.0000   -0.0000    0.0000    0.0000    0.0000   -0.0000   -0.0000   -0.0000    0.0000    0.0013
       93 CR     4f1-      -0.0000   -0.0000    0.0000    0.0000   -0.0000    0.0000   -0.0000   -0.0001   -0.0000    0.0011
       94 CR     5f1-       0.0000    0.0000   -0.0000   -0.0000    0.0000   -0.0000   -0.0000   -0.0001    0.0000    0.0006
       95 CR     6f1-      -0.0000   -0.0000    0.0000    0.0000   -0.0000    0.0000   -0.0000   -0.0000   -0.0000    0.0000
       96 CR     7f1-       0.0000    0.0000   -0.0000   -0.0000    0.0000   -0.0000    0.0000    0.0000    0.0000   -0.0001
       97 CR     8f1-      -0.0000   -0.0000    0.0000    0.0000   -0.0000    0.0000    0.0000    0.0000   -0.0000   -0.0000
       98 CR     9f1-      -0.0000    0.0000   -0.0000   -0.0000    0.0000   -0.0000   -0.0000   -0.0000    0.0000   -0.0000
       99 CR     4f0       -0.0000    0.0000    0.0000   -0.0000    0.0000    0.0000   -0.0002    0.0000    0.0001    0.0000
      100 CR     5f0        0.0000   -0.0000   -0.0000    0.0000   -0.0000    0.0000   -0.0003    0.0000    0.0000    0.0000
      101 CR     6f0        0.0000   -0.0000    0.0000   -0.0000    0.0000   -0.0000   -0.0000    0.0000    0.0000    0.0000
      102 CR     7f0        0.0000   -0.0000   -0.0000    0.0000    0.0000   -0.0000    0.0001   -0.0000   -0.0000   -0.0000
      103 CR     8f0        0.0000   -0.0000    0.0000   -0.0000    0.0000   -0.0000    0.0000   -0.0000   -0.0000   -0.0000
      104 CR     9f0        0.0000   -0.0000   -0.0000    0.0000   -0.0000   -0.0000   -0.0001    0.0000    0.0000   -0.0000
      105 CR     4f1+       0.0000   -0.0000    0.0000   -0.0000    0.0000   -0.0002    0.0001   -0.0000   -0.0001   -0.0000
      106 CR     5f1+      -0.0000    0.0000   -0.0000    0.0000   -0.0000   -0.0000    0.0000   -0.0000   -0.0004   -0.0000
      107 CR     6f1+       0.0000   -0.0000    0.0000   -0.0000    0.0000    0.0000    0.0000   -0.0000   -0.0000    0.0000
      108 CR     7f1+      -0.0000   -0.0000    0.0000   -0.0000   -0.0000    0.0000   -0.0000    0.0000    0.0001    0.0000
      109 CR     8f1+       0.0000    0.0000   -0.0000    0.0000    0.0000   -0.0000   -0.0000    0.0000    0.0000    0.0000
      110 CR     9f1+      -0.0000   -0.0000    0.0000   -0.0000   -0.0000   -0.0000    0.0000   -0.0000   -0.0001   -0.0000
      111 CR     4f2+      -0.0000    0.0000   -0.0000    0.0000    0.0000    0.0000    0.0002   -0.0000    0.0000   -0.0000
      112 CR     5f2+       0.0000   -0.0000    0.0000   -0.0000    0.0000    0.0000    0.0004   -0.0000    0.0000   -0.0000
      113 CR     6f2+      -0.0000   -0.0000   -0.0000    0.0000   -0.0000   -0.0000    0.0000   -0.0000    0.0000   -0.0000
      114 CR     7f2+       0.0000   -0.0000    0.0000   -0.0000    0.0000   -0.0000   -0.0002    0.0000   -0.0000    0.0000
      115 CR     8f2+      -0.0000   -0.0000   -0.0000    0.0000   -0.0000   -0.0000   -0.0000    0.0000   -0.0000    0.0000
      116 CR     9f2+       0.0000   -0.0000    0.0000   -0.0000    0.0000   -0.0000    0.0001   -0.0000    0.0000    0.0000
      117 CR     4f3+      -0.0000    0.0000    0.0000   -0.0000   -0.0000    0.0002    0.0001   -0.0000    0.0002   -0.0000
      118 CR     5f3+       0.0000   -0.0000   -0.0000    0.0000    0.0000    0.0001    0.0000   -0.0000    0.0005   -0.0000
      119 CR     6f3+      -0.0000    0.0000    0.0000   -0.0000   -0.0000   -0.0001    0.0000   -0.0000    0.0000    0.0000
      120 CR     7f3+       0.0000    0.0000    0.0000   -0.0000    0.0000   -0.0000   -0.0000    0.0000   -0.0002    0.0000
      121 CR     8f3+      -0.0000   -0.0000    0.0000   -0.0000   -0.0000    0.0000   -0.0000    0.0000   -0.0000    0.0000
      122 CR     9f3+       0.0000    0.0000    0.0000   -0.0000    0.0000    0.0000    0.0000   -0.0000    0.0001   -0.0000
      123 CR     5g4-      -0.0000   -0.0000    0.0000    0.0000   -0.0000    0.0000    0.0000    0.0002   -0.0000   -0.0001
      124 CR     6g4-       0.0000    0.0000   -0.0000   -0.0000    0.0000    0.0000    0.0000    0.0001   -0.0000   -0.0003
      125 CR     7g4-      -0.0000   -0.0000    0.0000    0.0000   -0.0000   -0.0000    0.0000    0.0000    0.0000   -0.0003
      126 CR     8g4-       0.0000    0.0000    0.0000    0.0000    0.0000    0.0000   -0.0000   -0.0000   -0.0000   -0.0002
      127 CR     5g3-       0.0000    0.0000   -0.0000   -0.0000   -0.0000    0.0000   -0.0000   -0.0000   -0.0000    0.0008
      128 CR     6g3-      -0.0000   -0.0000    0.0000    0.0000    0.0000   -0.0000   -0.0000   -0.0000    0.0000    0.0020
      129 CR     7g3-       0.0000    0.0000   -0.0000   -0.0000   -0.0000    0.0000   -0.0000   -0.0000   -0.0000    0.0017
      130 CR     8g3-      -0.0000   -0.0000   -0.0000   -0.0000    0.0000   -0.0000   -0.0000   -0.0000   -0.0000    0.0008
      131 CR     5g2-      -0.0000   -0.0000   -0.0000   -0.0000    0.0000   -0.0000   -0.0000   -0.0001   -0.0000    0.0000
      132 CR     6g2-       0.0000    0.0000    0.0000    0.0000   -0.0000   -0.0000   -0.0000   -0.0001    0.0000    0.0001
      133 CR     7g2-      -0.0000   -0.0000   -0.0000   -0.0000   -0.0000    0.0000   -0.0000   -0.0000   -0.0000    0.0001
      134 CR     8g2-       0.0000    0.0000   -0.0000   -0.0000    0.0000   -0.0000    0.0000    0.0000   -0.0000    0.0001
      135 CR     5g1-      -0.0000   -0.0000    0.0000    0.0000   -0.0000    0.0000    0.0000    0.0000    0.0000   -0.0003
      136 CR     6g1-       0.0000    0.0000    0.0000    0.0000   -0.0000   -0.0000    0.0000    0.0000   -0.0000   -0.0008
      137 CR     7g1-      -0.0000   -0.0000   -0.0000   -0.0000    0.0000    0.0000    0.0000    0.0000    0.0000   -0.0007
      138 CR     8g1-       0.0000    0.0000    0.0000    0.0000    0.0000   -0.0000    0.0000    0.0000   -0.0000   -0.0003
      139 CR     5g0        0.0000   -0.0000   -0.0000    0.0000    0.0000   -0.0000   -0.0000    0.0000    0.0001    0.0000
      140 CR     6g0       -0.0000    0.0000    0.0000   -0.0000   -0.0000   -0.0000   -0.0000    0.0000    0.0001    0.0000
      141 CR     7g0       -0.0000   -0.0000   -0.0000    0.0000    0.0000    0.0000   -0.0000    0.0000    0.0000    0.0000
      142 CR     8g0       -0.0000    0.0000   -0.0000    0.0000    0.0000    0.0000   -0.0000    0.0000   -0.0000    0.0000
      143 CR     5g1+      -0.0000    0.0000   -0.0000    0.0000    0.0000    0.0000   -0.0001    0.0000    0.0000    0.0000
      144 CR     6g1+      -0.0000   -0.0000    0.0000   -0.0000    0.0000    0.0000   -0.0001    0.0000    0.0000    0.0000
      145 CR     7g1+       0.0000    0.0000   -0.0000    0.0000    0.0000    0.0000   -0.0000    0.0000    0.0000    0.0000
      146 CR     8g1+       0.0000   -0.0000   -0.0000    0.0000    0.0000   -0.0000    0.0000   -0.0000    0.0000    0.0000
      147 CR     5g2+      -0.0000    0.0000    0.0000   -0.0000   -0.0000    0.0000    0.0000   -0.0000   -0.0001   -0.0000
      148 CR     6g2+       0.0000   -0.0000   -0.0000    0.0000    0.0000    0.0000    0.0000   -0.0000   -0.0001   -0.0000
      149 CR     7g2+       0.0000    0.0000    0.0000   -0.0000   -0.0000   -0.0000    0.0000   -0.0000   -0.0000   -0.0000
      150 CR     8g2+       0.0000   -0.0000    0.0000   -0.0000   -0.0000   -0.0000    0.0000   -0.0000    0.0000   -0.0000
      151 CR     5g3+      -0.0000    0.0000    0.0000   -0.0000    0.0000    0.0000    0.0001   -0.0000    0.0000   -0.0000
      152 CR     6g3+      -0.0000   -0.0000   -0.0000    0.0000    0.0000    0.0000    0.0001   -0.0000    0.0000   -0.0000
      153 CR     7g3+       0.0000    0.0000    0.0000   -0.0000    0.0000    0.0000    0.0000   -0.0000    0.0000   -0.0000
      154 CR     8g3+       0.0000   -0.0000    0.0000   -0.0000    0.0000   -0.0000   -0.0000    0.0000    0.0000   -0.0000
      155 CR     5g4+       0.0000   -0.0000    0.0000   -0.0000    0.0000   -0.0000    0.0000   -0.0000    0.0002   -0.0000
      156 CR     6g4+      -0.0000    0.0000   -0.0000    0.0000   -0.0000   -0.0000    0.0000   -0.0000    0.0001   -0.0000
      157 CR     7g4+      -0.0000   -0.0000    0.0000   -0.0000    0.0000    0.0000    0.0000   -0.0000    0.0000   -0.0000
      158 CR     8g4+      -0.0000    0.0000    0.0000   -0.0000    0.0000    0.0000    0.0000   -0.0000   -0.0000   -0.0000
      159 CR     6h5-      -0.0000   -0.0000   -0.0000   -0.0000   -0.0000    0.0000   -0.0000   -0.0000   -0.0000    0.0000
      160 CR     7h5-       0.0000    0.0000    0.0000    0.0000    0.0000   -0.0000   -0.0000   -0.0000   -0.0000    0.0000
      161 CR     6h4-      -0.0000   -0.0000    0.0000    0.0000   -0.0000    0.0000    0.0000    0.0000   -0.0000    0.0002
      162 CR     7h4-       0.0000    0.0000   -0.0000   -0.0000    0.0000    0.0000    0.0000    0.0000   -0.0000    0.0003
      163 CR     6h3-      -0.0000   -0.0000    0.0000    0.0000   -0.0000    0.0000    0.0000    0.0000    0.0000   -0.0000
      164 CR     7h3-       0.0000    0.0000   -0.0000   -0.0000    0.0000   -0.0000    0.0000    0.0000   -0.0000   -0.0000
      165 CR     6h2-      -0.0000    0.0000    0.0000    0.0000   -0.0000    0.0000    0.0000    0.0000   -0.0000   -0.0001
      166 CR     7h2-       0.0000   -0.0000   -0.0000   -0.0000    0.0000    0.0000    0.0000    0.0000   -0.0000   -0.0002
      167 CR     6h1-      -0.0000   -0.0000   -0.0000   -0.0000   -0.0000    0.0000   -0.0000   -0.0000    0.0000   -0.0000
      168 CR     7h1-       0.0000    0.0000    0.0000    0.0000    0.0000   -0.0000   -0.0000   -0.0000   -0.0000   -0.0000
      169 CR     6h0        0.0000   -0.0000   -0.0000    0.0000   -0.0000   -0.0000   -0.0000    0.0000   -0.0000    0.0000
      170 CR     7h0        0.0000   -0.0000    0.0000   -0.0000    0.0000   -0.0000   -0.0000    0.0000   -0.0000    0.0000
      171 CR     6h1+       0.0000    0.0000    0.0000   -0.0000   -0.0000   -0.0000    0.0000   -0.0000   -0.0000    0.0000
      172 CR     7h1+       0.0000   -0.0000   -0.0000    0.0000    0.0000   -0.0000    0.0000   -0.0000   -0.0000    0.0000
      173 CR     6h2+      -0.0000    0.0000    0.0000   -0.0000    0.0000    0.0000    0.0000   -0.0000    0.0000   -0.0000
      174 CR     7h2+      -0.0000    0.0000   -0.0000    0.0000   -0.0000    0.0000    0.0000   -0.0000    0.0000   -0.0000
      175 CR     6h3+      -0.0000   -0.0000    0.0000   -0.0000    0.0000    0.0000    0.0000   -0.0000    0.0000   -0.0000
      176 CR     7h3+      -0.0000    0.0000   -0.0000    0.0000   -0.0000    0.0000    0.0000   -0.0000    0.0000   -0.0000
      177 CR     6h4+      -0.0000    0.0000   -0.0000    0.0000    0.0000    0.0000   -0.0000    0.0000    0.0000    0.0000
      178 CR     7h4+      -0.0000    0.0000    0.0000   -0.0000   -0.0000    0.0000   -0.0000    0.0000    0.0000    0.0000
      179 CR     6h5+       0.0000    0.0000    0.0000   -0.0000   -0.0000   -0.0000    0.0000   -0.0000   -0.0000   -0.0000
      180 CR     7h5+       0.0000   -0.0000   -0.0000    0.0000    0.0000   -0.0000    0.0000   -0.0000   -0.0000   -0.0000

          Orbital           11        12        13        14    
          Energy            2.4488    2.4549    2.4549    2.4573
          Occ. No.          0.0000    0.0000    0.0000    0.0000

        1 CR     1s        -0.0000    0.0000    0.0000   -0.0000
        2 CR     2s         0.0000   -0.0000    0.0000    0.0001
        3 CR     3s         0.0000   -0.0000    0.0000    0.0058
        4 CR     4s         0.0000   -0.0001    0.0000    0.0224
        5 CR     5s        -0.0000    0.0000   -0.0000   -0.0075
        6 CR     6s        -0.0000    0.0000   -0.0000   -0.0057
        7 CR     7s         0.0000   -0.0000    0.0000    0.0016
        8 CR     8s         0.0000   -0.0000    0.0000    0.0019
        9 CR     9s         0.0000    0.0000   -0.0000    0.0001
       10 CR    10s         0.0000    0.0000   -0.0000   -0.0000
       11 CR     2px       -0.0000    0.0000   -0.0000   -0.0006
       12 CR     3px       -0.0000    0.0002   -0.0000   -0.0515
       13 CR     4px        0.0001   -0.0003    0.0000    0.0859
       14 CR     5px       -0.0000    0.0002   -0.0000   -0.0567
       15 CR     6px       -0.0000    0.0000   -0.0000   -0.0140
       16 CR     7px        0.0000   -0.0001    0.0000    0.0162
       17 CR     8px        0.0000   -0.0000    0.0000    0.0040
       18 CR     9px       -0.0000    0.0000    0.0000   -0.0036
       19 CR    10px       -0.0000    0.0000    0.0000   -0.0015
       20 CR    11px       -0.0000    0.0000    0.0000   -0.0002
       21 CR     2py        0.0000   -0.0000   -0.0005   -0.0000
       22 CR     3py        0.0000   -0.0000   -0.0434   -0.0000
       23 CR     4py       -0.0000    0.0000    0.0632   -0.0000
       24 CR     5py        0.0000   -0.0000   -0.0467   -0.0000
       25 CR     6py        0.0000   -0.0000   -0.0094    0.0000
       26 CR     7py       -0.0000    0.0000    0.0136    0.0000
       27 CR     8py       -0.0000    0.0000    0.0026    0.0000
       28 CR     9py        0.0000   -0.0000   -0.0036   -0.0000
       29 CR    10py        0.0000   -0.0000   -0.0015   -0.0000
       30 CR    11py        0.0000   -0.0000   -0.0002   -0.0000
       31 CR     2pz       -0.0000   -0.0005    0.0000   -0.0000
       32 CR     3pz       -0.0027   -0.0435    0.0000   -0.0002
       33 CR     4pz        0.0044    0.0633   -0.0000    0.0002
       34 CR     5pz       -0.0029   -0.0467    0.0000   -0.0002
       35 CR     6pz       -0.0007   -0.0094    0.0000   -0.0000
       36 CR     7pz        0.0008    0.0136   -0.0000    0.0000
       37 CR     8pz        0.0002    0.0026   -0.0000    0.0000
       38 CR     9pz       -0.0002   -0.0036    0.0000   -0.0000
       39 CR    10pz       -0.0001   -0.0015    0.0000   -0.0000
       40 CR    11pz       -0.0000   -0.0002    0.0000   -0.0000
       41 CR     3d2-      -0.0000    0.0000    0.9432   -0.0000
       42 CR     4d2-       0.0000   -0.0000   -0.3042    0.0000
       43 CR     5d2-      -0.0000    0.0000    0.0003   -0.0000
       44 CR     6d2-      -0.0000    0.0000    0.0156   -0.0000
       45 CR     7d2-      -0.0000    0.0000    0.0136   -0.0000
       46 CR     8d2-       0.0000   -0.0000   -0.0042    0.0000
       47 CR     9d2-       0.0000   -0.0000   -0.0032    0.0000
       48 CR    10d2-       0.0000   -0.0000   -0.0001    0.0000
       49 CR     3d1-       0.0000    0.0000    0.0637    0.0000
       50 CR     4d1-      -0.0000   -0.0000   -0.0224   -0.0000
       51 CR     5d1-      -0.0000   -0.0000   -0.0005   -0.0000
       52 CR     6d1-       0.0000    0.0000    0.0012    0.0000
       53 CR     7d1-       0.0000    0.0000    0.0012    0.0000
       54 CR     8d1-      -0.0000   -0.0000   -0.0002   -0.0000
       55 CR     9d1-      -0.0000   -0.0000   -0.0003   -0.0000
       56 CR    10d1-      -0.0000   -0.0000   -0.0000   -0.0000
       57 CR     3d0        0.8178   -0.0486    0.0000   -0.4726
       58 CR     4d0       -0.2751    0.0173   -0.0000    0.1491
       59 CR     5d0       -0.0016    0.0004   -0.0000   -0.0009
       60 CR     6d0        0.0159   -0.0010    0.0000   -0.0072
       61 CR     7d0        0.0136   -0.0009    0.0000   -0.0062
       62 CR     8d0       -0.0042    0.0001   -0.0000    0.0020
       63 CR     9d0       -0.0038    0.0002   -0.0000    0.0013
       64 CR    10d0       -0.0003    0.0000   -0.0000   -0.0001
       65 CR     3d1+       0.0587    0.9436   -0.0000    0.0037
       66 CR     4d1+      -0.0180   -0.3043    0.0000   -0.0012
       67 CR     5d1+       0.0003    0.0003   -0.0000    0.0000
       68 CR     6d1+       0.0009    0.0156   -0.0000    0.0001
       69 CR     7d1+       0.0007    0.0136   -0.0000    0.0001
       70 CR     8d1+      -0.0004   -0.0042    0.0000   -0.0000
       71 CR     9d1+      -0.0002   -0.0032    0.0000   -0.0000
       72 CR    10d1+      -0.0000   -0.0001    0.0000    0.0000
       73 CR     3d2+       0.4726   -0.0324    0.0000    0.8174
       74 CR     4d2+      -0.1589    0.0113   -0.0000   -0.2577
       75 CR     5d2+      -0.0009    0.0002   -0.0000    0.0016
       76 CR     6d2+       0.0092   -0.0006    0.0000    0.0124
       77 CR     7d2+       0.0078   -0.0006    0.0000    0.0108
       78 CR     8d2+      -0.0024    0.0001   -0.0000   -0.0035
       79 CR     9d2+      -0.0022    0.0001   -0.0000   -0.0022
       80 CR    10d2+      -0.0002    0.0000   -0.0000    0.0001
       81 CR     4f3-      -0.0000    0.0000    0.0574   -0.0000
       82 CR     5f3-      -0.0000    0.0000    0.0274   -0.0000
       83 CR     6f3-      -0.0000   -0.0000   -0.0045   -0.0000
       84 CR     7f3-       0.0000   -0.0000   -0.0060   -0.0000
       85 CR     8f3-       0.0000   -0.0000   -0.0016    0.0000
       86 CR     9f3-       0.0000    0.0000    0.0010    0.0000
       87 CR     4f2-       0.0000    0.0000    0.0025    0.0000
       88 CR     5f2-       0.0000    0.0000    0.0004    0.0000
       89 CR     6f2-      -0.0000   -0.0000   -0.0011   -0.0000
       90 CR     7f2-      -0.0000   -0.0000   -0.0006   -0.0000
       91 CR     8f2-      -0.0000    0.0000    0.0000   -0.0000
       92 CR     9f2-       0.0000    0.0000    0.0003    0.0000
       93 CR     4f1-       0.0000   -0.0000   -0.0148    0.0000
       94 CR     5f1-       0.0000   -0.0000   -0.0071    0.0000
       95 CR     6f1-       0.0000    0.0000    0.0012    0.0000
       96 CR     7f1-      -0.0000    0.0000    0.0016    0.0000
       97 CR     8f1-      -0.0000    0.0000    0.0004   -0.0000
       98 CR     9f1-      -0.0000   -0.0000   -0.0003    0.0000
       99 CR     4f0       -0.0024   -0.0363    0.0000    0.0000
      100 CR     5f0       -0.0014   -0.0174    0.0000    0.0003
      101 CR     6f0       -0.0001    0.0028   -0.0000    0.0003
      102 CR     7f0        0.0001    0.0038   -0.0000    0.0002
      103 CR     8f0        0.0001    0.0010   -0.0000    0.0000
      104 CR     9f0        0.0000   -0.0006    0.0000   -0.0001
      105 CR     4f1+       0.0355   -0.0016    0.0000   -0.0390
      106 CR     5f1+       0.0158   -0.0001    0.0000   -0.0187
      107 CR     6f1+      -0.0039    0.0009   -0.0000    0.0030
      108 CR     7f1+      -0.0040    0.0005   -0.0000    0.0042
      109 CR     8f1+      -0.0007   -0.0000    0.0000    0.0011
      110 CR     9f1+       0.0010   -0.0003    0.0000   -0.0007
      111 CR     4f2+       0.0031    0.0469   -0.0000    0.0004
      112 CR     5f2+       0.0018    0.0224   -0.0000    0.0004
      113 CR     6f2+       0.0001   -0.0036    0.0000    0.0002
      114 CR     7f2+      -0.0002   -0.0049    0.0000    0.0001
      115 CR     8f2+      -0.0001   -0.0013    0.0000   -0.0000
      116 CR     9f2+      -0.0000    0.0008   -0.0000   -0.0000
      117 CR     4f3+       0.0275   -0.0016    0.0000    0.0503
      118 CR     5f3+       0.0123   -0.0002    0.0000    0.0242
      119 CR     6f3+      -0.0030    0.0007   -0.0000   -0.0039
      120 CR     7f3+      -0.0031    0.0004   -0.0000   -0.0054
      121 CR     8f3+      -0.0006   -0.0000    0.0000   -0.0015
      122 CR     9f3+       0.0008   -0.0002    0.0000    0.0009
      123 CR     5g4-      -0.0000    0.0000    0.0012   -0.0000
      124 CR     6g4-      -0.0000    0.0000    0.0032   -0.0000
      125 CR     7g4-      -0.0000    0.0000    0.0029   -0.0000
      126 CR     8g4-      -0.0000    0.0000    0.0016   -0.0000
      127 CR     5g3-       0.0000   -0.0000   -0.0002    0.0000
      128 CR     6g3-       0.0000   -0.0000   -0.0004    0.0000
      129 CR     7g3-       0.0000   -0.0000   -0.0005    0.0000
      130 CR     8g3-       0.0000   -0.0000   -0.0005    0.0000
      131 CR     5g2-       0.0000   -0.0000   -0.0005   -0.0000
      132 CR     6g2-       0.0000   -0.0000   -0.0012    0.0000
      133 CR     7g2-       0.0000   -0.0000   -0.0011    0.0000
      134 CR     8g2-       0.0000   -0.0000   -0.0006    0.0000
      135 CR     5g1-      -0.0000    0.0000    0.0002   -0.0000
      136 CR     6g1-      -0.0000    0.0000    0.0004   -0.0000
      137 CR     7g1-      -0.0000    0.0000    0.0004   -0.0000
      138 CR     8g1-      -0.0000    0.0000    0.0003   -0.0000
      139 CR     5g0       -0.0005   -0.0000    0.0000    0.0004
      140 CR     6g0       -0.0012   -0.0001    0.0000    0.0012
      141 CR     7g0       -0.0010   -0.0002    0.0000    0.0010
      142 CR     8g0       -0.0005   -0.0002    0.0000    0.0004
      143 CR     5g1+      -0.0001   -0.0010    0.0000    0.0001
      144 CR     6g1+      -0.0002   -0.0026    0.0000    0.0002
      145 CR     7g1+      -0.0002   -0.0023    0.0000    0.0003
      146 CR     8g1+      -0.0002   -0.0013    0.0000    0.0003
      147 CR     5g2+       0.0004    0.0002   -0.0000   -0.0007
      148 CR     6g2+       0.0011    0.0004   -0.0000   -0.0018
      149 CR     7g2+       0.0009    0.0004   -0.0000   -0.0015
      150 CR     8g2+       0.0004    0.0003   -0.0000   -0.0007
      151 CR     5g3+       0.0000    0.0009   -0.0000    0.0001
      152 CR     6g3+       0.0002    0.0023   -0.0000    0.0003
      153 CR     7g3+       0.0002    0.0021   -0.0000    0.0004
      154 CR     8g3+       0.0002    0.0011   -0.0000    0.0003
      155 CR     5g4+       0.0006    0.0002   -0.0000    0.0009
      156 CR     6g4+       0.0014    0.0004   -0.0000    0.0024
      157 CR     7g4+       0.0012    0.0004   -0.0000    0.0020
      158 CR     8g4+       0.0006    0.0004   -0.0000    0.0009
      159 CR     6h5-       0.0000    0.0000    0.0003   -0.0000
      160 CR     7h5-       0.0000    0.0000    0.0004   -0.0000
      161 CR     6h4-       0.0000   -0.0000   -0.0000    0.0000
      162 CR     7h4-       0.0000   -0.0000   -0.0000    0.0000
      163 CR     6h3-      -0.0000   -0.0000   -0.0001   -0.0000
      164 CR     7h3-      -0.0000   -0.0000   -0.0002   -0.0000
      165 CR     6h2-      -0.0000    0.0000    0.0001   -0.0000
      166 CR     7h2-      -0.0000    0.0000    0.0001   -0.0000
      167 CR     6h1-      -0.0000    0.0000    0.0000   -0.0000
      168 CR     7h1-      -0.0000    0.0000    0.0001   -0.0000
      169 CR     6h0       -0.0000    0.0002   -0.0000   -0.0000
      170 CR     7h0       -0.0000    0.0002   -0.0000   -0.0000
      171 CR     6h1+      -0.0002   -0.0000    0.0000    0.0002
      172 CR     7h1+      -0.0002   -0.0000    0.0000    0.0002
      173 CR     6h2+       0.0000   -0.0002    0.0000    0.0000
      174 CR     7h2+       0.0000   -0.0003    0.0000    0.0000
      175 CR     6h3+       0.0001    0.0001   -0.0000   -0.0002
      176 CR     7h3+       0.0001    0.0001   -0.0000   -0.0002
      177 CR     6h4+      -0.0000    0.0002   -0.0000    0.0000
      178 CR     7h4+      -0.0000    0.0003   -0.0000    0.0001
      179 CR     6h5+       0.0002    0.0000   -0.0000    0.0002
      180 CR     7h5+       0.0002    0.0001   -0.0000    0.0003
--


++    Molecular charges:
      ------------------

      Mulliken charges per centre and basis function type
      ---------------------------------------------------

                CR    
      1s       2.0000
      2s       2.0000
      2px      2.0000
      2pz      2.0000
      2py      2.0000
      3s       1.9813
      3px      1.9550
      3pz      1.9590
      3py      1.9590
      4s       0.0055
      3d2+     0.0060
      3d1+     0.0055
      3d0      0.0020
      3d1-     0.0000
      3d2-     0.0055
      4px      0.0159
      4pz      0.0160
      4py      0.0160
      5s       0.0120
      4d2+     0.0003
      4d1+     0.0003
      4d0      0.0001
      4d1-     0.0000
      4d2-     0.0003
      5px      0.0189
      5pz      0.0185
      5py      0.0185
      6s       0.0020
      4f3+     0.0000
      4f2+     0.0000
      4f1+     0.0000
      4f0      0.0000
      4f1-     0.0000
      4f2-     0.0000
      4f3-     0.0000
      5d2+     0.0001
      5d1+     0.0001
      5d0      0.0000
      5d1-     0.0000
      5d2-     0.0001
      6px      0.0000
      6pz      0.0000
      6py      0.0000
      7s       0.0002
      5f3+     0.0000
      5f2+     0.0000
      5f1+     0.0000
      5f0      0.0000
      5f1-     0.0000
      5f2-     0.0000
      5f3-     0.0000
      6d2+     0.0000
      6d1+     0.0000
      6d0      0.0000
      6d1-     0.0000
      6d2-     0.0000
      7px      0.0004
      7pz      0.0005
      7py      0.0005
      5g4+     0.0000
      5g3+     0.0000
      5g2+     0.0000
      5g1+     0.0000
      5g0      0.0000
      5g1-     0.0000
      5g2-     0.0000
      5g3-     0.0000
      5g4-     0.0000
      6f3+     0.0000
      6f2+     0.0000
      6f1+     0.0000
      6f0      0.0000
      6f1-     0.0000
      6f2-     0.0000
      6f3-     0.0000
      6g4+     0.0000
      6g3+     0.0000
      6g2+     0.0000
      6g1+     0.0000
      6g0      0.0000
      6g1-     0.0000
      6g2-     0.0000
      6g3-     0.0000
      6g4-     0.0000
      6h5+     0.0000
      6h4+     0.0000
      6h3+     0.0000
      6h2+     0.0000
      6h1+     0.0000
      6h0      0.0000
      6h1-     0.0000
      6h2-     0.0000
      6h3-     0.0000
      6h4-     0.0000
      6h5-     0.0000
      7d2+     0.0000
      7d1+     0.0000
      7d0      0.0000
      7d1-     0.0000
      7d2-     0.0000
      7f3+     0.0000
      7f2+     0.0000
      7f1+     0.0000
      7f0      0.0000
      7f1-     0.0000
      7f2-     0.0000
      7f3-     0.0000
      7g4+     0.0000
      7g3+     0.0000
      7g2+     0.0000
      7g1+     0.0000
      7g0      0.0000
      7g1-     0.0000
      7g2-     0.0000
      7g3-     0.0000
      7g4-     0.0000
      7h5+     0.0000
      7h4+     0.0000
      7h3+     0.0000
      7h2+     0.0000
      7h1+     0.0000
      7h0      0.0000
      7h1-     0.0000
      7h2-     0.0000
      7h3-     0.0000
      7h4-     0.0000
      7h5-     0.0000
      8s       0.0001
      8px      0.0000
      8pz      0.0000
      8py      0.0000
      8d2+     0.0000
      8d1+     0.0000
      8d0      0.0000
      8d1-     0.0000
      8d2-     0.0000
      8f3+     0.0000
      8f2+     0.0000
      8f1+     0.0000
      8f0      0.0000
      8f1-     0.0000
      8f2-     0.0000
      8f3-     0.0000
      8g4+     0.0000
      8g3+     0.0000
      8g2+     0.0000
      8g1+     0.0000
      8g0      0.0000
      8g1-     0.0000
      8g2-     0.0000
      8g3-     0.0000
      8g4-     0.0000
      9s       0.0000
      9px      0.0000
      9pz      0.0000
      9py      0.0000
      9d2+     0.0000
      9d1+     0.0000
      9d0      0.0000
      9d1-     0.0000
      9d2-     0.0000
      9f3+     0.0000
      9f2+     0.0000
      9f1+     0.0000
      9f0      0.0000
      9f1-     0.0000
      9f2-     0.0000
      9f3-     0.0000
     10s       0.0000
     10px      0.0000
     10pz      0.0000
     10py      0.0000
     10d2+     0.0000
     10d1+     0.0000
     10d0      0.0000
     10d1-     0.0000
     10d2-     0.0000
     11px      0.0000
     11pz      0.0000
     11py      0.0000
      Total   18.0000

      N-E      6.0000

      Total electronic charge=   18.000000

      Total            charge=    6.000000
--

 Sorry, Molden does not know how to handle
 functions with angular momentum larger than g

++    Static properties:
      ------------------


      LoProp Charges per center


                   CR    
      Nuclear     24.0000
      Electronic -18.0000

      Total        6.0000
--


++    Molecular properties:
      ---------------------

      Charge (e):
                      =    6.0000
      Dipole Moment (Debye):
      Origin of the operator (Ang)=    0.0000    0.0000    0.0000
                   X= -8.4870E-01               Y= -3.7686E-14               Z=  1.3303E-01           Total=  8.5906E-01
      Center of Charge (Ang)
                     X=   -0.02944896               Y=   -0.00000000               Z=    0.00461585
      Quadrupole Moment (Debye*Ang):
      Origin of the operator (Ang)=   -0.0000   -0.0000    0.0046
                  XX= -3.4512E+00              XY= -6.9873E-15              XZ=  2.7920E-05              YY= -3.4482E+00
                  YZ=  5.5925E-15              ZZ= -3.4482E+00
      In traceless form (Debye*Ang)
                  XX= -2.9273E-03              XY= -1.0481E-14              XZ=  4.1881E-05              YY=  1.4666E-03
                  YZ=  8.3887E-15              ZZ=  1.4606E-03
--

 Sorry, Molden does not know how to handle
 functions with angular momentum larger than g
 ###############################################################################
 ###############################################################################
 ###                                                                         ###
 ###                                                                         ###
 ###    WARNING: RunFile label nBas                                          ###
 ###    was used       62 times                                              ###
 ###                                                                         ###
 ###                                                                         ###
 ###############################################################################
 ###############################################################################
Note: The following floating-point exceptions are signalling: IEEE_UNDERFLOW_FLAG IEEE_DENORMAL
--- Stop Module: scf at Wed Mar 26 16:12:16 2025 /rc=_RC_ALL_IS_WELL_ ---
*** files: chromium_so_cf.LprOrb chromium_so_cf.ScfOrb xmldump
    saved to directory /home4/s4752295/Internship/Initial_simulations/Point_charge_model/1_electron/Madelung_charges_9_active_space/Cr
--- Module scf spent 8 seconds ---

*** symbolic link created: INPORB -> chromium_so_cf.ScfOrb
--- Start Module: rasscf at Wed Mar 26 16:12:16 2025 ---

()()()()()()()()()()()()()()()()()()()()()()()()()()()()()()()()()()()()()()()()()()()()()()()()()()

                                              &RASSCF

                                   only a single process is used
                       available to each process: 4.1 GB of memory, 1 thread?
                                            pid: 1853769
()()()()()()()()()()()()()()()()()()()()()()()()()()()()()()()()()()()()()()()()()()()()()()()()()()


      Header of the ONEINT file:
      --------------------------
      
      Integrals generated by seward 4.2.0  , Wed Mar 26 16:12:00 2025


      OrdInt status: non-squared


      Cartesian coordinates in Angstrom:
      -----------------------------------------------------
      No.  Label        X            Y            Z        
      -----------------------------------------------------
       1   CR        -0.00000000  -0.00000000   0.00463220
      -----------------------------------------------------
      Nuclear repulsion energy = -137.23454239

++    Wave function specifications:
      -----------------------------

      Number of closed shell electrons          18
      Number of electrons in active shells       1
      Max number of holes in RAS1 space          0
      Max nr of electrons in RAS3 space          0
      Number of inactive orbitals                9
      Number of active orbitals                  9
      Number of secondary orbitals             162
      Spin quantum number                      0.5
      State symmetry                             1
--

++    Orbital specifications:
      -----------------------

      Symmetry species                           1
                                                 a
      Frozen orbitals                            0
      Inactive orbitals                          9
      Active orbitals                            9
      RAS1 orbitals                              0
      RAS2 orbitals                              9
      RAS3 orbitals                              0
      Secondary orbitals                       162
      Deleted orbitals                           0
      Number of basis functions                180
--

++    CI expansion specifications:
      ----------------------------

      Number of CSFs                             9
      Number of determinants                     9
      Number of root(s) required                 9
      Root chosen for geometry opt.              9
[...]
         2   12       7.28847121E-05  2.69546795E-16  9.92901815E+05  8.24512028E-14  9.92901815E+05
         2   14       1.30286866E-02  1.49173347E-12  4.47566306E+08  4.74125352E-11  4.47566306E+08
         2   16       1.37196203E-02  2.10649644E+07  4.78715616E-11  4.51039902E+08  4.72104866E+08
         3   11       6.46688500E-05  3.03468005E+02  2.36888907E-13  8.80657823E+05  8.80961291E+05
         3   13       1.35774792E-02  1.90023018E+07  4.79739676E-11  4.47410802E+08  4.66413104E+08
         3   15       1.30809320E-02  3.59237833E-12  4.50121679E+08  4.82903480E-11  4.50121679E+08
         4   12       6.46688500E-05  3.03468005E+02  2.36888907E-13  8.80657823E+05  8.80961291E+05
         4   14       1.35774792E-02  1.90023018E+07  4.79739676E-11  4.47410802E+08  4.66413104E+08
         4   16       1.30809320E-02  3.59237833E-12  4.50121679E+08  4.82903480E-11  4.50121679E+08
         5   11       1.23101638E-02  4.74467737E+03  2.05308905E-07  1.64305362E+08  1.64310107E+08
         5   13       5.18738069E-02  1.75808859E+09  1.34870144E-09  1.17158408E+06  1.75926017E+09
         5   15       3.80065050E-05  2.20419369E-06  1.29117255E+06  1.28146570E-09  1.29117255E+06
         5   17       3.65889349E-03  1.69354822E+04  2.06041513E-07  1.62578304E+08  1.62595239E+08
         6   12       1.23101638E-02  4.74467737E+03  2.05308905E-07  1.64305362E+08  1.64310107E+08
         6   14       5.18738069E-02  1.75808859E+09  1.34870144E-09  1.17158408E+06  1.75926017E+09
         6   16       3.80065050E-05  2.20419369E-06  1.29117255E+06  1.28146570E-09  1.29117255E+06
         6   18       3.65889349E-03  1.69354822E+04  2.06041513E-07  1.62578304E+08  1.62595239E+08
         7   11       1.22716852E-02  4.48314793E-12  1.63787408E+08  2.05946814E-07  1.63787408E+08
         7   13       3.16903968E-05  2.20100233E-06  1.07471790E+06  1.49184686E-09  1.07471790E+06
         7   15       5.18587983E-02  1.76068619E+09  1.63279418E-09  1.02075159E+06  1.76170694E+09
         7   17       3.69874837E-03  1.84082845E-11  1.64361317E+08  2.03793936E-07  1.64361317E+08
         8   12       1.22716852E-02  4.48314793E-12  1.63787408E+08  2.05946814E-07  1.63787408E+08
         8   14       3.16903968E-05  2.20100233E-06  1.07471790E+06  1.49184686E-09  1.07471790E+06
         8   16       5.18587983E-02  1.76068619E+09  1.63279418E-09  1.02075159E+06  1.76170694E+09
         8   18       3.69874837E-03  1.84082845E-11  1.64361317E+08  2.03793936E-07  1.64361317E+08
         9   11       3.96210439E-02  5.24403421E+08  3.69624510E-14  2.35341819E+03  5.24405775E+08
         9   13       4.50900330E-04  2.24867005E+04  6.44872091E-15  1.51889032E+07  1.52113899E+07
         9   15       4.39919457E-04  3.80650292E-13  1.48664709E+07  8.57557963E-15  1.48664709E+07
         9   17       1.12632709E-02  4.98217779E+08  3.35147729E-14  1.08207549E+01  4.98217790E+08
        10   12       3.96210439E-02  5.24403421E+08  3.69624510E-14  2.35341819E+03  5.24405775E+08
        10   14       4.50900330E-04  2.24867005E+04  6.44872091E-15  1.51889032E+07  1.52113899E+07
        10   16       4.39919457E-04  3.80650292E-13  1.48664709E+07  8.57557963E-15  1.48664709E+07
        10   18       1.12632709E-02  4.98217779E+08  3.35147729E-14  1.08207549E+01  4.98217790E+08
        11   13       3.37980008E-01  8.76178289E+02  7.81909888E-13  1.59175848E+09  1.59175936E+09
        11   15       3.37967265E-01  4.24899701E-18  1.59903208E+09  7.91020316E-13  1.59903208E+09
        11   17       3.74769968E-01  3.40173755E+09  1.10404586E-16  2.81273921E+03  3.40174036E+09
        12   14       3.37980008E-01  8.76178289E+02  7.81909888E-13  1.59175848E+09  1.59175936E+09
        12   16       3.37967265E-01  4.24899701E-18  1.59903208E+09  7.91020316E-13  1.59903208E+09
        12   18       3.74769968E-01  3.40173755E+09  1.10404586E-16  2.81273921E+03  3.40174036E+09
        13   15       3.65059885E-05  2.55443223E-25  9.10127220E-01  1.83248326E-21  9.10127220E-01
        13   17       6.97474321E-04  7.00694005E+01  2.50597334E-16  4.95140396E+05  4.95210465E+05
        14   16       3.65059885E-05  2.55443223E-25  9.10127220E-01  1.83248326E-21  9.10127220E-01
        14   18       6.97474321E-04  7.00694005E+01  2.50597334E-16  4.95140396E+05  4.95210465E+05
        15   17       7.90806249E-04  2.45738756E-18  5.54842083E+05  2.19402974E-16  5.54842083E+05
        16   18       7.90806249E-04  2.45738756E-18  5.54842083E+05  2.19402974E-16  5.54842083E+05
     -----------------------------------------------------------------------------------------------
--

++ Velocity transition strengths (SO states):
   ------------------------------------------
    for osc. strength at least    1.0000000000000001E-005

      From   To        Osc. strength     Einstein coefficients Ax, Ay, Az (sec-1)    Total A (sec-1)
     -----------------------------------------------------------------------------------------------
         1    3       7.76491609E-05  6.43051256E-22  9.36749862E-05  8.41965238E-24  9.36749862E-05
         1    5       4.23835447E-03  1.10496678E-17  5.95935014E+03  7.59657770E-12  5.95935014E+03
         1    7       4.22443836E-03  4.41017492E-03  7.61928653E-12  5.97199346E+03  5.97199787E+03
         1    9       3.09993492E-05  1.70358757E-20  8.66011626E+01  2.95343047E-17  8.66011626E+01
         1   11       6.11648985E-05  1.93771132E-16  8.33246755E+05  7.11563516E-14  8.33246755E+05
         1   13       1.13671968E-02  1.37457418E-12  3.90491546E+08  4.13219311E-11  3.90491546E+08
         1   15       1.19894952E-02  1.90521445E+07  4.15635556E-11  3.93518946E+08  4.12571090E+08
         2    4       7.76491609E-05  6.43051256E-22  9.36749862E-05  8.41965238E-24  9.36749862E-05
         2    6       4.23835447E-03  1.10496678E-17  5.95935014E+03  7.59657770E-12  5.95935014E+03
         2    8       4.22443836E-03  4.41017492E-03  7.61928653E-12  5.97199346E+03  5.97199787E+03
         2   10       3.09993492E-05  1.70358757E-20  8.66011626E+01  2.95343047E-17  8.66011626E+01
         2   12       6.11648985E-05  1.93771132E-16  8.33246755E+05  7.11563516E-14  8.33246755E+05
         2   14       1.13671968E-02  1.37457418E-12  3.90491546E+08  4.13219311E-11  3.90491546E+08
         2   16       1.19894952E-02  1.90521445E+07  4.15635556E-11  3.93518946E+08  4.12571090E+08
         3    5       4.23169665E-03  2.49606075E-02  7.59988908E-12  5.93894633E+03  5.93897129E+03
         3    7       4.23463183E-03  6.33653763E-17  5.97535303E+03  7.59369587E-12  5.97535303E+03
         3    9       2.97018945E-05  3.21596185E-05  6.54528485E-18  8.28674847E+01  8.28675168E+01
         3   11       5.42852025E-05  2.65256500E+02  1.31670074E-13  7.39245781E+05  7.39511037E+05
         3   13       1.18636633E-02  1.71973023E+07  4.15064802E-11  3.90344274E+08  4.07541576E+08
         3   15       1.14114946E-02  2.74811364E-12  3.92676835E+08  4.17513880E-11  3.92676835E+08
         4    6       4.23169665E-03  2.49606075E-02  7.59988908E-12  5.93894633E+03  5.93897129E+03
         4    8       4.23463183E-03  6.33653763E-17  5.97535303E+03  7.59369587E-12  5.97535303E+03
         4   10       2.97018945E-05  3.21596185E-05  6.54528485E-18  8.28674847E+01  8.28675168E+01
         4   12       5.42852025E-05  2.65256500E+02  1.31670074E-13  7.39245781E+05  7.39511037E+05
         4   14       1.18636633E-02  1.71973023E+07  4.15064802E-11  3.90344274E+08  4.07541576E+08
         4   16       1.14114946E-02  2.74811364E-12  3.92676835E+08  4.17513880E-11  3.92676835E+08
         5    9       3.20656576E-02  2.49407343E-03  9.46705628E-12  7.56283994E+03  7.56284244E+03
         5   11       1.03507663E-02  4.07348286E+03  1.72644118E-07  1.38153426E+08  1.38157499E+08
         5   13       4.64789723E-02  1.57507918E+09  1.42295133E-09  1.22481413E+06  1.57630400E+09
         5   15       3.96171409E-05  1.97462600E-06  1.34589441E+06  1.36043051E-09  1.34589441E+06
         5   17       2.92886799E-03  1.54998130E+04  1.65066312E-07  1.30139053E+08  1.30154553E+08
         6   10       3.20656576E-02  2.49407343E-03  9.46705628E-12  7.56283994E+03  7.56284244E+03
         6   12       1.03507663E-02  4.07348286E+03  1.72644118E-07  1.38153426E+08  1.38157499E+08
         6   14       4.64789723E-02  1.57507918E+09  1.42295133E-09  1.22481413E+06  1.57630400E+09
         6   16       3.96171409E-05  1.97462600E-06  1.34589441E+06  1.36043051E-09  1.34589441E+06
         6   18       2.92886799E-03  1.54998130E+04  1.65066312E-07  1.30139053E+08  1.30154553E+08
         7    9       3.22307372E-02  3.40676055E-18  7.50158168E+03  9.41878114E-12  7.50158168E+03
         7   11       1.03179170E-02  3.87963366E-12  1.37711385E+08  1.73189404E-07  1.37711385E+08
         7   13       3.34303564E-05  1.97205326E-06  1.13372917E+06  1.55786093E-09  1.13372917E+06
         7   15       4.64591920E-02  1.57719775E+09  1.70042752E-09  1.08343042E+06  1.57828118E+09
         7   17       2.96323384E-03  1.68206583E-11  1.31677709E+08  1.63135625E-07  1.31677709E+08
         8   10       3.22307372E-02  3.40676055E-18  7.50158168E+03  9.41878114E-12  7.50158168E+03
         8   12       1.03179170E-02  3.87963366E-12  1.37711385E+08  1.73189404E-07  1.37711385E+08
         8   14       3.34303564E-05  1.97205326E-06  1.13372917E+06  1.55786093E-09  1.13372917E+06
         8   16       4.64591920E-02  1.57719775E+09  1.70042752E-09  1.08343042E+06  1.57828118E+09
         8   18       2.96323384E-03  1.68206583E-11  1.31677709E+08  1.63135625E-07  1.31677709E+08
         9   11       3.42239302E-02  4.52971657E+08  2.33203229E-14  1.99656355E+03  4.52973654E+08
         9   13       5.03199615E-04  2.07627189E+04  7.75406905E-15  1.69550336E+07  1.69757964E+07
         9   15       4.91727254E-04  2.85913471E-13  1.66173017E+07  7.98235412E-15  1.66173017E+07
         9   17       1.10030585E-02  4.86709288E+08  2.88748272E-14  6.43392996E-01  4.86709288E+08
        10   12       3.42239302E-02  4.52971657E+08  2.33203229E-14  1.99656355E+03  4.52973654E+08
        10   14       5.03199615E-04  2.07627189E+04  7.75406905E-15  1.69550336E+07  1.69757964E+07
        10   16       4.91727254E-04  2.85913471E-13  1.66173017E+07  7.98235412E-15  1.66173017E+07
        10   18       1.10030585E-02  4.86709288E+08  2.88748272E-14  6.43392996E-01  4.86709288E+08
        11   13       3.15470483E-01  8.83939873E+02  7.35521083E-13  1.48575220E+09  1.48575309E+09
        11   15       3.15252801E-01  1.50727215E-16  1.49156782E+09  7.37947423E-13  1.49156782E+09
        11   17       2.82416345E-01  2.56346464E+09  5.55799336E-17  2.28865144E+03  2.56346693E+09
        12   14       3.15470483E-01  8.83939873E+02  7.35521083E-13  1.48575220E+09  1.48575309E+09
        12   16       3.15252801E-01  1.50727215E-16  1.49156782E+09  7.37947423E-13  1.49156782E+09
        12   18       2.82416345E-01  2.56346464E+09  5.55799336E-17  2.28865144E+03  2.56346693E+09
        13   15       2.35991853E-05  2.00564427E-19  5.88351021E-01  4.25048205E-19  5.88351021E-01
        13   17       2.42153313E-04  6.11774297E+01  9.23643237E-17  1.71869556E+05  1.71930734E+05
        14   16       2.35991853E-05  2.00564427E-19  5.88351021E-01  4.25048205E-19  5.88351021E-01
        14   18       2.42153313E-04  6.11774297E+01  9.23643237E-17  1.71869556E+05  1.71930734E+05
        15   17       2.15502401E-04  4.92785598E-17  1.51200394E+05  7.33598989E-17  1.51200394E+05
        16   18       2.15502401E-04  4.92785598E-17  1.51200394E+05  7.33598989E-17  1.51200394E+05
     -----------------------------------------------------------------------------------------------
--

++ Length and velocity gauge comparison (SO states):

 --------------------------------------------------
 A comparison between the dipole oscillator strengths in 
 length and velocity gauge will be performed

 All dipole oscillator differences above the tolerance of   0.10000000000000001       will be printed 

 Due to basis set deficiency these oscillator may be problematic 

 The tolerance is defined as ABS(1-O_l/O_v) 
 O_l : dipole oscillator strength in length gauge
 O_p : dipole oscillator strength in velocity gauge
 --------------------------------------------------

  Problematic transitions have been found

      From   To       Difference (%) Osc. st. (len.) Osc. st. (vel.)
     ---------------------------------------------------------------
         1    3      --------------- below threshold  7.76491609E-05
         1    5      --------------- below threshold  4.23835447E-03
         1    7      --------------- below threshold  4.22443836E-03
         1    9      --------------- below threshold  3.09993492E-05
         1   11            19.161012  7.28847121E-05  6.11648985E-05
         1   13            14.616530  1.30286866E-02  1.13671968E-02
         1   15            14.430342  1.37196203E-02  1.19894952E-02
         2    4      --------------- below threshold  7.76491609E-05
         2    6      --------------- below threshold  4.23835447E-03
         2    8      --------------- below threshold  4.22443836E-03
         2   10      --------------- below threshold  3.09993492E-05
         2   12            19.161012  7.28847121E-05  6.11648985E-05
         2   14            14.616530  1.30286866E-02  1.13671968E-02
         2   16            14.430342  1.37196203E-02  1.19894952E-02
         3    5      --------------- below threshold  4.23169665E-03
         3    7      --------------- below threshold  4.23463183E-03
         3    9      --------------- below threshold  2.97018945E-05
         3   11            19.127952  6.46688500E-05  5.42852025E-05
         3   13            14.445925  1.35774792E-02  1.18636633E-02
         3   15            14.629437  1.30809320E-02  1.14114946E-02
         4    6      --------------- below threshold  4.23169665E-03
         4    8      --------------- below threshold  4.23463183E-03
         4   10      --------------- below threshold  2.97018945E-05
         4   12            19.127952  6.46688500E-05  5.42852025E-05
         4   14            14.445925  1.35774792E-02  1.18636633E-02
         4   16            14.629437  1.30809320E-02  1.14114946E-02
         5    9      --------------- below threshold  3.20656576E-02
         5   11            18.929974  1.23101638E-02  1.03507663E-02
         5   13            11.607044  5.18738069E-02  4.64789723E-02
         5   17            24.925176  3.65889349E-03  2.92886799E-03
         6   10      --------------- below threshold  3.20656576E-02
         6   12            18.929974  1.23101638E-02  1.03507663E-02
         6   14            11.607044  5.18738069E-02  4.64789723E-02
         6   18            24.925176  3.65889349E-03  2.92886799E-03
         7    9      --------------- below threshold  3.22307372E-02
         7   11            18.935684  1.22716852E-02  1.03179170E-02
         7   15            11.622256  5.18587983E-02  4.64591920E-02
         7   17            24.821346  3.69874837E-03  2.96323384E-03
         8   10      --------------- below threshold  3.22307372E-02
         8   12            18.935684  1.22716852E-02  1.03179170E-02
         8   16            11.622256  5.18587983E-02  4.64591920E-02
         8   18            24.821346  3.69874837E-03  2.96323384E-03
         9   11            15.770000  3.96210439E-02  3.42239302E-02
         9   13            10.393348  4.50900330E-04  5.03199615E-04
         9   15            10.535881  4.39919457E-04  4.91727254E-04
        10   12            15.770000  3.96210439E-02  3.42239302E-02
        10   14            10.393348  4.50900330E-04  5.03199615E-04
        10   16            10.535881  4.39919457E-04  4.91727254E-04
        11   17            32.701231  3.74769968E-01  2.82416345E-01
        12   18            32.701231  3.74769968E-01  2.82416345E-01
        13   15            54.691732  3.65059885E-05  2.35991853E-05
        13   17           188.030055  6.97474321E-04  2.42153313E-04
        14   16            54.691732  3.65059885E-05  2.35991853E-05
        14   18           188.030055  6.97474321E-04  2.42153313E-04
        15   17           266.959368  7.90806249E-04  2.15502401E-04
        16   18           266.959368  7.90806249E-04  2.15502401E-04
     ---------------------------------------------------------------

 Number of problematic transitions =                    56

--

 Electric-dipole - electric-octupole not included
++ I/O STATISTICS
 
  I. General I/O information
  - - - - - - - - - - - - - - - - - - - - - - - - - - - - - - - - - - - - - - - - - - -
  Unit  Name          Flsize      Write/Read            MBytes           Write/Read
                      (MBytes)       Calls              In/Out           Time, sec.
  - - - - - - - - - - - - - - - - - - - - - - - - - - - - - - - - - - - - - - - - - - -
   1  SCRATCH           0.00 .       9/      45 .      0.0/      0.0 .       0/       0
   2  ANNI              0.00 .       0/       0 .      0.0/      0.0 .       0/       0
   3  RUNFILE          14.88 .     322/   10733 .      2.3/     77.8 .       0/       0
   4  ONEINT            5.58 .       0/   23543 .      0.0/   3739.9 .       0/       0
   5  JOBIPH            6.48 .       0/      92 .      0.0/      0.8 .       0/       0
   6  ORDINT          506.53 .       1/    4053 .      0.0/   1013.0 .       0/       0
  - - - - - - - - - - - - - - - - - - - - - - - - - - - - - - - - - - - - - - - - - - -
   *  TOTAL           533.47 .     332/   38466 .      2.3/   4831.6 .       0/       0
  - - - - - - - - - - - - - - - - - - - - - - - - - - - - - - - - - - - - - - - - - - -
 
  II. I/O Access Patterns
  - - - - - - - - - - - - - - - - - - - -
  Unit  Name               % of random
                         Write/Read calls
  - - - - - - - - - - - - - - - - - - - -
   1  SCRATCH             88.9/ 100.0
   2  ANNI                 0.0/   0.0
   3  RUNFILE             28.6/  10.8
   4  ONEINT               0.0/  16.4
   5  JOBIPH               0.0/  76.1
   6  ORDINT             100.0/   0.0
  - - - - - - - - - - - - - - - - - - - -
--
--- Stop Module: rassi at Wed Mar 26 16:12:48 2025 /rc=_RC_ALL_IS_WELL_ ---
*** files: xmldump
    saved to directory /home4/s4752295/Internship/Initial_simulations/Point_charge_model/1_electron/Madelung_charges_9_active_space/Cr
--- Module rassi spent 2 seconds ---

.##################.
.# Happy landing! #.
.##################.

    Timing: Wall=47.86 User=38.73 System=8.00

###############################################################################
Hbrk Cluster
Job 15909807 for user s4752295
Finished at: Wed Mar 26 16:12:52 CET 2025

Job details:
============

Job ID                         : 15909807
Name                           : Cr_no_SO
User                           : s4752295
Partition                      : regularmedium
Nodes                          : node81
Number of Nodes                : 1
Cores                          : 1
Number of Tasks                : 1
State                          : COMPLETED  
Submit                         : 2025-03-26T16:10:31
Start                          : 2025-03-26T16:11:56
End                            : 2025-03-26T16:12:48
Reserved walltime              : 15:00:00
Used walltime                  : 00:00:52
Used CPU time                  : 00:00:48 (Efficiency: 92.19%)
% User (Computation)           : 82.82%
% System (I/O)                 : 17.18%
Total memory reserved          : 25000M
Maximum memory used            : 2.03G

Acknowledgements:
=================

Please see this page for information about acknowledging Hbrk in your publications:

https://wiki.hpc.rug.nl/habrok/introduction/scientific_output

################################################################################
