   This run of MOLCAS is using the pymolcas driver

                             OPE
                             OPE          NMOL  CASOP  ENMOLC A   SO
                 OPE        NMOLC        AS  OP EN  MO LC     AS  OP
                OPENM       OL CA        SO  PE NM  OL CA     SOP EN
                OP EN      MO   LC       AS  OP ENMOL  CASO   PENMOL
                OP  EN     MO   LC       AS  OP EN     MO     LC ASO
               OP   E  NMOL  C  AS       OP  EN MO     LC     AS  OP
               OP  E   NMO   LC AS        OPEN  MO     LCASOP EN   M
               O  PEN   MO  LCA  SO
            OPE   NMO   L   CAS    OP
        OPENMOL  CASOP     ENMOL   CASOPE
     OPENMOLCA   SOPENMOLCASOPEN   MOLCASOPE
    OPENMOLCAS   OP           EN   MOL    CAS
    OPENMOLCAS       OP  ENM        O     LCA
    OPENMOLCAS    OPEN  MOLCASO     P  E  NMO
    OPENMOLCAS     OP               E  N  MOL
    OPENMOLCA   SO           PENM   O  L  CAS    OPEN    MO    LCAS
    OPENMOLCA   SOP           ENM   O  L  CAS   OP  EN  MOLC  AS   O
    OPENMOLCA   SOPE           NM      O  LCA   S      OP  EN MO
    OPENMOLC                AS         O  PEN   M      OL  CA  SOPE
    OPENMO        LCASOPE  NMOL        C  ASO   P      ENMOLC     AS
    OPE     NMO      LCA  SO     P     E   NM   OL  CA SO  PE N   MO
          OPENMOLCA            SOPE   NMO        LCAS  O    P  ENMO
     OPENMOLCASOPENMOLCASOPENMOLCASOPENMOLCA
        OPENMOLCASOPENMOLCASOPENMOLCASOPE
            OPENMOLCASOPENMOLCASOPENM
               OPENMOLCASOPENMOLCA        version: o91e1abe7de707b ?
                   OPENMOLCASO
                       OPE                tag:

 OpenMolcas is free software; you can redistribute it and/or modify it
 under the terms of the GNU Lesser General Public License version 2.1.
 OpenMolcas is distributed in the hope that it will be useful, but it
 is provided "as is" and without any express or implied warranties.
 For more details see the full text of the license in the file
 LICENSE or in <http://www.gnu.org/licenses/>.

                 Copyright (C) The OpenMolcas Authors
           For the author list and the recommended citation,
                   consult the file CONTRIBUTORS.md

           *************************************************
           * pymolcas version py2.10                       *
           *   build 3068ae8b88c9345ec6cfef6fef7f1169      *
           *   (after the EMIL interpreter by V. Veryazov) *
           *************************************************

configuration info
------------------
Host name: login1 (Linux)
C Compiler ID: GNU
C flags: -std=gnu99
Fortran Compiler ID: GNU
Fortran flags: -fno-aggressive-loop-optimizations -cpp -fdefault-integer-8 -fmax-stack-var-size=1048576
Definitions: _MOLCAS_;_I8_;_LINUX_;_MKL_
Parallel: OFF (GA=OFF)


   -----------------------------------------------------------------------------------------------------------------------------------
  |
  |           Project: chromium_so_cf
  |    Submitted from: /home4/s4752295/Internship/Initial_simulations/Point_charge_model/1_electron/Madelung_charges_9_active_space/Cr
  |      Scratch area: /tmp/chromium_so_cf
  |   Save outputs to: /home4/s4752295/Internship/Initial_simulations/Point_charge_model/1_electron/Madelung_charges_9_active_space/Cr
  |            Molcas: /home4/s4752295/Internship/Molcas/recomp_try/OpenMolcas-master/build
  |
  | Scratch area is empty
  |
  |    MOLCAS_DRIVER = /home4/s4752295/Internship/Molcas/bin/pymolcas
  |    MOLCAS_NPROCS = 1
  |    MOLCAS_SOURCE = /home4/s4752295/Internship/Molcas/recomp_try/OpenMolcas-master
  | MOLCAS_STRUCTURE = 0
  |
   -----------------------------------------------------------------------------------------------------------------------------------

++ ---------   Input file   ---------

&SEWARD
AMFi

CLIG
$R

Basis Set
Cr.ANO-rcc.Roos.21s15p10d6f4g2h.10s10p8d6f4g2h.
Spherical d
Cr            -1.0658140267135469e-14   -3.5527134223784897e-15 0.008753588724385739
End of Basis

Xfield

414
-4.802641296,-1.8479999999999999,1.0669427999999999     -0.625931
-4.802641296,-0.0,-2.1338868    -0.625931
-4.802641296,1.8479999999999999,1.0669427999999999      -0.625931
-4.794415284,0.0,0.0    1.892092
3.191015628,-1.8479999999999999,-1.0669427999999999     2.515516
3.191015628,0.0,2.1338868       2.515516
3.191015628,1.8479999999999999,-1.0669427999999999      2.515516
4.275585936,-3.6959999999999997,0.0     0.004632
4.275585936,-1.8479999999999999,-3.2008296      0.004632
4.275585936,-1.8479999999999999,3.2008296       0.004632
4.275585936,1.8479999999999999,-3.2008296       0.004632
4.275585936,1.8479999999999999,3.2008296        0.004632
4.275585936,3.6959999999999997,0.0      0.004632
4.9549804680000005,-1.8479999999999999,1.0669427999999999       -2.519484
4.9549804680000005,-0.0,-2.1338868      -2.519484
4.9549804680000005,1.8479999999999999,1.0669427999999999        -2.519484
-3.519726564,-0.0,-0.0  -3.142907
-5.970117192,-3.6959999999999997,-2.1338868     -0.625931
-5.970117192,0.0,4.2677724      -0.625931
-5.970117192,3.6959999999999997,-2.1338868      -0.625931
-7.9312499999999995,-3.6959999999999997,0.0     1.892092
-7.9312499999999995,-1.8479999999999999,-3.2008296      1.892092
-7.9312499999999995,-1.8479999999999999,3.2008296       1.892092
-7.9312499999999995,1.8479999999999999,-3.2008296       1.892092
-7.9312499999999995,1.8479999999999999,3.2008296        1.892092
-7.9312499999999995,3.6959999999999997,0.0      1.892092
30.206249999999997,-3.6959999999999997,2.1338868        2.515516
30.206249999999997,-0.0,-4.2677724      2.515516
30.206249999999997,3.6959999999999997,2.1338868 2.515516
4.366406255999999,-3.6959999999999997,-2.1338868        -2.519484
4.366406255999999,0.0,4.2677724 -2.519484
4.366406255999999,3.6959999999999997,-2.1338868 -2.519484
-3.8789062559999996,-3.6959999999999997,-0.0    -3.142907
-3.8789062559999996,-1.8479999999999999,-3.2008296      -3.142907
-3.8789062559999996,-1.8479999999999999,3.2008296       -3.142907
-3.8789062559999996,1.8479999999999999,-3.2008296       -3.142907
-3.8789062559999996,1.8479999999999999,3.2008296        -3.142907
-3.8789062559999996,3.6959999999999997,-0.0     -3.142907
-11.428125,-3.6959999999999997,4.2677724        -0.625931
-11.428125,3.6959999999999997,4.2677724 -0.625931
-11.428125,-5.544,1.0669427999999999    -0.625931
-11.428125,5.544,1.0669427999999999     -0.625931
-11.428125,-1.8479999999999999,-5.3347164000000005      -0.625931
-11.428125,1.8479999999999999,-5.3347164000000005       -0.625931
7.209375,-1.8479999999999999,-1.0669427999999999        4.409069
7.209375,1.8479999999999999,-1.0669427999999999 4.409069
7.209375,0.0,2.1338868  4.409069
-210.29999999999998,-0.0,-0.0   -5.030367
-210.29999999999998,0.0,0.0     5.039632
16.221093743999997,-3.6959999999999997,-4.2677724       2.515516
16.221093743999997,3.6959999999999997,-4.2677724        2.515516
16.221093743999997,-5.544,-1.0669427999999999   2.515516
16.221093743999997,5.544,-1.0669427999999999    2.515516
16.221093743999997,-1.8479999999999999,5.3347164000000005       2.515516
16.221093743999997,1.8479999999999999,5.3347164000000005        2.515516
22.846875,-5.544,-3.2008296     0.004632
22.846875,-5.544,3.2008296      0.004632
22.846875,5.544,-3.2008296      0.004632
22.846875,5.544,3.2008296       0.004632
22.846875,-0.0,-6.4016592       0.004632
22.846875,0.0,6.4016592 0.004632
57.693749999999994,-3.6959999999999997,4.2677724        -2.519484
57.693749999999994,3.6959999999999997,4.2677724 -2.519484
57.693749999999994,-5.544,1.0669427999999999    -2.519484
57.693749999999994,5.544,1.0669427999999999     -2.519484
57.693749999999994,-1.8479999999999999,-5.3347164000000005      -2.519484
57.693749999999994,1.8479999999999999,-5.3347164000000005       -2.519484
-175.04999999999998,-5.544,-3.2008296   1.892092
-175.04999999999998,-5.544,3.2008296    1.892092
-175.04999999999998,5.544,-3.2008296    1.892092
-175.04999999999998,5.544,3.2008296     1.892092
-175.04999999999998,-0.0,-6.4016592     1.892092
-175.04999999999998,0.0,6.4016592       1.892092
-141.29999999999998,-3.6959999999999997,2.1338868       4.409069
-141.29999999999998,-0.0,-4.2677724     4.409069
-141.29999999999998,3.6959999999999997,2.1338868        4.409069
-106.8,-3.6959999999999997,-0.0 -5.030367
-106.8,-1.8479999999999999,-3.2008296   -5.030367
-106.8,-1.8479999999999999,3.2008296    -5.030367
-106.8,1.8479999999999999,-3.2008296    -5.030367
-106.8,-3.6959999999999997,0.0  5.039632
-106.8,3.6959999999999997,-0.0  -5.030367
-106.8,1.8479999999999999,3.2008296     -5.030367
-106.8,-1.8479999999999999,-3.2008296   5.039632
-106.8,-1.8479999999999999,3.2008296    5.039632
-106.8,1.8479999999999999,-3.2008296    5.039632
-106.8,3.6959999999999997,0.0   5.039632
-106.8,1.8479999999999999,3.2008296     5.039632
-55.949999999999996,-1.8479999999999999,-1.0669427999999999     -5.660931
-55.949999999999996,0.0,2.1338868       -5.660931
-55.949999999999996,1.8479999999999999,-1.0669427999999999      -5.660931
1.059375,-7.3919988,0.0 0.004632
1.059375,-3.6959999999999997,-6.4016592 0.004632
1.059375,-3.6959999999999997,6.4016592  0.004632
1.059375,3.6959999999999997,-6.4016592  0.004632
1.059375,7.3919988,0.0  0.004632
1.059375,3.6959999999999997,6.4016592   0.004632
81.52499999999999,-5.544,3.2008296      -3.142907
81.52499999999999,-5.544,-3.2008296     -3.142907
81.52499999999999,5.544,-3.2008296      -3.142907
81.52499999999999,5.544,3.2008296       -3.142907
81.52499999999999,-0.0,-6.4016592       -3.142907
81.52499999999999,0.0,6.4016592 -3.142907
103.64999999999999,-7.3919988,-2.1338868        -0.625931
103.64999999999999,-5.544,-5.3347164000000005   -0.625931
103.64999999999999,-1.8479999999999999,7.468602 -0.625931
103.64999999999999,5.544,-5.3347164000000005    -0.625931
103.64999999999999,7.3919988,-2.1338868 -0.625931
103.64999999999999,1.8479999999999999,7.468602  -0.625931
1.436718744,-7.3919988,0.0      1.892092
1.436718744,-3.6959999999999997,-6.4016592      1.892092
1.436718744,-3.6959999999999997,6.4016592       1.892092
1.436718744,3.6959999999999997,-6.4016592       1.892092
1.436718744,7.3919988,0.0       1.892092
1.436718744,3.6959999999999997,6.4016592        1.892092
40.6125,-3.6959999999999997,-4.2677724  4.409069
40.6125,3.6959999999999997,-4.2677724   4.409069
40.6125,-5.544,-1.0669427999999999      4.409069
40.6125,5.544,-1.0669427999999999       4.409069
40.6125,-1.8479999999999999,5.3347164000000005  4.409069
40.6125,1.8479999999999999,5.3347164000000005   4.409069
194.8875,-3.6959999999999997,2.1338868  -5.660931
194.8875,-0.0,-4.2677724        -5.660931
194.8875,3.6959999999999997,2.1338868   -5.660931
0.4125,-7.3919988,2.1338868     2.515516
0.4125,-1.8479999999999999,-7.468602    2.515516
0.4125,-5.544,5.3347164000000005        2.515516
0.4125,1.8479999999999999,-7.468602     2.515516
0.4125,7.3919988,2.1338868      2.515516
0.4125,5.544,5.3347164000000005 2.515516
-113.02499999999999,-7.3919988,-2.1338868       -2.519484
-113.02499999999999,-5.544,-5.3347164000000005  -2.519484
-113.02499999999999,-1.8479999999999999,7.468602        -2.519484
-113.02499999999999,5.544,-5.3347164000000005   -2.519484
-113.02499999999999,1.8479999999999999,7.468602 -2.519484
-113.02499999999999,7.3919988,-2.1338868        -2.519484
-26.484375,-7.3919988,-0.0      -3.142907
-26.484375,-3.6959999999999997,-6.4016592       -3.142907
-26.484375,-3.6959999999999997,6.4016592        -3.142907
-26.484375,3.6959999999999997,-6.4016592        -3.142907
-26.484375,3.6959999999999997,6.4016592 -3.142907
-26.484375,7.3919988,-0.0       -3.142907
727.8,0.0,0.0   6.927092
387.9,-7.3919988,4.2677724      -0.625931
387.9,7.3919988,4.2677724       -0.625931
387.9,-0.0,-8.535546    -0.625931
-6.50625,-5.544,3.2008296       -5.030367
-6.50625,-5.544,-3.2008296      -5.030367
-6.50625,-5.544,3.2008296       5.039632
-6.50625,-5.544,-3.2008296      5.039632
-6.50625,5.544,-3.2008296       -5.030367
-6.50625,5.544,3.2008296        -5.030367
-6.50625,5.544,-3.2008296       5.039632
-6.50625,5.544,3.2008296        5.039632
-6.50625,-0.0,-6.4016592        -5.030367
-6.50625,0.0,6.4016592  -5.030367
-6.50625,-0.0,-6.4016592        5.039632
-6.50625,0.0,6.4016592  5.039632
110.175,-3.6959999999999997,-4.2677724  -5.660931
110.175,3.6959999999999997,-4.2677724   -5.660931
110.175,-5.544,-1.0669427999999999      -5.660931
110.175,5.544,-1.0669427999999999       -5.660931
110.175,-1.8479999999999999,5.3347164000000005  -5.660931
110.175,1.8479999999999999,5.3347164000000005   -5.660931
360.59999999999997,-7.3919988,-4.2677724        2.515516
360.59999999999997,7.3919988,-4.2677724 2.515516
360.59999999999997,0.0,8.535546 2.515516
-620.6999999999999,-7.3919988,4.2677724 -2.519484
-620.6999999999999,7.3919988,4.2677724  -2.519484
-620.6999999999999,-0.0,-8.535546       -2.519484
64.27499999999999,-3.6959999999999997,0.0       6.927092
64.27499999999999,-1.8479999999999999,-3.2008296        6.927092
64.27499999999999,-1.8479999999999999,3.2008296 6.927092
64.27499999999999,1.8479999999999999,-3.2008296 6.927092
64.27499999999999,1.8479999999999999,3.2008296  6.927092
64.27499999999999,3.6959999999999997,0.0        6.927092
-66.3,-1.8479999999999999,1.0669427999999999    7.550516
-66.3,0.0,-2.1338868    7.550516
-66.3,1.8479999999999999,1.0669427999999999     7.550516
18.6375,-1.8479999999999999,-1.0669427999999999 -7.554483
18.6375,1.8479999999999999,-1.0669427999999999  -7.554483
18.6375,-0.0,2.1338868  -7.554483
-149.85,-9.2399988,1.0669427999999999   -0.625931
-149.85,-5.544,7.468602 -0.625931
-149.85,-3.6959999999999997,-8.535546   -0.625931
-149.85,3.6959999999999997,-8.535546    -0.625931
-149.85,9.2399988,1.0669427999999999    -0.625931
-149.85,5.544,7.468602  -0.625931
-80.925,-7.3919988,2.1338868    4.409069
-80.925,-5.544,5.3347164000000005       4.409069
-80.925,-1.8479999999999999,-7.468602   4.409069
-80.925,1.8479999999999999,-7.468602    4.409069
-80.925,5.544,5.3347164000000005        4.409069
-80.925,7.3919988,2.1338868     4.409069
58.9875,-7.3919988,-0.0 -5.030367
58.9875,-3.6959999999999997,-6.4016592  -5.030367
58.9875,-3.6959999999999997,6.4016592   -5.030367
58.9875,-7.3919988,0.0  5.039632
58.9875,-3.6959999999999997,-6.4016592  5.039632
58.9875,3.6959999999999997,-6.4016592   -5.030367
58.9875,3.6959999999999997,6.4016592    -5.030367
58.9875,7.3919988,-0.0  -5.030367
58.9875,-3.6959999999999997,6.4016592   5.039632
58.9875,3.6959999999999997,-6.4016592   5.039632
58.9875,7.3919988,0.0   5.039632
58.9875,3.6959999999999997,6.4016592    5.039632
216.9,-9.2399988,-1.0669427999999999    2.515516
216.9,-5.544,-7.468602  2.515516
216.9,-3.6959999999999997,8.535546      2.515516
216.9,5.544,-7.468602   2.515516
216.9,9.2399988,-1.0669427999999999     2.515516
216.9,3.6959999999999997,8.535546       2.515516
-28.0125,-9.2399988,-3.2008296  0.004632
-28.0125,-9.2399988,3.2008296   0.004632
-28.0125,-7.3919988,-6.4016592  0.004632
-28.0125,-7.3919988,6.4016592   0.004632
-28.0125,-1.8479999999999999,-9.6024888 0.004632
-28.0125,1.8479999999999999,-9.6024888  0.004632
-28.0125,-1.8479999999999999,9.6024888  0.004632
-28.0125,7.3919988,-6.4016592   0.004632
-28.0125,1.8479999999999999,9.6024888   0.004632
-28.0125,9.2399988,-3.2008296   0.004632
-28.0125,9.2399988,3.2008296    0.004632
-28.0125,7.3919988,6.4016592    0.004632
-171.75,-9.2399988,1.0669427999999999   -2.519484
-171.75,-5.544,7.468602 -2.519484
-171.75,-3.6959999999999997,-8.535546   -2.519484
-171.75,3.6959999999999997,-8.535546    -2.519484
-171.75,9.2399988,1.0669427999999999    -2.519484
-171.75,5.544,7.468602  -2.519484
3638.4,-0.0,-0.0        -8.177907
-139.2,-3.6959999999999997,-2.1338868   7.550516
-139.2,0.0,4.2677724    7.550516
-139.2,3.6959999999999997,-2.1338868    7.550516
-724.1999999999999,-3.6959999999999997,2.1338868        -7.554483
-724.1999999999999,-0.0,-4.2677724      -7.554483
-724.1999999999999,3.6959999999999997,2.1338868 -7.554483
58.6875,-9.2399988,3.2008296    1.892092
58.6875,-9.2399988,-3.2008296   1.892092
58.6875,-7.3919988,-6.4016592   1.892092
58.6875,-7.3919988,6.4016592    1.892092
58.6875,-1.8479999999999999,-9.6024888  1.892092
58.6875,1.8479999999999999,-9.6024888   1.892092
58.6875,-1.8479999999999999,9.6024888   1.892092
58.6875,7.3919988,-6.4016592    1.892092
58.6875,1.8479999999999999,9.6024888    1.892092
58.6875,9.2399988,-3.2008296    1.892092
58.6875,9.2399988,3.2008296     1.892092
58.6875,7.3919988,6.4016592     1.892092
-606.0,-7.3919988,-4.2677724    4.409069
-606.0,7.3919988,-4.2677724     4.409069
-606.0,0.0,8.535546     4.409069
30.984375,-7.3919988,2.1338868  -5.660931
30.984375,-1.8479999999999999,-7.468602 -5.660931
30.984375,-5.544,5.3347164000000005     -5.660931
30.984375,1.8479999999999999,-7.468602  -5.660931
30.984375,5.544,5.3347164000000005      -5.660931
30.984375,7.3919988,2.1338868   -5.660931
-69.825,-7.3919988,-6.4016592   -3.142907
-69.825,-9.2399988,3.2008296    -3.142907
-69.825,-9.2399988,-3.2008296   -3.142907
-69.825,-7.3919988,6.4016592    -3.142907
-69.825,-1.8479999999999999,-9.6024888  -3.142907
-69.825,1.8479999999999999,-9.6024888   -3.142907
-69.825,-1.8479999999999999,9.6024888   -3.142907
-69.825,9.2399988,-3.2008296    -3.142907
-69.825,7.3919988,-6.4016592    -3.142907
-69.825,1.8479999999999999,9.6024888    -3.142907
-69.825,9.2399988,3.2008296     -3.142907
-69.825,7.3919988,6.4016592     -3.142907
78.4875,-5.544,-3.2008296       6.927092
78.4875,-5.544,3.2008296        6.927092
78.4875,5.544,-3.2008296        6.927092
78.4875,5.544,3.2008296 6.927092
78.4875,-0.0,-6.4016592 6.927092
78.4875,0.0,6.4016592   6.927092
-99.89999999999999,-3.6959999999999997,-0.0     -8.177907
-99.89999999999999,-1.8479999999999999,3.2008296        -8.177907
-99.89999999999999,-1.8479999999999999,-3.2008296       -8.177907
-99.89999999999999,1.8479999999999999,-3.2008296        -8.177907
-99.89999999999999,3.6959999999999997,-0.0      -8.177907
-99.89999999999999,1.8479999999999999,3.2008296 -8.177907
-109.08749999999999,-3.6959999999999997,4.2677724       7.550516
-109.08749999999999,3.6959999999999997,4.2677724        7.550516
-109.08749999999999,-5.544,1.0669427999999999   7.550516
-109.08749999999999,5.544,1.0669427999999999    7.550516
-109.08749999999999,-1.8479999999999999,-5.3347164000000005     7.550516
-109.08749999999999,1.8479999999999999,-5.3347164000000005      7.550516
-54.824999999999996,-3.6959999999999997,-4.2677724      -7.554483
-54.824999999999996,3.6959999999999997,-4.2677724       -7.554483
-54.824999999999996,-5.544,-1.0669427999999999  -7.554483
-54.824999999999996,5.544,-1.0669427999999999   -7.554483
-54.824999999999996,-1.8479999999999999,5.3347164000000005      -7.554483
-54.824999999999996,1.8479999999999999,5.3347164000000005       -7.554483
-600.3,0.0,10.6694316   -0.625931
-600.3,-9.2399988,-5.3347164000000005   -0.625931
-600.3,9.2399988,-5.3347164000000005    -0.625931
-323.7,-9.2399988,-1.0669427999999999   4.409069
-323.7,-5.544,-7.468602 4.409069
-323.7,-3.6959999999999997,8.535546     4.409069
-323.7,5.544,-7.468602  4.409069
-323.7,9.2399988,-1.0669427999999999    4.409069
-323.7,3.6959999999999997,8.535546      4.409069
372.45,-7.3919988,-4.2677724    -5.660931
372.45,7.3919988,-4.2677724     -5.660931
372.45,0.0,8.535546     -5.660931
704.4,-0.0,-10.6694316  2.515516
704.4,-9.2399988,5.3347164000000005     2.515516
704.4,9.2399988,5.3347164000000005      2.515516
-112.64999999999999,-11.0879988,-0.0    0.004632
-112.64999999999999,5.544,-9.6024888    0.004632
-112.64999999999999,-5.544,9.6024888    0.004632
-112.64999999999999,11.0879988,-0.0     0.004632
-112.64999999999999,-5.544,-9.6024888   0.004632
-112.64999999999999,5.544,9.6024888     0.004632
-462.9,0.0,10.6694316   -2.519484
-462.9,-9.2399988,-5.3347164000000005   -2.519484
-462.9,9.2399988,-5.3347164000000005    -2.519484
273.59999999999997,-7.3919988,0.0       6.927092
273.59999999999997,-3.6959999999999997,-6.4016592       6.927092
273.59999999999997,-3.6959999999999997,6.4016592        6.927092
273.59999999999997,3.6959999999999997,-6.4016592        6.927092
273.59999999999997,7.3919988,0.0        6.927092
273.59999999999997,3.6959999999999997,6.4016592 6.927092
254.25,-11.0879988,-2.1338868   -0.625931
254.25,-3.6959999999999997,10.6694316   -0.625931
254.25,-7.3919988,-8.535546     -0.625931
254.25,7.3919988,-8.535546      -0.625931
254.25,3.6959999999999997,10.6694316    -0.625931
254.25,11.0879988,-2.1338868    -0.625931
134.325,-11.0879988,0.0 1.892092
134.325,-5.544,-9.6024888       1.892092
134.325,-5.544,9.6024888        1.892092
134.325,5.544,-9.6024888        1.892092
134.325,11.0879988,0.0  1.892092
134.325,5.544,9.6024888 1.892092
-5.184375,-9.2399988,3.2008296  -5.030367
-5.184375,-9.2399988,-3.2008296 -5.030367
-5.184375,-7.3919988,-6.4016592 -5.030367
-5.184375,-7.3919988,6.4016592  -5.030367
-5.184375,-9.2399988,3.2008296  5.039632
-5.184375,1.8479999999999999,-9.6024888 -5.030367
-5.184375,-1.8479999999999999,-9.6024888        -5.030367
-5.184375,-9.2399988,-3.2008296 5.039632
-5.184375,-7.3919988,-6.4016592 5.039632
-5.184375,-1.8479999999999999,9.6024888 -5.030367
-5.184375,1.8479999999999999,-9.6024888 5.039632
-5.184375,-7.3919988,6.4016592  5.039632
-5.184375,-1.8479999999999999,-9.6024888        5.039632
-5.184375,7.3919988,-6.4016592  -5.030367
-5.184375,1.8479999999999999,9.6024888  -5.030367
-5.184375,9.2399988,-3.2008296  -5.030367
-5.184375,9.2399988,3.2008296   -5.030367
-5.184375,7.3919988,6.4016592   -5.030367
-5.184375,-1.8479999999999999,9.6024888 5.039632
-5.184375,7.3919988,-6.4016592  5.039632
-5.184375,9.2399988,-3.2008296  5.039632
-5.184375,1.8479999999999999,9.6024888  5.039632
-5.184375,9.2399988,3.2008296   5.039632
-5.184375,7.3919988,6.4016592   5.039632
-0.825,-9.2399988,-1.0669427999999999   -5.660931
-0.825,-5.544,-7.468602 -5.660931
-0.825,-3.6959999999999997,8.535546     -5.660931
-0.825,5.544,-7.468602  -5.660931
-0.825,3.6959999999999997,8.535546      -5.660931
-0.825,9.2399988,-1.0669427999999999    -5.660931
139.2,-1.8479999999999999,1.0669427999999999    9.444068
139.2,0.0,-2.1338868    9.444068
139.2,1.8479999999999999,1.0669427999999999     9.444068
61.574999999999996,-11.0879988,2.1338868        2.515516
61.574999999999996,-3.6959999999999997,-10.6694316      2.515516
61.574999999999996,3.6959999999999997,-10.6694316       2.515516
61.574999999999996,-7.3919988,8.535546  2.515516
61.574999999999996,11.0879988,2.1338868 2.515516
61.574999999999996,7.3919988,8.535546   2.515516
188.25,-11.0879988,-2.1338868   -2.519484
188.25,-3.6959999999999997,10.6694316   -2.519484
188.25,-7.3919988,-8.535546     -2.519484
188.25,7.3919988,-8.535546      -2.519484
188.25,11.0879988,-2.1338868    -2.519484
188.25,3.6959999999999997,10.6694316    -2.519484
263.55,-11.0879988,-0.0 -3.142907
263.55,-5.544,-9.6024888        -3.142907
263.55,-5.544,9.6024888 -3.142907
263.55,5.544,-9.6024888 -3.142907
263.55,11.0879988,-0.0  -3.142907
263.55,5.544,9.6024888  -3.142907
10.374609372,-5.544,-3.2008296  -8.177907
10.374609372,-5.544,3.2008296   -8.177907
10.374609372,5.544,3.2008296    -8.177907
10.374609372,5.544,-3.2008296   -8.177907
10.374609372,-0.0,-6.4016592    -8.177907
10.374609372,0.0,6.4016592      -8.177907
302.25,-5.544,-5.3347164000000005       7.550516
302.25,-7.3919988,-2.1338868    7.550516
302.25,-1.8479999999999999,7.468602     7.550516
302.25,5.544,-5.3347164000000005        7.550516
302.25,1.8479999999999999,7.468602      7.550516
302.25,7.3919988,-2.1338868     7.550516
-417.59999999999997,-5.544,5.3347164000000005   -7.554483
-417.59999999999997,-7.3919988,2.1338868        -7.554483
-417.59999999999997,-1.8479999999999999,-7.468602       -7.554483
-417.59999999999997,1.8479999999999999,-7.468602        -7.554483
-417.59999999999997,7.3919988,2.1338868 -7.554483
-417.59999999999997,5.544,5.3347164000000005    -7.554483
85.51875,-9.2399988,7.468602    -0.625931
85.51875,-11.0879988,4.2677724  -0.625931
85.51875,-1.8479999999999999,-11.736375599999999        -0.625931
85.51875,1.8479999999999999,-11.736375599999999 -0.625931
85.51875,11.0879988,4.2677724   -0.625931
85.51875,9.2399988,7.468602     -0.625931
-580.5,-0.0,-10.6694316 4.409069
-580.5,-9.2399988,5.3347164000000005    4.409069
-580.5,9.2399988,5.3347164000000005     4.409069

End of input

&SCF
Occupied
9
Iterations
   50  100
End of Input

&RASSCF
LumOrb
Symmetry
1
Spin
2
Nactel
1 0 0
CIRoot
9 9 1
inactive
9
ras2
9
End of Input

>>> COPY chromium_so_cf.JobIph $SLURM_SUBMIT_DIR/chromium_so_cf.doublet.JobIph

>>> COPY $SLURM_SUBMIT_DIR/chromium_so_cf.doublet.JobIph ./JOB002

&RASSI
NROFJobIph
1 All
SpinOrbit
End of Input

EOF

-- ----------------------------------

--- Start Module: seward at Wed Mar 26 12:39:14 2025 ---

()()()()()()()()()()()()()()()()()()()()()()()()()()()()()()()()()()()()()()()()()()()()()()()()()()

                                              &SEWARD

                                   only a single process is used
                       available to each process: 4.1 GB of memory, 1 thread?
                                            pid: 3935959
()()()()()()()()()()()()()()()()()()()()()()()()()()()()()()()()()()()()()()()()()()()()()()()()()()

 The speed of LIGHT in this CALCULATION =   137.03599917700001     
               SEWARD will generate:
                  Multipole Moment integrals up to order  2
                  Kinetic Energy integrals
                  Nuclear Attraction integrals (point charge)
                  One-Electron Hamiltonian integrals
                  Velocity integrals
                  Relativistic Douglas-Kroll-Hess integrals:
                    - Parametrization         : EXP
                    - DKH order of Hamiltonian: 2
                    - DKH order of Properties : 0
                         - multipole moment operators
                         - electric potential operators
                         - contact operators
                  External field from   414 point(s) added to the one-electron Hamiltonian
                  Orbital angular momentum around (-0.0000 -0.0000  0.0088 )
                  Velocity quadrupole around (-0.0000 -0.0000  0.0088 )
                  Atomic mean-field integrals
                  Two-Electron Repulsion integrals

                   Integrals are discarded if absolute value <: 0.10E-13
                   Integral cutoff threshold is set to       <: 0.10E-15

++    Symmetry information:
      ---------------------

                    Character Table for C1 

                             E  
                    a        1  x, y, xy, Rz, z, xz, Ry, yz, Rx, I
--


++    Basis set information:
      ----------------------


      Basis set label: CR.ANO-RCC.ROOS.21S15P10D6F4G2H.10S10P8D6F4G2H......

      Electronic valence basis set:
      ------------------
      Associated Effective Charge  24.000000 au
      Associated Actual Charge     24.000000 au
      Nuclear Model: Point charge

      Shell  nPrim  nBasis  Cartesian Spherical Contaminant
         s      21      10        X                  
         p      15      10        X                  
         d      10       8                 X         
         f       6       6                 X         
         g       4       4                 X         
         h       2       2                 X         
--


++    Molecular structure info:
      -------------------------

                    ************************************************ 
                    **** Cartesian Coordinates / Bohr, Angstrom **** 
                    ************************************************ 

     Center  Label                x              y              z                     x              y              z
        1      CR              -0.000000      -0.000000       0.008754             -0.000000      -0.000000       0.004632
--


++    Operator info:
      --------------


  Net charge from external field:   -39.268449999999902     
--


            Nuclear Potential Energy              0.00000000 au

                    Nuclear-External Field Potential Energy    -182.97936431 au
                    External Field Potential Energy            1338.03075115 au 


            Total Nuclear Potential Energy           -182.97936431 au


      Basis set specifications :
      Symmetry species         a  
      Basis functions          180

 Sorry, Molden does not know how to handle
 functions with angular momentum larger than g
Note: The following floating-point exceptions are signalling: IEEE_UNDERFLOW_FLAG IEEE_DENORMAL
--- Stop Module: seward at Wed Mar 26 12:39:22 2025 /rc=_RC_ALL_IS_WELL_ ---
*** files: chromium_so_cf.GssOrb xmldump
    saved to directory /home4/s4752295/Internship/Initial_simulations/Point_charge_model/1_electron/Madelung_charges_9_active_space/Cr
--- Module seward spent 8 seconds ---

*** symbolic link created: INPORB -> chromium_so_cf.GssOrb
--- Start Module: scf at Wed Mar 26 12:39:22 2025 ---

()()()()()()()()()()()()()()()()()()()()()()()()()()()()()()()()()()()()()()()()()()()()()()()()()()

                                                &SCF

                                   only a single process is used
                       available to each process: 4.1 GB of memory, 1 thread?
                                            pid: 3936026
()()()()()()()()()()()()()()()()()()()()()()()()()()()()()()()()()()()()()()()()()()()()()()()()()()

++    Input section:
      --------------

      Header of the integral files:
      
       Integrals generated by seward 4.2.0  , Wed Mar 26 12:39:14 2025


      Cartesian coordinates in Angstrom:
      -----------------------------------------------------
      No.  Label        X            Y            Z        
      -----------------------------------------------------
       1   CR        -0.00000000  -0.00000000   0.00463220
      -----------------------------------------------------
      Nuclear repulsion energy = -182.97936431
--

++    Orbital specifications:
      -----------------------

      Symmetry species               1
                                     a
      Frozen orbitals                0
      Occupied orbitals              9
      Secondary orbitals           171
      Deleted orbitals               0
      Total number of orbitals     180
      Number of basis functions    180
--

      Molecular charge                           6.000

++    Optimization specifications:
      ----------------------------

      SCF Algorithm: Conventional
      Minimized density differences are used
      Number of density matrices in core                5
      Maximum number of NDDO SCF iterations            50
      Maximum number of HF SCF iterations             100
      Threshold for SCF energy change            0.10E-08
      Threshold for density matrix               0.10E-03
      Threshold for Fock matrix                  0.15E-03
      Threshold for linear dependence            0.10E-08
      Threshold at which DIIS is turned on       0.15E+00
      Threshold at which QNR/C2DIIS is turned on 0.75E-01
      Threshold for Norm(delta) (QNR/C2DIIS)     0.20E-04
      DIIS extrapolation of the SCF procedure
      All orbitals punched on: SCFORB
--

      Detected guessorb starting orbitals                                             


++ Convergence information
                                   SCF        iterations: Energy and convergence statistics

Iter     Tot. SCF        One-elec.       Two-elec.     Energy      Max Dij or  Max Fij      DNorm      TNorm      AccCon     Time
         Energy          Energy          Energy        Change      Delta Norm                                                in Sec.

 The total and one-electron energies are shifted by a value of      1000. a.u.

   1   -85.352159763  -207.749458529   305.376663078   0.00E+00    0.21E+00*   0.40E+00*    0.60E+01   0.25E+03   None         1.
   2   -86.149122393  -219.959217403   316.789459321  -0.80E+00*   0.30E-01*   0.73E-01*    0.13E+01   0.25E+03   EDIIS        1.
   3   -86.165546555  -218.532862355   315.346680111  -0.16E-01*   0.95E-02*   0.18E-01*    0.13E+00   0.25E+03   EDIIS        1.
   4   -86.166167985  -218.760203606   315.573399932  -0.62E-03*   0.36E-03*   0.32E-02*    0.15E-01   0.25E+03   c2DIIS       1.
   5   -86.166199995  -218.732747073   315.545911390  -0.32E-04*   0.14E-03*   0.29E-03*    0.15E-02   0.25E+03   QNRc2DIIS    1.
   6   -86.166200143  -218.731131912   315.544296081  -0.15E-06*   0.42E-04*   0.44E-04     0.21E-03   0.25E+03   QNRc2DIIS    1.
   7   -86.166200153  -218.731331067   315.544495225  -0.10E-07*   0.86E-05    0.95E-05     0.37E-04   0.25E+03   QNRc2DIIS    1.
   8   -86.166200154  -218.731380134   315.544544292  -0.43E-09    0.25E-05    0.28E-05     0.11E-03   0.25E+03   QNRc2DIIS    1.

       Convergence after  8 Macro Iterations
--

 *****************************************************************************************************************************
 *                                                                                                                           *
 *                                             SCF/KS-DFT Program, Final results                                             *
 *                                                                                                                           *
 *                                                                                                                           *
 *                                                                                                                           *
 *                                                       Final Results                                                       *
 *                                                                                                                           *
 *****************************************************************************************************************************

::    Total SCF energy                              -1086.1662001536
      One-electron energy                           -1218.7313801338
      Two-electron energy                             315.5445442919
      Nuclear repulsion energy                       -182.9793643117
      Kinetic energy (interpolated)                  1077.8789998865
      Virial theorem                                    1.0076884328
      Total spin, S(S+1)                                0.0000000000
      Total spin, S                                     0.0000000000
      Max non-diagonal density matrix element           0.0000026222
      Max non-diagonal Fock matrix element              0.0000011481


      All orbitals with orbital energies smaller than  E(LUMO)+0.5 are printed

++    Molecular orbitals:
      -------------------

      Title: SCF orbitals

      Molecular orbitals for symmetry species 1: a  

          Orbital            1         2         3         4         5         6         7         8         9        10    
          Energy         -218.7285  -23.3973  -19.0221  -19.0221  -19.0207    0.2855    1.6763    1.6763    1.7314    4.3052
          Occ. No.          2.0000    2.0000    2.0000    2.0000    2.0000    2.0000    2.0000    2.0000    2.0000    0.0000

        1 CR     1s         1.0000   -0.0001    0.0000   -0.0000   -0.0000    0.0001   -0.0000   -0.0000    0.0000   -0.0000
        2 CR     2s         0.0001    1.0000    0.0000   -0.0000   -0.0048    0.0021    0.0000   -0.0000   -0.0013    0.0002
        3 CR     3s        -0.0001   -0.0022   -0.0000    0.0000    0.0014    0.9835    0.0001   -0.0000   -0.1510    0.0215
        4 CR     4s         0.0000    0.0001    0.0000   -0.0000   -0.0002   -0.0460   -0.0000    0.0000    0.0335    0.1804
        5 CR     5s        -0.0000   -0.0005   -0.0000    0.0000    0.0004    0.0678    0.0000   -0.0000   -0.0499   -0.0774
        6 CR     6s         0.0000    0.0004    0.0000   -0.0000   -0.0002   -0.0282   -0.0000    0.0000    0.0191   -0.0446
        7 CR     7s        -0.0000   -0.0001   -0.0000    0.0000    0.0001   -0.0077   -0.0000    0.0000    0.0071    0.0133
        8 CR     8s         0.0000   -0.0000    0.0000   -0.0000   -0.0000    0.0058    0.0000   -0.0000   -0.0046    0.0190
        9 CR     9s        -0.0001    0.0002    0.0000   -0.0000   -0.0000    0.0018    0.0000   -0.0000   -0.0018    0.0038
       10 CR    10s         0.0001   -0.0003   -0.0000    0.0000    0.0000    0.0004    0.0000   -0.0000   -0.0002    0.0003
       11 CR     2px        0.0000    0.0048   -0.0023    0.0000    1.0000   -0.0009   -0.0000    0.0000    0.0035   -0.0011
       12 CR     3px       -0.0000    0.0009    0.0000   -0.0000   -0.0033    0.1583   -0.0015    0.0000    0.9712   -0.0776
       13 CR     4px        0.0000   -0.0002   -0.0000    0.0000    0.0005   -0.0020    0.0001   -0.0000   -0.0829    0.3004
       14 CR     5px       -0.0000    0.0003    0.0000   -0.0000   -0.0009   -0.0044   -0.0001    0.0000    0.0935   -0.1218
       15 CR     6px        0.0000   -0.0001   -0.0000    0.0000    0.0002    0.0040    0.0000   -0.0000   -0.0049   -0.0782
       16 CR     7px       -0.0000    0.0001    0.0000   -0.0000   -0.0000   -0.0028    0.0000   -0.0000   -0.0121    0.0364
       17 CR     8px        0.0000   -0.0000    0.0000   -0.0000   -0.0002   -0.0009   -0.0000    0.0000    0.0030    0.0337
       18 CR     9px       -0.0000    0.0000   -0.0000    0.0000    0.0003    0.0010   -0.0000    0.0000    0.0027    0.0060
       19 CR    10px        0.0000   -0.0000    0.0000   -0.0000   -0.0003    0.0005    0.0000   -0.0000   -0.0004   -0.0009
       20 CR    11px       -0.0000    0.0000   -0.0000    0.0000    0.0002    0.0000    0.0000   -0.0000   -0.0005   -0.0003
       21 CR     2py       -0.0000   -0.0000    0.0000    1.0000   -0.0000   -0.0000    0.0000    0.0032    0.0000   -0.0000
       22 CR     3py        0.0000    0.0000   -0.0000   -0.0032    0.0000   -0.0000    0.0000    0.9872   -0.0000    0.0000
       23 CR     4py       -0.0000   -0.0000    0.0000    0.0005   -0.0000    0.0000   -0.0000   -0.0861    0.0000   -0.0000
       24 CR     5py        0.0000    0.0000   -0.0000   -0.0009    0.0000   -0.0000    0.0000    0.0931   -0.0000    0.0000
       25 CR     6py       -0.0000   -0.0000    0.0000    0.0002   -0.0000    0.0000   -0.0000   -0.0023    0.0000    0.0000
       26 CR     7py        0.0000    0.0000   -0.0000   -0.0000    0.0000   -0.0000   -0.0000   -0.0141    0.0000   -0.0000
       27 CR     8py       -0.0000   -0.0000   -0.0000   -0.0002    0.0000    0.0000    0.0000    0.0024   -0.0000   -0.0000
       28 CR     9py        0.0000    0.0000    0.0000    0.0003   -0.0000   -0.0000    0.0000    0.0035   -0.0000    0.0000
       29 CR    10py       -0.0000   -0.0000   -0.0000   -0.0003    0.0000    0.0000    0.0000    0.0000   -0.0000    0.0000
       30 CR    11py        0.0000    0.0000    0.0000    0.0002   -0.0000   -0.0000   -0.0000   -0.0004    0.0000   -0.0000
       31 CR     2pz        0.0000    0.0000    1.0000   -0.0000    0.0023   -0.0000    0.0032   -0.0000    0.0000   -0.0000
       32 CR     3pz       -0.0000    0.0000   -0.0032    0.0000   -0.0000    0.0001    0.9872   -0.0000    0.0015   -0.0003
       33 CR     4pz        0.0000   -0.0000    0.0005   -0.0000    0.0000   -0.0000   -0.0861    0.0000   -0.0001    0.0007
       34 CR     5pz       -0.0000    0.0000   -0.0009    0.0000   -0.0000   -0.0000    0.0931   -0.0000    0.0002   -0.0004
       35 CR     6pz        0.0000   -0.0000    0.0002   -0.0000    0.0000    0.0000   -0.0023    0.0000   -0.0000   -0.0002
       36 CR     7pz       -0.0000    0.0000   -0.0000    0.0000   -0.0000   -0.0000   -0.0141    0.0000   -0.0000    0.0001
       37 CR     8pz        0.0000   -0.0000   -0.0002    0.0000   -0.0000   -0.0000    0.0024   -0.0000    0.0000    0.0001
       38 CR     9pz       -0.0000    0.0000    0.0003   -0.0000    0.0000    0.0000    0.0035   -0.0000    0.0000    0.0000
       39 CR    10pz        0.0000   -0.0000   -0.0003    0.0000   -0.0000    0.0000    0.0000   -0.0000   -0.0000   -0.0000
       40 CR    11pz       -0.0000    0.0000    0.0002   -0.0000    0.0000    0.0000   -0.0004    0.0000   -0.0000   -0.0000
       41 CR     3d2-       0.0000    0.0000    0.0000    0.0005   -0.0000   -0.0000    0.0000    0.0921   -0.0000   -0.0000
       42 CR     4d2-      -0.0000   -0.0000   -0.0000   -0.0004    0.0000    0.0000   -0.0000   -0.0202    0.0000    0.0000
       43 CR     5d2-       0.0000    0.0000    0.0000    0.0002   -0.0000    0.0000   -0.0000   -0.0119    0.0000   -0.0000
       44 CR     6d2-      -0.0000   -0.0000   -0.0000   -0.0001    0.0000    0.0000    0.0000    0.0060   -0.0000    0.0000
       45 CR     7d2-       0.0000    0.0000    0.0000    0.0000   -0.0000   -0.0000    0.0000    0.0033   -0.0000    0.0000
       46 CR     8d2-      -0.0000   -0.0000   -0.0000   -0.0000    0.0000    0.0000   -0.0000   -0.0010   -0.0000    0.0000
       47 CR     9d2-       0.0000    0.0000    0.0000    0.0000   -0.0000   -0.0000   -0.0000   -0.0017    0.0000   -0.0000
       48 CR    10d2-      -0.0000    0.0000   -0.0000   -0.0001    0.0000   -0.0000   -0.0000   -0.0003   -0.0000   -0.0000
       49 CR     3d1-      -0.0000    0.0000    0.0000    0.0000    0.0000   -0.0000   -0.0000   -0.0001   -0.0000   -0.0000
       50 CR     4d1-       0.0000   -0.0000   -0.0000   -0.0000   -0.0000    0.0000   -0.0000   -0.0001    0.0000    0.0000
       51 CR     5d1-      -0.0000    0.0000    0.0000    0.0000    0.0000   -0.0000   -0.0000   -0.0000    0.0000   -0.0000
       52 CR     6d1-      -0.0000   -0.0000   -0.0000   -0.0000   -0.0000    0.0000    0.0000    0.0000    0.0000   -0.0000
       53 CR     7d1-       0.0000    0.0000    0.0000    0.0000    0.0000    0.0000    0.0000    0.0000    0.0000   -0.0000
       54 CR     8d1-      -0.0000   -0.0000   -0.0000   -0.0000   -0.0000   -0.0000   -0.0000   -0.0000    0.0000   -0.0000
       55 CR     9d1-       0.0000    0.0000    0.0000    0.0000    0.0000   -0.0000   -0.0000   -0.0000   -0.0000    0.0000
       56 CR    10d1-       0.0000   -0.0000   -0.0000   -0.0000   -0.0000    0.0000   -0.0000   -0.0000    0.0000    0.0000
       57 CR     3d0        0.0000    0.0000    0.0000   -0.0000   -0.0003   -0.0022    0.0003   -0.0000   -0.0573   -0.4411
       58 CR     4d0        0.0000   -0.0000   -0.0000    0.0000    0.0002   -0.0005    0.0001   -0.0000    0.0125    0.0686
       59 CR     5d0        0.0000    0.0000    0.0000   -0.0000   -0.0001    0.0008   -0.0000    0.0000    0.0072   -0.0076
       60 CR     6d0       -0.0000    0.0000   -0.0000    0.0000    0.0001    0.0000   -0.0000    0.0000   -0.0035    0.0084
       61 CR     7d0        0.0000   -0.0000    0.0000   -0.0000   -0.0000   -0.0002    0.0000   -0.0000   -0.0020    0.0084
       62 CR     8d0       -0.0000    0.0000    0.0000   -0.0000    0.0000   -0.0001    0.0000   -0.0000    0.0005   -0.0007
       63 CR     9d0        0.0000   -0.0000    0.0000   -0.0000   -0.0000    0.0001    0.0000   -0.0000    0.0010   -0.0075
       64 CR    10d0       -0.0000    0.0000   -0.0000    0.0000    0.0000    0.0000    0.0000   -0.0000    0.0001   -0.0027
       65 CR     3d1+      -0.0000   -0.0000    0.0005   -0.0000    0.0000   -0.0000    0.0921   -0.0000    0.0002    0.0038
       66 CR     4d1+       0.0000    0.0000   -0.0004    0.0000   -0.0000    0.0000   -0.0202    0.0000   -0.0001   -0.0006
       67 CR     5d1+      -0.0000   -0.0000    0.0002   -0.0000    0.0000    0.0000   -0.0119    0.0000   -0.0000    0.0001
       68 CR     6d1+       0.0000    0.0000   -0.0001    0.0000   -0.0000   -0.0000    0.0060   -0.0000    0.0000   -0.0001
       69 CR     7d1+      -0.0000    0.0000    0.0000   -0.0000    0.0000   -0.0000    0.0033   -0.0000    0.0000   -0.0001
       70 CR     8d1+       0.0000   -0.0000   -0.0000    0.0000   -0.0000    0.0000   -0.0010    0.0000   -0.0000    0.0000
       71 CR     9d1+      -0.0000    0.0000    0.0000   -0.0000    0.0000    0.0000   -0.0017    0.0000   -0.0000    0.0001
       72 CR    10d1+       0.0000   -0.0000   -0.0001    0.0000   -0.0000   -0.0000   -0.0003    0.0000   -0.0000    0.0000
       73 CR     3d2+      -0.0000   -0.0000   -0.0000    0.0000    0.0005    0.0039   -0.0000    0.0000    0.0992    0.7754
       74 CR     4d2+      -0.0000    0.0000    0.0000   -0.0000   -0.0004    0.0008    0.0001   -0.0000   -0.0217   -0.1218
       75 CR     5d2+      -0.0000   -0.0000   -0.0000    0.0000    0.0002   -0.0014    0.0000   -0.0000   -0.0124    0.0132
       76 CR     6d2+       0.0000   -0.0000    0.0000   -0.0000   -0.0001   -0.0000   -0.0000    0.0000    0.0061   -0.0145
       77 CR     7d2+      -0.0000    0.0000   -0.0000    0.0000    0.0000    0.0004   -0.0000    0.0000    0.0035   -0.0145
       78 CR     8d2+       0.0000   -0.0000    0.0000   -0.0000   -0.0000    0.0002    0.0000   -0.0000   -0.0009    0.0012
       79 CR     9d2+      -0.0000    0.0000   -0.0000    0.0000    0.0000   -0.0002    0.0000   -0.0000   -0.0017    0.0131
       80 CR    10d2+       0.0000    0.0000    0.0000   -0.0000   -0.0001   -0.0001    0.0000   -0.0000   -0.0003    0.0048
       81 CR     4f3-      -0.0000   -0.0000   -0.0000   -0.0000    0.0000    0.0000    0.0000    0.0022   -0.0000   -0.0000
       82 CR     5f3-       0.0000    0.0000    0.0000    0.0000   -0.0000   -0.0000    0.0000    0.0019   -0.0000   -0.0000
       83 CR     6f3-      -0.0000   -0.0000   -0.0000   -0.0000    0.0000   -0.0000   -0.0000   -0.0003   -0.0000   -0.0000
       84 CR     7f3-       0.0000    0.0000    0.0000    0.0000   -0.0000   -0.0000   -0.0000   -0.0007   -0.0000    0.0000
       85 CR     8f3-      -0.0000   -0.0000   -0.0000   -0.0000    0.0000    0.0000   -0.0000   -0.0001   -0.0000    0.0000
       86 CR     9f3-       0.0000    0.0000    0.0000    0.0000   -0.0000   -0.0000    0.0000    0.0003   -0.0000    0.0000
       87 CR     4f2-      -0.0000   -0.0000   -0.0000   -0.0000    0.0000   -0.0000   -0.0000   -0.0004   -0.0000    0.0000
       88 CR     5f2-       0.0000    0.0000    0.0000    0.0000   -0.0000    0.0000   -0.0000   -0.0004    0.0000    0.0000
       89 CR     6f2-      -0.0000   -0.0000   -0.0000   -0.0000   -0.0000   -0.0000   -0.0000   -0.0000   -0.0000    0.0000
       90 CR     7f2-       0.0000   -0.0000   -0.0000   -0.0000    0.0000   -0.0000    0.0000    0.0001    0.0000    0.0000
       91 CR     8f2-      -0.0000    0.0000   -0.0000   -0.0000   -0.0000    0.0000    0.0000    0.0001    0.0000   -0.0000
       92 CR     9f2-       0.0000   -0.0000   -0.0000   -0.0000    0.0000   -0.0000    0.0000    0.0000    0.0000   -0.0000
       93 CR     4f1-      -0.0000   -0.0000    0.0000    0.0000   -0.0000    0.0000   -0.0000   -0.0006   -0.0000    0.0000
       94 CR     5f1-       0.0000    0.0000   -0.0000   -0.0000    0.0000   -0.0000   -0.0000   -0.0005    0.0000    0.0000
       95 CR     6f1-      -0.0000   -0.0000    0.0000    0.0000   -0.0000    0.0000    0.0000    0.0001   -0.0000    0.0000
       96 CR     7f1-       0.0000    0.0000   -0.0000   -0.0000    0.0000   -0.0000    0.0000    0.0002    0.0000   -0.0000
       97 CR     8f1-      -0.0000   -0.0000    0.0000    0.0000   -0.0000    0.0000    0.0000    0.0000   -0.0000   -0.0000
       98 CR     9f1-      -0.0000    0.0000   -0.0000   -0.0000    0.0000   -0.0000   -0.0000   -0.0001    0.0000   -0.0000
       99 CR     4f0       -0.0000    0.0000    0.0000   -0.0000    0.0000    0.0001   -0.0014    0.0000    0.0003    0.0031
      100 CR     5f0        0.0000    0.0000   -0.0000    0.0000   -0.0000    0.0000   -0.0012    0.0000    0.0002    0.0066
      101 CR     6f0       -0.0000   -0.0000    0.0000   -0.0000    0.0000   -0.0000    0.0002   -0.0000    0.0000    0.0057
      102 CR     7f0        0.0000   -0.0000   -0.0000    0.0000   -0.0000   -0.0000    0.0005   -0.0000   -0.0000    0.0020
      103 CR     8f0       -0.0000   -0.0000    0.0000   -0.0000    0.0000   -0.0000    0.0000   -0.0000   -0.0000   -0.0011
      104 CR     9f0        0.0000   -0.0000   -0.0000    0.0000   -0.0000   -0.0000   -0.0002    0.0000    0.0000   -0.0022
      105 CR     4f1+       0.0000   -0.0000    0.0000   -0.0000    0.0000   -0.0005    0.0003   -0.0000   -0.0016   -0.0737
      106 CR     5f1+      -0.0000    0.0000   -0.0000    0.0000   -0.0000   -0.0002    0.0003   -0.0000   -0.0014   -0.0480
      107 CR     6f1+       0.0000   -0.0000   -0.0000    0.0000    0.0000    0.0001    0.0000   -0.0000    0.0002   -0.0032
      108 CR     7f1+      -0.0000   -0.0000    0.0000   -0.0000   -0.0000    0.0001   -0.0001    0.0000    0.0006    0.0107
      109 CR     8f1+       0.0000    0.0000   -0.0000    0.0000    0.0000   -0.0000   -0.0000    0.0000    0.0001    0.0084
      110 CR     9f1+      -0.0000   -0.0000    0.0000   -0.0000   -0.0000   -0.0000   -0.0000    0.0000   -0.0002    0.0051
      111 CR     4f2+      -0.0000    0.0000   -0.0000    0.0000    0.0000    0.0000    0.0018   -0.0000    0.0002    0.0033
      112 CR     5f2+       0.0000   -0.0000    0.0000   -0.0000   -0.0000    0.0000    0.0016   -0.0000    0.0002    0.0058
      113 CR     6f2+      -0.0000   -0.0000   -0.0000    0.0000   -0.0000   -0.0000   -0.0002    0.0000    0.0000    0.0046
      114 CR     7f2+       0.0000   -0.0000    0.0000   -0.0000    0.0000   -0.0000   -0.0006    0.0000   -0.0000    0.0014
      115 CR     8f2+      -0.0000   -0.0000   -0.0000    0.0000   -0.0000   -0.0000   -0.0001    0.0000   -0.0000   -0.0010
      116 CR     9f2+       0.0000   -0.0000    0.0000   -0.0000    0.0000   -0.0000    0.0002   -0.0000    0.0000   -0.0018
      117 CR     4f3+      -0.0000    0.0000    0.0000   -0.0000   -0.0000    0.0007    0.0003   -0.0000    0.0020    0.0963
      118 CR     5f3+       0.0000   -0.0000   -0.0000    0.0000    0.0000    0.0002    0.0002   -0.0000    0.0018    0.0630
      119 CR     6f3+      -0.0000    0.0000    0.0000   -0.0000   -0.0000   -0.0001    0.0000   -0.0000   -0.0003    0.0046
      120 CR     7f3+       0.0000    0.0000    0.0000    0.0000    0.0000   -0.0001   -0.0001    0.0000   -0.0007   -0.0139
      121 CR     8f3+      -0.0000   -0.0000    0.0000   -0.0000   -0.0000    0.0000   -0.0000    0.0000   -0.0001   -0.0110
      122 CR     9f3+       0.0000    0.0000    0.0000   -0.0000    0.0000    0.0000   -0.0000    0.0000    0.0003   -0.0068
      123 CR     5g4-      -0.0000   -0.0000    0.0000    0.0000   -0.0000    0.0000    0.0000    0.0006   -0.0000   -0.0000
      124 CR     6g4-       0.0000    0.0000   -0.0000   -0.0000    0.0000    0.0000    0.0000    0.0006   -0.0000   -0.0000
      125 CR     7g4-      -0.0000   -0.0000    0.0000    0.0000   -0.0000   -0.0000    0.0000    0.0002    0.0000   -0.0000
      126 CR     8g4-       0.0000    0.0000    0.0000    0.0000    0.0000    0.0000   -0.0000   -0.0000   -0.0000   -0.0000
      127 CR     5g3-       0.0000    0.0000   -0.0000   -0.0000    0.0000    0.0000   -0.0000   -0.0002    0.0000    0.0000
      128 CR     6g3-      -0.0000   -0.0000    0.0000    0.0000    0.0000   -0.0000   -0.0000   -0.0003    0.0000    0.0000
      129 CR     7g3-       0.0000    0.0000   -0.0000   -0.0000   -0.0000    0.0000   -0.0000   -0.0002   -0.0000    0.0000
      130 CR     8g3-      -0.0000   -0.0000   -0.0000   -0.0000    0.0000   -0.0000   -0.0000   -0.0001   -0.0000    0.0000
      131 CR     5g2-      -0.0000   -0.0000   -0.0000   -0.0000    0.0000   -0.0000   -0.0000   -0.0002    0.0000    0.0000
      132 CR     6g2-       0.0000    0.0000    0.0000    0.0000   -0.0000   -0.0000   -0.0000   -0.0002    0.0000    0.0000
      133 CR     7g2-      -0.0000   -0.0000   -0.0000   -0.0000   -0.0000    0.0000   -0.0000   -0.0001   -0.0000    0.0000
      134 CR     8g2-       0.0000    0.0000   -0.0000   -0.0000    0.0000   -0.0000    0.0000    0.0000   -0.0000    0.0000
      135 CR     5g1-      -0.0000   -0.0000    0.0000    0.0000   -0.0000    0.0000    0.0000    0.0001    0.0000   -0.0000
      136 CR     6g1-       0.0000    0.0000    0.0000    0.0000   -0.0000   -0.0000    0.0000    0.0001   -0.0000   -0.0000
      137 CR     7g1-      -0.0000   -0.0000   -0.0000   -0.0000    0.0000    0.0000    0.0000    0.0001   -0.0000   -0.0000
      138 CR     8g1-       0.0000    0.0000   -0.0000   -0.0000    0.0000   -0.0000    0.0000    0.0000   -0.0000   -0.0000
      139 CR     5g0        0.0000   -0.0000   -0.0000    0.0000    0.0000   -0.0000   -0.0001    0.0000    0.0002    0.0024
      140 CR     6g0        0.0000    0.0000    0.0000   -0.0000   -0.0000   -0.0000   -0.0002    0.0000    0.0002    0.0045
      141 CR     7g0       -0.0000   -0.0000   -0.0000    0.0000    0.0000   -0.0000   -0.0001    0.0000   -0.0000    0.0028
      142 CR     8g0       -0.0000    0.0000   -0.0000    0.0000    0.0000    0.0000   -0.0000    0.0000   -0.0001    0.0004
      143 CR     5g1+      -0.0000    0.0000   -0.0000    0.0000    0.0000    0.0002   -0.0005    0.0000    0.0001    0.0020
      144 CR     6g1+      -0.0000   -0.0000    0.0000   -0.0000    0.0000    0.0002   -0.0005    0.0000    0.0002    0.0056
      145 CR     7g1+       0.0000    0.0000   -0.0000    0.0000   -0.0000    0.0000   -0.0002    0.0000    0.0002    0.0071
      146 CR     8g1+       0.0000   -0.0000   -0.0000    0.0000    0.0000   -0.0000    0.0000   -0.0000    0.0001    0.0061
      147 CR     5g2+      -0.0000    0.0000    0.0000   -0.0000   -0.0000    0.0001    0.0001   -0.0000   -0.0004   -0.0037
      148 CR     6g2+      -0.0000   -0.0000   -0.0000    0.0000    0.0000    0.0000    0.0002   -0.0000   -0.0002   -0.0069
      149 CR     7g2+       0.0000    0.0000   -0.0000    0.0000   -0.0000    0.0000    0.0001   -0.0000    0.0000   -0.0043
      150 CR     8g2+       0.0000   -0.0000    0.0000   -0.0000   -0.0000   -0.0000    0.0000   -0.0000    0.0001   -0.0008
      151 CR     5g3+      -0.0000    0.0000    0.0000   -0.0000    0.0000    0.0002    0.0004   -0.0000    0.0002    0.0023
      152 CR     6g3+      -0.0000   -0.0000   -0.0000    0.0000    0.0000    0.0002    0.0004   -0.0000    0.0003    0.0066
      153 CR     7g3+       0.0000    0.0000    0.0000   -0.0000   -0.0000    0.0000    0.0001   -0.0000    0.0002    0.0084
      154 CR     8g3+       0.0000   -0.0000    0.0000   -0.0000    0.0000   -0.0000   -0.0000    0.0000    0.0001    0.0072
      155 CR     5g4+       0.0000   -0.0000    0.0000   -0.0000    0.0000   -0.0001    0.0002   -0.0000    0.0005    0.0050
      156 CR     6g4+       0.0000    0.0000   -0.0000    0.0000   -0.0000   -0.0000    0.0002   -0.0000    0.0003    0.0095
      157 CR     7g4+      -0.0000   -0.0000   -0.0000    0.0000    0.0000   -0.0000    0.0001   -0.0000   -0.0000    0.0062
      158 CR     8g4+      -0.0000    0.0000    0.0000   -0.0000    0.0000    0.0000    0.0000   -0.0000   -0.0001    0.0014
      159 CR     6h5-      -0.0000   -0.0000   -0.0000   -0.0000   -0.0000    0.0000   -0.0000   -0.0000   -0.0000   -0.0000
      160 CR     7h5-       0.0000    0.0000    0.0000    0.0000    0.0000   -0.0000    0.0000    0.0000   -0.0000   -0.0000
      161 CR     6h4-      -0.0000   -0.0000    0.0000    0.0000   -0.0000   -0.0000    0.0000    0.0000   -0.0000    0.0000
      162 CR     7h4-      -0.0000    0.0000   -0.0000   -0.0000    0.0000   -0.0000    0.0000    0.0000   -0.0000    0.0000
      163 CR     6h3-      -0.0000   -0.0000    0.0000    0.0000   -0.0000    0.0000    0.0000    0.0000    0.0000   -0.0000
      164 CR     7h3-       0.0000    0.0000   -0.0000   -0.0000    0.0000   -0.0000   -0.0000   -0.0000   -0.0000    0.0000
      165 CR     6h2-       0.0000    0.0000    0.0000    0.0000   -0.0000    0.0000    0.0000    0.0002   -0.0000   -0.0000
      166 CR     7h2-       0.0000   -0.0000   -0.0000   -0.0000    0.0000    0.0000    0.0000    0.0002   -0.0000   -0.0000
      167 CR     6h1-      -0.0000   -0.0000   -0.0000   -0.0000   -0.0000    0.0000   -0.0000   -0.0000    0.0000   -0.0000
      168 CR     7h1-       0.0000    0.0000    0.0000    0.0000    0.0000   -0.0000   -0.0000   -0.0000   -0.0000   -0.0000
      169 CR     6h0        0.0000   -0.0000   -0.0000    0.0000   -0.0000   -0.0001   -0.0000    0.0000   -0.0001   -0.0006
      170 CR     7h0        0.0000   -0.0000    0.0000   -0.0000    0.0000   -0.0001    0.0000   -0.0000   -0.0002   -0.0013
      171 CR     6h1+       0.0000   -0.0000    0.0000   -0.0000   -0.0000   -0.0000    0.0001   -0.0000   -0.0001    0.0002
      172 CR     7h1+       0.0000   -0.0000   -0.0000    0.0000    0.0000   -0.0000    0.0000   -0.0000   -0.0001    0.0001
      173 CR     6h2+      -0.0000    0.0000    0.0000   -0.0000    0.0000    0.0000    0.0000   -0.0000    0.0001    0.0004
      174 CR     7h2+      -0.0000    0.0000   -0.0000    0.0000   -0.0000    0.0001   -0.0000    0.0000    0.0001    0.0008
      175 CR     6h3+      -0.0000    0.0000    0.0000   -0.0000    0.0000    0.0000    0.0001   -0.0000    0.0001   -0.0003
      176 CR     7h3+      -0.0000    0.0000   -0.0000    0.0000   -0.0000    0.0000    0.0002   -0.0000    0.0001   -0.0001
      177 CR     6h4+      -0.0000    0.0000   -0.0000    0.0000    0.0000    0.0001   -0.0000    0.0000    0.0002    0.0010
      178 CR     7h4+      -0.0000    0.0000    0.0000   -0.0000   -0.0000    0.0002    0.0000   -0.0000    0.0003    0.0021
      179 CR     6h5+       0.0000    0.0000    0.0000   -0.0000   -0.0000   -0.0000    0.0001   -0.0000   -0.0002    0.0004
      180 CR     7h5+       0.0000   -0.0000    0.0000    0.0000    0.0000   -0.0000    0.0001   -0.0000   -0.0002    0.0003

          Orbital           11        12        13        14        15    
          Energy            4.3158    4.3159    4.3226    4.3228    4.5608
          Occ. No.          0.0000    0.0000    0.0000    0.0000    0.0000

        1 CR     1s        -0.0000    0.0000    0.0000    0.0000   -0.0000
        2 CR     2s        -0.0000   -0.0000   -0.0000    0.0000   -0.0001
        3 CR     3s         0.0000   -0.0001   -0.0000    0.0000    0.0285
        4 CR     4s         0.0000   -0.0011   -0.0001    0.0000    0.5263
        5 CR     5s        -0.0000    0.0005    0.0001   -0.0000   -0.2405
        6 CR     6s        -0.0000    0.0002    0.0001   -0.0000   -0.1054
        7 CR     7s         0.0000   -0.0001   -0.0000   -0.0000    0.0328
        8 CR     8s         0.0000   -0.0001   -0.0000   -0.0000    0.0445
        9 CR     9s         0.0000   -0.0000   -0.0000    0.0000    0.0104
       10 CR    10s         0.0000   -0.0000   -0.0000    0.0000    0.0010
       11 CR     2px       -0.0000    0.0000    0.0000   -0.0000    0.0004
       12 CR     3px       -0.0000    0.0005    0.0001   -0.0000    0.0759
       13 CR     4px        0.0000   -0.0018   -0.0003    0.0000    0.5500
       14 CR     5px       -0.0000    0.0008    0.0002   -0.0000   -0.0741
       15 CR     6px       -0.0000    0.0004    0.0001   -0.0000   -0.1775
       16 CR     7px        0.0000   -0.0002   -0.0001    0.0000    0.0250
       17 CR     8px        0.0000   -0.0002   -0.0000    0.0000    0.0854
       18 CR     9px        0.0000   -0.0000    0.0000    0.0000    0.0431
       19 CR    10px       -0.0000    0.0000    0.0000    0.0000    0.0091
       20 CR    11px       -0.0000    0.0000    0.0000    0.0000    0.0006
       21 CR     2py        0.0006    0.0000    0.0000   -0.0007    0.0000
       22 CR     3py        0.0464    0.0000    0.0000   -0.0559    0.0000
       23 CR     4py       -0.0955   -0.0000   -0.0000    0.1046    0.0000
       24 CR     5py        0.0534    0.0000    0.0000   -0.0637    0.0000
       25 CR     6py        0.0185    0.0000    0.0000   -0.0192    0.0000
       26 CR     7py       -0.0164   -0.0000   -0.0000    0.0195   -0.0000
       27 CR     8py       -0.0082   -0.0000   -0.0000    0.0079    0.0000
       28 CR     9py        0.0012    0.0000    0.0000   -0.0027    0.0000
       29 CR    10py        0.0012    0.0000    0.0000   -0.0018    0.0000
       30 CR    11py        0.0002    0.0000    0.0000   -0.0002    0.0000
       31 CR     2pz        0.0000   -0.0006    0.0007    0.0000    0.0000
       32 CR     3pz        0.0000   -0.0473    0.0551    0.0000    0.0001
       33 CR     4pz       -0.0000    0.0975   -0.1034   -0.0000    0.0002
       34 CR     5pz        0.0000   -0.0545    0.0628    0.0000   -0.0001
       35 CR     6pz        0.0000   -0.0189    0.0191    0.0000   -0.0001
       36 CR     7pz       -0.0000    0.0168   -0.0193   -0.0000    0.0001
       37 CR     8pz       -0.0000    0.0084   -0.0079   -0.0000    0.0001
       38 CR     9pz        0.0000   -0.0012    0.0027    0.0000    0.0000
       39 CR    10pz        0.0000   -0.0012    0.0018    0.0000   -0.0000
       40 CR    11pz        0.0000   -0.0002    0.0002    0.0000   -0.0000
       41 CR     3d2-      -0.6085   -0.0000   -0.0000    0.7225   -0.0000
       42 CR     4d2-       0.1385    0.0000    0.0000   -0.1800    0.0000
       43 CR     5d2-      -0.0072   -0.0000   -0.0000    0.0044    0.0000
       44 CR     6d2-       0.0009    0.0000   -0.0000    0.0010   -0.0000
       45 CR     7d2-       0.0024    0.0000   -0.0000    0.0011   -0.0000
       46 CR     8d2-       0.0017    0.0000    0.0000   -0.0010   -0.0000
       47 CR     9d2-      -0.0041   -0.0000   -0.0000    0.0033    0.0000
       48 CR    10d2-      -0.0019   -0.0000   -0.0000    0.0016    0.0000
       49 CR     3d1-       0.7275    0.0000   -0.0000    0.6093   -0.0000
       50 CR     4d1-      -0.2226   -0.0000    0.0000   -0.2020   -0.0000
       51 CR     5d1-       0.0003    0.0000    0.0000   -0.0046    0.0000
       52 CR     6d1-       0.0104    0.0000   -0.0000    0.0106    0.0000
       53 CR     7d1-       0.0081    0.0000   -0.0000    0.0114    0.0000
       54 CR     8d1-      -0.0039   -0.0000    0.0000   -0.0010    0.0000
       55 CR     9d1-      -0.0019   -0.0000    0.0000   -0.0025    0.0000
       56 CR    10d1-       0.0002    0.0000    0.0000   -0.0003    0.0000
       57 CR     3d0       -0.0000    0.6251    0.5376    0.0000    0.1446
       58 CR     4d0        0.0000   -0.1908   -0.1779   -0.0000   -0.2139
       59 CR     5d0       -0.0000    0.0004   -0.0040   -0.0000   -0.0281
       60 CR     6d0       -0.0000    0.0088    0.0094    0.0000    0.0318
       61 CR     7d0       -0.0000    0.0068    0.0100    0.0000    0.0413
       62 CR     8d0        0.0000   -0.0034   -0.0010   -0.0000    0.0032
       63 CR     9d0        0.0000   -0.0015   -0.0022   -0.0000   -0.0185
       64 CR    10d0       -0.0000    0.0002   -0.0003   -0.0000   -0.0064
       65 CR     3d1+      -0.0000    0.6194   -0.7132   -0.0000   -0.0005
       66 CR     4d1+       0.0000   -0.1407    0.1773    0.0000    0.0006
       67 CR     5d1+      -0.0000    0.0074   -0.0044   -0.0000   -0.0000
       68 CR     6d1+       0.0000   -0.0010   -0.0009   -0.0000   -0.0002
       69 CR     7d1+       0.0000   -0.0025   -0.0010   -0.0000   -0.0001
       70 CR     8d1+       0.0000   -0.0018    0.0010    0.0000    0.0001
       71 CR     9d1+      -0.0000    0.0042   -0.0033   -0.0000    0.0002
       72 CR    10d1+      -0.0000    0.0020   -0.0016   -0.0000    0.0001
       73 CR     3d2+      -0.0000    0.3533    0.3095    0.0000   -0.2509
       74 CR     4d2+       0.0000   -0.1086   -0.1026   -0.0000    0.3718
       75 CR     5d2+      -0.0000    0.0001   -0.0023   -0.0000    0.0491
       76 CR     6d2+      -0.0000    0.0052    0.0054    0.0000   -0.0553
       77 CR     7d2+      -0.0000    0.0040    0.0058    0.0000   -0.0720
       78 CR     8d2+       0.0000   -0.0020   -0.0006   -0.0000   -0.0057
       79 CR     9d2+       0.0000   -0.0010   -0.0013   -0.0000    0.0322
       80 CR    10d2+      -0.0000    0.0001   -0.0002   -0.0000    0.0111
       81 CR     4f3-      -0.0766   -0.0000   -0.0000    0.0860   -0.0000
       82 CR     5f3-      -0.0526   -0.0000   -0.0000    0.0529    0.0000
       83 CR     6f3-      -0.0090   -0.0000   -0.0000    0.0037    0.0000
       84 CR     7f3-       0.0069    0.0000    0.0000   -0.0091   -0.0000
       85 CR     8f3-       0.0089    0.0000    0.0000   -0.0077   -0.0000
       86 CR     9f3-       0.0078    0.0000    0.0000   -0.0052   -0.0000
       87 CR     4f2-       0.0672    0.0000   -0.0000    0.0468   -0.0000
       88 CR     5f2-       0.0399    0.0000   -0.0000    0.0153   -0.0000
       89 CR     6f2-       0.0029    0.0000    0.0000   -0.0116   -0.0000
       90 CR     7f2-      -0.0056   -0.0000    0.0000   -0.0073   -0.0000
       91 CR     8f2-      -0.0052   -0.0000   -0.0000    0.0010    0.0000
       92 CR     9f2-      -0.0038   -0.0000   -0.0000    0.0050    0.0000
       93 CR     4f1-       0.0198    0.0000    0.0000   -0.0221    0.0000
       94 CR     5f1-       0.0136    0.0000    0.0000   -0.0136   -0.0000
       95 CR     6f1-       0.0023    0.0000    0.0000   -0.0009   -0.0000
       96 CR     7f1-      -0.0018   -0.0000   -0.0000    0.0024   -0.0000
       97 CR     8f1-      -0.0023   -0.0000   -0.0000    0.0020    0.0000
       98 CR     9f1-      -0.0020   -0.0000   -0.0000    0.0013    0.0000
       99 CR     4f0        0.0000   -0.0494    0.0538    0.0000    0.0087
      100 CR     5f0        0.0000   -0.0340    0.0332    0.0000    0.0172
      101 CR     6f0        0.0000   -0.0059    0.0024    0.0000    0.0148
      102 CR     7f0       -0.0000    0.0044   -0.0057   -0.0000    0.0051
      103 CR     8f0       -0.0000    0.0058   -0.0049   -0.0000   -0.0031
      104 CR     9f0       -0.0000    0.0051   -0.0033   -0.0000   -0.0062
      105 CR     4f1+      -0.0000    0.0531    0.0378    0.0000   -0.0027
      106 CR     5f1+      -0.0000    0.0316    0.0126    0.0000   -0.0380
      107 CR     6f1+      -0.0000    0.0023   -0.0091   -0.0000   -0.0292
      108 CR     7f1+       0.0000   -0.0044   -0.0058   -0.0000    0.0039
      109 CR     8f1+       0.0000   -0.0041    0.0007    0.0000    0.0167
      110 CR     9f1+       0.0000   -0.0031    0.0039    0.0000    0.0190
      111 CR     4f2+      -0.0000    0.0638   -0.0694   -0.0000    0.0069
      112 CR     5f2+      -0.0000    0.0438   -0.0428   -0.0000    0.0138
      113 CR     6f2+      -0.0000    0.0075   -0.0031   -0.0000    0.0118
      114 CR     7f2+       0.0000   -0.0058    0.0074    0.0000    0.0038
      115 CR     8f2+       0.0000   -0.0074    0.0063    0.0000   -0.0026
      116 CR     9f2+       0.0000   -0.0065    0.0043    0.0000   -0.0050
      117 CR     4f3+      -0.0000    0.0401    0.0291    0.0000    0.0042
      118 CR     5f3+      -0.0000    0.0239    0.0096    0.0000    0.0503
      119 CR     6f3+      -0.0000    0.0019   -0.0071   -0.0000    0.0386
      120 CR     7f3+       0.0000   -0.0033   -0.0045   -0.0000   -0.0050
      121 CR     8f3+       0.0000   -0.0031    0.0006    0.0000   -0.0220
      122 CR     9f3+       0.0000   -0.0024    0.0030    0.0000   -0.0251
      123 CR     5g4-      -0.0063   -0.0000   -0.0000    0.0064    0.0000
      124 CR     6g4-      -0.0144   -0.0000   -0.0000    0.0138    0.0000
      125 CR     7g4-      -0.0140   -0.0000   -0.0000    0.0123    0.0000
      126 CR     8g4-      -0.0092   -0.0000   -0.0000    0.0072    0.0000
      127 CR     5g3-       0.0053    0.0000   -0.0000    0.0004   -0.0000
      128 CR     6g3-       0.0121    0.0000    0.0000   -0.0007   -0.0000
      129 CR     7g3-       0.0119    0.0000    0.0000   -0.0032   -0.0000
      130 CR     8g3-       0.0080    0.0000    0.0000   -0.0042   -0.0000
      131 CR     5g2-       0.0023    0.0000    0.0000   -0.0024   -0.0000
      132 CR     6g2-       0.0054    0.0000    0.0000   -0.0052   -0.0000
      133 CR     7g2-       0.0052    0.0000    0.0000   -0.0046   -0.0000
      134 CR     8g2-       0.0034    0.0000    0.0000   -0.0027   -0.0000
      135 CR     5g1-      -0.0025   -0.0000   -0.0000    0.0004    0.0000
      136 CR     6g1-      -0.0057   -0.0000   -0.0000    0.0013    0.0000
      137 CR     7g1-      -0.0056   -0.0000   -0.0000    0.0022    0.0000
      138 CR     8g1-      -0.0039   -0.0000   -0.0000    0.0022    0.0000
      139 CR     5g0        0.0000   -0.0029   -0.0005   -0.0000    0.0010
      140 CR     6g0        0.0000   -0.0067   -0.0002   -0.0000    0.0013
      141 CR     7g0        0.0000   -0.0065    0.0013    0.0000    0.0004
      142 CR     8g0        0.0000   -0.0044    0.0021    0.0000   -0.0006
      143 CR     5g1+       0.0000   -0.0052    0.0051    0.0000    0.0053
      144 CR     6g1+       0.0000   -0.0119    0.0110    0.0000    0.0149
      145 CR     7g1+       0.0000   -0.0115    0.0098    0.0000    0.0189
      146 CR     8g1+       0.0000   -0.0076    0.0058    0.0000    0.0164
      147 CR     5g2+      -0.0000    0.0033   -0.0001   -0.0000   -0.0016
      148 CR     6g2+      -0.0000    0.0074   -0.0011   -0.0000   -0.0022
      149 CR     7g2+      -0.0000    0.0073   -0.0023   -0.0000   -0.0009
      150 CR     8g2+      -0.0000    0.0050   -0.0027   -0.0000    0.0006
      151 CR     5g3+      -0.0000    0.0045   -0.0045   -0.0000    0.0061
      152 CR     6g3+      -0.0000    0.0104   -0.0097   -0.0000    0.0173
      153 CR     7g3+      -0.0000    0.0101   -0.0087   -0.0000    0.0219
      154 CR     8g3+      -0.0000    0.0066   -0.0051   -0.0000    0.0189
      155 CR     5g4+      -0.0000    0.0039    0.0001    0.0000    0.0024
      156 CR     6g4+      -0.0000    0.0089   -0.0008   -0.0000    0.0036
      157 CR     7g4+      -0.0000    0.0088   -0.0025   -0.0000    0.0020
      158 CR     8g4+      -0.0000    0.0060   -0.0032   -0.0000   -0.0002
      159 CR     6h5-      -0.0009   -0.0000   -0.0000    0.0012    0.0000
      160 CR     7h5-      -0.0015   -0.0000   -0.0000    0.0018    0.0000
      161 CR     6h4-       0.0010    0.0000   -0.0000    0.0001   -0.0000
      162 CR     7h4-       0.0018    0.0000    0.0000   -0.0001   -0.0000
      163 CR     6h3-       0.0004    0.0000    0.0000   -0.0005   -0.0000
      164 CR     7h3-       0.0006    0.0000    0.0000   -0.0008   -0.0000
      165 CR     6h2-      -0.0010   -0.0000   -0.0000    0.0003    0.0000
      166 CR     7h2-      -0.0017   -0.0000   -0.0000    0.0008    0.0000
      167 CR     6h1-      -0.0001   -0.0000   -0.0000    0.0001    0.0000
      168 CR     7h1-      -0.0002   -0.0000   -0.0000    0.0002    0.0000
      169 CR     6h0       -0.0000    0.0005   -0.0006   -0.0000   -0.0015
      170 CR     7h0       -0.0000    0.0008   -0.0010   -0.0000   -0.0031
      171 CR     6h1+       0.0000   -0.0007   -0.0001   -0.0000   -0.0008
      172 CR     7h1+       0.0000   -0.0012   -0.0001   -0.0000   -0.0014
      173 CR     6h2+       0.0000   -0.0007    0.0008    0.0000    0.0009
      174 CR     7h2+       0.0000   -0.0011    0.0013    0.0000    0.0018
      175 CR     6h3+      -0.0000    0.0007   -0.0003   -0.0000    0.0008
      176 CR     7h3+      -0.0000    0.0012   -0.0006   -0.0000    0.0014
      177 CR     6h4+      -0.0000    0.0006   -0.0008   -0.0000    0.0023
      178 CR     7h4+      -0.0000    0.0010   -0.0012   -0.0000    0.0048
      179 CR     6h5+      -0.0000    0.0010   -0.0001   -0.0000   -0.0010
      180 CR     7h5+      -0.0000    0.0018   -0.0004   -0.0000   -0.0018
--


++    Molecular charges:
      ------------------

      Mulliken charges per centre and basis function type
      ---------------------------------------------------

                CR    
      1s       2.0000
      2s       2.0000
      2px      2.0000
      2pz      2.0000
      2py      2.0000
      3s       1.9801
      3px      1.9368
      3pz      1.9492
      3py      1.9492
      4s       0.0065
      3d2+     0.0197
      3d1+     0.0170
      3d0      0.0066
      3d1-     0.0000
      3d2-     0.0170
      4px      0.0137
      4pz      0.0148
      4py      0.0148
      5s       0.0142
      4d2+     0.0009
      4d1+     0.0008
      4d0      0.0003
      4d1-     0.0000
      4d2-     0.0008
      5px      0.0175
      5pz      0.0173
      5py      0.0173
      6s       0.0023
      4f3+     0.0000
      4f2+     0.0000
      4f1+     0.0000
      4f0      0.0000
      4f1-     0.0000
      4f2-     0.0000
      4f3-     0.0000
      5d2+     0.0003
      5d1+     0.0003
      5d0      0.0001
      5d1-     0.0000
      5d2-     0.0003
      6px      0.0001
      6pz      0.0000
      6py      0.0000
      7s       0.0002
      5f3+     0.0000
      5f2+     0.0000
      5f1+     0.0000
      5f0      0.0000
      5f1-     0.0000
      5f2-     0.0000
      5f3-     0.0000
      6d2+     0.0001
      6d1+     0.0001
      6d0      0.0000
      6d1-     0.0000
      6d2-     0.0001
      7px      0.0003
      7pz      0.0004
      7py      0.0004
      5g4+     0.0000
      5g3+     0.0000
      5g2+     0.0000
      5g1+     0.0000
      5g0      0.0000
      5g1-     0.0000
      5g2-     0.0000
      5g3-     0.0000
      5g4-     0.0000
      6f3+     0.0000
      6f2+     0.0000
      6f1+     0.0000
      6f0      0.0000
      6f1-     0.0000
      6f2-     0.0000
      6f3-     0.0000
      6g4+     0.0000
      6g3+     0.0000
      6g2+     0.0000
      6g1+     0.0000
      6g0      0.0000
      6g1-     0.0000
      6g2-     0.0000
      6g3-     0.0000
      6g4-     0.0000
      6h5+     0.0000
      6h4+     0.0000
      6h3+     0.0000
      6h2+     0.0000
      6h1+     0.0000
      6h0      0.0000
      6h1-     0.0000
      6h2-     0.0000
      6h3-     0.0000
      6h4-     0.0000
      6h5-     0.0000
      7d2+     0.0000
      7d1+     0.0000
      7d0      0.0000
      7d1-     0.0000
      7d2-     0.0000
      7f3+     0.0000
      7f2+     0.0000
      7f1+     0.0000
      7f0      0.0000
      7f1-     0.0000
      7f2-     0.0000
      7f3-     0.0000
      7g4+     0.0000
      7g3+     0.0000
      7g2+     0.0000
      7g1+     0.0000
      7g0      0.0000
      7g1-     0.0000
      7g2-     0.0000
      7g3-     0.0000
      7g4-     0.0000
      7h5+     0.0000
      7h4+     0.0000
      7h3+     0.0000
      7h2+     0.0000
      7h1+     0.0000
      7h0      0.0000
      7h1-     0.0000
      7h2-     0.0000
      7h3-     0.0000
      7h4-     0.0000
      7h5-     0.0000
      8s       0.0001
      8px      0.0000
      8pz      0.0000
      8py      0.0000
      8d2+     0.0000
      8d1+     0.0000
      8d0      0.0000
      8d1-     0.0000
      8d2-     0.0000
      8f3+     0.0000
      8f2+     0.0000
      8f1+     0.0000
      8f0      0.0000
      8f1-     0.0000
      8f2-     0.0000
      8f3-     0.0000
      8g4+     0.0000
      8g3+     0.0000
      8g2+     0.0000
      8g1+     0.0000
      8g0      0.0000
      8g1-     0.0000
      8g2-     0.0000
      8g3-     0.0000
      8g4-     0.0000
      9s       0.0000
      9px      0.0000
      9pz      0.0000
      9py      0.0000
      9d2+     0.0000
      9d1+     0.0000
      9d0      0.0000
      9d1-     0.0000
      9d2-     0.0000
      9f3+     0.0000
      9f2+     0.0000
      9f1+     0.0000
      9f0      0.0000
      9f1-     0.0000
      9f2-     0.0000
      9f3-     0.0000
     10s       0.0000
     10px      0.0000
     10pz      0.0000
     10py      0.0000
     10d2+     0.0000
     10d1+     0.0000
     10d0      0.0000
     10d1-     0.0000
     10d2-     0.0000
     11px      0.0000
     11pz      0.0000
     11py      0.0000
      Total   18.0000

      N-E      6.0000

      Total electronic charge=   18.000000

      Total            charge=    6.000000
--

 Sorry, Molden does not know how to handle
 functions with angular momentum larger than g

++    Static properties:
      ------------------


      LoProp Charges per center


                   CR    
      Nuclear     24.0000
      Electronic -18.0000

      Total        6.0000
--


++    Molecular properties:
      ---------------------

      Charge (e):
                      =    6.0000
      Dipole Moment (Debye):
      Origin of the operator (Ang)=    0.0000    0.0000    0.0000
                   X= -1.5138E+00               Y= -4.1227E-14               Z=  1.3241E-01           Total=  1.5196E+00
      Center of Charge (Ang)
                     X=   -0.05252718               Y=   -0.00000000               Z=    0.00459449
      Quadrupole Moment (Debye*Ang):
      Origin of the operator (Ang)=   -0.0000   -0.0000    0.0046
                  XX= -3.5039E+00              XY= -7.5732E-15              XZ=  6.6524E-05              YY= -3.4717E+00
                  YZ=  5.9772E-15              ZZ= -3.4717E+00
      In traceless form (Debye*Ang)
                  XX= -3.2140E-02              XY= -1.1360E-14              XZ=  9.9786E-05              YY=  1.6094E-02
                  YZ=  8.9658E-15              ZZ=  1.6046E-02
--

 Sorry, Molden does not know how to handle
 functions with angular momentum larger than g
 ###############################################################################
 ###############################################################################
 ###                                                                         ###
 ###                                                                         ###
 ###    WARNING: RunFile label nBas                                          ###
 ###    was used       62 times                                              ###
 ###                                                                         ###
 ###                                                                         ###
 ###############################################################################
 ###############################################################################
Note: The following floating-point exceptions are signalling: IEEE_UNDERFLOW_FLAG IEEE_DENORMAL
--- Stop Module: scf at Wed Mar 26 12:39:30 2025 /rc=_RC_ALL_IS_WELL_ ---
*** files: chromium_so_cf.LprOrb chromium_so_cf.ScfOrb xmldump
    saved to directory /home4/s4752295/Internship/Initial_simulations/Point_charge_model/1_electron/Madelung_charges_9_active_space/Cr
--- Module scf spent 8 seconds ---

*** symbolic link created: INPORB -> chromium_so_cf.ScfOrb
--- Start Module: rasscf at Wed Mar 26 12:39:30 2025 ---

()()()()()()()()()()()()()()()()()()()()()()()()()()()()()()()()()()()()()()()()()()()()()()()()()()

                                              &RASSCF

                                   only a single process is used
                       available to each process: 4.1 GB of memory, 1 thread?
                                            pid: 3936039
()()()()()()()()()()()()()()()()()()()()()()()()()()()()()()()()()()()()()()()()()()()()()()()()()()


      Header of the ONEINT file:
      --------------------------
      
      Integrals generated by seward 4.2.0  , Wed Mar 26 12:39:14 2025


      OrdInt status: non-squared


      Cartesian coordinates in Angstrom:
      -----------------------------------------------------
      No.  Label        X            Y            Z        
      -----------------------------------------------------
       1   CR        -0.00000000  -0.00000000   0.00463220
      -----------------------------------------------------
      Nuclear repulsion energy = -182.97936431

++    Wave function specifications:
      -----------------------------

      Number of closed shell electrons          18
      Number of electrons in active shells       1
      Max number of holes in RAS1 space          0
      Max nr of electrons in RAS3 space          0
      Number of inactive orbitals                9
      Number of active orbitals                  9
[...]
         3   17       6.06233752E-04  1.55694100E-14  1.86799484E+07  1.59491791E-11  1.86799484E+07
         4   10       1.19672556E-05  1.88402691E+01  3.99675819E-18  2.45838087E+00  2.12986500E+01
         4   12       3.90043346E-03  2.45657734E-15  9.50847894E+06  7.10954823E-12  9.50847894E+06
         4   14       8.37093470E-03  3.47619716E-10  9.94871985E+07  4.09602025E-11  9.94871985E+07
         4   16       4.37075820E-02  4.22472975E+08  4.45576338E-11  1.01357955E+08  5.23830930E+08
         4   18       6.06233752E-04  1.55694100E-14  1.86799484E+07  1.59491791E-11  1.86799484E+07
         5    7       1.15599694E-05  1.71513709E+01  4.54945930E-18  1.82710442E+00  1.89784753E+01
         5   11       4.04886166E-03  9.77349965E+04  5.13675504E-12  9.76841355E+06  9.86614854E+06
         5   13       4.32304143E-02  4.23918792E+08  4.09968980E-11  8.97693711E+07  5.13688163E+08
         5   15       9.19335737E-03  2.75544094E-10  1.10160465E+08  4.28033464E-11  1.10160465E+08
         5   17       6.34203204E-04  2.57554310E+05  1.03208851E-11  1.92818983E+07  1.95394526E+07
         6    8       1.15599694E-05  1.71513709E+01  4.54945930E-18  1.82710442E+00  1.89784753E+01
         6   12       4.04886166E-03  9.77349965E+04  5.13675504E-12  9.76841355E+06  9.86614854E+06
         6   14       4.32304143E-02  4.23918792E+08  4.09968980E-11  8.97693711E+07  5.13688163E+08
         6   16       9.19335737E-03  2.75544094E-10  1.10160465E+08  4.28033464E-11  1.10160465E+08
         6   18       6.34203204E-04  2.57554310E+05  1.03208851E-11  1.92818983E+07  1.95394526E+07
         7   11       9.20695159E-03  4.55038552E+02  8.22417611E-12  2.12852156E+07  2.12856707E+07
         7   13       6.04439934E-02  6.98495321E+08  3.24958909E-12  2.94893947E+06  7.01444261E+08
         7   15       2.74107077E-04  3.53614660E-10  3.20807818E+06  3.32838103E-12  3.20807818E+06
         7   17       2.89419266E-03  1.42338622E+03  3.36038187E-11  8.78699928E+07  8.78714162E+07
         8   12       9.20695159E-03  4.55038552E+02  8.22417611E-12  2.12852156E+07  2.12856707E+07
         8   14       6.04439934E-02  6.98495321E+08  3.24958909E-12  2.94893947E+06  7.01444261E+08
         8   16       2.74107077E-04  3.53614660E-10  3.20807818E+06  3.32838103E-12  3.20807818E+06
         8   18       2.89419266E-03  1.42338622E+03  3.36038187E-11  8.78699928E+07  8.78714162E+07
         9   11       9.13107767E-03  5.23450699E-15  2.10730965E+07  6.97836339E-12  2.10730965E+07
         9   13       2.85601942E-04  2.93802767E-10  3.31176669E+06  6.83759103E-13  3.31176669E+06
         9   15       6.03546840E-02  7.02495335E+08  1.26018777E-12  3.32746407E+06  7.05822799E+08
         9   17       2.98293319E-03  3.01041010E-14  9.05216868E+07  2.84300278E-11  9.05216868E+07
        10   12       9.13107767E-03  5.23450699E-15  2.10730965E+07  6.97836339E-12  2.10730965E+07
        10   14       2.85601942E-04  2.93802767E-10  3.31176669E+06  6.83759103E-13  3.31176669E+06
        10   16       6.03546840E-02  7.02495335E+08  1.26018777E-12  3.32746407E+06  7.05822799E+08
        10   18       2.98293319E-03  3.01041010E-14  9.05216868E+07  2.84300278E-11  9.05216868E+07
        11   13       2.15356720E-01  2.64980844E+02  4.22184595E-12  7.66098685E+08  7.66098949E+08
        11   15       2.15556782E-01  2.59764905E-16  7.78631411E+08  4.31197487E-12  7.78631411E+08
        11   17       8.78089533E-02  1.39764340E+09  1.75238570E-17  1.07821378E+04  1.39765418E+09
        12   14       2.15356720E-01  2.64980844E+02  4.22184595E-12  7.66098685E+08  7.66098949E+08
        12   16       2.15556782E-01  2.59764905E-16  7.78631411E+08  4.31197487E-12  7.78631411E+08
        12   18       8.78089533E-02  1.39764340E+09  1.75238570E-17  1.07821378E+04  1.39765418E+09
        13   15       5.00673811E-04  1.31279701E-26  1.05004632E+02  2.25591091E-18  1.05004632E+02
        13   17       7.60808136E-04  8.79285417E+01  1.97395249E-14  3.36632252E+06  3.36641045E+06
        14   16       5.00673811E-04  1.31279701E-26  1.05004632E+02  2.25591091E-18  1.05004632E+02
        14   18       7.60808136E-04  8.79285417E+01  1.97395249E-14  3.36632252E+06  3.36641045E+06
        15   17       8.27757508E-04  2.73153093E-17  3.61238849E+06  1.86663550E-14  3.61238849E+06
        16   18       8.27757508E-04  2.73153093E-17  3.61238849E+06  1.86663550E-14  3.61238849E+06
     -----------------------------------------------------------------------------------------------
--

++ Velocity transition strengths (SO states):
   ------------------------------------------
    for osc. strength at least    1.0000000000000001E-005

      From   To        Osc. strength     Einstein coefficients Ax, Ay, Az (sec-1)    Total A (sec-1)
     -----------------------------------------------------------------------------------------------
         1    3       1.39863312E-02  2.78185712E-20  4.45153144E+03  3.14155301E-15  4.45153144E+03
         1    5       1.40005966E-02  6.73089775E-04  2.49334520E-15  4.62232238E+03  4.62232305E+03
         1    7       1.17647899E-02  1.09651533E-01  1.58605948E-14  4.05219027E+04  4.05220123E+04
         1    9       1.19362455E-02  2.94005003E-19  4.30097555E+04  1.33124083E-14  4.30097555E+04
         1   11       1.01634029E-01  2.53455393E+08  1.01146793E-17  3.33667781E+03  2.53458729E+08
         1   13       5.25374565E-02  1.82793998E+05  3.71542696E-12  6.30697710E+08  6.30880504E+08
         1   15       5.05622356E-02  1.84214073E-14  6.12247099E+08  3.15781029E-12  6.12247099E+08
         1   17       1.81924983E-02  5.64171510E+08  4.04832112E-18  6.96003368E+03  5.64178470E+08
         2    4       1.39863312E-02  2.78185712E-20  4.45153144E+03  3.14155301E-15  4.45153144E+03
         2    6       1.40005966E-02  6.73089775E-04  2.49334520E-15  4.62232238E+03  4.62232305E+03
         2    8       1.17647899E-02  1.09651533E-01  1.58605948E-14  4.05219027E+04  4.05220123E+04
         2   10       1.19362455E-02  2.94005003E-19  4.30097555E+04  1.33124083E-14  4.30097555E+04
         2   12       1.01634029E-01  2.53455393E+08  1.01146793E-17  3.33667781E+03  2.53458729E+08
         2   14       5.25374565E-02  1.82793998E+05  3.71542696E-12  6.30697710E+08  6.30880504E+08
         2   16       5.05622356E-02  1.84214073E-14  6.12247099E+08  3.15781029E-12  6.12247099E+08
         2   18       1.81924983E-02  5.64171510E+08  4.04832112E-18  6.96003368E+03  5.64178470E+08
         3    5       3.47616994E-04  4.11984675E-20  3.77991208E-02  7.12708732E-19  3.77991208E-02
         3    7       3.85784470E-03  4.41255439E-18  6.43711359E+03  1.00463327E-14  6.43711359E+03
         3    9       3.73670992E-03  2.43594741E+00  1.03268599E-14  6.64797379E+03  6.65040974E+03
         3   11       2.27052978E-03  1.73871740E-15  5.53511806E+06  4.36009763E-12  5.53511806E+06
         3   13       7.64814037E-03  3.17636483E-10  9.08972213E+07  3.79778483E-11  9.08972213E+07
         3   15       3.95404228E-02  3.81333902E+08  4.11645316E-11  9.25556969E+07  4.73889599E+08
         3   17       4.78803597E-04  7.17272412E-15  1.47534801E+07  1.29318612E-11  1.47534801E+07
         4    6       3.47616994E-04  4.11984675E-20  3.77991208E-02  7.12708732E-19  3.77991208E-02
         4    8       3.85784470E-03  4.41255439E-18  6.43711359E+03  1.00463327E-14  6.43711359E+03
         4   10       3.73670992E-03  2.43594741E+00  1.03268599E-14  6.64797379E+03  6.65040974E+03
         4   12       2.27052978E-03  1.73871740E-15  5.53511806E+06  4.36009763E-12  5.53511806E+06
         4   14       7.64814037E-03  3.17636483E-10  9.08972213E+07  3.79778483E-11  9.08972213E+07
         4   16       3.95404228E-02  3.81333902E+08  4.11645316E-11  9.25556969E+07  4.73889599E+08
         4   18       4.78803597E-04  7.17272412E-15  1.47534801E+07  1.29318612E-11  1.47534801E+07
         5    7       4.21490501E-03  1.69977973E+00  9.55238094E-15  6.91810652E+03  6.91980630E+03
         5    9       3.45527664E-03  4.33582929E-18  6.05376932E+03  1.07445367E-14  6.05376932E+03
         5   11       2.36597663E-03  8.10489367E+04  2.94474248E-12  5.68431427E+06  5.76536321E+06
         5   13       3.90463365E-02  3.82628047E+08  3.71419064E-11  8.13441569E+07  4.63972204E+08
         5   15       8.45881149E-03  2.47398805E-10  1.01359037E+08  3.88343181E-11  1.01359037E+08
         5   17       4.99429068E-04  1.91830732E+05  8.11741359E-12  1.51953582E+07  1.53871889E+07
         6    8       4.21490501E-03  1.69977973E+00  9.55238094E-15  6.91810652E+03  6.91980630E+03
         6   10       3.45527664E-03  4.33582929E-18  6.05376932E+03  1.07445367E-14  6.05376932E+03
         6   12       2.36597663E-03  8.10489367E+04  2.94474248E-12  5.68431427E+06  5.76536321E+06
         6   14       3.90463365E-02  3.82628047E+08  3.71419064E-11  8.13441569E+07  4.63972204E+08
         6   16       8.45881149E-03  2.47398805E-10  1.01359037E+08  3.88343181E-11  1.01359037E+08
         6   18       4.99429068E-04  1.91830732E+05  8.11741359E-12  1.51953582E+07  1.53871889E+07
         7   11       6.04156225E-03  3.44945148E+02  5.35171726E-12  1.39672697E+07  1.39676146E+07
         7   13       5.51440937E-02  6.36939056E+08  3.15844175E-12  3.00281945E+06  6.39941876E+08
         7   15       2.76853899E-04  3.22931908E-10  3.24023754E+06  3.21514641E-12  3.24023754E+06
         7   17       2.40310782E-03  1.54345547E+03  2.76144274E-11  7.29601583E+07  7.29617018E+07
         8   12       6.04156225E-03  3.44945148E+02  5.35171726E-12  1.39672697E+07  1.39676146E+07
         8   14       5.51440937E-02  6.36939056E+08  3.15844175E-12  3.00281945E+06  6.39941876E+08
         8   16       2.76853899E-04  3.22931908E-10  3.24023754E+06  3.21514641E-12  3.24023754E+06
         8   18       2.40310782E-03  1.54345547E+03  2.76144274E-11  7.29601583E+07  7.29617018E+07
         9   11       6.01140879E-03  3.07818579E-15  1.38734378E+07  4.49610130E-12  1.38734378E+07
         9   13       2.88023681E-04  2.66675689E-10  3.33986017E+06  6.77904594E-13  3.33986017E+06
         9   15       5.50640442E-02  6.40579129E+08  1.21194059E-12  3.37408756E+06  6.43953217E+08
         9   17       2.48208148E-03  1.98904854E-14  7.53228348E+07  2.36410395E-11  7.53228348E+07
        10   12       6.01140879E-03  3.07818579E-15  1.38734378E+07  4.49610130E-12  1.38734378E+07
        10   14       2.88023681E-04  2.66675689E-10  3.33986017E+06  6.77904594E-13  3.33986017E+06
        10   16       5.50640442E-02  6.40579129E+08  1.21194059E-12  3.37408756E+06  6.43953217E+08
        10   18       2.48208148E-03  1.98904854E-14  7.53228348E+07  2.36410395E-11  7.53228348E+07
        11   13       2.82118094E-01  1.35250314E+03  5.55209726E-12  1.00359457E+09  1.00359593E+09
        11   15       2.81056353E-01  3.72900100E-17  1.01523164E+09  5.59513083E-12  1.01523164E+09
        11   17       8.08079716E-02  1.28622031E+09  7.86063780E-17  3.78412027E+03  1.28622410E+09
        12   14       2.82118094E-01  1.35250314E+03  5.55209726E-12  1.00359457E+09  1.00359593E+09
        12   16       2.81056353E-01  3.72900100E-17  1.01523164E+09  5.59513083E-12  1.01523164E+09
        12   18       8.08079716E-02  1.28622031E+09  7.86063780E-17  3.78412027E+03  1.28622410E+09
        13   15       4.05573886E-04  2.48360318E-19  8.50599409E+01  5.28495430E-18  8.50599409E+01
        13   17       1.16605334E-03  2.22053828E+02  2.74301802E-14  5.15932817E+06  5.15955022E+06
        14   16       4.05573886E-04  2.48360318E-19  8.50599409E+01  5.28495430E-18  8.50599409E+01
        14   18       1.16605334E-03  2.22053828E+02  2.74301802E-14  5.15932817E+06  5.15955022E+06
        15   17       1.10423534E-03  1.43201981E-16  4.81897280E+06  2.78490613E-14  4.81897280E+06
        16   18       1.10423534E-03  1.43201981E-16  4.81897280E+06  2.78490613E-14  4.81897280E+06
     -----------------------------------------------------------------------------------------------
--

++ Length and velocity gauge comparison (SO states):

 --------------------------------------------------
 A comparison between the dipole oscillator strengths in 
 length and velocity gauge will be performed

 All dipole oscillator differences above the tolerance of   0.10000000000000001       will be printed 

 Due to basis set deficiency these oscillator may be problematic 

 The tolerance is defined as ABS(1-O_l/O_v) 
 O_l : dipole oscillator strength in length gauge
 O_p : dipole oscillator strength in velocity gauge
 --------------------------------------------------

  Problematic transitions have been found

      From   To       Difference (%) Osc. st. (len.) Osc. st. (vel.)
     ---------------------------------------------------------------
         1    3      --------------- below threshold  1.39863312E-02
         1    5      --------------- below threshold  1.40005966E-02
         1    7            99.703765  3.48513739E-05  1.17647899E-02
         1    9            99.710229  3.45878210E-05  1.19362455E-02
         1   11            21.755786  1.23745311E-01  1.01634029E-01
         1   17            36.639861  2.48582045E-02  1.81924983E-02
         2    4      --------------- below threshold  1.39863312E-02
         2    6      --------------- below threshold  1.40005966E-02
         2    8            99.703765  3.48513739E-05  1.17647899E-02
         2   10            99.710229  3.45878210E-05  1.19362455E-02
         2   12            21.755786  1.23745311E-01  1.01634029E-01
         2   18            36.639861  2.48582045E-02  1.81924983E-02
         3    5      --------------- below threshold  3.47616994E-04
         3    7      --------------- below threshold  3.85784470E-03
         3    9            99.679738  1.19672556E-05  3.73670992E-03
         3   11            71.785171  3.90043346E-03  2.27052978E-03
         3   15            10.538985  4.37075820E-02  3.95404228E-02
         3   17            26.614285  6.06233752E-04  4.78803597E-04
         4    6      --------------- below threshold  3.47616994E-04
         4    8      --------------- below threshold  3.85784470E-03
         4   10            99.679738  1.19672556E-05  3.73670992E-03
         4   12            71.785171  3.90043346E-03  2.27052978E-03
         4   16            10.538985  4.37075820E-02  3.95404228E-02
         4   18            26.614285  6.06233752E-04  4.78803597E-04
         5    7            99.725736  1.15599694E-05  4.21490501E-03
         5    9      --------------- below threshold  3.45527664E-03
         5   11            71.128557  4.04886166E-03  2.36597663E-03
         5   13            10.715673  4.32304143E-02  3.90463365E-02
         5   17            26.985641  6.34203204E-04  4.99429068E-04
         6    8            99.725736  1.15599694E-05  4.21490501E-03
         6   10      --------------- below threshold  3.45527664E-03
         6   12            71.128557  4.04886166E-03  2.36597663E-03
         6   14            10.715673  4.32304143E-02  3.90463365E-02
         6   18            26.985641  6.34203204E-04  4.99429068E-04
         7   11            52.393557  9.20695159E-03  6.04156225E-03
         7   17            20.435406  2.89419266E-03  2.40310782E-03
         8   12            52.393557  9.20695159E-03  6.04156225E-03
         8   18            20.435406  2.89419266E-03  2.40310782E-03
         9   11            51.895803  9.13107767E-03  6.01140879E-03
         9   17            20.178697  2.98293319E-03  2.48208148E-03
        10   12            51.895803  9.13107767E-03  6.01140879E-03
        10   18            20.178697  2.98293319E-03  2.48208148E-03
        11   13            23.664336  2.15356720E-01  2.82118094E-01
        11   15            23.304782  2.15556782E-01  2.81056353E-01
        12   14            23.664336  2.15356720E-01  2.82118094E-01
        12   16            23.304782  2.15556782E-01  2.81056353E-01
        13   15            23.448237  5.00673811E-04  4.05573886E-04
        13   17            34.753573  7.60808136E-04  1.16605334E-03
        14   16            23.448237  5.00673811E-04  4.05573886E-04
        14   18            34.753573  7.60808136E-04  1.16605334E-03
        15   17            25.037945  8.27757508E-04  1.10423534E-03
        16   18            25.037945  8.27757508E-04  1.10423534E-03
     ---------------------------------------------------------------

 Number of problematic transitions =                    52

--

 Electric-dipole - electric-octupole not included
++ I/O STATISTICS
 
  I. General I/O information
  - - - - - - - - - - - - - - - - - - - - - - - - - - - - - - - - - - - - - - - - - - -
  Unit  Name          Flsize      Write/Read            MBytes           Write/Read
                      (MBytes)       Calls              In/Out           Time, sec.
  - - - - - - - - - - - - - - - - - - - - - - - - - - - - - - - - - - - - - - - - - - -
   1  SCRATCH           0.00 .       9/      45 .      0.0/      0.0 .       0/       0
   2  ANNI              0.00 .       0/       0 .      0.0/      0.0 .       0/       0
   3  RUNFILE          14.88 .     322/   10733 .      2.3/     77.8 .       0/       0
   4  ONEINT            5.58 .       0/   23543 .      0.0/   3739.9 .       0/       0
   5  JOBIPH            6.48 .       0/      92 .      0.0/      0.8 .       0/       0
   6  ORDINT          506.53 .       1/    4053 .      0.0/   1013.0 .       0/       0
  - - - - - - - - - - - - - - - - - - - - - - - - - - - - - - - - - - - - - - - - - - -
   *  TOTAL           533.47 .     332/   38466 .      2.3/   4831.6 .       0/       0
  - - - - - - - - - - - - - - - - - - - - - - - - - - - - - - - - - - - - - - - - - - -
 
  II. I/O Access Patterns
  - - - - - - - - - - - - - - - - - - - -
  Unit  Name               % of random
                         Write/Read calls
  - - - - - - - - - - - - - - - - - - - -
   1  SCRATCH             88.9/ 100.0
   2  ANNI                 0.0/   0.0
   3  RUNFILE             28.6/  10.8
   4  ONEINT               0.0/  16.4
   5  JOBIPH               0.0/  76.1
   6  ORDINT             100.0/   0.0
  - - - - - - - - - - - - - - - - - - - -
--
--- Stop Module: rassi at Wed Mar 26 12:40:08 2025 /rc=_RC_ALL_IS_WELL_ ---
*** files: xmldump
    saved to directory /home4/s4752295/Internship/Initial_simulations/Point_charge_model/1_electron/Madelung_charges_9_active_space/Cr
--- Module rassi spent 2 seconds ---

.##################.
.# Happy landing! #.
.##################.

    Timing: Wall=54.29 User=43.24 System=9.34

###############################################################################
Hbrk Cluster
Job 15906051 for user s4752295
Finished at: Wed Mar 26 12:40:12 CET 2025

Job details:
============

Job ID                         : 15906051
Name                           : Cr_no_SO
User                           : s4752295
Partition                      : regularmedium
Nodes                          : node100
Number of Nodes                : 1
Cores                          : 1
Number of Tasks                : 1
State                          : COMPLETED  
Submit                         : 2025-03-26T12:37:59
Start                          : 2025-03-26T12:39:11
End                            : 2025-03-26T12:40:08
Reserved walltime              : 15:00:00
Used walltime                  : 00:00:57
Used CPU time                  : 00:00:54 (Efficiency: 94.21%)
% User (Computation)           : 82.21%
% System (I/O)                 : 17.79%
Total memory reserved          : 25000M
Maximum memory used            : 2.03G

Acknowledgements:
=================

Please see this page for information about acknowledging Hbrk in your publications:

https://wiki.hpc.rug.nl/habrok/introduction/scientific_output

################################################################################
