   This run of MOLCAS is using the pymolcas driver

                             OPE
                             OPE          NMOL  CASOP  ENMOLC A   SO
                 OPE        NMOLC        AS  OP EN  MO LC     AS  OP
                OPENM       OL CA        SO  PE NM  OL CA     SOP EN
                OP EN      MO   LC       AS  OP ENMOL  CASO   PENMOL
                OP  EN     MO   LC       AS  OP EN     MO     LC ASO
               OP   E  NMOL  C  AS       OP  EN MO     LC     AS  OP
               OP  E   NMO   LC AS        OPEN  MO     LCASOP EN   M
               O  PEN   MO  LCA  SO
            OPE   NMO   L   CAS    OP
        OPENMOL  CASOP     ENMOL   CASOPE
     OPENMOLCA   SOPENMOLCASOPEN   MOLCASOPE
    OPENMOLCAS   OP           EN   MOL    CAS
    OPENMOLCAS       OP  ENM        O     LCA
    OPENMOLCAS    OPEN  MOLCASO     P  E  NMO
    OPENMOLCAS     OP               E  N  MOL
    OPENMOLCA   SO           PENM   O  L  CAS    OPEN    MO    LCAS
    OPENMOLCA   SOP           ENM   O  L  CAS   OP  EN  MOLC  AS   O
    OPENMOLCA   SOPE           NM      O  LCA   S      OP  EN MO
    OPENMOLC                AS         O  PEN   M      OL  CA  SOPE
    OPENMO        LCASOPE  NMOL        C  ASO   P      ENMOLC     AS
    OPE     NMO      LCA  SO     P     E   NM   OL  CA SO  PE N   MO
          OPENMOLCA            SOPE   NMO        LCAS  O    P  ENMO
     OPENMOLCASOPENMOLCASOPENMOLCASOPENMOLCA
        OPENMOLCASOPENMOLCASOPENMOLCASOPE
            OPENMOLCASOPENMOLCASOPENM
               OPENMOLCASOPENMOLCA        version: o91e1abe7de707b ?
                   OPENMOLCASO
                       OPE                tag:

 OpenMolcas is free software; you can redistribute it and/or modify it
 under the terms of the GNU Lesser General Public License version 2.1.
 OpenMolcas is distributed in the hope that it will be useful, but it
 is provided "as is" and without any express or implied warranties.
 For more details see the full text of the license in the file
 LICENSE or in <http://www.gnu.org/licenses/>.

                 Copyright (C) The OpenMolcas Authors
           For the author list and the recommended citation,
                   consult the file CONTRIBUTORS.md

           *************************************************
           * pymolcas version py2.10                       *
           *   build 3068ae8b88c9345ec6cfef6fef7f1169      *
           *   (after the EMIL interpreter by V. Veryazov) *
           *************************************************

configuration info
------------------
Host name: login1 (Linux)
C Compiler ID: GNU
C flags: -std=gnu99
Fortran Compiler ID: GNU
Fortran flags: -fno-aggressive-loop-optimizations -cpp -fdefault-integer-8 -fmax-stack-var-size=1048576
Definitions: _MOLCAS_;_I8_;_LINUX_;_MKL_
Parallel: OFF (GA=OFF)


   -----------------------------------------------------------------------------------------------------------------------------------
  |
  |           Project: chromium_so_cf
  |    Submitted from: /home4/s4752295/Internship/Initial_simulations/Point_charge_model/1_electron/Madelung_charges_9_active_space/Cr
  |      Scratch area: /tmp/chromium_so_cf
  |   Save outputs to: /home4/s4752295/Internship/Initial_simulations/Point_charge_model/1_electron/Madelung_charges_9_active_space/Cr
  |            Molcas: /home4/s4752295/Internship/Molcas/recomp_try/OpenMolcas-master/build
  |
  | Scratch area is empty
  |
  |    MOLCAS_DRIVER = /home4/s4752295/Internship/Molcas/bin/pymolcas
  |    MOLCAS_NPROCS = 1
  |    MOLCAS_SOURCE = /home4/s4752295/Internship/Molcas/recomp_try/OpenMolcas-master
  | MOLCAS_STRUCTURE = 0
  |
   -----------------------------------------------------------------------------------------------------------------------------------

++ ---------   Input file   ---------

&SEWARD
AMFi

CLIG
$R

Basis Set
Cr.ANO-rcc.Roos.21s15p10d6f4g2h.10s10p8d6f4g2h.
Spherical d
Cr            -1.0658140267135469e-14   -3.5527134223784897e-15 0.008753588724385739
End of Basis

Xfield

414
-2.401320648,-0.9239999999999999,0.5334713999999999     -0.625931
-2.401320648,-0.0,-1.0669434    -0.625931
-2.401320648,0.9239999999999999,0.5334713999999999      -0.625931
-2.397207642,0.0,0.0    1.892092
1.595507814,-0.9239999999999999,-0.5334713999999999     2.515516
1.595507814,0.0,1.0669434       2.515516
1.595507814,0.9239999999999999,-0.5334713999999999      2.515516
2.137792968,-1.8479999999999999,0.0     0.004632
2.137792968,-0.9239999999999999,-1.6004148      0.004632
2.137792968,-0.9239999999999999,1.6004148       0.004632
2.137792968,0.9239999999999999,-1.6004148       0.004632
2.137792968,0.9239999999999999,1.6004148        0.004632
2.137792968,1.8479999999999999,0.0      0.004632
2.4774902340000002,-0.9239999999999999,0.5334713999999999       -2.519484
2.4774902340000002,-0.0,-1.0669434      -2.519484
2.4774902340000002,0.9239999999999999,0.5334713999999999        -2.519484
-1.759863282,-0.0,-0.0  -3.142907
-2.985058596,-1.8479999999999999,-1.0669434     -0.625931
-2.985058596,0.0,2.1338862      -0.625931
-2.985058596,1.8479999999999999,-1.0669434      -0.625931
-3.9656249999999997,-1.8479999999999999,0.0     1.892092
-3.9656249999999997,-0.9239999999999999,-1.6004148      1.892092
-3.9656249999999997,-0.9239999999999999,1.6004148       1.892092
-3.9656249999999997,0.9239999999999999,-1.6004148       1.892092
-3.9656249999999997,0.9239999999999999,1.6004148        1.892092
-3.9656249999999997,1.8479999999999999,0.0      1.892092
15.103124999999999,-1.8479999999999999,1.0669434        2.515516
15.103124999999999,-0.0,-2.1338862      2.515516
15.103124999999999,1.8479999999999999,1.0669434 2.515516
2.1832031279999997,-1.8479999999999999,-1.0669434       -2.519484
2.1832031279999997,0.0,2.1338862        -2.519484
2.1832031279999997,1.8479999999999999,-1.0669434        -2.519484
-1.9394531279999998,-1.8479999999999999,-0.0    -3.142907
-1.9394531279999998,-0.9239999999999999,-1.6004148      -3.142907
-1.9394531279999998,-0.9239999999999999,1.6004148       -3.142907
-1.9394531279999998,0.9239999999999999,-1.6004148       -3.142907
-1.9394531279999998,0.9239999999999999,1.6004148        -3.142907
-1.9394531279999998,1.8479999999999999,-0.0     -3.142907
-5.7140625,-1.8479999999999999,2.1338862        -0.625931
-5.7140625,1.8479999999999999,2.1338862 -0.625931
-5.7140625,-2.772,0.5334713999999999    -0.625931
-5.7140625,2.772,0.5334713999999999     -0.625931
-5.7140625,-0.9239999999999999,-2.6673582000000002      -0.625931
-5.7140625,0.9239999999999999,-2.6673582000000002       -0.625931
3.6046875,-0.9239999999999999,-0.5334713999999999       4.409069
3.6046875,0.9239999999999999,-0.5334713999999999        4.409069
3.6046875,0.0,1.0669434 4.409069
-105.14999999999999,-0.0,-0.0   -5.030367
-105.14999999999999,0.0,0.0     5.039632
8.110546871999999,-1.8479999999999999,-2.1338862        2.515516
8.110546871999999,1.8479999999999999,-2.1338862 2.515516
8.110546871999999,-2.772,-0.5334713999999999    2.515516
8.110546871999999,2.772,-0.5334713999999999     2.515516
8.110546871999999,-0.9239999999999999,2.6673582000000002        2.515516
8.110546871999999,0.9239999999999999,2.6673582000000002 2.515516
11.4234375,-2.772,-1.6004148    0.004632
11.4234375,-2.772,1.6004148     0.004632
11.4234375,2.772,-1.6004148     0.004632
11.4234375,2.772,1.6004148      0.004632
11.4234375,-0.0,-3.2008296      0.004632
11.4234375,0.0,3.2008296        0.004632
28.846874999999997,-1.8479999999999999,2.1338862        -2.519484
28.846874999999997,1.8479999999999999,2.1338862 -2.519484
28.846874999999997,-2.772,0.5334713999999999    -2.519484
28.846874999999997,2.772,0.5334713999999999     -2.519484
28.846874999999997,-0.9239999999999999,-2.6673582000000002      -2.519484
28.846874999999997,0.9239999999999999,-2.6673582000000002       -2.519484
-87.52499999999999,-2.772,-1.6004148    1.892092
-87.52499999999999,-2.772,1.6004148     1.892092
-87.52499999999999,2.772,-1.6004148     1.892092
-87.52499999999999,2.772,1.6004148      1.892092
-87.52499999999999,-0.0,-3.2008296      1.892092
-87.52499999999999,0.0,3.2008296        1.892092
-70.64999999999999,-1.8479999999999999,1.0669434        4.409069
-70.64999999999999,-0.0,-2.1338862      4.409069
-70.64999999999999,1.8479999999999999,1.0669434 4.409069
-53.4,-1.8479999999999999,-0.0  -5.030367
-53.4,-0.9239999999999999,-1.6004148    -5.030367
-53.4,-0.9239999999999999,1.6004148     -5.030367
-53.4,0.9239999999999999,-1.6004148     -5.030367
-53.4,-1.8479999999999999,0.0   5.039632
-53.4,1.8479999999999999,-0.0   -5.030367
-53.4,0.9239999999999999,1.6004148      -5.030367
-53.4,-0.9239999999999999,-1.6004148    5.039632
-53.4,-0.9239999999999999,1.6004148     5.039632
-53.4,0.9239999999999999,-1.6004148     5.039632
-53.4,1.8479999999999999,0.0    5.039632
-53.4,0.9239999999999999,1.6004148      5.039632
-27.974999999999998,-0.9239999999999999,-0.5334713999999999     -5.660931
-27.974999999999998,0.0,1.0669434       -5.660931
-27.974999999999998,0.9239999999999999,-0.5334713999999999      -5.660931
0.5296875,-3.6959994,0.0        0.004632
0.5296875,-1.8479999999999999,-3.2008296        0.004632
0.5296875,-1.8479999999999999,3.2008296 0.004632
0.5296875,1.8479999999999999,-3.2008296 0.004632
0.5296875,3.6959994,0.0 0.004632
0.5296875,1.8479999999999999,3.2008296  0.004632
40.762499999999996,-2.772,1.6004148     -3.142907
40.762499999999996,-2.772,-1.6004148    -3.142907
40.762499999999996,2.772,-1.6004148     -3.142907
40.762499999999996,2.772,1.6004148      -3.142907
40.762499999999996,-0.0,-3.2008296      -3.142907
40.762499999999996,0.0,3.2008296        -3.142907
51.824999999999996,-3.6959994,-1.0669434        -0.625931
51.824999999999996,-2.772,-2.6673582000000002   -0.625931
51.824999999999996,-0.9239999999999999,3.734301 -0.625931
51.824999999999996,2.772,-2.6673582000000002    -0.625931
51.824999999999996,3.6959994,-1.0669434 -0.625931
51.824999999999996,0.9239999999999999,3.734301  -0.625931
0.718359372,-3.6959994,0.0      1.892092
0.718359372,-1.8479999999999999,-3.2008296      1.892092
0.718359372,-1.8479999999999999,3.2008296       1.892092
0.718359372,1.8479999999999999,-3.2008296       1.892092
0.718359372,3.6959994,0.0       1.892092
0.718359372,1.8479999999999999,3.2008296        1.892092
20.30625,-1.8479999999999999,-2.1338862 4.409069
20.30625,1.8479999999999999,-2.1338862  4.409069
20.30625,-2.772,-0.5334713999999999     4.409069
20.30625,2.772,-0.5334713999999999      4.409069
20.30625,-0.9239999999999999,2.6673582000000002 4.409069
20.30625,0.9239999999999999,2.6673582000000002  4.409069
97.44375,-1.8479999999999999,1.0669434  -5.660931
97.44375,-0.0,-2.1338862        -5.660931
97.44375,1.8479999999999999,1.0669434   -5.660931
0.20625,-3.6959994,1.0669434    2.515516
0.20625,-0.9239999999999999,-3.734301   2.515516
0.20625,-2.772,2.6673582000000002       2.515516
0.20625,0.9239999999999999,-3.734301    2.515516
0.20625,3.6959994,1.0669434     2.515516
0.20625,2.772,2.6673582000000002        2.515516
-56.512499999999996,-3.6959994,-1.0669434       -2.519484
-56.512499999999996,-2.772,-2.6673582000000002  -2.519484
-56.512499999999996,-0.9239999999999999,3.734301        -2.519484
-56.512499999999996,2.772,-2.6673582000000002   -2.519484
-56.512499999999996,0.9239999999999999,3.734301 -2.519484
-56.512499999999996,3.6959994,-1.0669434        -2.519484
-13.2421875,-3.6959994,-0.0     -3.142907
-13.2421875,-1.8479999999999999,-3.2008296      -3.142907
-13.2421875,-1.8479999999999999,3.2008296       -3.142907
-13.2421875,1.8479999999999999,-3.2008296       -3.142907
-13.2421875,1.8479999999999999,3.2008296        -3.142907
-13.2421875,3.6959994,-0.0      -3.142907
363.9,0.0,0.0   6.927092
193.95,-3.6959994,2.1338862     -0.625931
193.95,3.6959994,2.1338862      -0.625931
193.95,-0.0,-4.267773   -0.625931
-3.253125,-2.772,1.6004148      -5.030367
-3.253125,-2.772,-1.6004148     -5.030367
-3.253125,-2.772,1.6004148      5.039632
-3.253125,-2.772,-1.6004148     5.039632
-3.253125,2.772,-1.6004148      -5.030367
-3.253125,2.772,1.6004148       -5.030367
-3.253125,2.772,-1.6004148      5.039632
-3.253125,2.772,1.6004148       5.039632
-3.253125,-0.0,-3.2008296       -5.030367
-3.253125,0.0,3.2008296 -5.030367
-3.253125,-0.0,-3.2008296       5.039632
-3.253125,0.0,3.2008296 5.039632
55.0875,-1.8479999999999999,-2.1338862  -5.660931
55.0875,1.8479999999999999,-2.1338862   -5.660931
55.0875,-2.772,-0.5334713999999999      -5.660931
55.0875,2.772,-0.5334713999999999       -5.660931
55.0875,-0.9239999999999999,2.6673582000000002  -5.660931
55.0875,0.9239999999999999,2.6673582000000002   -5.660931
180.29999999999998,-3.6959994,-2.1338862        2.515516
180.29999999999998,3.6959994,-2.1338862 2.515516
180.29999999999998,0.0,4.267773 2.515516
-310.34999999999997,-3.6959994,2.1338862        -2.519484
-310.34999999999997,3.6959994,2.1338862 -2.519484
-310.34999999999997,-0.0,-4.267773      -2.519484
32.137499999999996,-1.8479999999999999,0.0      6.927092
32.137499999999996,-0.9239999999999999,-1.6004148       6.927092
32.137499999999996,-0.9239999999999999,1.6004148        6.927092
32.137499999999996,0.9239999999999999,-1.6004148        6.927092
32.137499999999996,0.9239999999999999,1.6004148 6.927092
32.137499999999996,1.8479999999999999,0.0       6.927092
-33.15,-0.9239999999999999,0.5334713999999999   7.550516
-33.15,0.0,-1.0669434   7.550516
-33.15,0.9239999999999999,0.5334713999999999    7.550516
9.31875,-0.9239999999999999,-0.5334713999999999 -7.554483
9.31875,0.9239999999999999,-0.5334713999999999  -7.554483
9.31875,-0.0,1.0669434  -7.554483
-74.925,-4.6199994,0.5334713999999999   -0.625931
-74.925,-2.772,3.734301 -0.625931
-74.925,-1.8479999999999999,-4.267773   -0.625931
-74.925,1.8479999999999999,-4.267773    -0.625931
-74.925,4.6199994,0.5334713999999999    -0.625931
-74.925,2.772,3.734301  -0.625931
-40.4625,-3.6959994,1.0669434   4.409069
-40.4625,-2.772,2.6673582000000002      4.409069
-40.4625,-0.9239999999999999,-3.734301  4.409069
-40.4625,0.9239999999999999,-3.734301   4.409069
-40.4625,2.772,2.6673582000000002       4.409069
-40.4625,3.6959994,1.0669434    4.409069
29.49375,-3.6959994,-0.0        -5.030367
29.49375,-1.8479999999999999,-3.2008296 -5.030367
29.49375,-1.8479999999999999,3.2008296  -5.030367
29.49375,-3.6959994,0.0 5.039632
29.49375,-1.8479999999999999,-3.2008296 5.039632
29.49375,1.8479999999999999,-3.2008296  -5.030367
29.49375,1.8479999999999999,3.2008296   -5.030367
29.49375,3.6959994,-0.0 -5.030367
29.49375,-1.8479999999999999,3.2008296  5.039632
29.49375,1.8479999999999999,-3.2008296  5.039632
29.49375,3.6959994,0.0  5.039632
29.49375,1.8479999999999999,3.2008296   5.039632
108.45,-4.6199994,-0.5334713999999999   2.515516
108.45,-2.772,-3.734301 2.515516
108.45,-1.8479999999999999,4.267773     2.515516
108.45,2.772,-3.734301  2.515516
108.45,4.6199994,-0.5334713999999999    2.515516
108.45,1.8479999999999999,4.267773      2.515516
-14.00625,-4.6199994,-1.6004148 0.004632
-14.00625,-4.6199994,1.6004148  0.004632
-14.00625,-3.6959994,-3.2008296 0.004632
-14.00625,-3.6959994,3.2008296  0.004632
-14.00625,-0.9239999999999999,-4.8012444        0.004632
-14.00625,0.9239999999999999,-4.8012444 0.004632
-14.00625,-0.9239999999999999,4.8012444 0.004632
-14.00625,3.6959994,-3.2008296  0.004632
-14.00625,0.9239999999999999,4.8012444  0.004632
-14.00625,4.6199994,-1.6004148  0.004632
-14.00625,4.6199994,1.6004148   0.004632
-14.00625,3.6959994,3.2008296   0.004632
-85.875,-4.6199994,0.5334713999999999   -2.519484
-85.875,-2.772,3.734301 -2.519484
-85.875,-1.8479999999999999,-4.267773   -2.519484
-85.875,1.8479999999999999,-4.267773    -2.519484
-85.875,4.6199994,0.5334713999999999    -2.519484
-85.875,2.772,3.734301  -2.519484
1819.2,-0.0,-0.0        -8.177907
-69.6,-1.8479999999999999,-1.0669434    7.550516
-69.6,0.0,2.1338862     7.550516
-69.6,1.8479999999999999,-1.0669434     7.550516
-362.09999999999997,-1.8479999999999999,1.0669434       -7.554483
-362.09999999999997,-0.0,-2.1338862     -7.554483
-362.09999999999997,1.8479999999999999,1.0669434        -7.554483
29.34375,-4.6199994,1.6004148   1.892092
29.34375,-4.6199994,-1.6004148  1.892092
29.34375,-3.6959994,-3.2008296  1.892092
29.34375,-3.6959994,3.2008296   1.892092
29.34375,-0.9239999999999999,-4.8012444 1.892092
29.34375,0.9239999999999999,-4.8012444  1.892092
29.34375,-0.9239999999999999,4.8012444  1.892092
29.34375,3.6959994,-3.2008296   1.892092
29.34375,0.9239999999999999,4.8012444   1.892092
29.34375,4.6199994,-1.6004148   1.892092
29.34375,4.6199994,1.6004148    1.892092
29.34375,3.6959994,3.2008296    1.892092
-303.0,-3.6959994,-2.1338862    4.409069
-303.0,3.6959994,-2.1338862     4.409069
-303.0,0.0,4.267773     4.409069
15.4921875,-3.6959994,1.0669434 -5.660931
15.4921875,-0.9239999999999999,-3.734301        -5.660931
15.4921875,-2.772,2.6673582000000002    -5.660931
15.4921875,0.9239999999999999,-3.734301 -5.660931
15.4921875,2.772,2.6673582000000002     -5.660931
15.4921875,3.6959994,1.0669434  -5.660931
-34.9125,-3.6959994,-3.2008296  -3.142907
-34.9125,-4.6199994,1.6004148   -3.142907
-34.9125,-4.6199994,-1.6004148  -3.142907
-34.9125,-3.6959994,3.2008296   -3.142907
-34.9125,-0.9239999999999999,-4.8012444 -3.142907
-34.9125,0.9239999999999999,-4.8012444  -3.142907
-34.9125,-0.9239999999999999,4.8012444  -3.142907
-34.9125,4.6199994,-1.6004148   -3.142907
-34.9125,3.6959994,-3.2008296   -3.142907
-34.9125,0.9239999999999999,4.8012444   -3.142907
-34.9125,4.6199994,1.6004148    -3.142907
-34.9125,3.6959994,3.2008296    -3.142907
39.24375,-2.772,-1.6004148      6.927092
39.24375,-2.772,1.6004148       6.927092
39.24375,2.772,-1.6004148       6.927092
39.24375,2.772,1.6004148        6.927092
39.24375,-0.0,-3.2008296        6.927092
39.24375,0.0,3.2008296  6.927092
-49.949999999999996,-1.8479999999999999,-0.0    -8.177907
-49.949999999999996,-0.9239999999999999,1.6004148       -8.177907
-49.949999999999996,-0.9239999999999999,-1.6004148      -8.177907
-49.949999999999996,0.9239999999999999,-1.6004148       -8.177907
-49.949999999999996,1.8479999999999999,-0.0     -8.177907
-49.949999999999996,0.9239999999999999,1.6004148        -8.177907
-54.543749999999996,-1.8479999999999999,2.1338862       7.550516
-54.543749999999996,1.8479999999999999,2.1338862        7.550516
-54.543749999999996,-2.772,0.5334713999999999   7.550516
-54.543749999999996,2.772,0.5334713999999999    7.550516
-54.543749999999996,-0.9239999999999999,-2.6673582000000002     7.550516
-54.543749999999996,0.9239999999999999,-2.6673582000000002      7.550516
-27.412499999999998,-1.8479999999999999,-2.1338862      -7.554483
-27.412499999999998,1.8479999999999999,-2.1338862       -7.554483
-27.412499999999998,-2.772,-0.5334713999999999  -7.554483
-27.412499999999998,2.772,-0.5334713999999999   -7.554483
-27.412499999999998,-0.9239999999999999,2.6673582000000002      -7.554483
-27.412499999999998,0.9239999999999999,2.6673582000000002       -7.554483
-300.15,0.0,5.3347158   -0.625931
-300.15,-4.6199994,-2.6673582000000002  -0.625931
-300.15,4.6199994,-2.6673582000000002   -0.625931
-161.85,-4.6199994,-0.5334713999999999  4.409069
-161.85,-2.772,-3.734301        4.409069
-161.85,-1.8479999999999999,4.267773    4.409069
-161.85,2.772,-3.734301 4.409069
-161.85,4.6199994,-0.5334713999999999   4.409069
-161.85,1.8479999999999999,4.267773     4.409069
186.225,-3.6959994,-2.1338862   -5.660931
186.225,3.6959994,-2.1338862    -5.660931
186.225,0.0,4.267773    -5.660931
352.2,-0.0,-5.3347158   2.515516
352.2,-4.6199994,2.6673582000000002     2.515516
352.2,4.6199994,2.6673582000000002      2.515516
-56.324999999999996,-5.5439994,-0.0     0.004632
-56.324999999999996,2.772,-4.8012444    0.004632
-56.324999999999996,-2.772,4.8012444    0.004632
-56.324999999999996,5.5439994,-0.0      0.004632
-56.324999999999996,-2.772,-4.8012444   0.004632
-56.324999999999996,2.772,4.8012444     0.004632
-231.45,0.0,5.3347158   -2.519484
-231.45,-4.6199994,-2.6673582000000002  -2.519484
-231.45,4.6199994,-2.6673582000000002   -2.519484
136.79999999999998,-3.6959994,0.0       6.927092
136.79999999999998,-1.8479999999999999,-3.2008296       6.927092
136.79999999999998,-1.8479999999999999,3.2008296        6.927092
136.79999999999998,1.8479999999999999,-3.2008296        6.927092
136.79999999999998,3.6959994,0.0        6.927092
136.79999999999998,1.8479999999999999,3.2008296 6.927092
127.125,-5.5439994,-1.0669434   -0.625931
127.125,-1.8479999999999999,5.3347158   -0.625931
127.125,-3.6959994,-4.267773    -0.625931
127.125,3.6959994,-4.267773     -0.625931
127.125,1.8479999999999999,5.3347158    -0.625931
127.125,5.5439994,-1.0669434    -0.625931
67.1625,-5.5439994,0.0  1.892092
67.1625,-2.772,-4.8012444       1.892092
67.1625,-2.772,4.8012444        1.892092
67.1625,2.772,-4.8012444        1.892092
67.1625,5.5439994,0.0   1.892092
67.1625,2.772,4.8012444 1.892092
-2.5921875,-4.6199994,1.6004148 -5.030367
-2.5921875,-4.6199994,-1.6004148        -5.030367
-2.5921875,-3.6959994,-3.2008296        -5.030367
-2.5921875,-3.6959994,3.2008296 -5.030367
-2.5921875,-4.6199994,1.6004148 5.039632
-2.5921875,0.9239999999999999,-4.8012444        -5.030367
-2.5921875,-0.9239999999999999,-4.8012444       -5.030367
-2.5921875,-4.6199994,-1.6004148        5.039632
-2.5921875,-3.6959994,-3.2008296        5.039632
-2.5921875,-0.9239999999999999,4.8012444        -5.030367
-2.5921875,0.9239999999999999,-4.8012444        5.039632
-2.5921875,-3.6959994,3.2008296 5.039632
-2.5921875,-0.9239999999999999,-4.8012444       5.039632
-2.5921875,3.6959994,-3.2008296 -5.030367
-2.5921875,0.9239999999999999,4.8012444 -5.030367
-2.5921875,4.6199994,-1.6004148 -5.030367
-2.5921875,4.6199994,1.6004148  -5.030367
-2.5921875,3.6959994,3.2008296  -5.030367
-2.5921875,-0.9239999999999999,4.8012444        5.039632
-2.5921875,3.6959994,-3.2008296 5.039632
-2.5921875,4.6199994,-1.6004148 5.039632
-2.5921875,0.9239999999999999,4.8012444 5.039632
-2.5921875,4.6199994,1.6004148  5.039632
-2.5921875,3.6959994,3.2008296  5.039632
-0.4125,-4.6199994,-0.5334713999999999  -5.660931
-0.4125,-2.772,-3.734301        -5.660931
-0.4125,-1.8479999999999999,4.267773    -5.660931
-0.4125,2.772,-3.734301 -5.660931
-0.4125,1.8479999999999999,4.267773     -5.660931
-0.4125,4.6199994,-0.5334713999999999   -5.660931
69.6,-0.9239999999999999,0.5334713999999999     9.444068
69.6,0.0,-1.0669434     9.444068
69.6,0.9239999999999999,0.5334713999999999      9.444068
30.787499999999998,-5.5439994,1.0669434 2.515516
30.787499999999998,-1.8479999999999999,-5.3347158       2.515516
30.787499999999998,1.8479999999999999,-5.3347158        2.515516
30.787499999999998,-3.6959994,4.267773  2.515516
30.787499999999998,5.5439994,1.0669434  2.515516
30.787499999999998,3.6959994,4.267773   2.515516
94.125,-5.5439994,-1.0669434    -2.519484
94.125,-1.8479999999999999,5.3347158    -2.519484
94.125,-3.6959994,-4.267773     -2.519484
94.125,3.6959994,-4.267773      -2.519484
94.125,5.5439994,-1.0669434     -2.519484
94.125,1.8479999999999999,5.3347158     -2.519484
131.775,-5.5439994,-0.0 -3.142907
131.775,-2.772,-4.8012444       -3.142907
131.775,-2.772,4.8012444        -3.142907
131.775,2.772,-4.8012444        -3.142907
131.775,5.5439994,-0.0  -3.142907
131.775,2.772,4.8012444 -3.142907
5.187304686,-2.772,-1.6004148   -8.177907
5.187304686,-2.772,1.6004148    -8.177907
5.187304686,2.772,1.6004148     -8.177907
5.187304686,2.772,-1.6004148    -8.177907
5.187304686,-0.0,-3.2008296     -8.177907
5.187304686,0.0,3.2008296       -8.177907
151.125,-2.772,-2.6673582000000002      7.550516
151.125,-3.6959994,-1.0669434   7.550516
151.125,-0.9239999999999999,3.734301    7.550516
151.125,2.772,-2.6673582000000002       7.550516
151.125,0.9239999999999999,3.734301     7.550516
151.125,3.6959994,-1.0669434    7.550516
-208.79999999999998,-2.772,2.6673582000000002   -7.554483
-208.79999999999998,-3.6959994,1.0669434        -7.554483
-208.79999999999998,-0.9239999999999999,-3.734301       -7.554483
-208.79999999999998,0.9239999999999999,-3.734301        -7.554483
-208.79999999999998,3.6959994,1.0669434 -7.554483
-208.79999999999998,2.772,2.6673582000000002    -7.554483
42.759375,-4.6199994,3.734301   -0.625931
42.759375,-5.5439994,2.1338862  -0.625931
42.759375,-0.9239999999999999,-5.868187799999999        -0.625931
42.759375,0.9239999999999999,-5.868187799999999 -0.625931
42.759375,5.5439994,2.1338862   -0.625931
42.759375,4.6199994,3.734301    -0.625931
-290.25,-0.0,-5.3347158 4.409069
-290.25,-4.6199994,2.6673582000000002   4.409069
-290.25,4.6199994,2.6673582000000002    4.409069

End of input

&SCF
Occupied
9
Iterations
   50  100
End of Input

&RASSCF
LumOrb
Symmetry
1
Spin
2
Nactel
1 0 0
CIRoot
9 9 1
inactive
9
ras2
9
End of Input

>>> COPY chromium_so_cf.JobIph $SLURM_SUBMIT_DIR/chromium_so_cf.doublet.JobIph

>>> COPY $SLURM_SUBMIT_DIR/chromium_so_cf.doublet.JobIph ./JOB002

&RASSI
NROFJobIph
1 All
SpinOrbit
End of Input

EOF

-- ----------------------------------

--- Start Module: seward at Wed Mar 26 11:43:02 2025 ---

()()()()()()()()()()()()()()()()()()()()()()()()()()()()()()()()()()()()()()()()()()()()()()()()()()

                                              &SEWARD

                                   only a single process is used
                       available to each process: 4.1 GB of memory, 1 thread?
                                            pid: 4149394
()()()()()()()()()()()()()()()()()()()()()()()()()()()()()()()()()()()()()()()()()()()()()()()()()()

 The speed of LIGHT in this CALCULATION =   137.03599917700001     
               SEWARD will generate:
                  Multipole Moment integrals up to order  2
                  Kinetic Energy integrals
                  Nuclear Attraction integrals (point charge)
                  One-Electron Hamiltonian integrals
                  Velocity integrals
                  Relativistic Douglas-Kroll-Hess integrals:
                    - Parametrization         : EXP
                    - DKH order of Hamiltonian: 2
                    - DKH order of Properties : 0
                         - multipole moment operators
                         - electric potential operators
                         - contact operators
                  External field from   414 point(s) added to the one-electron Hamiltonian
                  Orbital angular momentum around (-0.0000 -0.0000  0.0088 )
                  Velocity quadrupole around (-0.0000 -0.0000  0.0088 )
                  Atomic mean-field integrals
                  Two-Electron Repulsion integrals

                   Integrals are discarded if absolute value <: 0.10E-13
                   Integral cutoff threshold is set to       <: 0.10E-15

++    Symmetry information:
      ---------------------

                    Character Table for C1 

                             E  
                    a        1  x, y, xy, Rz, z, xz, Ry, yz, Rx, I
--


++    Basis set information:
      ----------------------


      Basis set label: CR.ANO-RCC.ROOS.21S15P10D6F4G2H.10S10P8D6F4G2H......

      Electronic valence basis set:
      ------------------
      Associated Effective Charge  24.000000 au
      Associated Actual Charge     24.000000 au
      Nuclear Model: Point charge

      Shell  nPrim  nBasis  Cartesian Spherical Contaminant
         s      21      10        X                  
         p      15      10        X                  
         d      10       8                 X         
         f       6       6                 X         
         g       4       4                 X         
         h       2       2                 X         
--


++    Molecular structure info:
      -------------------------

                    ************************************************ 
                    **** Cartesian Coordinates / Bohr, Angstrom **** 
                    ************************************************ 

     Center  Label                x              y              z                     x              y              z
        1      CR              -0.000000      -0.000000       0.008754             -0.000000      -0.000000       0.004632
--


++    Operator info:
      --------------


  Net charge from external field:   -39.268449999999902     
--


            Nuclear Potential Energy              0.00000000 au

                    Nuclear-External Field Potential Energy    -365.95837832 au
                    External Field Potential Energy            2676.06150231 au 


            Total Nuclear Potential Energy           -365.95837832 au


      Basis set specifications :
      Symmetry species         a  
      Basis functions          180

 Sorry, Molden does not know how to handle
 functions with angular momentum larger than g
Note: The following floating-point exceptions are signalling: IEEE_UNDERFLOW_FLAG IEEE_DENORMAL
--- Stop Module: seward at Wed Mar 26 11:43:10 2025 /rc=_RC_ALL_IS_WELL_ ---
*** files: chromium_so_cf.GssOrb xmldump
    saved to directory /home4/s4752295/Internship/Initial_simulations/Point_charge_model/1_electron/Madelung_charges_9_active_space/Cr
--- Module seward spent 8 seconds ---

*** symbolic link created: INPORB -> chromium_so_cf.GssOrb
--- Start Module: scf at Wed Mar 26 11:43:10 2025 ---

()()()()()()()()()()()()()()()()()()()()()()()()()()()()()()()()()()()()()()()()()()()()()()()()()()

                                                &SCF

                                   only a single process is used
                       available to each process: 4.1 GB of memory, 1 thread?
                                            pid: 4149397
()()()()()()()()()()()()()()()()()()()()()()()()()()()()()()()()()()()()()()()()()()()()()()()()()()

++    Input section:
      --------------

      Header of the integral files:
      
       Integrals generated by seward 4.2.0  , Wed Mar 26 11:43:02 2025


      Cartesian coordinates in Angstrom:
      -----------------------------------------------------
      No.  Label        X            Y            Z        
      -----------------------------------------------------
       1   CR        -0.00000000  -0.00000000   0.00463220
      -----------------------------------------------------
      Nuclear repulsion energy = -365.95837832
--

++    Orbital specifications:
      -----------------------

      Symmetry species               1
                                     a
      Frozen orbitals                0
      Occupied orbitals              9
      Secondary orbitals           171
      Deleted orbitals               0
      Total number of orbitals     180
      Number of basis functions    180
--

      Molecular charge                           6.000

++    Optimization specifications:
      ----------------------------

      SCF Algorithm: Conventional
      Minimized density differences are used
      Number of density matrices in core                5
      Maximum number of NDDO SCF iterations            50
      Maximum number of HF SCF iterations             100
      Threshold for SCF energy change            0.10E-08
      Threshold for density matrix               0.10E-03
      Threshold for Fock matrix                  0.15E-03
      Threshold for linear dependence            0.10E-08
      Threshold at which DIIS is turned on       0.15E+00
      Threshold at which QNR/C2DIIS is turned on 0.75E-01
      Threshold for Norm(delta) (QNR/C2DIIS)     0.20E-04
      DIIS extrapolation of the SCF procedure
      All orbitals punched on: SCFORB
--

      Detected guessorb starting orbitals                                             


++ Convergence information
                                   SCF        iterations: Energy and convergence statistics

Iter     Tot. SCF        One-elec.       Two-elec.     Energy      Max Dij or  Max Fij      DNorm      TNorm      AccCon     Time
         Energy          Energy          Energy        Change      Delta Norm                                                in Sec.

 The total and one-electron energies are shifted by a value of      1000. a.u.

   1  -131.094318044   -70.512602799   305.376663078   0.00E+00    0.19E+00*   0.13E+01*    0.60E+01   0.25E+03   None         1.
   2  -131.743208872    19.655996605   214.559172846  -0.65E+00*   0.25E+00*   0.31E+00*    0.55E+01   0.20E+03   EDIIS        1.
   3  -134.425363368   -89.203643934   320.736658889  -0.27E+01*   0.83E-01*   0.15E+00*    0.29E+01   0.25E+03   EDIIS        1.
   4  -137.828332305   -51.585376106   279.715422124  -0.34E+01*   0.14E+00*   0.67E-01*    0.29E+01   0.23E+03   EDIIS        1.
   5  -137.838941327   -51.321727809   279.441164806  -0.11E-01*   0.21E-01*   0.12E-01*    0.31E+00   0.23E+03   EDIIS        1.
   6  -137.839264883   -51.346164894   279.465278334  -0.32E-03*   0.26E-02*   0.44E-02*    0.18E-01   0.23E+03   c2DIIS       1.
   7  -137.839285499   -51.340644540   279.459737363  -0.21E-04*   0.36E-03*   0.55E-03*    0.41E-02   0.23E+03   QNRc2DIIS    1.
   8  -137.839286507   -51.341460957   279.460552773  -0.10E-05*   0.16E-03*   0.25E-03*    0.29E-03   0.23E+03   QNRc2DIIS    1.
   9  -137.839286602   -51.341245684   279.460337405  -0.95E-07*   0.84E-05    0.66E-05     0.50E-04   0.23E+03   QNRc2DIIS    1.
  10  -137.839286602   -51.341240881   279.460332602  -0.17E-09    0.48E-05    0.22E-05     0.32E-04   0.23E+03   QNRc2DIIS    1.

       Convergence after 10 Macro Iterations
--

 *****************************************************************************************************************************
 *                                                                                                                           *
 *                                             SCF/KS-DFT Program, Final results                                             *
 *                                                                                                                           *
 *                                                                                                                           *
 *                                                                                                                           *
 *                                                       Final Results                                                       *
 *                                                                                                                           *
 *****************************************************************************************************************************

::    Total SCF energy                              -1137.8392866022
      One-electron energy                           -1051.3412408813
      Two-electron energy                             279.4603326021
      Nuclear repulsion energy                       -365.9583783230
      Kinetic energy (interpolated)                  1057.9286993941
      Virial theorem                                    1.0755349460
      Total spin, S(S+1)                                0.0000000000
      Total spin, S                                     0.0000000000
      Max non-diagonal density matrix element           0.0000058372
      Max non-diagonal Fock matrix element              0.0000012941


      All orbitals with orbital energies smaller than  E(LUMO)+0.5 are printed

++    Molecular orbitals:
      -------------------

      Title: SCF orbitals

      Molecular orbitals for symmetry species 1: a  

          Orbital            1         2         3         4         5         6         7         8         9        10    
          Energy         -213.9133  -18.2561  -13.9302  -13.9301  -13.9025    5.7806    7.2705    7.2716    7.3994    7.4851
          Occ. No.          2.0000    2.0000    2.0000    2.0000    2.0000    2.0000    2.0000    2.0000    2.0000    0.0000

        1 CR     1s         1.0000    0.0001    0.0000   -0.0000    0.0001   -0.0000   -0.0000   -0.0000   -0.0000   -0.0000
        2 CR     2s        -0.0001    1.0000   -0.0000    0.0000   -0.0034    0.0046    0.0000   -0.0000    0.0000    0.0000
        3 CR     3s         0.0000   -0.0063    0.0000   -0.0000    0.0035    0.8804    0.0004   -0.0000    0.0024    0.0000
        4 CR     4s        -0.0000    0.0008   -0.0000    0.0000   -0.0004   -0.0373   -0.0002    0.0000    0.0706    0.0000
        5 CR     5s         0.0000   -0.0021    0.0000   -0.0000    0.0007    0.0532    0.0003   -0.0000    0.1840    0.0000
        6 CR     6s        -0.0000    0.0017   -0.0000    0.0000   -0.0003   -0.0233   -0.0001    0.0000    0.3267    0.0000
        7 CR     7s         0.0000   -0.0009    0.0000    0.0000   -0.0002   -0.0003   -0.0000    0.0000    0.5860    0.0000
        8 CR     8s        -0.0000    0.0005    0.0000   -0.0000    0.0003   -0.0017    0.0001    0.0000    0.6394    0.0000
        9 CR     9s         0.0000   -0.0003   -0.0000    0.0000   -0.0005    0.0002    0.0000    0.0000    0.1534    0.0000
       10 CR    10s        -0.0000    0.0000    0.0000   -0.0000    0.0002    0.0002    0.0000    0.0000    0.0168    0.0000
       11 CR     2px       -0.0001    0.0035   -0.0000   -0.0033    1.0000   -0.0006   -0.0000    0.0000   -0.0000   -0.0000
       12 CR     3px        0.0000    0.0024   -0.0000    0.0000   -0.0057    0.4625   -0.0014    0.0000   -0.0006   -0.0000
       13 CR     4px       -0.0000   -0.0005   -0.0000   -0.0000    0.0012   -0.0230   -0.0000   -0.0000    0.0143    0.0000
       14 CR     5px        0.0000    0.0006    0.0000    0.0000   -0.0022    0.0029   -0.0000   -0.0000    0.0096    0.0000
       15 CR     6px       -0.0000    0.0000    0.0000   -0.0000    0.0007    0.0127    0.0001   -0.0000    0.0045   -0.0000
       16 CR     7px        0.0000   -0.0004   -0.0000    0.0000   -0.0004   -0.0102   -0.0001   -0.0000   -0.0017   -0.0000
       17 CR     8px       -0.0000    0.0005    0.0000   -0.0000   -0.0000   -0.0051    0.0000   -0.0000   -0.0013   -0.0000
       18 CR     9px        0.0000   -0.0005    0.0000    0.0000    0.0003    0.0053    0.0001   -0.0000   -0.0015   -0.0000
       19 CR    10px       -0.0000    0.0004    0.0000    0.0000   -0.0002    0.0041    0.0000   -0.0000   -0.0013   -0.0000
       20 CR    11px        0.0001   -0.0001    0.0000   -0.0000    0.0001    0.0009    0.0000   -0.0000   -0.0003   -0.0000
       21 CR     2py       -0.0000   -0.0000    1.0000   -0.0000   -0.0000    0.0000    0.0000    0.0070   -0.0000   -0.0000
       22 CR     3py        0.0000    0.0000   -0.0074    0.0000    0.0000   -0.0000    0.0000    0.9375   -0.0000   -0.0051
       23 CR     4py       -0.0000   -0.0000    0.0018   -0.0000   -0.0000    0.0000   -0.0000   -0.0883   -0.0000    0.0842
       24 CR     5py        0.0000    0.0000   -0.0035    0.0000    0.0000    0.0000    0.0000    0.1047   -0.0000    0.1430
       25 CR     6py       -0.0000   -0.0000    0.0014   -0.0000   -0.0000    0.0000   -0.0000   -0.0067   -0.0000    0.5595
       26 CR     7py        0.0000    0.0000   -0.0015    0.0000    0.0000   -0.0000   -0.0000   -0.0026   -0.0000    0.4945
       27 CR     8py       -0.0000   -0.0000    0.0008   -0.0000   -0.0000    0.0000    0.0000    0.0018   -0.0000    0.5286
       28 CR     9py        0.0000    0.0000   -0.0004    0.0000    0.0000   -0.0000    0.0000    0.0049   -0.0000    0.3320
       29 CR    10py       -0.0000   -0.0000    0.0002   -0.0000   -0.0000   -0.0000    0.0000    0.0022   -0.0000    0.1297
       30 CR    11py        0.0000    0.0000   -0.0001    0.0000   -0.0000    0.0000    0.0000    0.0002   -0.0000    0.0203
       31 CR     2pz       -0.0000    0.0000    0.0000    1.0000    0.0033   -0.0000    0.0070   -0.0000   -0.0000   -0.0000
       32 CR     3pz        0.0000    0.0000   -0.0000   -0.0073   -0.0000    0.0003    0.9372   -0.0000   -0.0003    0.0000
       33 CR     4pz       -0.0000   -0.0000    0.0000    0.0018    0.0000   -0.0001   -0.0882    0.0000    0.0047   -0.0000
       34 CR     5pz        0.0000    0.0000   -0.0000   -0.0035   -0.0000    0.0001    0.1044   -0.0000    0.0078   -0.0000
       35 CR     6pz       -0.0000    0.0000    0.0000    0.0014    0.0000    0.0000   -0.0066    0.0000    0.0302   -0.0000
       36 CR     7pz        0.0000   -0.0000   -0.0000   -0.0015   -0.0000   -0.0000   -0.0026    0.0000    0.0267   -0.0000
       37 CR     8pz       -0.0000    0.0000    0.0000    0.0008    0.0000    0.0000    0.0017   -0.0000    0.0285   -0.0000
       38 CR     9pz        0.0000   -0.0000   -0.0000   -0.0004   -0.0000    0.0000    0.0050   -0.0000    0.0179   -0.0000
       39 CR    10pz       -0.0000    0.0000    0.0000    0.0002    0.0000    0.0000    0.0023   -0.0000    0.0070   -0.0000
       40 CR    11pz        0.0000   -0.0000   -0.0000   -0.0001   -0.0000    0.0000    0.0002   -0.0000    0.0011   -0.0000
       41 CR     3d2-       0.0000    0.0000    0.0011   -0.0000   -0.0000    0.0000    0.0000    0.2967   -0.0000   -0.0012
       42 CR     4d2-      -0.0000    0.0000   -0.0005    0.0000    0.0000   -0.0000   -0.0000   -0.0934    0.0000    0.0022
       43 CR     5d2-      -0.0000   -0.0000   -0.0001    0.0000    0.0000   -0.0000   -0.0000   -0.0280    0.0000   -0.0028
       44 CR     6d2-      -0.0000    0.0000    0.0010   -0.0000   -0.0000   -0.0000    0.0000    0.0226   -0.0000   -0.0173
       45 CR     7d2-       0.0000   -0.0000   -0.0009    0.0000    0.0000   -0.0000    0.0000    0.0102    0.0000   -0.0455
       46 CR     8d2-      -0.0000   -0.0000    0.0006   -0.0000   -0.0000    0.0000   -0.0000   -0.0093    0.0000   -0.0519
       47 CR     9d2-       0.0000    0.0000   -0.0003    0.0000    0.0000    0.0000   -0.0000   -0.0088    0.0000   -0.0308
       48 CR    10d2-      -0.0000    0.0000    0.0001   -0.0000   -0.0000   -0.0000   -0.0000   -0.0017    0.0000   -0.0078
       49 CR     3d1-      -0.0000    0.0000   -0.0000    0.0000    0.0000   -0.0000   -0.0000   -0.0102    0.0000    0.0022
       50 CR     4d1-       0.0000   -0.0000   -0.0000    0.0000   -0.0000    0.0000    0.0000    0.0024   -0.0000    0.0052
       51 CR     5d1-      -0.0000    0.0000    0.0000   -0.0000   -0.0000    0.0000    0.0000    0.0043   -0.0000    0.0070
       52 CR     6d1-      -0.0000   -0.0000   -0.0000    0.0000   -0.0000    0.0000   -0.0000   -0.0003   -0.0000    0.0081
       53 CR     7d1-       0.0000    0.0000    0.0000   -0.0000    0.0000   -0.0000   -0.0000   -0.0019   -0.0000    0.0167
       54 CR     8d1-      -0.0000   -0.0000   -0.0000    0.0000   -0.0000   -0.0000    0.0000    0.0002   -0.0000    0.0221
       55 CR     9d1-       0.0000    0.0000    0.0000   -0.0000    0.0000   -0.0000    0.0000    0.0022   -0.0000    0.0182
       56 CR    10d1-       0.0000   -0.0000   -0.0000    0.0000   -0.0000    0.0000    0.0000    0.0007   -0.0000    0.0056
       57 CR     3d0       -0.0000    0.0002    0.0000    0.0000   -0.0008   -0.0324    0.0092   -0.0000    0.0018    0.0000
       58 CR     4d0        0.0000   -0.0001    0.0000    0.0000    0.0006    0.0048   -0.0023    0.0000    0.0072    0.0000
       59 CR     5d0       -0.0000   -0.0001   -0.0000   -0.0000   -0.0002    0.0104   -0.0036    0.0000    0.0241    0.0000
       60 CR     6d0       -0.0000    0.0002    0.0000    0.0000   -0.0001   -0.0047    0.0003   -0.0000    0.0413    0.0000
       61 CR     7d0        0.0000   -0.0002   -0.0000   -0.0000    0.0002   -0.0036    0.0017   -0.0000    0.0795    0.0000
       62 CR     8d0       -0.0000    0.0001    0.0000    0.0000   -0.0002    0.0019   -0.0002    0.0000    0.0807    0.0000
       63 CR     9d0        0.0000   -0.0001   -0.0000   -0.0000    0.0001    0.0026   -0.0018    0.0000    0.0503    0.0000
       64 CR    10d0       -0.0000   -0.0000    0.0000    0.0000   -0.0000    0.0006   -0.0006    0.0000    0.0138    0.0000
       65 CR     3d1+       0.0000   -0.0000    0.0000    0.0011    0.0000   -0.0001    0.2976   -0.0000   -0.0001   -0.0000
       66 CR     4d1+      -0.0000    0.0000   -0.0000   -0.0005   -0.0000   -0.0000   -0.0935    0.0000    0.0001   -0.0000
       67 CR     5d1+       0.0000   -0.0000   -0.0000   -0.0001    0.0000    0.0000   -0.0283    0.0000   -0.0001    0.0000
       68 CR     6d1+       0.0000   -0.0000    0.0000    0.0010    0.0000    0.0000    0.0227   -0.0000   -0.0008    0.0000
       69 CR     7d1+      -0.0000    0.0000   -0.0000   -0.0009   -0.0000   -0.0000    0.0103   -0.0000   -0.0022    0.0000
       70 CR     8d1+       0.0000   -0.0000    0.0000    0.0006    0.0000   -0.0000   -0.0094    0.0000   -0.0026    0.0000
       71 CR     9d1+      -0.0000    0.0000   -0.0000   -0.0003   -0.0000    0.0000   -0.0090    0.0000   -0.0015    0.0000
       72 CR    10d1+       0.0000   -0.0000    0.0000    0.0001    0.0000    0.0000   -0.0017    0.0000   -0.0004    0.0000
       73 CR     3d2+       0.0000   -0.0003    0.0000   -0.0000    0.0014    0.0563    0.0048   -0.0000   -0.0035    0.0000
       74 CR     4d2+      -0.0000    0.0001    0.0000    0.0000   -0.0010   -0.0084   -0.0012    0.0000   -0.0131    0.0000
       75 CR     5d2+       0.0000    0.0001   -0.0000   -0.0000    0.0004   -0.0182   -0.0021    0.0000   -0.0424    0.0000
       76 CR     6d2+       0.0000   -0.0004    0.0000    0.0000    0.0002    0.0083    0.0002   -0.0000   -0.0723   -0.0000
       77 CR     7d2+      -0.0000    0.0003   -0.0000   -0.0000   -0.0004    0.0063    0.0010   -0.0000   -0.1394    0.0000
       78 CR     8d2+       0.0000   -0.0002    0.0000    0.0000    0.0003   -0.0033   -0.0001   -0.0000   -0.1422    0.0000
       79 CR     9d2+      -0.0000    0.0001   -0.0000   -0.0000   -0.0002   -0.0045   -0.0011    0.0000   -0.0891    0.0000
       80 CR    10d2+       0.0000    0.0000    0.0000    0.0000    0.0000   -0.0010   -0.0004    0.0000   -0.0245    0.0000
       81 CR     4f3-       0.0000   -0.0000    0.0000   -0.0000   -0.0000    0.0000    0.0000    0.0447   -0.0000   -0.0032
       82 CR     5f3-       0.0000    0.0000   -0.0000    0.0000    0.0000   -0.0000    0.0000    0.0050    0.0000   -0.0087
       83 CR     6f3-      -0.0000   -0.0000    0.0000   -0.0000   -0.0000   -0.0000   -0.0000   -0.0170    0.0000   -0.0116
       84 CR     7f3-       0.0000    0.0000   -0.0001    0.0000    0.0000   -0.0000   -0.0000    0.0000    0.0000   -0.0111
       85 CR     8f3-      -0.0000   -0.0000    0.0002   -0.0000   -0.0000    0.0000    0.0000    0.0051   -0.0000   -0.0082
       86 CR     9f3-       0.0000    0.0000   -0.0001    0.0000    0.0000    0.0000    0.0000    0.0039   -0.0000   -0.0075
       87 CR     4f2-      -0.0000   -0.0000   -0.0000    0.0000    0.0000   -0.0000   -0.0000   -0.0160    0.0000    0.0012
       88 CR     5f2-       0.0000    0.0000    0.0000   -0.0000   -0.0000    0.0000   -0.0000   -0.0049    0.0000    0.0020
       89 CR     6f2-      -0.0000   -0.0000   -0.0000    0.0000   -0.0000   -0.0000    0.0000    0.0066   -0.0000    0.0010
       90 CR     7f2-       0.0000   -0.0000    0.0000   -0.0000    0.0000    0.0000    0.0000    0.0015   -0.0000   -0.0011
       91 CR     8f2-      -0.0000    0.0000   -0.0000   -0.0000   -0.0000    0.0000   -0.0000   -0.0023    0.0000   -0.0022
       92 CR     9f2-       0.0000   -0.0000   -0.0000    0.0000    0.0000   -0.0000   -0.0000   -0.0028    0.0000   -0.0025
       93 CR     4f1-      -0.0000   -0.0000   -0.0000    0.0000   -0.0000    0.0000   -0.0000   -0.0115    0.0000    0.0008
       94 CR     5f1-       0.0000    0.0000    0.0000   -0.0000    0.0000    0.0000   -0.0000   -0.0013   -0.0000    0.0022
       95 CR     6f1-      -0.0000   -0.0000   -0.0000    0.0000    0.0000    0.0000    0.0000    0.0043   -0.0000    0.0030
       96 CR     7f1-       0.0000    0.0000    0.0000   -0.0000   -0.0000    0.0000   -0.0000   -0.0000   -0.0000    0.0029
       97 CR     8f1-      -0.0000   -0.0000   -0.0001    0.0000    0.0000   -0.0000   -0.0000   -0.0013    0.0000    0.0022
       98 CR     9f1-      -0.0000    0.0000    0.0000   -0.0000   -0.0000    0.0000   -0.0000   -0.0010   -0.0000    0.0020
       99 CR     4f0       -0.0000    0.0000   -0.0000   -0.0000    0.0000    0.0028   -0.0289    0.0000    0.0005   -0.0000
      100 CR     5f0        0.0000    0.0000    0.0000    0.0000   -0.0000    0.0003   -0.0033    0.0000    0.0045   -0.0000
      101 CR     6f0       -0.0000   -0.0000   -0.0000   -0.0000    0.0000   -0.0016    0.0110   -0.0000    0.0100   -0.0000
      102 CR     7f0        0.0000    0.0000    0.0000    0.0001    0.0000    0.0001    0.0000    0.0000    0.0087   -0.0000
      103 CR     8f0       -0.0000   -0.0000   -0.0000   -0.0001    0.0000    0.0007   -0.0033    0.0000   -0.0020   -0.0000
      104 CR     9f0        0.0000    0.0000    0.0000    0.0001    0.0000    0.0005   -0.0025    0.0000   -0.0085   -0.0000
      105 CR     4f1+      -0.0000    0.0000    0.0000    0.0000    0.0002   -0.0035    0.0122   -0.0000   -0.0005    0.0000
      106 CR     5f1+       0.0000    0.0000   -0.0000   -0.0000   -0.0001   -0.0001    0.0037   -0.0000   -0.0036    0.0000
      107 CR     6f1+      -0.0000   -0.0001    0.0000    0.0000    0.0000    0.0023   -0.0051    0.0000   -0.0094    0.0000
      108 CR     7f1+       0.0000    0.0001    0.0000    0.0000    0.0001   -0.0007   -0.0011    0.0000   -0.0141   -0.0000
      109 CR     8f1+      -0.0000   -0.0001    0.0000    0.0000   -0.0001   -0.0004    0.0018   -0.0000   -0.0115   -0.0000
      110 CR     9f1+       0.0000    0.0001    0.0000   -0.0000    0.0001   -0.0001    0.0021   -0.0000   -0.0098   -0.0000
      111 CR     4f2+      -0.0000    0.0000    0.0000    0.0000    0.0000    0.0022    0.0371   -0.0000    0.0001    0.0000
      112 CR     5f2+       0.0000   -0.0000   -0.0000   -0.0000   -0.0000    0.0002    0.0041   -0.0000    0.0028    0.0000
      113 CR     6f2+      -0.0000   -0.0000    0.0000    0.0000    0.0000   -0.0013   -0.0141    0.0000    0.0069    0.0000
      114 CR     7f2+       0.0000    0.0000   -0.0000   -0.0001    0.0000    0.0001    0.0001    0.0000    0.0059    0.0000
      115 CR     8f2+      -0.0000   -0.0000    0.0000    0.0002    0.0000    0.0006    0.0043   -0.0000   -0.0021    0.0000
      116 CR     9f2+       0.0000    0.0000   -0.0000   -0.0001   -0.0000    0.0004    0.0032   -0.0000   -0.0072    0.0000
      117 CR     4f3+       0.0000   -0.0000    0.0000    0.0000   -0.0002    0.0050    0.0098   -0.0000    0.0005    0.0000
      118 CR     5f3+      -0.0000   -0.0000   -0.0000   -0.0000    0.0001    0.0002    0.0030   -0.0000    0.0045    0.0000
      119 CR     6f3+       0.0000    0.0001    0.0000    0.0000   -0.0000   -0.0031   -0.0041    0.0000    0.0121    0.0000
      120 CR     7f3+      -0.0000   -0.0001    0.0000    0.0000   -0.0001    0.0009   -0.0009    0.0000    0.0183    0.0000
      121 CR     8f3+       0.0000    0.0002   -0.0000   -0.0000    0.0002    0.0006    0.0014   -0.0000    0.0150   -0.0000
      122 CR     9f3+      -0.0000   -0.0001    0.0000    0.0000   -0.0001    0.0001    0.0017   -0.0000    0.0129   -0.0000
      123 CR     5g4-       0.0000   -0.0000    0.0001   -0.0000   -0.0000    0.0000    0.0000    0.0134   -0.0000   -0.0005
      124 CR     6g4-       0.0000    0.0000   -0.0001    0.0000    0.0000   -0.0000    0.0000    0.0062   -0.0000   -0.0010
      125 CR     7g4-      -0.0000   -0.0000    0.0001   -0.0000   -0.0000   -0.0000   -0.0000   -0.0037    0.0000   -0.0006
      126 CR     8g4-       0.0000    0.0000   -0.0001    0.0000    0.0000   -0.0000   -0.0000   -0.0051    0.0000    0.0001
      127 CR     5g3-      -0.0000    0.0000   -0.0000    0.0000    0.0000    0.0000   -0.0000   -0.0131    0.0000    0.0001
      128 CR     6g3-      -0.0000   -0.0000    0.0000   -0.0000    0.0000   -0.0000   -0.0000   -0.0119    0.0000   -0.0009
      129 CR     7g3-       0.0000    0.0000   -0.0000    0.0000    0.0000   -0.0000    0.0000    0.0002    0.0000   -0.0026
      130 CR     8g3-       0.0000   -0.0000    0.0000   -0.0000    0.0000   -0.0000    0.0000    0.0055    0.0000   -0.0033
      131 CR     5g2-      -0.0000   -0.0000   -0.0000    0.0000    0.0000    0.0000   -0.0000   -0.0048    0.0000    0.0002
      132 CR     6g2-       0.0000    0.0000    0.0000   -0.0000   -0.0000    0.0000   -0.0000   -0.0022    0.0000    0.0004
      133 CR     7g2-      -0.0000   -0.0000   -0.0000    0.0000    0.0000    0.0000    0.0000    0.0014   -0.0000    0.0002
      134 CR     8g2-       0.0000    0.0000    0.0000   -0.0000   -0.0000    0.0000    0.0000    0.0018   -0.0000   -0.0001
      135 CR     5g1-       0.0000    0.0000    0.0000   -0.0000   -0.0000    0.0000    0.0000    0.0053   -0.0000   -0.0006
      136 CR     6g1-       0.0000    0.0000    0.0000   -0.0000   -0.0000   -0.0000    0.0000    0.0039   -0.0000   -0.0021
      137 CR     7g1-      -0.0000   -0.0000   -0.0000    0.0000    0.0000   -0.0000   -0.0000   -0.0015    0.0000   -0.0031
      138 CR     8g1-      -0.0000   -0.0000    0.0000   -0.0000    0.0000   -0.0000   -0.0000   -0.0032    0.0000   -0.0031
      139 CR     5g0        0.0000   -0.0000   -0.0000   -0.0000    0.0000   -0.0013   -0.0075    0.0000    0.0005    0.0000
      140 CR     6g0       -0.0000    0.0000    0.0000    0.0000   -0.0000   -0.0012   -0.0072    0.0000    0.0011    0.0000
      141 CR     7g0       -0.0000   -0.0000   -0.0000   -0.0000    0.0001    0.0002   -0.0006    0.0000    0.0008    0.0000
      142 CR     8g0        0.0000    0.0000    0.0000    0.0000   -0.0000    0.0007    0.0026   -0.0000    0.0001    0.0000
      143 CR     5g1+      -0.0000    0.0000   -0.0000   -0.0001    0.0000    0.0057   -0.0111    0.0000   -0.0004   -0.0000
      144 CR     6g1+       0.0000   -0.0000    0.0000    0.0001    0.0000    0.0039   -0.0053    0.0000   -0.0006   -0.0000
      145 CR     7g1+       0.0000    0.0000   -0.0000   -0.0001   -0.0000   -0.0011    0.0030   -0.0000    0.0001   -0.0000
      146 CR     8g1+       0.0000   -0.0000    0.0000    0.0000    0.0000   -0.0023    0.0042   -0.0000    0.0006    0.0000
      147 CR     5g2+      -0.0000    0.0000    0.0000    0.0000   -0.0000    0.0018    0.0071   -0.0000   -0.0008    0.0000
      148 CR     6g2+       0.0000   -0.0000    0.0000    0.0000    0.0001    0.0017    0.0057   -0.0000   -0.0019    0.0000
      149 CR     7g2+       0.0000    0.0000   -0.0000   -0.0000   -0.0001   -0.0003   -0.0013    0.0000   -0.0017    0.0000
      150 CR     8g2+      -0.0000   -0.0000    0.0000    0.0000    0.0000   -0.0010   -0.0037    0.0000   -0.0006    0.0000
      151 CR     5g3+      -0.0000    0.0000    0.0000    0.0001    0.0000    0.0067    0.0097   -0.0000   -0.0005    0.0000
      152 CR     6g3+       0.0000   -0.0000   -0.0000   -0.0001    0.0000    0.0045    0.0045   -0.0000   -0.0008    0.0000
      153 CR     7g3+       0.0000    0.0000    0.0000    0.0001   -0.0000   -0.0013   -0.0027    0.0000   -0.0000    0.0000
      154 CR     8g3+       0.0000   -0.0000   -0.0000   -0.0000    0.0000   -0.0026   -0.0036    0.0000    0.0007   -0.0000
      155 CR     5g4+       0.0000   -0.0001    0.0000    0.0000    0.0001   -0.0020    0.0095   -0.0000    0.0010    0.0000
      156 CR     6g4+      -0.0000    0.0000   -0.0000   -0.0000   -0.0001   -0.0020    0.0082   -0.0000    0.0024    0.0000
      157 CR     7g4+      -0.0000   -0.0000   -0.0000   -0.0000    0.0001    0.0003   -0.0007    0.0000    0.0021   -0.0000
      158 CR     8g4+       0.0000    0.0000   -0.0000   -0.0000   -0.0001    0.0012   -0.0043    0.0000    0.0007   -0.0000
      159 CR     6h5-      -0.0000   -0.0000   -0.0000    0.0000   -0.0000    0.0000    0.0000    0.0044   -0.0000   -0.0001
      160 CR     7h5-       0.0000    0.0000    0.0000   -0.0000    0.0000   -0.0000    0.0000    0.0041   -0.0000   -0.0001
      161 CR     6h4-      -0.0000   -0.0000    0.0000   -0.0000   -0.0000    0.0000   -0.0000   -0.0055    0.0000    0.0003
      162 CR     7h4-      -0.0000   -0.0000   -0.0000    0.0000    0.0000    0.0000   -0.0000   -0.0078    0.0000    0.0005
      163 CR     6h3-      -0.0000   -0.0000    0.0000   -0.0000   -0.0000    0.0000   -0.0000   -0.0020    0.0000    0.0000
      164 CR     7h3-       0.0000    0.0000   -0.0000    0.0000    0.0000   -0.0000   -0.0000   -0.0019    0.0000   -0.0000
      165 CR     6h2-       0.0000    0.0000    0.0000   -0.0000   -0.0000    0.0000    0.0000    0.0073   -0.0000   -0.0003
      166 CR     7h2-       0.0000    0.0000   -0.0000    0.0000    0.0000    0.0000    0.0000    0.0075   -0.0000   -0.0007
      167 CR     6h1-      -0.0000   -0.0000   -0.0000    0.0000   -0.0000    0.0000    0.0000    0.0001   -0.0000   -0.0000
      168 CR     7h1-       0.0000    0.0000    0.0000   -0.0000    0.0000   -0.0000    0.0000   -0.0000    0.0000   -0.0001
      169 CR     6h0        0.0000   -0.0000   -0.0000   -0.0000   -0.0000   -0.0048    0.0027   -0.0000    0.0001   -0.0000
      170 CR     7h0        0.0000   -0.0000    0.0000    0.0000    0.0000   -0.0045    0.0027   -0.0000   -0.0000   -0.0000
      171 CR     6h1+       0.0000   -0.0000    0.0000    0.0000   -0.0000   -0.0027   -0.0035    0.0000    0.0002   -0.0000
      172 CR     7h1+       0.0000   -0.0000   -0.0000   -0.0000    0.0000   -0.0027   -0.0054    0.0000    0.0004   -0.0000
      173 CR     6h2+      -0.0000    0.0000    0.0000    0.0000    0.0000    0.0028   -0.0030    0.0000   -0.0000   -0.0000
      174 CR     7h2+      -0.0000    0.0000   -0.0000   -0.0000   -0.0000    0.0026   -0.0029    0.0000    0.0000   -0.0000
      175 CR     6h3+      -0.0000    0.0000    0.0000    0.0000    0.0000    0.0027    0.0054   -0.0000   -0.0003    0.0000
      176 CR     7h3+      -0.0000    0.0000   -0.0000   -0.0000   -0.0000    0.0027    0.0052   -0.0000   -0.0005    0.0000
      177 CR     6h4+      -0.0000    0.0000   -0.0000   -0.0000    0.0000    0.0075    0.0029   -0.0000   -0.0001    0.0000
      178 CR     7h4+      -0.0000    0.0000    0.0000    0.0000    0.0000    0.0070    0.0027   -0.0000    0.0001    0.0000
      179 CR     6h5+       0.0000   -0.0000    0.0000    0.0000   -0.0000   -0.0035    0.0066   -0.0000    0.0003    0.0000
      180 CR     7h5+       0.0000   -0.0000    0.0000    0.0000    0.0000   -0.0035    0.0078   -0.0000    0.0005    0.0000

          Orbital           11    
          Energy            7.4853
          Occ. No.          0.0000

        1 CR     1s         0.0000
        2 CR     2s        -0.0000
        3 CR     3s        -0.0002
        4 CR     4s        -0.0037
        5 CR     5s        -0.0099
        6 CR     6s        -0.0176
        7 CR     7s        -0.0316
        8 CR     8s        -0.0345
        9 CR     9s        -0.0083
       10 CR    10s        -0.0009
       11 CR     2px        0.0000
       12 CR     3px        0.0001
       13 CR     4px       -0.0007
       14 CR     5px       -0.0005
       15 CR     6px        0.0001
       16 CR     7px        0.0004
       17 CR     8px        0.0004
       18 CR     9px        0.0003
       19 CR    10px        0.0001
       20 CR    11px        0.0000
       21 CR     2py       -0.0000
       22 CR     3py       -0.0000
       23 CR     4py        0.0000
       24 CR     5py        0.0000
       25 CR     6py        0.0000
       26 CR     7py        0.0000
       27 CR     8py        0.0000
       28 CR     9py        0.0000
       29 CR    10py        0.0000
       30 CR    11py        0.0000
       31 CR     2pz       -0.0000
       32 CR     3pz       -0.0051
       33 CR     4pz        0.0840
       34 CR     5pz        0.1428
       35 CR     6pz        0.5588
       36 CR     7pz        0.4939
       37 CR     8pz        0.5278
       38 CR     9pz        0.3315
       39 CR    10pz        0.1295
       40 CR    11pz        0.0202
       41 CR     3d2-      -0.0000
       42 CR     4d2-       0.0000
       43 CR     5d2-      -0.0000
       44 CR     6d2-      -0.0000
       45 CR     7d2-      -0.0000
       46 CR     8d2-      -0.0000
       47 CR     9d2-      -0.0000
       48 CR    10d2-      -0.0000
       49 CR     3d1-       0.0000
       50 CR     4d1-       0.0000
       51 CR     5d1-       0.0000
       52 CR     6d1-       0.0000
       53 CR     7d1-       0.0000
       54 CR     8d1-       0.0000
       55 CR     9d1-       0.0000
       56 CR    10d1-       0.0000
       57 CR     3d0       -0.0020
       58 CR     4d0       -0.0048
       59 CR     5d0       -0.0073
       60 CR     6d0       -0.0091
       61 CR     7d0       -0.0186
       62 CR     8d0       -0.0233
       63 CR     9d0       -0.0183
       64 CR    10d0       -0.0055
       65 CR     3d1+      -0.0012
       66 CR     4d1+       0.0021
       67 CR     5d1+      -0.0028
       68 CR     6d1+      -0.0173
       69 CR     7d1+      -0.0454
       70 CR     8d1+      -0.0518
       71 CR     9d1+      -0.0308
       72 CR    10d1+      -0.0078
       73 CR     3d2+      -0.0009
       74 CR     4d2+      -0.0018
       75 CR     5d2+      -0.0012
       76 CR     6d2+      -0.0000
       77 CR     7d2+      -0.0007
       78 CR     8d2+      -0.0033
       79 CR     9d2+      -0.0042
       80 CR    10d2+      -0.0015
       81 CR     4f3-      -0.0000
       82 CR     5f3-      -0.0000
       83 CR     6f3-      -0.0000
       84 CR     7f3-      -0.0000
       85 CR     8f3-      -0.0000
       86 CR     9f3-      -0.0000
       87 CR     4f2-       0.0000
       88 CR     5f2-       0.0000
       89 CR     6f2-       0.0000
       90 CR     7f2-      -0.0000
       91 CR     8f2-      -0.0000
       92 CR     9f2-      -0.0000
       93 CR     4f1-       0.0000
       94 CR     5f1-       0.0000
       95 CR     6f1-       0.0000
       96 CR     7f1-       0.0000
       97 CR     8f1-       0.0000
       98 CR     9f1-       0.0000
       99 CR     4f0        0.0020
      100 CR     5f0        0.0052
      101 CR     6f0        0.0067
      102 CR     7f0        0.0065
      103 CR     8f0        0.0053
      104 CR     9f0        0.0053
      105 CR     4f1+      -0.0009
      106 CR     5f1+      -0.0014
      107 CR     6f1+      -0.0002
      108 CR     7f1+       0.0017
      109 CR     8f1+       0.0024
      110 CR     9f1+       0.0026
      111 CR     4f2+      -0.0027
      112 CR     5f2+      -0.0072
      113 CR     6f2+      -0.0099
      114 CR     7f2+      -0.0094
      115 CR     8f2+      -0.0066
      116 CR     9f2+      -0.0058
      117 CR     4f3+      -0.0007
      118 CR     5f3+      -0.0015
      119 CR     6f3+      -0.0013
      120 CR     7f3+      -0.0003
      121 CR     8f3+       0.0005
      122 CR     9f3+       0.0009
      123 CR     5g4-      -0.0000
      124 CR     6g4-      -0.0000
      125 CR     7g4-      -0.0000
      126 CR     8g4-       0.0000
      127 CR     5g3-       0.0000
      128 CR     6g3-      -0.0000
      129 CR     7g3-      -0.0000
      130 CR     8g3-      -0.0000
      131 CR     5g2-       0.0000
      132 CR     6g2-       0.0000
      133 CR     7g2-       0.0000
      134 CR     8g2-      -0.0000
      135 CR     5g1-      -0.0000
      136 CR     6g1-      -0.0000
      137 CR     7g1-      -0.0000
      138 CR     8g1-      -0.0000
      139 CR     5g0       -0.0003
      140 CR     6g0       -0.0018
      141 CR     7g0       -0.0036
      142 CR     8g0       -0.0041
      143 CR     5g1+       0.0004
      144 CR     6g1+       0.0008
      145 CR     7g1+       0.0004
      146 CR     8g1+      -0.0002
      147 CR     5g2+      -0.0005
      148 CR     6g2+      -0.0013
      149 CR     7g2+      -0.0017
      150 CR     8g2+      -0.0017
      151 CR     5g3+      -0.0003
      152 CR     6g3+      -0.0006
      153 CR     7g3+      -0.0004
      154 CR     8g3+       0.0001
      155 CR     5g4+      -0.0003
      156 CR     6g4+      -0.0003
      157 CR     7g4+       0.0003
      158 CR     8g4+       0.0008
      159 CR     6h5-      -0.0000
      160 CR     7h5-      -0.0000
      161 CR     6h4-       0.0000
      162 CR     7h4-       0.0000
      163 CR     6h3-       0.0000
      164 CR     7h3-      -0.0000
      165 CR     6h2-      -0.0000
      166 CR     7h2-      -0.0000
      167 CR     6h1-      -0.0000
      168 CR     7h1-      -0.0000
      169 CR     6h0       -0.0000
      170 CR     7h0       -0.0000
      171 CR     6h1+       0.0001
      172 CR     7h1+       0.0002
      173 CR     6h2+       0.0001
      174 CR     7h2+       0.0002
      175 CR     6h3+      -0.0002
      176 CR     7h3+      -0.0005
      177 CR     6h4+      -0.0001
      178 CR     7h4+      -0.0000
      179 CR     6h5+      -0.0003
      180 CR     7h5+      -0.0006
--


++    Molecular charges:
      ------------------

      Mulliken charges per centre and basis function type
      ---------------------------------------------------

                CR    
      1s       2.0000
      2s       1.9999
      2px      1.9999
      2pz      1.9999
      2py      1.9999
      3s       1.5502
      3px      0.4279
      3pz      1.7567
      3py      1.7579
      4s       0.0128
      3d2+     0.0064
      3d1+     0.1771
      3d0      0.0023
      3d1-     0.0002
      3d2-     0.1760
      4px      0.0015
      4pz      0.0156
      4py      0.0156
      5s       0.0734
      4d2+     0.0005
      4d1+     0.0175
      4d0      0.0002
      4d1-     0.0000
      4d2-     0.0174
      5px      0.0002
      5pz      0.0219
      5py      0.0219
      6s       0.2146
      4f3+     0.0002
      4f2+     0.0028
      4f1+     0.0003
      4f0      0.0017
      4f1-     0.0003
      4f2-     0.0005
      4f3-     0.0040
      5d2+     0.0043
      5d1+     0.0016
      5d0      0.0014
      5d1-     0.0000
      5d2-     0.0016
      6px      0.0004
      6pz      0.0019
      6py      0.0001
      7s       0.6867
      5f3+     0.0001
      5f2+     0.0001
      5f1+     0.0001
      5f0      0.0001
      5f1-     0.0000
      5f2-     0.0000
      5f3-     0.0000
      6d2+     0.0106
      6d1+     0.0010
      6d0      0.0035
      6d1-     0.0000
      6d2-     0.0010
      7px      0.0002
      7pz      0.0014
      7py      0.0000
      5g4+     0.0002
      5g3+     0.0003
      5g2+     0.0001
      5g1+     0.0003
      5g0      0.0001
      5g1-     0.0001
      5g2-     0.0000
      5g3-     0.0003
      5g4-     0.0004
      6f3+     0.0003
      6f2+     0.0005
      6f1+     0.0002
      6f0      0.0004
      6f1-     0.0000
      6f2-     0.0001
      6f3-     0.0006
      6g4+     0.0002
      6g3+     0.0001
      6g2+     0.0001
      6g1+     0.0001
      6g0      0.0001
      6g1-     0.0000
      6g2-     0.0000
      6g3-     0.0003
      6g4-     0.0001
      6h5+     0.0001
      6h4+     0.0001
      6h3+     0.0001
      6h2+     0.0000
      6h1+     0.0000
      6h0      0.0001
      6h1-     0.0000
      6h2-     0.0001
      6h3-     0.0000
      6h4-     0.0001
      6h5-     0.0000
      7d2+     0.0390
      7d1+     0.0002
      7d0      0.0127
      7d1-     0.0000
      7d2-     0.0002
      7f3+     0.0007
      7f2+     0.0001
      7f1+     0.0004
      7f0      0.0002
      7f1-     0.0000
      7f2-     0.0000
      7f3-     0.0000
      7g4+     0.0000
      7g3+     0.0000
      7g2+     0.0000
      7g1+     0.0000
      7g0      0.0000
      7g1-     0.0000
      7g2-     0.0000
      7g3-     0.0000
      7g4-     0.0000
      7h5+     0.0001
      7h4+     0.0001
      7h3+     0.0001
      7h2+     0.0000
      7h1+     0.0001
      7h0      0.0001
      7h1-     0.0000
      7h2-     0.0001
      7h3-     0.0000
      7h4-     0.0001
      7h5-     0.0000
      8s       0.8177
      8px      0.0001
      8pz      0.0016
      8py      0.0000
      8d2+     0.0405
      8d1+     0.0002
      8d0      0.0130
      8d1-     0.0000
      8d2-     0.0002
      8f3+     0.0005
      8f2+     0.0000
      8f1+     0.0003
      8f0      0.0000
      8f1-     0.0000
      8f2-     0.0000
      8f3-     0.0001
      8g4+     0.0000
      8g3+     0.0000
      8g2+     0.0000
      8g1+     0.0000
      8g0      0.0000
      8g1-     0.0000
      8g2-     0.0000
      8g3-     0.0001
      8g4-     0.0001
      9s       0.0471
      9px      0.0001
      9pz      0.0007
      9py      0.0000
      9d2+     0.0159
      9d1+     0.0002
      9d0      0.0051
      9d1-     0.0000
      9d2-     0.0002
      9f3+     0.0003
      9f2+     0.0001
      9f1+     0.0002
      9f0      0.0002
      9f1-     0.0000
      9f2-     0.0000
      9f3-     0.0000
     10s       0.0006
     10px      0.0000
     10pz      0.0001
     10py      0.0000
     10d2+     0.0012
     10d1+     0.0000
     10d0      0.0004
     10d1-     0.0000
     10d2-     0.0000
     11px      0.0000
     11pz      0.0000
     11py      0.0000
      Total   18.0000

      N-E      6.0000

      Total electronic charge=   18.000000

      Total            charge=    6.000000
--

 Sorry, Molden does not know how to handle
 functions with angular momentum larger than g

++    Static properties:
      ------------------


      LoProp Charges per center


                   CR    
      Nuclear     24.0000
      Electronic -18.0000

      Total        6.0000
--


++    Molecular properties:
      ---------------------

      Charge (e):
                      =    6.0000
      Dipole Moment (Debye):
      Origin of the operator (Ang)=    0.0000    0.0000    0.0000
                   X= -4.7955E+00               Y=  5.3732E-12               Z= -3.2700E+00           Total=  5.8043E+00
      Center of Charge (Ang)
                     X=   -0.16639892               Y=    0.00000000               Z=   -0.11346453
      Quadrupole Moment (Debye*Ang):
      Origin of the operator (Ang)=   -0.0000   -0.0000    0.0046
                  XX= -8.3972E+01              XY= -5.2329E-13              XZ=  3.0555E-01              YY= -1.2038E+02
                  YZ=  7.2442E-13              ZZ= -1.2033E+02
      In traceless form (Debye*Ang)
                  XX=  3.6385E+01              XY= -7.8493E-13              XZ=  4.5832E-01              YY= -1.8233E+01
                  YZ=  1.0866E-12              ZZ= -1.8152E+01
--

 Sorry, Molden does not know how to handle
 functions with angular momentum larger than g
 ###############################################################################
 ###############################################################################
 ###                                                                         ###
 ###                                                                         ###
 ###    WARNING: RunFile label nBas                                          ###
 ###    was used       62 times                                              ###
 ###                                                                         ###
 ###                                                                         ###
 ###############################################################################
 ###############################################################################
Note: The following floating-point exceptions are signalling: IEEE_UNDERFLOW_FLAG IEEE_DENORMAL
--- Stop Module: scf at Wed Mar 26 11:43:20 2025 /rc=_RC_ALL_IS_WELL_ ---
*** files: chromium_so_cf.LprOrb chromium_so_cf.ScfOrb xmldump
    saved to directory /home4/s4752295/Internship/Initial_simulations/Point_charge_model/1_electron/Madelung_charges_9_active_space/Cr
--- Module scf spent 9 seconds ---

*** symbolic link created: INPORB -> chromium_so_cf.ScfOrb
--- Start Module: rasscf at Wed Mar 26 11:43:20 2025 ---

()()()()()()()()()()()()()()()()()()()()()()()()()()()()()()()()()()()()()()()()()()()()()()()()()()

                                              &RASSCF

                                   only a single process is used
                       available to each process: 4.1 GB of memory, 1 thread?
                                            pid: 4149408
()()()()()()()()()()()()()()()()()()()()()()()()()()()()()()()()()()()()()()()()()()()()()()()()()()


      Header of the ONEINT file:
      --------------------------
      
      Integrals generated by seward 4.2.0  , Wed Mar 26 11:43:02 2025


      OrdInt status: non-squared


      Cartesian coordinates in Angstrom:
      -----------------------------------------------------
      No.  Label        X            Y            Z        
      -----------------------------------------------------
       1   CR        -0.00000000  -0.00000000   0.00463220
      -----------------------------------------------------
      Nuclear repulsion energy = -365.95837832

++    Wave function specifications:
      -----------------------------

      Number of closed shell electrons          18
      Number of electrons in active shells       1
      Max number of holes in RAS1 space          0
      Max nr of electrons in RAS3 space          0
      Number of inactive orbitals                9
      Number of active orbitals                  9
      Number of secondary orbitals             162
      Spin quantum number                      0.5
      State symmetry                             1
--

++    Orbital specifications:
      -----------------------

      Symmetry species                           1
                                                 a
      Frozen orbitals                            0
      Inactive orbitals                          9
      Active orbitals                            9
      RAS1 orbitals                              0
      RAS2 orbitals                              9
      RAS3 orbitals                              0
      Secondary orbitals                       162
      Deleted orbitals                           0
      Number of basis functions                180
--

++    CI expansion specifications:
      ----------------------------

      Number of CSFs                             9
      Number of determinants                     9
      Number of root(s) required                 9
      Root chosen for geometry opt.              9
      CI roots used                              1     2     3     4     5     6     7     8     9
      weights                                0.111 0.111 0.111 0.111 0.111 0.111 0.111 0.111 0.111
      highest root included in the CI            9
      max. size of the explicit Hamiltonian      9
--

++    Optimization specifications:
      ----------------------------

      RASSCF algorithm: Conventional
      Maximum number of macro iterations       200
      Maximum number of SX iterations          100
      Threshold for RASSCF energy            0.100E-07
      Threshold for max MO rotation          0.100E+00
      Threshold for max BLB element          0.100E-03
      Level shift parameter                  0.500E+00
      Make Quasi-Newton update
--

      The MO-coefficients are taken from the file:
      INPORB                                                                                                                          
      Title: SCF orbitals                                                                  

      Total molecular charge    5.00

      ************************************************************************************************************************
      *                                                                                                                      *
      *                                            Wave function control section                                             *
      *                                                                                                                      *
      ************************************************************************************************************************


                                         RASSCF iterations: Energy and convergence statistics
                                         ----------------------------------------------------

      Iter CI   SX   CI       RASSCF       Energy    max ROT     max BLB   max BLB  Level Ln srch  Step   QN   Walltime
          iter iter root      energy       change     param      element    value   shift minimum  type update hh:mm:ss
 Nr of preliminary CI iterations:   1
      Total energies have been shifted. Add                -1000.00 au
        1   1    4    0  -129.07938372    0.00E+00  -0.26E-02    7  34 1 -0.21E-01*  0.34   0.00    SX    NO    0:00:03
        2   1    4    0  -129.07989493   -0.51E-03*  0.14E-02    5 171 1 -0.35E-02*  0.34   0.00    SX    NO    0:00:01
        3   1    3    0  -129.07990838   -0.13E-04* -0.13E-02    8  10 1 -0.13E-02*  0.34   0.00    SX    NO    0:00:01
        4   1    3    0  -129.07991523   -0.68E-05* -0.13E-02    8  10 1 -0.13E-02*  0.34   0.00    SX    NO    0:00:01
        5   1    3    0  -129.07992218   -0.69E-05* -0.20E-02    8  10 1 -0.13E-02*  0.34   2.50    LS   YES    0:00:01
        6   1    3    0  -129.07993278   -0.11E-04* -0.30E-02    8  10 1 -0.14E-02*  0.34   2.50    LS   YES    0:00:01
        7   1    3    0  -129.07994906   -0.16E-04*  0.65E-01    8  10 1 -0.14E-02*  0.34   2.50    QN   YES    0:00:01
        8   1    4    0  -129.07972620    0.22E-03*  0.57E-01    6  30 1  0.29E-02*  0.34  -0.50    LS   YES    0:00:01
        9   1    3    0  -129.07990890   -0.18E-03*  0.69E-01    8  10 1 -0.13E-02*  0.34   2.50    LS   YES    0:00:01
       10   1    4    0  -129.08028830   -0.38E-03*  0.61E-01    7  34 1  0.35E-02*  0.34   1.15    QN   YES    0:00:01
       11   1    4    0  -129.07968934    0.60E-03*  0.32E-01    7  11 1  0.78E-02*  0.34   0.18    LS   YES    0:00:01
       12   1    4    0  -129.08023943   -0.55E-03*  0.20E-01    7  34 1  0.45E-02*  0.34   1.65    LS   YES    0:00:01
       13   1    4    0  -129.08030358   -0.64E-04*  0.16E-02    7  34 1  0.37E-02*  0.34   0.95    QN   YES    0:00:01
       14   1    3    0  -129.08031544   -0.12E-04* -0.57E-03    7  21 1  0.44E-03*  0.34   1.07    QN   YES    0:00:01
       15   1    3    0  -129.08031592   -0.48E-06* -0.84E-03    9  11 1 -0.12E-03*  0.34   1.54    QN   YES    0:00:01
       16   1    3    0  -129.08031620   -0.28E-06*  0.12E-02    6  27 1 -0.13E-03*  0.34   1.89    QN   YES    0:00:01
       17   1    3    0  -129.08031648   -0.28E-06* -0.11E-02    7  21 1 -0.24E-03*  0.34   1.77    QN   YES    0:00:01
       18   1    3    0  -129.08031673   -0.24E-06* -0.11E-02    7  21 1 -0.22E-03*  0.34   1.86    QN   YES    0:00:01
       19   1    3    0  -129.08031698   -0.26E-06*  0.17E-02    7  11 1  0.12E-03*  0.34   2.02    QN   YES    0:00:01
       20   1    3    0  -129.08031736   -0.37E-06*  0.36E-02    6  12 1 -0.15E-03*  0.34   2.37    QN   YES    0:00:01
       21   1    3    0  -129.08031814   -0.79E-06*  0.87E-02    7  21 1  0.50E-03*  0.34   2.48    QN   YES    0:00:01
       22   1    4    0  -129.08032001   -0.19E-05*  0.18E-01    7  21 1  0.11E-02*  0.34   2.04    QN   YES    0:00:01
       23   1    4    0  -129.08032305   -0.30E-05* -0.47E-02    7  21 1  0.18E-02*  0.34   1.00    QN   YES    0:00:01
       24   1    3    0  -129.08032636   -0.33E-05* -0.80E-02    8  20 1 -0.16E-02*  0.34   2.50    QN   YES    0:00:01
       25   1    3    0  -129.08033352   -0.72E-05* -0.48E-02    6  30 1 -0.46E-03*  0.34   0.94    QN   YES    0:00:01
       26   1    3    0  -129.08033429   -0.77E-06* -0.45E-02    9  11 1  0.24E-03*  0.34   0.90    QN   YES    0:00:01
       27   1    3    0  -129.08033566   -0.14E-05* -0.47E-02    7  34 1  0.26E-03*  0.34   1.79    QN   YES    0:00:01
       28   1    3    0  -129.08033704   -0.14E-05* -0.40E-02    7  34 1  0.32E-03*  0.34   1.72    QN   YES    0:00:01
       29   1    3    0  -129.08033804   -0.10E-05* -0.33E-02    8  33 1 -0.18E-03*  0.34   1.67    QN   YES    0:00:01
[...]
         6   16       7.29835351E-04  1.87845764E+03  8.41452230E-12  2.34337064E+07  2.34355849E+07
         6   18       5.93692017E-04  3.17834948E+07  9.38575573E-16  5.78356347E+03  3.17892784E+07
         7   13       3.26862041E+00  2.60375359E-13  4.60721207E+10  1.65750968E-08  4.60721207E+10
         7   15       3.26371739E+00  7.44325581E+05  1.66365152E-08  4.60175498E+10  4.60182941E+10
         7   17       2.33520077E+00  6.82406595E+10  3.60400992E-14  2.36835356E+05  6.82408963E+10
         8   14       3.26862041E+00  2.60375359E-13  4.60721207E+10  1.65750968E-08  4.60721207E+10
         8   16       3.26371739E+00  7.44325581E+05  1.66365152E-08  4.60175498E+10  4.60182941E+10
         8   18       2.33520077E+00  6.82406595E+10  3.60400992E-14  2.36835356E+05  6.82408963E+10
         9   11       2.43177540E-05  1.75827610E-26  7.53099803E-01  5.03252899E-19  7.53099803E-01
         9   13       5.69535515E-02  1.59329333E-12  7.49439108E+08  8.24620983E-10  7.49439108E+08
         9   15       6.50144049E-02  4.16348985E+07  7.86191683E-10  8.14169340E+08  8.55804238E+08
         9   17       7.18444622E-01  9.15104318E+05  3.37291325E-09  2.00201165E+10  2.00210316E+10
        10   12       2.43177540E-05  1.75827610E-26  7.53099803E-01  5.03252899E-19  7.53099803E-01
        10   14       5.69535515E-02  1.59329333E-12  7.49439108E+08  8.24620983E-10  7.49439108E+08
        10   16       6.50144049E-02  4.16348985E+07  7.86191683E-10  8.14169340E+08  8.55804238E+08
        10   18       7.18444622E-01  9.15104318E+05  3.37291325E-09  2.00201165E+10  2.00210316E+10
        11   13       6.25110626E-02  4.03613424E+07  8.06520919E-10  7.79685929E+08  8.20047271E+08
        11   15       5.96979869E-02  1.29988908E-12  7.83413808E+08  7.96561032E-10  7.83413808E+08
        11   17       7.13552854E-01  5.61856790E-16  1.98428094E+10  3.38345536E-09  1.98428094E+10
        12   14       6.25110626E-02  4.03613424E+07  8.06520919E-10  7.79685929E+08  8.20047271E+08
        12   16       5.96979869E-02  1.29988908E-12  7.83413808E+08  7.96561032E-10  7.83413808E+08
        12   18       7.13552854E-01  5.61856790E-16  1.98428094E+10  3.38345536E-09  1.98428094E+10
        13   17       2.91276614E-02  2.64444324E-15  7.94380770E+07  2.83553850E-11  7.94380770E+07
        14   18       2.91276614E-02  2.64444324E-15  7.94380770E+07  2.83553850E-11  7.94380770E+07
        15   17       2.85851468E-02  4.26248118E+03  2.86612593E-11  7.78953854E+07  7.78996479E+07
        16   18       2.85851468E-02  4.26248118E+03  2.86612593E-11  7.78953854E+07  7.78996479E+07
     -----------------------------------------------------------------------------------------------
--

++ Velocity transition strengths (SO states):
   ------------------------------------------
    for osc. strength at least    1.0000000000000001E-005

      From   To        Osc. strength     Einstein coefficients Ax, Ay, Az (sec-1)    Total A (sec-1)
     -----------------------------------------------------------------------------------------------
         1    3       3.35288953E-03  2.96938078E-20  2.52318808E+02  2.13960232E-22  2.52318808E+02
         1    5       8.75887307E-05  2.88201685E-17  2.89111358E+06  8.08992378E-15  2.89111358E+06
         1    9       7.03665494E-04  1.39713134E-13  4.26329091E+07  2.27696937E-12  4.26329091E+07
         1   11       7.08628514E-04  3.88891250E+05  2.52520156E-12  4.26061246E+07  4.29950159E+07
         1   13       4.95657953E-04  6.45161572E+07  1.12561855E-15  2.69507424E+04  6.45431079E+07
         1   17       5.36865647E-04  4.40577164E-17  9.16076864E+07  2.46985510E-12  9.16076864E+07
         2    4       3.35288953E-03  2.96938078E-20  2.52318808E+02  2.13960232E-22  2.52318808E+02
         2    6       8.75887307E-05  2.88201685E-17  2.89111358E+06  8.08992378E-15  2.89111358E+06
         2   10       7.03665494E-04  1.39713134E-13  4.26329091E+07  2.27696937E-12  4.26329091E+07
         2   12       7.08628514E-04  3.88891250E+05  2.52520156E-12  4.26061246E+07  4.29950159E+07
         2   14       4.95657953E-04  6.45161572E+07  1.12561855E-15  2.69507424E+04  6.45431079E+07
         2   18       5.36865647E-04  4.40577164E-17  9.16076864E+07  2.46985510E-12  9.16076864E+07
         3    5       1.02711360E-05  1.24932278E+02  1.03864561E-13  3.37879892E+05  3.38004824E+05
         3    9       7.77081249E-04  4.32137127E+05  2.25865216E-12  4.65439209E+07  4.69760580E+07
         3   11       6.72169182E-04  1.44245949E-13  4.06921097E+07  2.84737460E-12  4.06921097E+07
         3   15       5.92865478E-04  7.66526068E+07  5.62182721E-14  4.39674901E+05  7.70922817E+07
         3   17       4.75801796E-04  6.24424337E+01  2.76134618E-12  8.10802396E+07  8.10803020E+07
         4    6       1.02711360E-05  1.24932278E+02  1.03864561E-13  3.37879892E+05  3.38004824E+05
         4   10       7.77081249E-04  4.32137127E+05  2.25865216E-12  4.65439209E+07  4.69760580E+07
         4   12       6.72169182E-04  1.44245949E-13  4.06921097E+07  2.84737460E-12  4.06921097E+07
         4   16       5.92865478E-04  7.66526068E+07  5.62182721E-14  4.39674901E+05  7.70922817E+07
         4   18       4.75801796E-04  6.24424337E+01  2.76134618E-12  8.10802396E+07  8.10803020E+07
         5    7       1.14623046E-05  4.18752645E+04  1.93762930E-18  1.26182887E+01  4.18878828E+04
         5   13       5.29096502E-04  1.10551381E-15  1.69860233E+07  6.41350209E-12  1.69860233E+07
         5   15       5.54313589E-04  8.40140513E+02  6.13329761E-12  1.77986653E+07  1.77995055E+07
         5   17       2.16641092E-04  1.15977116E+07  3.43484277E-16  2.39033144E+03  1.16001020E+07
         6    8       1.14623046E-05  4.18752645E+04  1.93762930E-18  1.26182887E+01  4.18878828E+04
         6   14       5.29096502E-04  1.10551381E-15  1.69860233E+07  6.41350209E-12  1.69860233E+07
         6   16       5.54313589E-04  8.40140513E+02  6.13329761E-12  1.77986653E+07  1.77995055E+07
         6   18       2.16641092E-04  1.15977116E+07  3.43484277E-16  2.39033144E+03  1.16001020E+07
         7    9       5.70495381E-04  6.70350278E-01  1.60352697E-15  9.18136334E+03  9.18203369E+03
         7   11       5.78461635E-04  1.55774468E-19  1.01449591E+04  1.63149165E-15  1.01449591E+04
         7   13       5.61371385E-04  6.19742293E-16  7.91271450E+06  2.70254878E-12  7.91271450E+06
         7   15       5.40261473E-04  2.33840039E+03  2.89720779E-12  7.61535480E+06  7.61769320E+06
         7   17       2.44283213E-04  7.13860770E+06  7.81726490E-17  3.47424234E+01  7.13864244E+06
         8   10       5.70495381E-04  6.70350278E-01  1.60352697E-15  9.18136334E+03  9.18203369E+03
         8   12       5.78461635E-04  1.55774468E-19  1.01449591E+04  1.63149165E-15  1.01449591E+04
         8   14       5.61371385E-04  6.19742293E-16  7.91271450E+06  2.70254878E-12  7.91271450E+06
         8   16       5.40261473E-04  2.33840039E+03  2.89720779E-12  7.61535480E+06  7.61769320E+06
         8   18       2.44283213E-04  7.13860770E+06  7.81726490E-17  3.47424234E+01  7.13864244E+06
         9   11       2.89939832E-05  2.78988163E-21  8.97921698E-01  7.32838803E-21  8.97921698E-01
         9   13       5.18696724E-03  1.54024794E-13  6.82543848E+07  7.01300015E-11  6.82543848E+07
         9   15       5.55081932E-03  4.67208286E+06  6.99638851E-11  6.83952815E+07  7.30673644E+07
         9   17       8.87889366E-04  5.87176704E+02  4.05822500E-12  2.47424790E+07  2.47430662E+07
        10   12       2.89939832E-05  2.78988163E-21  8.97921698E-01  7.32838803E-21  8.97921698E-01
        10   14       5.18696724E-03  1.54024794E-13  6.82543848E+07  7.01300015E-11  6.82543848E+07
        10   16       5.55081932E-03  4.67208286E+06  6.99638851E-11  6.83952815E+07  7.30673644E+07
        10   18       8.87889366E-04  5.87176704E+02  4.05822500E-12  2.47424790E+07  2.47430662E+07
        11   13       5.57082225E-03  4.81181419E+06  6.99629319E-11  6.82689060E+07  7.30807202E+07
        11   15       5.19576023E-03  1.83947510E-13  6.81839485E+07  6.99066920E-11  6.81839485E+07
        11   17       8.67955922E-04  4.58243423E-17  2.41366056E+07  4.18031711E-12  2.41366056E+07
        12   14       5.57082225E-03  4.81181419E+06  6.99629319E-11  6.82689060E+07  7.30807202E+07
        12   16       5.19576023E-03  1.83947510E-13  6.81839485E+07  6.99066920E-11  6.81839485E+07
        12   18       8.67955922E-04  4.58243423E-17  2.41366056E+07  4.18031711E-12  2.41366056E+07
        13   15       1.61631175E-03  4.77612284E-21  6.28500210E-01  2.14297678E-24  6.28500210E-01
        13   17       1.44698478E-02  8.71213286E-18  3.94628620E+07  1.42600163E-11  3.94628620E+07
        14   16       1.61631175E-03  4.77612284E-21  6.28500210E-01  2.14297678E-24  6.28500210E-01
        14   18       1.44698478E-02  8.71213286E-18  3.94628620E+07  1.42600163E-11  3.94628620E+07
        15   17       1.45014686E-02  3.80307719E+01  1.42114016E-11  3.95192002E+07  3.95192383E+07
        16   18       1.45014686E-02  3.80307719E+01  1.42114016E-11  3.95192002E+07  3.95192383E+07
     -----------------------------------------------------------------------------------------------
--

++ Length and velocity gauge comparison (SO states):

 --------------------------------------------------
 A comparison between the dipole oscillator strengths in 
 length and velocity gauge will be performed

 All dipole oscillator differences above the tolerance of   0.10000000000000001       will be printed 

 Due to basis set deficiency these oscillator may be problematic 

 The tolerance is defined as ABS(1-O_l/O_v) 
 O_l : dipole oscillator strength in length gauge
 O_p : dipole oscillator strength in velocity gauge
 --------------------------------------------------

  Problematic transitions have been found

      From   To       Difference (%) Osc. st. (len.) Osc. st. (vel.)
     ---------------------------------------------------------------
         1    3            99.649958  1.17365380E-05  3.35288953E-03
         1    5           964.513746  9.32394079E-04  8.75887307E-05
         1    7      ---------------  4.03717010E-02 below threshold
         1    9       1172369.632410  8.25026423E+00  7.03665494E-04
         1   11       1165969.772957  8.26310291E+00  7.08628514E-04
         1   13       1887829.757477  9.35767399E+00  4.95657953E-04
         1   15      ---------------  3.12120350E-02 below threshold
         1   17           799.631451  4.82981221E-03  5.36865647E-04
         2    4            99.649958  1.17365380E-05  3.35288953E-03
         2    6           964.513746  9.32394079E-04  8.75887307E-05
         2    8      ---------------  4.03717010E-02 below threshold
         2   10       1172369.632410  8.25026423E+00  7.03665494E-04
         2   12       1165969.772957  8.26310291E+00  7.08628514E-04
         2   14       1887829.757477  9.35767399E+00  4.95657953E-04
         2   16      ---------------  3.12120350E-02 below threshold
         2   18           799.631451  4.82981221E-03  5.36865647E-04
         3    5          3228.622045  3.41887296E-04  1.02711360E-05
         3    7      ---------------  8.25597739E-02 below threshold
         3    9       1067968.099633  8.29975692E+00  7.77081249E-04
         3   11       1250402.044111  8.40548936E+00  6.72169182E-04
         3   13      ---------------  2.17359759E-02 below threshold
         3   15       1597644.505778  9.47247561E+00  5.92865478E-04
         3   17          1944.809299  9.72923938E-03  4.75801796E-04
         4    6          3228.622045  3.41887296E-04  1.02711360E-05
         4    8      ---------------  8.25597739E-02 below threshold
         4   10       1067968.099633  8.29975692E+00  7.77081249E-04
         4   12       1250402.044111  8.40548936E+00  6.72169182E-04
         4   14      ---------------  2.17359759E-02 below threshold
         4   16       1597644.505778  9.47247561E+00  5.92865478E-04
         4   18          1944.809299  9.72923938E-03  4.75801796E-04
         5    7          1926.209212  2.32250271E-04  1.14623046E-05
         5   13            35.247907  7.15591943E-04  5.29096502E-04
         5   15            31.664705  7.29835351E-04  5.54313589E-04
         5   17           174.044048  5.93692017E-04  2.16641092E-04
         6    8          1926.209212  2.32250271E-04  1.14623046E-05
         6   14            35.247907  7.15591943E-04  5.29096502E-04
         6   16            31.664705  7.29835351E-04  5.54313589E-04
         6   18           174.044048  5.93692017E-04  2.16641092E-04
         7    9      --------------- below threshold  5.70495381E-04
         7   11      --------------- below threshold  5.78461635E-04
         7   13        582156.327378  3.26862041E+00  5.61371385E-04
         7   15        603999.599778  3.26371739E+00  5.40261473E-04
         7   17        955839.930549  2.33520077E+00  2.44283213E-04
         8   10      --------------- below threshold  5.70495381E-04
         8   12      --------------- below threshold  5.78461635E-04
         8   14        582156.327378  3.26862041E+00  5.61371385E-04
         8   16        603999.599778  3.26371739E+00  5.40261473E-04
         8   18        955839.930549  2.33520077E+00  2.44283213E-04
         9   11            16.128275  2.43177540E-05  2.89939832E-05
         9   13           998.012555  5.69535515E-02  5.18696724E-03
         9   15          1071.257812  6.50144049E-02  5.55081932E-03
         9   17         80816.007056  7.18444622E-01  8.87889366E-04
        10   12            16.128275  2.43177540E-05  2.89939832E-05
        10   14           998.012555  5.69535515E-02  5.18696724E-03
        10   16          1071.257812  6.50144049E-02  5.55081932E-03
        10   18         80816.007056  7.18444622E-01  8.87889366E-04
        11   13          1022.115547  6.25110626E-02  5.57082225E-03
        11   15          1048.975014  5.96979869E-02  5.19576023E-03
        11   17         82110.724736  7.13552854E-01  8.67955922E-04
        12   14          1022.115547  6.25110626E-02  5.57082225E-03
        12   16          1048.975014  5.96979869E-02  5.19576023E-03
        12   18         82110.724736  7.13552854E-01  8.67955922E-04
        13   15      --------------- below threshold  1.61631175E-03
        13   17           101.299017  2.91276614E-02  1.44698478E-02
        14   16      --------------- below threshold  1.61631175E-03
        14   18           101.299017  2.91276614E-02  1.44698478E-02
        15   17            97.118978  2.85851468E-02  1.45014686E-02
        16   18            97.118978  2.85851468E-02  1.45014686E-02
     ---------------------------------------------------------------

 Number of problematic transitions =                    68

--

 Electric-dipole - electric-octupole not included
++ Total transition strengths for the second-order expansion of the wave vector (SO states):
   -----------------------------------------------------------------------------------------
    for osc. strength at least    1.0000000000000001E-005

      From   To        Osc. strength
     -------------------------------
         1    7       5.47997242E-03
         1    9       2.27581640E-05
         1   11       2.48066169E-05
         1   13       2.50154573E-04
         1   15       7.11378312E-05
         1   17       7.82697181E-04
         2    8       5.47997242E-03
         2   10       2.27581640E-05
         2   12       2.48066169E-05
         2   14       2.50154573E-04
         2   16       7.11378312E-05
         2   18       7.82697181E-04
         3    7       5.52745267E-03
         3    9       1.72458425E-05
         3   11       6.08670456E-05
         3   13       6.67952719E-05
         3   15       2.95222347E-04
         3   17       7.91179643E-04
         4    8       5.52745267E-03
         4   10       1.72458425E-05
         4   12       6.08670456E-05
         4   14       6.67952719E-05
         4   16       2.95222347E-04
         4   18       7.91179643E-04
         9   13       1.12044535E-04
         9   15       1.12810327E-04
         9   17       1.16093525E-04
        10   14       1.12044535E-04
        10   16       1.12810327E-04
        10   18       1.16093525E-04
        11   13       1.12056316E-04
        11   15       1.11740811E-04
        11   17       1.15570182E-04
        12   14       1.12056316E-04
        12   16       1.11740811E-04
        12   18       1.15570182E-04
     -------------------------------
--

++ I/O STATISTICS
 
  I. General I/O information
  - - - - - - - - - - - - - - - - - - - - - - - - - - - - - - - - - - - - - - - - - - -
  Unit  Name          Flsize      Write/Read            MBytes           Write/Read
                      (MBytes)       Calls              In/Out           Time, sec.
  - - - - - - - - - - - - - - - - - - - - - - - - - - - - - - - - - - - - - - - - - - -
   1  SCRATCH           0.00 .       9/      45 .      0.0/      0.0 .       0/       0
   2  ANNI              0.00 .       0/       0 .      0.0/      0.0 .       0/       0
   3  RUNFILE          14.88 .     322/   10733 .      2.3/     77.8 .       0/       0
   4  ONEINT            5.58 .       0/   23543 .      0.0/   3739.9 .       0/       0
   5  JOBIPH            6.48 .       0/      92 .      0.0/      0.8 .       0/       0
   6  ORDINT          506.53 .       1/    4053 .      0.0/   1013.0 .       0/       0
  - - - - - - - - - - - - - - - - - - - - - - - - - - - - - - - - - - - - - - - - - - -
   *  TOTAL           533.47 .     332/   38466 .      2.3/   4831.6 .       0/       0
  - - - - - - - - - - - - - - - - - - - - - - - - - - - - - - - - - - - - - - - - - - -
 
  II. I/O Access Patterns
  - - - - - - - - - - - - - - - - - - - -
  Unit  Name               % of random
                         Write/Read calls
  - - - - - - - - - - - - - - - - - - - -
   1  SCRATCH             88.9/ 100.0
   2  ANNI                 0.0/   0.0
   3  RUNFILE             28.6/  10.8
   4  ONEINT               0.0/  16.4
   5  JOBIPH               0.0/  76.1
   6  ORDINT             100.0/   0.0
  - - - - - - - - - - - - - - - - - - - -
--
--- Stop Module: rassi at Wed Mar 26 11:44:46 2025 /rc=_RC_ALL_IS_WELL_ ---
*** files: xmldump
    saved to directory /home4/s4752295/Internship/Initial_simulations/Point_charge_model/1_electron/Madelung_charges_9_active_space/Cr
--- Module rassi spent 2 seconds ---

.##################.
.# Happy landing! #.
.##################.

    Timing: Wall=103.77 User=86.25 System=16.02

###############################################################################
Hbrk Cluster
Job 15905598 for user s4752295
Finished at: Wed Mar 26 11:44:50 CET 2025

Job details:
============

Job ID                         : 15905598
Name                           : Cr_no_SO
User                           : s4752295
Partition                      : regularmedium
Nodes                          : node101
Number of Nodes                : 1
Cores                          : 1
Number of Tasks                : 1
State                          : COMPLETED  
Submit                         : 2025-03-26T11:42:04
Start                          : 2025-03-26T11:42:58
End                            : 2025-03-26T11:44:46
Reserved walltime              : 15:00:00
Used walltime                  : 00:01:48
Used CPU time                  : 00:01:43 (Efficiency: 95.82%)
% User (Computation)           : 84.31%
% System (I/O)                 : 15.69%
Total memory reserved          : 25000M
Maximum memory used            : 2.03G

Acknowledgements:
=================

Please see this page for information about acknowledging Hbrk in your publications:

https://wiki.hpc.rug.nl/habrok/introduction/scientific_output

################################################################################
