   This run of MOLCAS is using the pymolcas driver

                             OPE
                             OPE          NMOL  CASOP  ENMOLC A   SO
                 OPE        NMOLC        AS  OP EN  MO LC     AS  OP
                OPENM       OL CA        SO  PE NM  OL CA     SOP EN
                OP EN      MO   LC       AS  OP ENMOL  CASO   PENMOL
                OP  EN     MO   LC       AS  OP EN     MO     LC ASO
               OP   E  NMOL  C  AS       OP  EN MO     LC     AS  OP
               OP  E   NMO   LC AS        OPEN  MO     LCASOP EN   M
               O  PEN   MO  LCA  SO
            OPE   NMO   L   CAS    OP
        OPENMOL  CASOP     ENMOL   CASOPE
     OPENMOLCA   SOPENMOLCASOPEN   MOLCASOPE
    OPENMOLCAS   OP           EN   MOL    CAS
    OPENMOLCAS       OP  ENM        O     LCA
    OPENMOLCAS    OPEN  MOLCASO     P  E  NMO
    OPENMOLCAS     OP               E  N  MOL
    OPENMOLCA   SO           PENM   O  L  CAS    OPEN    MO    LCAS
    OPENMOLCA   SOP           ENM   O  L  CAS   OP  EN  MOLC  AS   O
    OPENMOLCA   SOPE           NM      O  LCA   S      OP  EN MO
    OPENMOLC                AS         O  PEN   M      OL  CA  SOPE
    OPENMO        LCASOPE  NMOL        C  ASO   P      ENMOLC     AS
    OPE     NMO      LCA  SO     P     E   NM   OL  CA SO  PE N   MO
          OPENMOLCA            SOPE   NMO        LCAS  O    P  ENMO
     OPENMOLCASOPENMOLCASOPENMOLCASOPENMOLCA
        OPENMOLCASOPENMOLCASOPENMOLCASOPE
            OPENMOLCASOPENMOLCASOPENM
               OPENMOLCASOPENMOLCA        version: o91e1abe7de707b ?
                   OPENMOLCASO
                       OPE                tag:

 OpenMolcas is free software; you can redistribute it and/or modify it
 under the terms of the GNU Lesser General Public License version 2.1.
 OpenMolcas is distributed in the hope that it will be useful, but it
 is provided "as is" and without any express or implied warranties.
 For more details see the full text of the license in the file
 LICENSE or in <http://www.gnu.org/licenses/>.

                 Copyright (C) The OpenMolcas Authors
           For the author list and the recommended citation,
                   consult the file CONTRIBUTORS.md

           *************************************************
           * pymolcas version py2.10                       *
           *   build 3068ae8b88c9345ec6cfef6fef7f1169      *
           *   (after the EMIL interpreter by V. Veryazov) *
           *************************************************

configuration info
------------------
Host name: login1 (Linux)
C Compiler ID: GNU
C flags: -std=gnu99
Fortran Compiler ID: GNU
Fortran flags: -fno-aggressive-loop-optimizations -cpp -fdefault-integer-8 -fmax-stack-var-size=1048576
Definitions: _MOLCAS_;_I8_;_LINUX_;_MKL_
Parallel: OFF (GA=OFF)


   -----------------------------------------------------------------------------------------------------------------------------------
  |
  |           Project: chromium_so_cf
  |    Submitted from: /home4/s4752295/Internship/Initial_simulations/Point_charge_model/1_electron/Madelung_charges_9_active_space/Cr
  |      Scratch area: /tmp/chromium_so_cf
  |   Save outputs to: /home4/s4752295/Internship/Initial_simulations/Point_charge_model/1_electron/Madelung_charges_9_active_space/Cr
  |            Molcas: /home4/s4752295/Internship/Molcas/recomp_try/OpenMolcas-master/build
  |
  | Scratch area is empty
  |
  |    MOLCAS_DRIVER = /home4/s4752295/Internship/Molcas/bin/pymolcas
  |    MOLCAS_NPROCS = 1
  |    MOLCAS_SOURCE = /home4/s4752295/Internship/Molcas/recomp_try/OpenMolcas-master
  | MOLCAS_STRUCTURE = 0
  |
   -----------------------------------------------------------------------------------------------------------------------------------

++ ---------   Input file   ---------

&SEWARD
AMFi

CLIG
$R

Basis Set
Cr.ANO-rcc.Roos.21s15p10d6f4g2h.10s10p8d6f4g2h.
Spherical d
Cr            -1.0658140267135469e-14   -3.5527134223784897e-15 0.008753588724385739
End of Basis

Xfield

414
-5.202861404,-2.0020000000000002,1.1558547000000001     -0.625931
-5.202861404,-0.0,-2.3117107    -0.625931
-5.202861404,2.0020000000000002,1.1558547000000001      -0.625931
-5.193949891,0.0,0.0    1.892092
3.4569335970000004,-2.0020000000000002,-1.1558547000000001      2.515516
3.4569335970000004,0.0,2.3117107        2.515516
3.4569335970000004,2.0020000000000002,-1.1558547000000001       2.515516
4.631884764,-4.0040000000000004,0.0     0.004632
4.631884764,-2.0020000000000002,-3.4675654000000002     0.004632
4.631884764,-2.0020000000000002,3.4675654000000002      0.004632
4.631884764,2.0020000000000002,-3.4675654000000002      0.004632
4.631884764,2.0020000000000002,3.4675654000000002       0.004632
4.631884764,4.0040000000000004,0.0      0.004632
5.367895507000001,-2.0020000000000002,1.1558547000000001        -2.519484
5.367895507000001,-0.0,-2.3117107       -2.519484
5.367895507000001,2.0020000000000002,1.1558547000000001 -2.519484
-3.8130371110000003,-0.0,-0.0   -3.142907
-6.467626958,-4.0040000000000004,-2.3117107     -0.625931
-6.467626958,0.0,4.623420100000001      -0.625931
-6.467626958,4.0040000000000004,-2.3117107      -0.625931
-8.5921875,-4.0040000000000004,0.0      1.892092
-8.5921875,-2.0020000000000002,-3.4675654000000002      1.892092
-8.5921875,-2.0020000000000002,3.4675654000000002       1.892092
-8.5921875,2.0020000000000002,-3.4675654000000002       1.892092
-8.5921875,2.0020000000000002,3.4675654000000002        1.892092
-8.5921875,4.0040000000000004,0.0       1.892092
32.7234375,-4.0040000000000004,2.3117107        2.515516
32.7234375,-0.0,-4.623420100000001      2.515516
32.7234375,4.0040000000000004,2.3117107 2.515516
4.730273444,-4.0040000000000004,-2.3117107      -2.519484
4.730273444,0.0,4.623420100000001       -2.519484
4.730273444,4.0040000000000004,-2.3117107       -2.519484
-4.2021484440000005,-4.0040000000000004,-0.0    -3.142907
-4.2021484440000005,-2.0020000000000002,-3.4675654000000002     -3.142907
-4.2021484440000005,-2.0020000000000002,3.4675654000000002      -3.142907
-4.2021484440000005,2.0020000000000002,-3.4675654000000002      -3.142907
-4.2021484440000005,2.0020000000000002,3.4675654000000002       -3.142907
-4.2021484440000005,4.0040000000000004,-0.0     -3.142907
-12.38046875,-4.0040000000000004,4.623420100000001      -0.625931
-12.38046875,4.0040000000000004,4.623420100000001       -0.625931
-12.38046875,-6.006,1.1558547000000001  -0.625931
-12.38046875,6.006,1.1558547000000001   -0.625931
-12.38046875,-2.0020000000000002,-5.779276100000001     -0.625931
-12.38046875,2.0020000000000002,-5.779276100000001      -0.625931
7.81015625,-2.0020000000000002,-1.1558547000000001      4.409069
7.81015625,2.0020000000000002,-1.1558547000000001       4.409069
7.81015625,0.0,2.3117107        4.409069
-227.82500000000002,-0.0,-0.0   -5.030367
-227.82500000000002,0.0,0.0     5.039632
17.572851556,-4.0040000000000004,-4.623420100000001     2.515516
17.572851556,4.0040000000000004,-4.623420100000001      2.515516
17.572851556,-6.006,-1.1558547000000001 2.515516
17.572851556,6.006,-1.1558547000000001  2.515516
17.572851556,-2.0020000000000002,5.779276100000001      2.515516
17.572851556,2.0020000000000002,5.779276100000001       2.515516
24.75078125,-6.006,-3.4675654000000002  0.004632
24.75078125,-6.006,3.4675654000000002   0.004632
24.75078125,6.006,-3.4675654000000002   0.004632
24.75078125,6.006,3.4675654000000002    0.004632
24.75078125,-0.0,-6.9351308000000005    0.004632
24.75078125,0.0,6.9351308000000005      0.004632
62.501562500000006,-4.0040000000000004,4.623420100000001        -2.519484
62.501562500000006,4.0040000000000004,4.623420100000001 -2.519484
62.501562500000006,-6.006,1.1558547000000001    -2.519484
62.501562500000006,6.006,1.1558547000000001     -2.519484
62.501562500000006,-2.0020000000000002,-5.779276100000001       -2.519484
62.501562500000006,2.0020000000000002,-5.779276100000001        -2.519484
-189.63750000000002,-6.006,-3.4675654000000002  1.892092
-189.63750000000002,-6.006,3.4675654000000002   1.892092
-189.63750000000002,6.006,-3.4675654000000002   1.892092
-189.63750000000002,6.006,3.4675654000000002    1.892092
-189.63750000000002,-0.0,-6.9351308000000005    1.892092
-189.63750000000002,0.0,6.9351308000000005      1.892092
-153.07500000000002,-4.0040000000000004,2.3117107       4.409069
-153.07500000000002,-0.0,-4.623420100000001     4.409069
-153.07500000000002,4.0040000000000004,2.3117107        4.409069
-115.7,-4.0040000000000004,-0.0 -5.030367
-115.7,-2.0020000000000002,-3.4675654000000002  -5.030367
-115.7,-2.0020000000000002,3.4675654000000002   -5.030367
-115.7,2.0020000000000002,-3.4675654000000002   -5.030367
-115.7,-4.0040000000000004,0.0  5.039632
-115.7,4.0040000000000004,-0.0  -5.030367
-115.7,2.0020000000000002,3.4675654000000002    -5.030367
-115.7,-2.0020000000000002,-3.4675654000000002  5.039632
-115.7,-2.0020000000000002,3.4675654000000002   5.039632
-115.7,2.0020000000000002,-3.4675654000000002   5.039632
-115.7,4.0040000000000004,0.0   5.039632
-115.7,2.0020000000000002,3.4675654000000002    5.039632
-60.612500000000004,-2.0020000000000002,-1.1558547000000001     -5.660931
-60.612500000000004,0.0,2.3117107       -5.660931
-60.612500000000004,2.0020000000000002,-1.1558547000000001      -5.660931
1.14765625,-8.0079987,0.0       0.004632
1.14765625,-4.0040000000000004,-6.9351308000000005      0.004632
1.14765625,-4.0040000000000004,6.9351308000000005       0.004632
1.14765625,4.0040000000000004,-6.9351308000000005       0.004632
1.14765625,8.0079987,0.0        0.004632
1.14765625,4.0040000000000004,6.9351308000000005        0.004632
88.31875000000001,-6.006,3.4675654000000002     -3.142907
88.31875000000001,-6.006,-3.4675654000000002    -3.142907
88.31875000000001,6.006,-3.4675654000000002     -3.142907
88.31875000000001,6.006,3.4675654000000002      -3.142907
88.31875000000001,-0.0,-6.9351308000000005      -3.142907
88.31875000000001,0.0,6.9351308000000005        -3.142907
112.28750000000001,-8.0079987,-2.3117107        -0.625931
112.28750000000001,-6.006,-5.779276100000001    -0.625931
112.28750000000001,-2.0020000000000002,8.0909855        -0.625931
112.28750000000001,6.006,-5.779276100000001     -0.625931
112.28750000000001,8.0079987,-2.3117107 -0.625931
112.28750000000001,2.0020000000000002,8.0909855 -0.625931
1.556445306,-8.0079987,0.0      1.892092
1.556445306,-4.0040000000000004,-6.9351308000000005     1.892092
1.556445306,-4.0040000000000004,6.9351308000000005      1.892092
1.556445306,4.0040000000000004,-6.9351308000000005      1.892092
1.556445306,8.0079987,0.0       1.892092
1.556445306,4.0040000000000004,6.9351308000000005       1.892092
43.996875,-4.0040000000000004,-4.623420100000001        4.409069
43.996875,4.0040000000000004,-4.623420100000001 4.409069
43.996875,-6.006,-1.1558547000000001    4.409069
43.996875,6.006,-1.1558547000000001     4.409069
43.996875,-2.0020000000000002,5.779276100000001 4.409069
43.996875,2.0020000000000002,5.779276100000001  4.409069
211.128125,-4.0040000000000004,2.3117107        -5.660931
211.128125,-0.0,-4.623420100000001      -5.660931
211.128125,4.0040000000000004,2.3117107 -5.660931
0.446875,-8.0079987,2.3117107   2.515516
0.446875,-2.0020000000000002,-8.0909855 2.515516
0.446875,-6.006,5.779276100000001       2.515516
0.446875,2.0020000000000002,-8.0909855  2.515516
0.446875,8.0079987,2.3117107    2.515516
0.446875,6.006,5.779276100000001        2.515516
-122.44375000000001,-8.0079987,-2.3117107       -2.519484
-122.44375000000001,-6.006,-5.779276100000001   -2.519484
-122.44375000000001,-2.0020000000000002,8.0909855       -2.519484
-122.44375000000001,6.006,-5.779276100000001    -2.519484
-122.44375000000001,2.0020000000000002,8.0909855        -2.519484
-122.44375000000001,8.0079987,-2.3117107        -2.519484
-28.69140625,-8.0079987,-0.0    -3.142907
-28.69140625,-4.0040000000000004,-6.9351308000000005    -3.142907
-28.69140625,-4.0040000000000004,6.9351308000000005     -3.142907
-28.69140625,4.0040000000000004,-6.9351308000000005     -3.142907
-28.69140625,4.0040000000000004,6.9351308000000005      -3.142907
-28.69140625,8.0079987,-0.0     -3.142907
788.45,0.0,0.0  6.927092
420.225,-8.0079987,4.623420100000001    -0.625931
420.225,8.0079987,4.623420100000001     -0.625931
420.225,-0.0,-9.2468415 -0.625931
-7.0484375,-6.006,3.4675654000000002    -5.030367
-7.0484375,-6.006,-3.4675654000000002   -5.030367
-7.0484375,-6.006,3.4675654000000002    5.039632
-7.0484375,-6.006,-3.4675654000000002   5.039632
-7.0484375,6.006,-3.4675654000000002    -5.030367
-7.0484375,6.006,3.4675654000000002     -5.030367
-7.0484375,6.006,-3.4675654000000002    5.039632
-7.0484375,6.006,3.4675654000000002     5.039632
-7.0484375,-0.0,-6.9351308000000005     -5.030367
-7.0484375,0.0,6.9351308000000005       -5.030367
-7.0484375,-0.0,-6.9351308000000005     5.039632
-7.0484375,0.0,6.9351308000000005       5.039632
119.35625,-4.0040000000000004,-4.623420100000001        -5.660931
119.35625,4.0040000000000004,-4.623420100000001 -5.660931
119.35625,-6.006,-1.1558547000000001    -5.660931
119.35625,6.006,-1.1558547000000001     -5.660931
119.35625,-2.0020000000000002,5.779276100000001 -5.660931
119.35625,2.0020000000000002,5.779276100000001  -5.660931
390.65000000000003,-8.0079987,-4.623420100000001        2.515516
390.65000000000003,8.0079987,-4.623420100000001 2.515516
390.65000000000003,0.0,9.2468415        2.515516
-672.4250000000001,-8.0079987,4.623420100000001 -2.519484
-672.4250000000001,8.0079987,4.623420100000001  -2.519484
-672.4250000000001,-0.0,-9.2468415      -2.519484
69.63125000000001,-4.0040000000000004,0.0       6.927092
69.63125000000001,-2.0020000000000002,-3.4675654000000002       6.927092
69.63125000000001,-2.0020000000000002,3.4675654000000002        6.927092
69.63125000000001,2.0020000000000002,-3.4675654000000002        6.927092
69.63125000000001,2.0020000000000002,3.4675654000000002 6.927092
69.63125000000001,4.0040000000000004,0.0        6.927092
-71.825,-2.0020000000000002,1.1558547000000001  7.550516
-71.825,0.0,-2.3117107  7.550516
-71.825,2.0020000000000002,1.1558547000000001   7.550516
20.190625,-2.0020000000000002,-1.1558547000000001       -7.554483
20.190625,2.0020000000000002,-1.1558547000000001        -7.554483
20.190625,-0.0,2.3117107        -7.554483
-162.3375,-10.0099987,1.1558547000000001        -0.625931
-162.3375,-6.006,8.0909855      -0.625931
-162.3375,-4.0040000000000004,-9.2468415        -0.625931
-162.3375,4.0040000000000004,-9.2468415 -0.625931
-162.3375,10.0099987,1.1558547000000001 -0.625931
-162.3375,6.006,8.0909855       -0.625931
-87.66875,-8.0079987,2.3117107  4.409069
-87.66875,-6.006,5.779276100000001      4.409069
-87.66875,-2.0020000000000002,-8.0909855        4.409069
-87.66875,2.0020000000000002,-8.0909855 4.409069
-87.66875,6.006,5.779276100000001       4.409069
-87.66875,8.0079987,2.3117107   4.409069
63.903125,-8.0079987,-0.0       -5.030367
63.903125,-4.0040000000000004,-6.9351308000000005       -5.030367
63.903125,-4.0040000000000004,6.9351308000000005        -5.030367
63.903125,-8.0079987,0.0        5.039632
63.903125,-4.0040000000000004,-6.9351308000000005       5.039632
63.903125,4.0040000000000004,-6.9351308000000005        -5.030367
63.903125,4.0040000000000004,6.9351308000000005 -5.030367
63.903125,8.0079987,-0.0        -5.030367
63.903125,-4.0040000000000004,6.9351308000000005        5.039632
63.903125,4.0040000000000004,-6.9351308000000005        5.039632
63.903125,8.0079987,0.0 5.039632
63.903125,4.0040000000000004,6.9351308000000005 5.039632
234.975,-10.0099987,-1.1558547000000001 2.515516
234.975,-6.006,-8.0909855       2.515516
234.975,-4.0040000000000004,9.2468415   2.515516
234.975,6.006,-8.0909855        2.515516
234.975,10.0099987,-1.1558547000000001  2.515516
234.975,4.0040000000000004,9.2468415    2.515516
-30.346875,-10.0099987,-3.4675654000000002      0.004632
-30.346875,-10.0099987,3.4675654000000002       0.004632
-30.346875,-8.0079987,-6.9351308000000005       0.004632
-30.346875,-8.0079987,6.9351308000000005        0.004632
-30.346875,-2.0020000000000002,-10.402696200000001      0.004632
-30.346875,2.0020000000000002,-10.402696200000001       0.004632
-30.346875,-2.0020000000000002,10.402696200000001       0.004632
-30.346875,8.0079987,-6.9351308000000005        0.004632
-30.346875,2.0020000000000002,10.402696200000001        0.004632
-30.346875,10.0099987,-3.4675654000000002       0.004632
-30.346875,10.0099987,3.4675654000000002        0.004632
-30.346875,8.0079987,6.9351308000000005 0.004632
-186.0625,-10.0099987,1.1558547000000001        -2.519484
-186.0625,-6.006,8.0909855      -2.519484
-186.0625,-4.0040000000000004,-9.2468415        -2.519484
-186.0625,4.0040000000000004,-9.2468415 -2.519484
-186.0625,10.0099987,1.1558547000000001 -2.519484
-186.0625,6.006,8.0909855       -2.519484
3941.6,-0.0,-0.0        -8.177907
-150.8,-4.0040000000000004,-2.3117107   7.550516
-150.8,0.0,4.623420100000001    7.550516
-150.8,4.0040000000000004,-2.3117107    7.550516
-784.5500000000001,-4.0040000000000004,2.3117107        -7.554483
-784.5500000000001,-0.0,-4.623420100000001      -7.554483
-784.5500000000001,4.0040000000000004,2.3117107 -7.554483
63.578125,-10.0099987,3.4675654000000002        1.892092
63.578125,-10.0099987,-3.4675654000000002       1.892092
63.578125,-8.0079987,-6.9351308000000005        1.892092
63.578125,-8.0079987,6.9351308000000005 1.892092
63.578125,-2.0020000000000002,-10.402696200000001       1.892092
63.578125,2.0020000000000002,-10.402696200000001        1.892092
63.578125,-2.0020000000000002,10.402696200000001        1.892092
63.578125,8.0079987,-6.9351308000000005 1.892092
63.578125,2.0020000000000002,10.402696200000001 1.892092
63.578125,10.0099987,-3.4675654000000002        1.892092
63.578125,10.0099987,3.4675654000000002 1.892092
63.578125,8.0079987,6.9351308000000005  1.892092
-656.5,-8.0079987,-4.623420100000001    4.409069
-656.5,8.0079987,-4.623420100000001     4.409069
-656.5,0.0,9.2468415    4.409069
33.56640625,-8.0079987,2.3117107        -5.660931
33.56640625,-2.0020000000000002,-8.0909855      -5.660931
33.56640625,-6.006,5.779276100000001    -5.660931
33.56640625,2.0020000000000002,-8.0909855       -5.660931
33.56640625,6.006,5.779276100000001     -5.660931
33.56640625,8.0079987,2.3117107 -5.660931
-75.64375,-8.0079987,-6.9351308000000005        -3.142907
-75.64375,-10.0099987,3.4675654000000002        -3.142907
-75.64375,-10.0099987,-3.4675654000000002       -3.142907
-75.64375,-8.0079987,6.9351308000000005 -3.142907
-75.64375,-2.0020000000000002,-10.402696200000001       -3.142907
-75.64375,2.0020000000000002,-10.402696200000001        -3.142907
-75.64375,-2.0020000000000002,10.402696200000001        -3.142907
-75.64375,10.0099987,-3.4675654000000002        -3.142907
-75.64375,8.0079987,-6.9351308000000005 -3.142907
-75.64375,2.0020000000000002,10.402696200000001 -3.142907
-75.64375,10.0099987,3.4675654000000002 -3.142907
-75.64375,8.0079987,6.9351308000000005  -3.142907
85.028125,-6.006,-3.4675654000000002    6.927092
85.028125,-6.006,3.4675654000000002     6.927092
85.028125,6.006,-3.4675654000000002     6.927092
85.028125,6.006,3.4675654000000002      6.927092
85.028125,-0.0,-6.9351308000000005      6.927092
85.028125,0.0,6.9351308000000005        6.927092
-108.22500000000001,-4.0040000000000004,-0.0    -8.177907
-108.22500000000001,-2.0020000000000002,3.4675654000000002      -8.177907
-108.22500000000001,-2.0020000000000002,-3.4675654000000002     -8.177907
-108.22500000000001,2.0020000000000002,-3.4675654000000002      -8.177907
-108.22500000000001,4.0040000000000004,-0.0     -8.177907
-108.22500000000001,2.0020000000000002,3.4675654000000002       -8.177907
-118.17812500000001,-4.0040000000000004,4.623420100000001       7.550516
-118.17812500000001,4.0040000000000004,4.623420100000001        7.550516
-118.17812500000001,-6.006,1.1558547000000001   7.550516
-118.17812500000001,6.006,1.1558547000000001    7.550516
-118.17812500000001,-2.0020000000000002,-5.779276100000001      7.550516
-118.17812500000001,2.0020000000000002,-5.779276100000001       7.550516
-59.393750000000004,-4.0040000000000004,-4.623420100000001      -7.554483
-59.393750000000004,4.0040000000000004,-4.623420100000001       -7.554483
-59.393750000000004,-6.006,-1.1558547000000001  -7.554483
-59.393750000000004,6.006,-1.1558547000000001   -7.554483
-59.393750000000004,-2.0020000000000002,5.779276100000001       -7.554483
-59.393750000000004,2.0020000000000002,5.779276100000001        -7.554483
-650.325,0.0,11.5585509 -0.625931
-650.325,-10.0099987,-5.779276100000001 -0.625931
-650.325,10.0099987,-5.779276100000001  -0.625931
-350.675,-10.0099987,-1.1558547000000001        4.409069
-350.675,-6.006,-8.0909855      4.409069
-350.675,-4.0040000000000004,9.2468415  4.409069
-350.675,6.006,-8.0909855       4.409069
-350.675,10.0099987,-1.1558547000000001 4.409069
-350.675,4.0040000000000004,9.2468415   4.409069
403.4875,-8.0079987,-4.623420100000001  -5.660931
403.4875,8.0079987,-4.623420100000001   -5.660931
403.4875,0.0,9.2468415  -5.660931
763.1,-0.0,-11.5585509  2.515516
763.1,-10.0099987,5.779276100000001     2.515516
763.1,10.0099987,5.779276100000001      2.515516
-122.03750000000001,-12.0119987,-0.0    0.004632
-122.03750000000001,6.006,-10.402696200000001   0.004632
-122.03750000000001,-6.006,10.402696200000001   0.004632
-122.03750000000001,12.0119987,-0.0     0.004632
-122.03750000000001,-6.006,-10.402696200000001  0.004632
-122.03750000000001,6.006,10.402696200000001    0.004632
-501.475,0.0,11.5585509 -2.519484
-501.475,-10.0099987,-5.779276100000001 -2.519484
-501.475,10.0099987,-5.779276100000001  -2.519484
296.40000000000003,-8.0079987,0.0       6.927092
296.40000000000003,-4.0040000000000004,-6.9351308000000005      6.927092
296.40000000000003,-4.0040000000000004,6.9351308000000005       6.927092
296.40000000000003,4.0040000000000004,-6.9351308000000005       6.927092
296.40000000000003,8.0079987,0.0        6.927092
296.40000000000003,4.0040000000000004,6.9351308000000005        6.927092
275.4375,-12.0119987,-2.3117107 -0.625931
275.4375,-4.0040000000000004,11.5585509 -0.625931
275.4375,-8.0079987,-9.2468415  -0.625931
275.4375,8.0079987,-9.2468415   -0.625931
275.4375,4.0040000000000004,11.5585509  -0.625931
275.4375,12.0119987,-2.3117107  -0.625931
145.51875,-12.0119987,0.0       1.892092
145.51875,-6.006,-10.402696200000001    1.892092
145.51875,-6.006,10.402696200000001     1.892092
145.51875,6.006,-10.402696200000001     1.892092
145.51875,12.0119987,0.0        1.892092
145.51875,6.006,10.402696200000001      1.892092
-5.61640625,-10.0099987,3.4675654000000002      -5.030367
-5.61640625,-10.0099987,-3.4675654000000002     -5.030367
-5.61640625,-8.0079987,-6.9351308000000005      -5.030367
-5.61640625,-8.0079987,6.9351308000000005       -5.030367
-5.61640625,-10.0099987,3.4675654000000002      5.039632
-5.61640625,2.0020000000000002,-10.402696200000001      -5.030367
-5.61640625,-2.0020000000000002,-10.402696200000001     -5.030367
-5.61640625,-10.0099987,-3.4675654000000002     5.039632
-5.61640625,-8.0079987,-6.9351308000000005      5.039632
-5.61640625,-2.0020000000000002,10.402696200000001      -5.030367
-5.61640625,2.0020000000000002,-10.402696200000001      5.039632
-5.61640625,-8.0079987,6.9351308000000005       5.039632
-5.61640625,-2.0020000000000002,-10.402696200000001     5.039632
-5.61640625,8.0079987,-6.9351308000000005       -5.030367
-5.61640625,2.0020000000000002,10.402696200000001       -5.030367
-5.61640625,10.0099987,-3.4675654000000002      -5.030367
-5.61640625,10.0099987,3.4675654000000002       -5.030367
-5.61640625,8.0079987,6.9351308000000005        -5.030367
-5.61640625,-2.0020000000000002,10.402696200000001      5.039632
-5.61640625,8.0079987,-6.9351308000000005       5.039632
-5.61640625,10.0099987,-3.4675654000000002      5.039632
-5.61640625,2.0020000000000002,10.402696200000001       5.039632
-5.61640625,10.0099987,3.4675654000000002       5.039632
-5.61640625,8.0079987,6.9351308000000005        5.039632
-0.89375,-10.0099987,-1.1558547000000001        -5.660931
-0.89375,-6.006,-8.0909855      -5.660931
-0.89375,-4.0040000000000004,9.2468415  -5.660931
-0.89375,6.006,-8.0909855       -5.660931
-0.89375,4.0040000000000004,9.2468415   -5.660931
-0.89375,10.0099987,-1.1558547000000001 -5.660931
150.8,-2.0020000000000002,1.1558547000000001    9.444068
150.8,0.0,-2.3117107    9.444068
150.8,2.0020000000000002,1.1558547000000001     9.444068
66.70625,-12.0119987,2.3117107  2.515516
66.70625,-4.0040000000000004,-11.5585509        2.515516
66.70625,4.0040000000000004,-11.5585509 2.515516
66.70625,-8.0079987,9.2468415   2.515516
66.70625,12.0119987,2.3117107   2.515516
66.70625,8.0079987,9.2468415    2.515516
203.9375,-12.0119987,-2.3117107 -2.519484
203.9375,-4.0040000000000004,11.5585509 -2.519484
203.9375,-8.0079987,-9.2468415  -2.519484
203.9375,8.0079987,-9.2468415   -2.519484
203.9375,12.0119987,-2.3117107  -2.519484
203.9375,4.0040000000000004,11.5585509  -2.519484
285.5125,-12.0119987,-0.0       -3.142907
285.5125,-6.006,-10.402696200000001     -3.142907
285.5125,-6.006,10.402696200000001      -3.142907
285.5125,6.006,-10.402696200000001      -3.142907
285.5125,12.0119987,-0.0        -3.142907
285.5125,6.006,10.402696200000001       -3.142907
11.239160153,-6.006,-3.4675654000000002 -8.177907
11.239160153,-6.006,3.4675654000000002  -8.177907
11.239160153,6.006,3.4675654000000002   -8.177907
11.239160153,6.006,-3.4675654000000002  -8.177907
11.239160153,-0.0,-6.9351308000000005   -8.177907
11.239160153,0.0,6.9351308000000005     -8.177907
327.4375,-6.006,-5.779276100000001      7.550516
327.4375,-8.0079987,-2.3117107  7.550516
327.4375,-2.0020000000000002,8.0909855  7.550516
327.4375,6.006,-5.779276100000001       7.550516
327.4375,2.0020000000000002,8.0909855   7.550516
327.4375,8.0079987,-2.3117107   7.550516
-452.40000000000003,-6.006,5.779276100000001    -7.554483
-452.40000000000003,-8.0079987,2.3117107        -7.554483
-452.40000000000003,-2.0020000000000002,-8.0909855      -7.554483
-452.40000000000003,2.0020000000000002,-8.0909855       -7.554483
-452.40000000000003,8.0079987,2.3117107 -7.554483
-452.40000000000003,6.006,5.779276100000001     -7.554483
92.6453125,-10.0099987,8.0909855        -0.625931
92.6453125,-12.0119987,4.623420100000001        -0.625931
92.6453125,-2.0020000000000002,-12.7144069      -0.625931
92.6453125,2.0020000000000002,-12.7144069       -0.625931
92.6453125,12.0119987,4.623420100000001 -0.625931
92.6453125,10.0099987,8.0909855 -0.625931
-628.875,-0.0,-11.5585509       4.409069
-628.875,-10.0099987,5.779276100000001  4.409069
-628.875,10.0099987,5.779276100000001   4.409069

End of input

&SCF
Occupied
9
Iterations
   50  100
End of Input

&RASSCF
LumOrb
Symmetry
1
Spin
2
Nactel
1 0 0
CIRoot
9 9 1
inactive
9
ras2
9
End of Input

>>> COPY chromium_so_cf.JobIph $SLURM_SUBMIT_DIR/chromium_so_cf.doublet.JobIph

>>> COPY $SLURM_SUBMIT_DIR/chromium_so_cf.doublet.JobIph ./JOB002

&RASSI
NROFJobIph
1 All
SpinOrbit
End of Input

EOF

-- ----------------------------------

--- Start Module: seward at Wed Mar 26 15:43:53 2025 ---

()()()()()()()()()()()()()()()()()()()()()()()()()()()()()()()()()()()()()()()()()()()()()()()()()()

                                              &SEWARD

                                   only a single process is used
                       available to each process: 4.1 GB of memory, 1 thread?
                                            pid: 642500
()()()()()()()()()()()()()()()()()()()()()()()()()()()()()()()()()()()()()()()()()()()()()()()()()()

 The speed of LIGHT in this CALCULATION =   137.03599917700001     
               SEWARD will generate:
                  Multipole Moment integrals up to order  2
                  Kinetic Energy integrals
                  Nuclear Attraction integrals (point charge)
                  One-Electron Hamiltonian integrals
                  Velocity integrals
                  Relativistic Douglas-Kroll-Hess integrals:
                    - Parametrization         : EXP
                    - DKH order of Hamiltonian: 2
                    - DKH order of Properties : 0
                         - multipole moment operators
                         - electric potential operators
                         - contact operators
                  External field from   414 point(s) added to the one-electron Hamiltonian
                  Orbital angular momentum around (-0.0000 -0.0000  0.0088 )
                  Velocity quadrupole around (-0.0000 -0.0000  0.0088 )
                  Atomic mean-field integrals
                  Two-Electron Repulsion integrals

                   Integrals are discarded if absolute value <: 0.10E-13
                   Integral cutoff threshold is set to       <: 0.10E-15

++    Symmetry information:
      ---------------------

                    Character Table for C1 

                             E  
                    a        1  x, y, xy, Rz, z, xz, Ry, yz, Rx, I
--


++    Basis set information:
      ----------------------


      Basis set label: CR.ANO-RCC.ROOS.21S15P10D6F4G2H.10S10P8D6F4G2H......

      Electronic valence basis set:
      ------------------
      Associated Effective Charge  24.000000 au
      Associated Actual Charge     24.000000 au
      Nuclear Model: Point charge

      Shell  nPrim  nBasis  Cartesian Spherical Contaminant
         s      21      10        X                  
         p      15      10        X                  
         d      10       8                 X         
         f       6       6                 X         
         g       4       4                 X         
         h       2       2                 X         
--


++    Molecular structure info:
      -------------------------

                    ************************************************ 
                    **** Cartesian Coordinates / Bohr, Angstrom **** 
                    ************************************************ 

     Center  Label                x              y              z                     x              y              z
        1      CR              -0.000000      -0.000000       0.008754             -0.000000      -0.000000       0.004632
--


++    Operator info:
      --------------


  Net charge from external field:   -39.268449999999902     
--


            Nuclear Potential Energy              0.00000000 au

                    Nuclear-External Field Potential Energy    -168.90403657 au
                    External Field Potential Energy            1235.10530876 au 


            Total Nuclear Potential Energy           -168.90403657 au


      Basis set specifications :
      Symmetry species         a  
      Basis functions          180

 Sorry, Molden does not know how to handle
 functions with angular momentum larger than g
Note: The following floating-point exceptions are signalling: IEEE_UNDERFLOW_FLAG IEEE_DENORMAL
--- Stop Module: seward at Wed Mar 26 15:44:04 2025 /rc=_RC_ALL_IS_WELL_ ---
*** files: chromium_so_cf.GssOrb xmldump
    saved to directory /home4/s4752295/Internship/Initial_simulations/Point_charge_model/1_electron/Madelung_charges_9_active_space/Cr
--- Module seward spent 10 seconds ---

*** symbolic link created: INPORB -> chromium_so_cf.GssOrb
--- Start Module: scf at Wed Mar 26 15:44:04 2025 ---

()()()()()()()()()()()()()()()()()()()()()()()()()()()()()()()()()()()()()()()()()()()()()()()()()()

                                                &SCF

                                   only a single process is used
                       available to each process: 4.1 GB of memory, 1 thread?
                                            pid: 642505
()()()()()()()()()()()()()()()()()()()()()()()()()()()()()()()()()()()()()()()()()()()()()()()()()()

++    Input section:
      --------------

      Header of the integral files:
      
       Integrals generated by seward 4.2.0  , Wed Mar 26 15:43:54 2025


      Cartesian coordinates in Angstrom:
      -----------------------------------------------------
      No.  Label        X            Y            Z        
      -----------------------------------------------------
       1   CR        -0.00000000  -0.00000000   0.00463220
      -----------------------------------------------------
      Nuclear repulsion energy = -168.90403657
--

++    Orbital specifications:
      -----------------------

      Symmetry species               1
                                     a
      Frozen orbitals                0
      Occupied orbitals              9
      Secondary orbitals           171
      Deleted orbitals               0
      Total number of orbitals     180
      Number of basis functions    180
--

      Molecular charge                           6.000

++    Optimization specifications:
      ----------------------------

      SCF Algorithm: Conventional
      Minimized density differences are used
      Number of density matrices in core                5
      Maximum number of NDDO SCF iterations            50
      Maximum number of HF SCF iterations             100
      Threshold for SCF energy change            0.10E-08
      Threshold for density matrix               0.10E-03
      Threshold for Fock matrix                  0.15E-03
      Threshold for linear dependence            0.10E-08
      Threshold at which DIIS is turned on       0.15E+00
      Threshold at which QNR/C2DIIS is turned on 0.75E-01
      Threshold for Norm(delta) (QNR/C2DIIS)     0.20E-04
      DIIS extrapolation of the SCF procedure
      All orbitals punched on: SCFORB
--

      Detected guessorb starting orbitals                                             


++ Convergence information
                                   SCF        iterations: Energy and convergence statistics

Iter     Tot. SCF        One-elec.       Two-elec.     Energy      Max Dij or  Max Fij      DNorm      TNorm      AccCon     Time
         Energy          Energy          Energy        Change      Delta Norm                                                in Sec.

 The total and one-electron energies are shifted by a value of      1000. a.u.

   1   -81.833317438  -218.305943949   305.376663078   0.00E+00    0.18E+00*   0.40E+00*    0.60E+01   0.25E+03   None         1.
   2   -82.573025964  -230.610226970   316.941237574  -0.74E+00*   0.24E-01*   0.74E-01*    0.12E+01   0.25E+03   EDIIS        1.
   3   -82.587281815  -229.174950182   315.491704936  -0.14E-01*   0.87E-02*   0.15E-01*    0.12E+00   0.25E+03   EDIIS        1.
   4   -82.587786305  -229.406251283   315.722501546  -0.50E-03*   0.39E-03*   0.28E-02*    0.13E-01   0.25E+03   c2DIIS       1.
   5   -82.587811135  -229.378043312   315.694268745  -0.25E-04*   0.11E-03*   0.24E-03*    0.13E-02   0.25E+03   QNRc2DIIS    1.
   6   -82.587811241  -229.376618765   315.692844092  -0.11E-06*   0.31E-04*   0.45E-04     0.18E-03   0.25E+03   QNRc2DIIS    1.
   7   -82.587811247  -229.376805836   315.693031157  -0.66E-08*   0.71E-05    0.92E-05     0.31E-04   0.25E+03   QNRc2DIIS    1.
   8   -82.587811247  -229.376852926   315.693078246  -0.29E-09    0.21E-05    0.22E-05     0.29E-05   0.25E+03   QNRc2DIIS    1.

       Convergence after  8 Macro Iterations
--

 *****************************************************************************************************************************
 *                                                                                                                           *
 *                                             SCF/KS-DFT Program, Final results                                             *
 *                                                                                                                           *
 *                                                                                                                           *
 *                                                                                                                           *
 *                                                       Final Results                                                       *
 *                                                                                                                           *
 *****************************************************************************************************************************

::    Total SCF energy                              -1082.5878112474
      One-electron energy                           -1229.3768529256
      Two-electron energy                             315.6930782461
      Nuclear repulsion energy                       -168.9040365679
      Kinetic energy (interpolated)                  1078.0594438748
      Virial theorem                                    1.0042004802
      Total spin, S(S+1)                                0.0000000000
      Total spin, S                                     0.0000000000
      Max non-diagonal density matrix element           0.0000026289
      Max non-diagonal Fock matrix element              0.0000011759


      All orbitals with orbital energies smaller than  E(LUMO)+0.5 are printed

++    Molecular orbitals:
      -------------------

      Title: SCF orbitals

      Molecular orbitals for symmetry species 1: a  

          Orbital            1         2         3         4         5         6         7         8         9        10    
          Energy         -219.2992  -23.9719  -19.5963  -19.5963  -19.5952   -0.2859    1.1024    1.1024    1.1447    3.7460
          Occ. No.          2.0000    2.0000    2.0000    2.0000    2.0000    2.0000    2.0000    2.0000    2.0000    0.0000

        1 CR     1s         1.0000   -0.0001    0.0000   -0.0000   -0.0000    0.0001   -0.0000   -0.0000    0.0000   -0.0000
        2 CR     2s         0.0001    1.0000    0.0000   -0.0000   -0.0040    0.0021    0.0000   -0.0000   -0.0011   -0.0000
        3 CR     3s        -0.0001   -0.0022   -0.0000    0.0000    0.0012    0.9866    0.0001   -0.0000   -0.1301   -0.0000
        4 CR     4s         0.0000    0.0001    0.0000   -0.0000   -0.0001   -0.0472   -0.0000    0.0000    0.0285   -0.0000
        5 CR     5s        -0.0000   -0.0005   -0.0000    0.0000    0.0003    0.0695    0.0000   -0.0000   -0.0426    0.0000
        6 CR     6s         0.0000    0.0003    0.0000   -0.0000   -0.0002   -0.0287   -0.0000    0.0000    0.0166    0.0000
        7 CR     7s        -0.0000   -0.0001   -0.0000    0.0000    0.0001   -0.0081   -0.0000    0.0000    0.0060   -0.0000
        8 CR     8s         0.0000   -0.0000    0.0000   -0.0000   -0.0000    0.0060    0.0000   -0.0000   -0.0041   -0.0000
        9 CR     9s        -0.0001    0.0002    0.0000   -0.0000   -0.0000    0.0019    0.0000   -0.0000   -0.0016   -0.0000
       10 CR    10s         0.0001   -0.0003   -0.0000    0.0000    0.0000    0.0004    0.0000   -0.0000   -0.0002   -0.0000
       11 CR     2px        0.0000    0.0041   -0.0021    0.0000    1.0000   -0.0007   -0.0000    0.0000    0.0034    0.0000
       12 CR     3px       -0.0000    0.0008    0.0000   -0.0000   -0.0032    0.1363   -0.0015    0.0000    0.9765    0.0000
       13 CR     4px        0.0000   -0.0002   -0.0000    0.0000    0.0005   -0.0019    0.0001   -0.0000   -0.0855   -0.0000
       14 CR     5px       -0.0000    0.0003    0.0000   -0.0000   -0.0009   -0.0037   -0.0001    0.0000    0.0951    0.0000
       15 CR     6px        0.0000   -0.0001   -0.0000    0.0000    0.0002    0.0035    0.0000   -0.0000   -0.0040    0.0000
       16 CR     7px       -0.0000    0.0001    0.0000   -0.0000   -0.0000   -0.0025    0.0000   -0.0000   -0.0132   -0.0000
       17 CR     8px        0.0000   -0.0000    0.0000   -0.0000   -0.0002   -0.0008   -0.0000    0.0000    0.0028   -0.0000
       18 CR     9px       -0.0000    0.0000   -0.0000    0.0000    0.0003    0.0009   -0.0000    0.0000    0.0030   -0.0000
       19 CR    10px        0.0000   -0.0000    0.0000   -0.0000   -0.0003    0.0004    0.0000   -0.0000   -0.0003   -0.0000
       20 CR    11px       -0.0000    0.0000   -0.0000    0.0000    0.0002    0.0000    0.0000   -0.0000   -0.0005   -0.0000
       21 CR     2py       -0.0000   -0.0000    0.0000    1.0000   -0.0000   -0.0000    0.0000    0.0032    0.0000    0.0002
       22 CR     3py        0.0000    0.0000   -0.0000   -0.0032    0.0000   -0.0000    0.0000    0.9882   -0.0000    0.0178
       23 CR     4py       -0.0000   -0.0000    0.0000    0.0005   -0.0000    0.0000   -0.0000   -0.0874    0.0000   -0.0337
       24 CR     5py        0.0000    0.0000   -0.0000   -0.0009    0.0000   -0.0000    0.0000    0.0943   -0.0000    0.0196
       25 CR     6py       -0.0000   -0.0000    0.0000    0.0002   -0.0000    0.0000   -0.0000   -0.0022    0.0000    0.0061
       26 CR     7py        0.0000    0.0000   -0.0000   -0.0000    0.0000   -0.0000   -0.0000   -0.0146    0.0000   -0.0057
       27 CR     8py       -0.0000   -0.0000   -0.0000   -0.0002    0.0000    0.0000    0.0000    0.0024   -0.0000   -0.0023
       28 CR     9py        0.0000    0.0000    0.0000    0.0003   -0.0000   -0.0000    0.0000    0.0036   -0.0000    0.0006
       29 CR    10py       -0.0000   -0.0000   -0.0000   -0.0003    0.0000    0.0000    0.0000    0.0000   -0.0000    0.0004
       30 CR    11py        0.0000    0.0000    0.0000    0.0002   -0.0000   -0.0000   -0.0000   -0.0004    0.0000    0.0000
       31 CR     2pz        0.0000    0.0000    1.0000   -0.0000    0.0021   -0.0000    0.0032   -0.0000    0.0000    0.0000
       32 CR     3pz       -0.0000    0.0000   -0.0032    0.0000   -0.0000    0.0001    0.9882   -0.0000    0.0015    0.0000
       33 CR     4pz        0.0000   -0.0000    0.0005   -0.0000    0.0000   -0.0000   -0.0874    0.0000   -0.0001   -0.0000
       34 CR     5pz       -0.0000    0.0000   -0.0009    0.0000   -0.0000   -0.0000    0.0943   -0.0000    0.0001    0.0000
       35 CR     6pz        0.0000   -0.0000    0.0002   -0.0000    0.0000    0.0000   -0.0022    0.0000   -0.0000    0.0000
       36 CR     7pz       -0.0000    0.0000   -0.0000    0.0000   -0.0000   -0.0000   -0.0146    0.0000   -0.0000   -0.0000
       37 CR     8pz        0.0000   -0.0000   -0.0002    0.0000   -0.0000   -0.0000    0.0024   -0.0000    0.0000   -0.0000
       38 CR     9pz       -0.0000    0.0000    0.0003   -0.0000    0.0000    0.0000    0.0036   -0.0000    0.0000    0.0000
       39 CR    10pz        0.0000   -0.0000   -0.0003    0.0000   -0.0000    0.0000    0.0000   -0.0000   -0.0000    0.0000
       40 CR    11pz       -0.0000    0.0000    0.0002   -0.0000    0.0000    0.0000   -0.0004    0.0000   -0.0000    0.0000
       41 CR     3d2-       0.0000    0.0000    0.0000    0.0004   -0.0000   -0.0000    0.0000    0.0789   -0.0000   -0.2673
       42 CR     4d2-      -0.0000   -0.0000   -0.0000   -0.0003    0.0000    0.0000   -0.0000   -0.0175    0.0000    0.0695
       43 CR     5d2-       0.0000    0.0000    0.0000    0.0002   -0.0000    0.0000   -0.0000   -0.0102    0.0000   -0.0028
       44 CR     6d2-      -0.0000   -0.0000   -0.0000   -0.0001    0.0000    0.0000    0.0000    0.0052   -0.0000   -0.0018
       45 CR     7d2-       0.0000    0.0000    0.0000    0.0000   -0.0000   -0.0000    0.0000    0.0029   -0.0000   -0.0007
       46 CR     8d2-      -0.0000   -0.0000   -0.0000   -0.0000    0.0000    0.0000   -0.0000   -0.0009   -0.0000    0.0015
       47 CR     9d2-       0.0000    0.0000    0.0000    0.0000   -0.0000   -0.0000   -0.0000   -0.0015    0.0000   -0.0003
       48 CR    10d2-      -0.0000    0.0000   -0.0000   -0.0001    0.0000   -0.0000   -0.0000   -0.0002   -0.0000   -0.0004
       49 CR     3d1-      -0.0000    0.0000    0.0000    0.0000    0.0000   -0.0000   -0.0000   -0.0001   -0.0000    0.9100
       50 CR     4d1-       0.0000   -0.0000   -0.0000   -0.0000   -0.0000    0.0000   -0.0000   -0.0001    0.0000   -0.2937
       51 CR     5d1-      -0.0000    0.0000    0.0000    0.0000    0.0000   -0.0000   -0.0000   -0.0000    0.0000   -0.0018
       52 CR     6d1-      -0.0000   -0.0000   -0.0000   -0.0000   -0.0000    0.0000    0.0000    0.0000    0.0000    0.0156
       53 CR     7d1-       0.0000    0.0000    0.0000    0.0000    0.0000   -0.0000    0.0000    0.0000   -0.0000    0.0135
       54 CR     8d1-      -0.0000   -0.0000   -0.0000   -0.0000   -0.0000   -0.0000   -0.0000   -0.0000    0.0000   -0.0042
       55 CR     9d1-       0.0000    0.0000    0.0000    0.0000    0.0000   -0.0000   -0.0000   -0.0000   -0.0000   -0.0035
       56 CR    10d1-       0.0000   -0.0000    0.0000   -0.0000   -0.0000    0.0000   -0.0000   -0.0000    0.0000   -0.0002
       57 CR     3d0        0.0000    0.0000    0.0000   -0.0000   -0.0002   -0.0014    0.0002   -0.0000   -0.0485   -0.0000
       58 CR     4d0       -0.0000   -0.0000   -0.0000    0.0000    0.0002   -0.0004    0.0000   -0.0000    0.0107    0.0000
       59 CR     5d0        0.0000    0.0000    0.0000   -0.0000   -0.0001    0.0005   -0.0000    0.0000    0.0061    0.0000
       60 CR     6d0       -0.0000    0.0000   -0.0000    0.0000    0.0001    0.0000    0.0000   -0.0000   -0.0031   -0.0000
       61 CR     7d0        0.0000   -0.0000    0.0000   -0.0000   -0.0000   -0.0001    0.0000   -0.0000   -0.0017   -0.0000
       62 CR     8d0       -0.0000    0.0000    0.0000    0.0000    0.0000   -0.0001    0.0000   -0.0000    0.0005    0.0000
       63 CR     9d0        0.0000   -0.0000    0.0000   -0.0000   -0.0000    0.0001    0.0000   -0.0000    0.0009    0.0000
       64 CR    10d0       -0.0000    0.0000   -0.0000    0.0000    0.0000    0.0000    0.0000   -0.0000    0.0001    0.0000
       65 CR     3d1+      -0.0000   -0.0000    0.0004   -0.0000    0.0000   -0.0000    0.0789   -0.0000    0.0002   -0.0000
       66 CR     4d1+       0.0000    0.0000   -0.0003    0.0000   -0.0000    0.0000   -0.0175    0.0000   -0.0000    0.0000
       67 CR     5d1+      -0.0000   -0.0000    0.0002   -0.0000    0.0000    0.0000   -0.0102    0.0000   -0.0000   -0.0000
       68 CR     6d1+       0.0000    0.0000   -0.0001    0.0000   -0.0000   -0.0000    0.0052   -0.0000    0.0000   -0.0000
       69 CR     7d1+      -0.0000    0.0000    0.0000   -0.0000    0.0000   -0.0000    0.0029   -0.0000    0.0000   -0.0000
       70 CR     8d1+       0.0000   -0.0000   -0.0000    0.0000   -0.0000    0.0000   -0.0009    0.0000   -0.0000    0.0000
       71 CR     9d1+      -0.0000    0.0000    0.0000   -0.0000    0.0000    0.0000   -0.0015    0.0000   -0.0000   -0.0000
       72 CR    10d1+       0.0000   -0.0000   -0.0001    0.0000   -0.0000   -0.0000   -0.0002    0.0000   -0.0000   -0.0000
       73 CR     3d2+      -0.0000   -0.0000   -0.0000    0.0000    0.0004    0.0025   -0.0001    0.0000    0.0840   -0.0000
       74 CR     4d2+       0.0000    0.0000    0.0000   -0.0000   -0.0003    0.0006    0.0001   -0.0000   -0.0185    0.0000
       75 CR     5d2+      -0.0000   -0.0000   -0.0000    0.0000    0.0002   -0.0009    0.0000   -0.0000   -0.0106    0.0000
       76 CR     6d2+       0.0000   -0.0000    0.0000   -0.0000   -0.0001   -0.0001   -0.0000    0.0000    0.0053   -0.0000
       77 CR     7d2+      -0.0000    0.0000   -0.0000    0.0000    0.0000    0.0002   -0.0000    0.0000    0.0030   -0.0000
       78 CR     8d2+       0.0000   -0.0000    0.0000   -0.0000   -0.0000    0.0001    0.0000   -0.0000   -0.0009    0.0000
       79 CR     9d2+      -0.0000    0.0000   -0.0000    0.0000    0.0000   -0.0001    0.0000   -0.0000   -0.0015    0.0000
       80 CR    10d2+       0.0000   -0.0000    0.0000   -0.0000   -0.0001   -0.0001    0.0000   -0.0000   -0.0002    0.0000
       81 CR     4f3-      -0.0000   -0.0000   -0.0000   -0.0000    0.0000    0.0000    0.0000    0.0013   -0.0000   -0.0278
       82 CR     5f3-       0.0000    0.0000    0.0000    0.0000   -0.0000   -0.0000    0.0000    0.0013   -0.0000   -0.0181
       83 CR     6f3-      -0.0000   -0.0000   -0.0000   -0.0000    0.0000    0.0000   -0.0000   -0.0002   -0.0000   -0.0027
       84 CR     7f3-       0.0000    0.0000    0.0000    0.0000   -0.0000   -0.0000   -0.0000   -0.0005    0.0000    0.0019
       85 CR     8f3-      -0.0000   -0.0000   -0.0000   -0.0000    0.0000    0.0000   -0.0000   -0.0000   -0.0000    0.0024
       86 CR     9f3-       0.0000    0.0000    0.0000    0.0000   -0.0000   -0.0000    0.0000    0.0002   -0.0000    0.0021
       87 CR     4f2-      -0.0000   -0.0000   -0.0000   -0.0000    0.0000   -0.0000   -0.0000   -0.0003   -0.0000    0.0670
       88 CR     5f2-       0.0000    0.0000    0.0000    0.0000   -0.0000    0.0000   -0.0000   -0.0002    0.0000    0.0332
       89 CR     6f2-      -0.0000   -0.0000   -0.0000   -0.0000   -0.0000   -0.0000   -0.0000   -0.0000   -0.0000   -0.0039
       90 CR     7f2-       0.0000   -0.0000   -0.0000   -0.0000    0.0000   -0.0000    0.0000    0.0000    0.0000   -0.0068
       91 CR     8f2-      -0.0000    0.0000   -0.0000   -0.0000   -0.0000    0.0000    0.0000    0.0000   -0.0000   -0.0025
       92 CR     9f2-       0.0000   -0.0000   -0.0000   -0.0000    0.0000   -0.0000    0.0000    0.0000    0.0000    0.0002
       93 CR     4f1-      -0.0000   -0.0000    0.0000    0.0000   -0.0000    0.0000   -0.0000   -0.0003   -0.0000    0.0072
       94 CR     5f1-       0.0000    0.0000   -0.0000   -0.0000    0.0000   -0.0000   -0.0000   -0.0003    0.0000    0.0047
       95 CR     6f1-      -0.0000   -0.0000    0.0000    0.0000   -0.0000    0.0000    0.0000    0.0000   -0.0000    0.0007
       96 CR     7f1-       0.0000    0.0000   -0.0000   -0.0000    0.0000   -0.0000    0.0000    0.0001    0.0000   -0.0005
       97 CR     8f1-      -0.0000   -0.0000    0.0000    0.0000   -0.0000    0.0000    0.0000    0.0000   -0.0000   -0.0006
       98 CR     9f1-      -0.0000    0.0000   -0.0000   -0.0000    0.0000   -0.0000   -0.0000   -0.0001    0.0000   -0.0005
       99 CR     4f0       -0.0000    0.0000    0.0000   -0.0000    0.0000    0.0000   -0.0009    0.0000    0.0002    0.0000
      100 CR     5f0        0.0000    0.0000   -0.0000    0.0000   -0.0000    0.0000   -0.0008    0.0000    0.0001    0.0000
      101 CR     6f0       -0.0000   -0.0000    0.0000   -0.0000    0.0000   -0.0000    0.0001   -0.0000    0.0000    0.0000
      102 CR     7f0        0.0000   -0.0000   -0.0000    0.0000    0.0000   -0.0000    0.0003   -0.0000   -0.0000   -0.0000
      103 CR     8f0        0.0000   -0.0000    0.0000   -0.0000    0.0000   -0.0000    0.0000   -0.0000   -0.0000   -0.0000
      104 CR     9f0        0.0000   -0.0000   -0.0000    0.0000   -0.0000   -0.0000   -0.0001    0.0000    0.0000   -0.0000
      105 CR     4f1+       0.0000   -0.0000    0.0000    0.0000    0.0000   -0.0004    0.0002   -0.0000   -0.0009   -0.0000
      106 CR     5f1+      -0.0000    0.0000   -0.0000   -0.0000   -0.0000   -0.0001    0.0002   -0.0000   -0.0010   -0.0000
      107 CR     6f1+       0.0000   -0.0000    0.0000    0.0000    0.0000    0.0001    0.0000   -0.0000    0.0001    0.0000
      108 CR     7f1+      -0.0000   -0.0000    0.0000   -0.0000   -0.0000    0.0000   -0.0000    0.0000    0.0004    0.0000
      109 CR     8f1+       0.0000    0.0000   -0.0000    0.0000    0.0000   -0.0000   -0.0000    0.0000    0.0000    0.0000
      110 CR     9f1+      -0.0000   -0.0000    0.0000    0.0000   -0.0000   -0.0000   -0.0000    0.0000   -0.0001   -0.0000
      111 CR     4f2+      -0.0000    0.0000   -0.0000    0.0000    0.0000    0.0000    0.0011   -0.0000    0.0001   -0.0000
      112 CR     5f2+       0.0000   -0.0000    0.0000   -0.0000   -0.0000    0.0000    0.0011   -0.0000    0.0001   -0.0000
      113 CR     6f2+      -0.0000   -0.0000   -0.0000    0.0000   -0.0000   -0.0000   -0.0001    0.0000    0.0000   -0.0000
      114 CR     7f2+       0.0000   -0.0000    0.0000   -0.0000    0.0000   -0.0000   -0.0004    0.0000   -0.0000    0.0000
      115 CR     8f2+      -0.0000   -0.0000   -0.0000    0.0000   -0.0000   -0.0000   -0.0000    0.0000   -0.0000    0.0000
      116 CR     9f2+       0.0000   -0.0000    0.0000   -0.0000    0.0000   -0.0000    0.0002   -0.0000    0.0000    0.0000
      117 CR     4f3+      -0.0000    0.0000    0.0000   -0.0000   -0.0000    0.0005    0.0002   -0.0000    0.0012   -0.0000
      118 CR     5f3+       0.0000   -0.0000   -0.0000    0.0000    0.0000    0.0001    0.0001   -0.0000    0.0012   -0.0000
      119 CR     6f3+      -0.0000    0.0000    0.0000   -0.0000   -0.0000   -0.0001    0.0000   -0.0000   -0.0001    0.0000
      120 CR     7f3+       0.0000    0.0000    0.0000    0.0000    0.0000   -0.0000   -0.0000    0.0000   -0.0005    0.0000
      121 CR     8f3+      -0.0000   -0.0000    0.0000   -0.0000   -0.0000    0.0000   -0.0000    0.0000   -0.0001    0.0000
      122 CR     9f3+       0.0000    0.0000    0.0000    0.0000    0.0000    0.0000   -0.0000    0.0000    0.0002   -0.0000
      123 CR     5g4-      -0.0000   -0.0000    0.0000    0.0000   -0.0000    0.0000    0.0000    0.0004   -0.0000   -0.0017
      124 CR     6g4-       0.0000    0.0000   -0.0000   -0.0000    0.0000    0.0000    0.0000    0.0004   -0.0000   -0.0042
      125 CR     7g4-      -0.0000   -0.0000    0.0000    0.0000   -0.0000   -0.0000    0.0000    0.0001    0.0000   -0.0043
      126 CR     8g4-       0.0000    0.0000    0.0000    0.0000    0.0000    0.0000   -0.0000   -0.0000   -0.0000   -0.0030
      127 CR     5g3-       0.0000    0.0000   -0.0000   -0.0000    0.0000    0.0000   -0.0000   -0.0001   -0.0000    0.0030
      128 CR     6g3-      -0.0000   -0.0000    0.0000    0.0000    0.0000   -0.0000   -0.0000   -0.0002    0.0000    0.0066
      129 CR     7g3-       0.0000    0.0000   -0.0000   -0.0000   -0.0000    0.0000   -0.0000   -0.0001   -0.0000    0.0058
      130 CR     8g3-      -0.0000   -0.0000   -0.0000   -0.0000    0.0000   -0.0000   -0.0000   -0.0000   -0.0000    0.0032
      131 CR     5g2-      -0.0000   -0.0000   -0.0000   -0.0000    0.0000   -0.0000   -0.0000   -0.0002   -0.0000    0.0006
      132 CR     6g2-       0.0000    0.0000    0.0000    0.0000   -0.0000   -0.0000   -0.0000   -0.0001    0.0000    0.0015
      133 CR     7g2-      -0.0000   -0.0000   -0.0000   -0.0000   -0.0000    0.0000   -0.0000   -0.0000   -0.0000    0.0016
      134 CR     8g2-       0.0000    0.0000   -0.0000   -0.0000    0.0000   -0.0000    0.0000    0.0000   -0.0000    0.0011
      135 CR     5g1-      -0.0000   -0.0000    0.0000    0.0000   -0.0000    0.0000    0.0000    0.0001    0.0000   -0.0013
      136 CR     6g1-       0.0000    0.0000    0.0000    0.0000   -0.0000   -0.0000    0.0000    0.0001   -0.0000   -0.0028
      137 CR     7g1-      -0.0000   -0.0000   -0.0000   -0.0000    0.0000    0.0000    0.0000    0.0000    0.0000   -0.0025
      138 CR     8g1-       0.0000    0.0000    0.0000    0.0000    0.0000   -0.0000    0.0000    0.0000   -0.0000   -0.0015
      139 CR     5g0        0.0000   -0.0000   -0.0000    0.0000    0.0000   -0.0000   -0.0001    0.0000    0.0002    0.0000
      140 CR     6g0        0.0000    0.0000    0.0000   -0.0000   -0.0000   -0.0000   -0.0001    0.0000    0.0001    0.0000
      141 CR     7g0       -0.0000   -0.0000   -0.0000   -0.0000    0.0000   -0.0000   -0.0001    0.0000   -0.0000    0.0000
      142 CR     8g0       -0.0000    0.0000   -0.0000    0.0000    0.0000    0.0000   -0.0000    0.0000   -0.0000    0.0000
      143 CR     5g1+      -0.0000    0.0000   -0.0000    0.0000    0.0000    0.0001   -0.0003    0.0000    0.0001    0.0000
      144 CR     6g1+      -0.0000   -0.0000    0.0000   -0.0000    0.0000    0.0001   -0.0003    0.0000    0.0001    0.0000
      145 CR     7g1+       0.0000    0.0000   -0.0000    0.0000   -0.0000    0.0000   -0.0001    0.0000    0.0001    0.0000
      146 CR     8g1+       0.0000   -0.0000   -0.0000    0.0000    0.0000   -0.0000    0.0000   -0.0000    0.0000    0.0000
      147 CR     5g2+      -0.0000    0.0000    0.0000   -0.0000   -0.0000    0.0000    0.0001   -0.0000   -0.0003   -0.0000
      148 CR     6g2+      -0.0000   -0.0000   -0.0000    0.0000    0.0000    0.0000    0.0001   -0.0000   -0.0002   -0.0000
      149 CR     7g2+       0.0000    0.0000   -0.0000    0.0000   -0.0000    0.0000    0.0001   -0.0000    0.0000   -0.0000
      150 CR     8g2+       0.0000   -0.0000    0.0000   -0.0000   -0.0000   -0.0000    0.0000   -0.0000    0.0001   -0.0000
      151 CR     5g3+      -0.0000    0.0000    0.0000   -0.0000    0.0000    0.0001    0.0003   -0.0000    0.0001   -0.0000
      152 CR     6g3+      -0.0000   -0.0000   -0.0000    0.0000    0.0000    0.0001    0.0003   -0.0000    0.0002   -0.0000
      153 CR     7g3+       0.0000    0.0000    0.0000   -0.0000   -0.0000    0.0000    0.0001   -0.0000    0.0001   -0.0000
      154 CR     8g3+       0.0000   -0.0000    0.0000   -0.0000    0.0000   -0.0000   -0.0000    0.0000    0.0000   -0.0000
      155 CR     5g4+       0.0000   -0.0000    0.0000    0.0000    0.0000   -0.0000    0.0001   -0.0000    0.0004   -0.0000
      156 CR     6g4+      -0.0000    0.0000   -0.0000    0.0000   -0.0000   -0.0000    0.0001   -0.0000    0.0003   -0.0000
      157 CR     7g4+      -0.0000   -0.0000    0.0000   -0.0000    0.0000    0.0000    0.0001   -0.0000    0.0000   -0.0000
      158 CR     8g4+      -0.0000    0.0000    0.0000   -0.0000    0.0000    0.0000    0.0000   -0.0000   -0.0001   -0.0000
      159 CR     6h5-      -0.0000   -0.0000   -0.0000   -0.0000   -0.0000    0.0000   -0.0000   -0.0000   -0.0000   -0.0002
      160 CR     7h5-       0.0000    0.0000    0.0000    0.0000    0.0000   -0.0000    0.0000    0.0000   -0.0000   -0.0003
      161 CR     6h4-      -0.0000   -0.0000    0.0000    0.0000   -0.0000   -0.0000    0.0000    0.0000   -0.0000    0.0006
      162 CR     7h4-       0.0000    0.0000   -0.0000   -0.0000    0.0000   -0.0000    0.0000    0.0000   -0.0000    0.0009
      163 CR     6h3-      -0.0000   -0.0000    0.0000    0.0000   -0.0000    0.0000    0.0000    0.0000    0.0000    0.0001
      164 CR     7h3-       0.0000    0.0000   -0.0000   -0.0000    0.0000   -0.0000   -0.0000   -0.0000   -0.0000    0.0001
      165 CR     6h2-      -0.0000    0.0000    0.0000    0.0000   -0.0000    0.0000    0.0000    0.0001   -0.0000   -0.0004
      166 CR     7h2-       0.0000   -0.0000   -0.0000   -0.0000    0.0000    0.0000    0.0000    0.0001   -0.0000   -0.0007
      167 CR     6h1-      -0.0000   -0.0000   -0.0000   -0.0000   -0.0000    0.0000   -0.0000   -0.0000    0.0000   -0.0000
      168 CR     7h1-       0.0000    0.0000   -0.0000    0.0000    0.0000   -0.0000   -0.0000   -0.0000   -0.0000   -0.0001
      169 CR     6h0        0.0000   -0.0000   -0.0000    0.0000   -0.0000   -0.0000   -0.0000    0.0000   -0.0001   -0.0000
      170 CR     7h0        0.0000   -0.0000    0.0000    0.0000    0.0000   -0.0001    0.0000   -0.0000   -0.0001   -0.0000
      171 CR     6h1+       0.0000    0.0000    0.0000   -0.0000   -0.0000   -0.0000    0.0000   -0.0000   -0.0001    0.0000
      172 CR     7h1+       0.0000   -0.0000   -0.0000   -0.0000    0.0000   -0.0000    0.0000   -0.0000   -0.0001    0.0000
      173 CR     6h2+      -0.0000    0.0000    0.0000   -0.0000    0.0000    0.0000    0.0000   -0.0000    0.0000    0.0000
      174 CR     7h2+      -0.0000    0.0000   -0.0000    0.0000   -0.0000    0.0000   -0.0000    0.0000    0.0001    0.0000
      175 CR     6h3+      -0.0000   -0.0000    0.0000   -0.0000    0.0000    0.0000    0.0001   -0.0000    0.0001   -0.0000
      176 CR     7h3+      -0.0000    0.0000   -0.0000    0.0000   -0.0000    0.0000    0.0001   -0.0000    0.0001   -0.0000
      177 CR     6h4+      -0.0000    0.0000   -0.0000    0.0000    0.0000    0.0001   -0.0000    0.0000    0.0001   -0.0000
      178 CR     7h4+      -0.0000    0.0000    0.0000   -0.0000   -0.0000    0.0001    0.0000   -0.0000    0.0002   -0.0000
      179 CR     6h5+       0.0000    0.0000    0.0000   -0.0000   -0.0000   -0.0000    0.0000   -0.0000   -0.0001   -0.0000
      180 CR     7h5+       0.0000   -0.0000   -0.0000    0.0000    0.0000   -0.0000    0.0001   -0.0000   -0.0001   -0.0000

          Orbital           11        12        13        14        15    
          Energy            3.7460    3.7497    3.7523    3.7525    4.0849
          Occ. No.          0.0000    0.0000    0.0000    0.0000    0.0000

        1 CR     1s        -0.0000   -0.0000   -0.0000    0.0000   -0.0000
        2 CR     2s         0.0000    0.0002    0.0000    0.0000   -0.0000
        3 CR     3s         0.0001    0.0145    0.0001    0.0000    0.0347
        4 CR     4s         0.0008    0.0971    0.0003    0.0000    0.5654
        5 CR     5s        -0.0003   -0.0381   -0.0001   -0.0000   -0.2458
        6 CR     6s        -0.0002   -0.0236   -0.0001   -0.0000   -0.0994
        7 CR     7s         0.0000    0.0061    0.0000   -0.0000    0.0292
        8 CR     8s         0.0001    0.0087    0.0000   -0.0000    0.0351
        9 CR     9s         0.0000    0.0016    0.0000   -0.0000    0.0078
       10 CR    10s         0.0000    0.0001    0.0000   -0.0000    0.0008
       11 CR     2px       -0.0000   -0.0009   -0.0000   -0.0000    0.0001
       12 CR     3px       -0.0006   -0.0733   -0.0002   -0.0000    0.0613
       13 CR     4px        0.0016    0.1965    0.0006    0.0000    0.6014
       14 CR     5px       -0.0007   -0.0934   -0.0003    0.0000   -0.0783
       15 CR     6px       -0.0004   -0.0429   -0.0001    0.0000   -0.1684
       16 CR     7px        0.0002    0.0262    0.0001    0.0000    0.0170
       17 CR     8px        0.0001    0.0164    0.0001    0.0000    0.0730
       18 CR     9px        0.0000    0.0006    0.0000    0.0000    0.0438
       19 CR    10px       -0.0000   -0.0007   -0.0000    0.0000    0.0136
       20 CR    11px       -0.0000   -0.0001   -0.0000    0.0000    0.0017
       21 CR     2py        0.0000   -0.0000   -0.0000   -0.0007    0.0000
       22 CR     3py        0.0000    0.0000   -0.0000   -0.0612    0.0000
       23 CR     4py       -0.0000   -0.0000    0.0000    0.1045    0.0000
       24 CR     5py        0.0000   -0.0000   -0.0000   -0.0675    0.0000
       25 CR     6py        0.0000    0.0000   -0.0000   -0.0178    0.0000
       26 CR     7py       -0.0000   -0.0000    0.0000    0.0199   -0.0000
       27 CR     8py       -0.0000    0.0000    0.0000    0.0063    0.0000
       28 CR     9py        0.0000   -0.0000   -0.0000   -0.0037    0.0000
       29 CR    10py        0.0000   -0.0000   -0.0000   -0.0018    0.0000
       30 CR    11py        0.0000   -0.0000   -0.0000   -0.0002    0.0000
       31 CR     2pz       -0.0002    0.0000   -0.0007    0.0000    0.0000
       32 CR     3pz       -0.0175    0.0003   -0.0613    0.0000    0.0000
       33 CR     4pz        0.0333   -0.0005    0.1049   -0.0000    0.0003
       34 CR     5pz       -0.0193    0.0003   -0.0676    0.0000   -0.0001
       35 CR     6pz       -0.0060    0.0001   -0.0179    0.0000   -0.0001
       36 CR     7pz        0.0056   -0.0001    0.0199   -0.0000    0.0001
       37 CR     8pz        0.0023   -0.0000    0.0063   -0.0000    0.0001
       38 CR     9pz       -0.0006    0.0000   -0.0036    0.0000    0.0001
       39 CR    10pz       -0.0003    0.0000   -0.0018    0.0000    0.0000
       40 CR    11pz       -0.0000    0.0000   -0.0002    0.0000   -0.0000
       41 CR     3d2-      -0.0000   -0.0000    0.0000    0.9078   -0.0000
       42 CR     4d2-       0.0000    0.0000   -0.0000   -0.2541    0.0000
       43 CR     5d2-      -0.0000   -0.0000    0.0000    0.0039    0.0000
       44 CR     6d2-      -0.0000   -0.0000    0.0000    0.0076    0.0000
       45 CR     7d2-      -0.0000    0.0000    0.0000    0.0065   -0.0000
       46 CR     8d2-       0.0000    0.0000   -0.0000   -0.0032   -0.0000
       47 CR     9d2-      -0.0000    0.0000    0.0000    0.0003   -0.0000
       48 CR    10d2-      -0.0000    0.0000    0.0000    0.0009    0.0000
       49 CR     3d1-       0.0000    0.0000    0.0000    0.2659    0.0000
       50 CR     4d1-      -0.0000   -0.0000   -0.0000   -0.0919   -0.0000
       51 CR     5d1-      -0.0000   -0.0000   -0.0000   -0.0027   -0.0000
       52 CR     6d1-       0.0000    0.0000    0.0000    0.0050    0.0000
       53 CR     7d1-       0.0000    0.0000    0.0000    0.0055    0.0000
       54 CR     8d1-      -0.0000   -0.0000   -0.0000   -0.0002    0.0000
       55 CR     9d1-      -0.0000   -0.0000   -0.0000   -0.0011    0.0000
       56 CR    10d1-      -0.0000    0.0000   -0.0000   -0.0002    0.0000
       57 CR     3d0        0.7860   -0.4712   -0.2269    0.0000    0.0642
       58 CR     4d0       -0.2541    0.1133    0.0784   -0.0000   -0.1949
       59 CR     5d0       -0.0016   -0.0050    0.0023   -0.0000   -0.0379
       60 CR     6d0        0.0135   -0.0003   -0.0042    0.0000    0.0244
       61 CR     7d0        0.0118    0.0005   -0.0047    0.0000    0.0395
       62 CR     8d0       -0.0037    0.0015    0.0002   -0.0000    0.0112
       63 CR     9d0       -0.0031   -0.0021    0.0009   -0.0000   -0.0114
       64 CR    10d0       -0.0002   -0.0011    0.0001   -0.0000   -0.0045
       65 CR     3d1+       0.2619   -0.0043    0.9094   -0.0000   -0.0002
       66 CR     4d1+      -0.0679    0.0013   -0.2542    0.0000    0.0006
       67 CR     5d1+       0.0028   -0.0000    0.0040   -0.0000    0.0001
       68 CR     6d1+       0.0017   -0.0001    0.0076   -0.0000   -0.0001
       69 CR     7d1+       0.0006   -0.0001    0.0064   -0.0000   -0.0002
       70 CR     8d1+      -0.0015    0.0000   -0.0032    0.0000    0.0000
       71 CR     9d1+       0.0004    0.0000    0.0003   -0.0000    0.0001
       72 CR    10d1+       0.0004    0.0000    0.0009   -0.0000    0.0000
       73 CR     3d2+       0.4617    0.8041   -0.1282    0.0000   -0.1113
       74 CR     4d2+      -0.1484   -0.1921    0.0447   -0.0000    0.3387
       75 CR     5d2+      -0.0008    0.0088    0.0014   -0.0000    0.0661
       76 CR     6d2+       0.0078    0.0003   -0.0024    0.0000   -0.0424
       77 CR     7d2+       0.0068   -0.0011   -0.0027    0.0000   -0.0687
       78 CR     8d2+      -0.0021   -0.0026    0.0001   -0.0000   -0.0196
       79 CR     9d2+      -0.0017    0.0037    0.0006   -0.0000    0.0197
       80 CR    10d2+      -0.0001    0.0019    0.0001   -0.0000    0.0078
       81 CR     4f3-      -0.0000   -0.0000    0.0000    0.0889    0.0000
       82 CR     5f3-      -0.0000   -0.0000    0.0000    0.0505    0.0000
       83 CR     6f3-      -0.0000   -0.0000    0.0000    0.0008    0.0000
       84 CR     7f3-       0.0000    0.0000   -0.0000   -0.0084    0.0000
       85 CR     8f3-       0.0000    0.0000   -0.0000   -0.0057   -0.0000
       86 CR     9f3-       0.0000    0.0000   -0.0000   -0.0029   -0.0000
       87 CR     4f2-       0.0000    0.0000    0.0000    0.0160   -0.0000
       88 CR     5f2-       0.0000    0.0000    0.0000    0.0028   -0.0000
       89 CR     6f2-      -0.0000    0.0000   -0.0000   -0.0068   -0.0000
       90 CR     7f2-      -0.0000   -0.0000   -0.0000   -0.0035   -0.0000
       91 CR     8f2-      -0.0000   -0.0000    0.0000    0.0009    0.0000
       92 CR     9f2-       0.0000   -0.0000    0.0000    0.0030    0.0000
       93 CR     4f1-       0.0000    0.0000   -0.0000   -0.0229   -0.0000
       94 CR     5f1-       0.0000    0.0000   -0.0000   -0.0130   -0.0000
       95 CR     6f1-       0.0000    0.0000   -0.0000   -0.0002   -0.0000
       96 CR     7f1-      -0.0000   -0.0000    0.0000    0.0022   -0.0000
       97 CR     8f1-      -0.0000   -0.0000    0.0000    0.0015    0.0000
       98 CR     9f1-      -0.0000   -0.0000    0.0000    0.0007    0.0000
       99 CR     4f0       -0.0172    0.0017   -0.0564    0.0000    0.0071
      100 CR     5f0       -0.0112    0.0031   -0.0321    0.0000    0.0147
      101 CR     6f0       -0.0017    0.0027   -0.0006    0.0000    0.0138
      102 CR     7f0        0.0012    0.0011    0.0053   -0.0000    0.0059
      103 CR     8f0        0.0015   -0.0004    0.0036   -0.0000   -0.0020
      104 CR     9f0        0.0013   -0.0009    0.0019   -0.0000   -0.0052
      105 CR     4f1+       0.0526   -0.0627   -0.0125    0.0000   -0.0169
      106 CR     5f1+       0.0259   -0.0362   -0.0021    0.0000   -0.0469
      107 CR     6f1+      -0.0032   -0.0000    0.0053   -0.0000   -0.0343
      108 CR     7f1+      -0.0054    0.0072    0.0028   -0.0000   -0.0015
      109 CR     8f1+      -0.0020    0.0045   -0.0007    0.0000    0.0146
      110 CR     9f1+       0.0002    0.0020   -0.0023    0.0000    0.0188
      111 CR     4f2+       0.0223    0.0009    0.0728   -0.0000    0.0057
      112 CR     5f2+       0.0146    0.0022    0.0415   -0.0000    0.0119
      113 CR     6f2+       0.0023    0.0021    0.0008   -0.0000    0.0110
      114 CR     7f2+      -0.0015    0.0009   -0.0068    0.0000    0.0045
      115 CR     8f2+      -0.0020   -0.0003   -0.0047    0.0000   -0.0018
      116 CR     9f2+      -0.0017   -0.0008   -0.0025    0.0000   -0.0043
      117 CR     4f3+       0.0417    0.0803   -0.0093    0.0000    0.0224
      118 CR     5f3+       0.0207    0.0465   -0.0014    0.0000    0.0616
      119 CR     6f3+      -0.0024    0.0002    0.0042   -0.0000    0.0452
      120 CR     7f3+      -0.0042   -0.0092    0.0021   -0.0000    0.0021
      121 CR     8f3+      -0.0016   -0.0058   -0.0006    0.0000   -0.0192
      122 CR     9f3+       0.0001   -0.0026   -0.0018    0.0000   -0.0248
      123 CR     5g4-      -0.0000   -0.0000    0.0000    0.0049    0.0000
      124 CR     6g4-      -0.0000   -0.0000    0.0000    0.0110    0.0000
      125 CR     7g4-      -0.0000   -0.0000    0.0000    0.0100    0.0000
      126 CR     8g4-      -0.0000   -0.0000    0.0000    0.0060    0.0000
      127 CR     5g3-       0.0000    0.0000   -0.0000   -0.0006   -0.0000
      128 CR     6g3-       0.0000    0.0000   -0.0000   -0.0021   -0.0000
      129 CR     7g3-       0.0000    0.0000   -0.0000   -0.0032   -0.0000
      130 CR     8g3-       0.0000    0.0000   -0.0000   -0.0033   -0.0000
      131 CR     5g2-       0.0000    0.0000   -0.0000   -0.0018   -0.0000
      132 CR     6g2-       0.0000    0.0000   -0.0000   -0.0041   -0.0000
      133 CR     7g2-       0.0000    0.0000   -0.0000   -0.0037   -0.0000
      134 CR     8g2-       0.0000    0.0000   -0.0000   -0.0022   -0.0000
      135 CR     5g1-      -0.0000   -0.0000    0.0000    0.0006    0.0000
      136 CR     6g1-      -0.0000   -0.0000    0.0000    0.0016    0.0000
      137 CR     7g1-      -0.0000   -0.0000    0.0000    0.0020    0.0000
      138 CR     8g1-      -0.0000   -0.0000    0.0000    0.0017    0.0000
      139 CR     5g0       -0.0017    0.0016   -0.0002    0.0000    0.0017
      140 CR     6g0       -0.0038    0.0034   -0.0008    0.0000    0.0032
      141 CR     7g0       -0.0032    0.0025   -0.0016    0.0000    0.0026
      142 CR     8g0       -0.0018    0.0008   -0.0017    0.0000    0.0013
      143 CR     5g1+      -0.0013    0.0008   -0.0039    0.0000    0.0041
      144 CR     6g1+      -0.0033    0.0024   -0.0089    0.0000    0.0121
      145 CR     7g1+      -0.0034    0.0031   -0.0081    0.0000    0.0160
      146 CR     8g1+      -0.0024    0.0028   -0.0049    0.0000    0.0145
      147 CR     5g2+       0.0017   -0.0025    0.0006   -0.0000   -0.0026
      148 CR     6g2+       0.0038   -0.0051    0.0017   -0.0000   -0.0050
      149 CR     7g2+       0.0033   -0.0037    0.0023   -0.0000   -0.0042
      150 CR     8g2+       0.0019   -0.0013    0.0022   -0.0000   -0.0022
      151 CR     5g3+       0.0012    0.0009    0.0035   -0.0000    0.0048
      152 CR     6g3+       0.0029    0.0027    0.0079   -0.0000    0.0140
      153 CR     7g3+       0.0030    0.0035    0.0072   -0.0000    0.0186
      154 CR     8g3+       0.0021    0.0032    0.0043   -0.0000    0.0168
      155 CR     5g4+       0.0022    0.0033    0.0006   -0.0000    0.0037
      156 CR     6g4+       0.0048    0.0068    0.0018   -0.0000    0.0072
      157 CR     7g4+       0.0042    0.0050    0.0026   -0.0000    0.0063
      158 CR     8g4+       0.0024    0.0018    0.0025   -0.0000    0.0034
      159 CR     6h5-      -0.0000   -0.0000    0.0000    0.0009    0.0000
      160 CR     7h5-      -0.0000   -0.0000    0.0000    0.0013    0.0000
      161 CR     6h4-       0.0000    0.0000   -0.0000   -0.0001   -0.0000
      162 CR     7h4-       0.0000    0.0000   -0.0000   -0.0002   -0.0000
      163 CR     6h3-       0.0000   -0.0000   -0.0000   -0.0004   -0.0000
      164 CR     7h3-       0.0000    0.0000   -0.0000   -0.0006    0.0000
      165 CR     6h2-      -0.0000   -0.0000    0.0000    0.0003    0.0000
      166 CR     7h2-      -0.0000   -0.0000    0.0000    0.0006    0.0000
      167 CR     6h1-      -0.0000   -0.0000    0.0000    0.0001    0.0000
      168 CR     7h1-      -0.0000   -0.0000    0.0000    0.0002   -0.0000
      169 CR     6h0        0.0001   -0.0002    0.0005   -0.0000   -0.0010
      170 CR     7h0        0.0001   -0.0005    0.0007   -0.0000   -0.0020
      171 CR     6h1+      -0.0004    0.0003   -0.0000    0.0000   -0.0003
      172 CR     7h1+      -0.0007    0.0003   -0.0001    0.0000   -0.0006
      173 CR     6h2+      -0.0002    0.0001   -0.0006    0.0000    0.0006
      174 CR     7h2+      -0.0002    0.0003   -0.0009    0.0000    0.0012
      175 CR     6h3+       0.0003   -0.0003    0.0003   -0.0000    0.0004
      176 CR     7h3+       0.0005   -0.0004    0.0005   -0.0000    0.0007
      177 CR     6h4+       0.0001    0.0004    0.0006   -0.0000    0.0016
      178 CR     7h4+       0.0002    0.0008    0.0009   -0.0000    0.0032
      179 CR     6h5+       0.0005    0.0005    0.0002   -0.0000   -0.0004
      180 CR     7h5+       0.0008    0.0005    0.0005   -0.0000   -0.0008
--


++    Molecular charges:
      ------------------

      Mulliken charges per centre and basis function type
      ---------------------------------------------------

                CR    
      1s       2.0000
      2s       2.0000
      2px      2.0000
      2pz      2.0000
      2py      2.0000
      3s       1.9806
      3px      1.9441
      3pz      1.9531
      3py      1.9531
      4s       0.0061
      3d2+     0.0141
      3d1+     0.0124
      3d0      0.0047
      3d1-     0.0000
      3d2-     0.0124
      4px      0.0146
      4pz      0.0153
      4py      0.0153
      5s       0.0133
      4d2+     0.0007
      4d1+     0.0006
      4d0      0.0002
      4d1-     0.0000
      4d2-     0.0006
      5px      0.0181
      5pz      0.0178
      5py      0.0178
      6s       0.0022
      4f3+     0.0000
      4f2+     0.0000
      4f1+     0.0000
      4f0      0.0000
      4f1-     0.0000
      4f2-     0.0000
      4f3-     0.0000
      5d2+     0.0002
      5d1+     0.0002
      5d0      0.0001
      5d1-     0.0000
      5d2-     0.0002
      6px      0.0001
      6pz      0.0000
      6py      0.0000
      7s       0.0002
      5f3+     0.0000
      5f2+     0.0000
      5f1+     0.0000
      5f0      0.0000
      5f1-     0.0000
      5f2-     0.0000
      5f3-     0.0000
      6d2+     0.0001
      6d1+     0.0001
      6d0      0.0000
      6d1-     0.0000
      6d2-     0.0001
      7px      0.0004
      7pz      0.0004
      7py      0.0004
      5g4+     0.0000
      5g3+     0.0000
      5g2+     0.0000
      5g1+     0.0000
      5g0      0.0000
      5g1-     0.0000
      5g2-     0.0000
      5g3-     0.0000
      5g4-     0.0000
      6f3+     0.0000
      6f2+     0.0000
      6f1+     0.0000
      6f0      0.0000
      6f1-     0.0000
      6f2-     0.0000
      6f3-     0.0000
      6g4+     0.0000
      6g3+     0.0000
      6g2+     0.0000
      6g1+     0.0000
      6g0      0.0000
      6g1-     0.0000
      6g2-     0.0000
      6g3-     0.0000
      6g4-     0.0000
      6h5+     0.0000
      6h4+     0.0000
      6h3+     0.0000
      6h2+     0.0000
      6h1+     0.0000
      6h0      0.0000
      6h1-     0.0000
      6h2-     0.0000
      6h3-     0.0000
      6h4-     0.0000
      6h5-     0.0000
      7d2+     0.0000
      7d1+     0.0000
      7d0      0.0000
      7d1-     0.0000
      7d2-     0.0000
      7f3+     0.0000
      7f2+     0.0000
      7f1+     0.0000
      7f0      0.0000
      7f1-     0.0000
      7f2-     0.0000
      7f3-     0.0000
      7g4+     0.0000
      7g3+     0.0000
      7g2+     0.0000
      7g1+     0.0000
      7g0      0.0000
      7g1-     0.0000
      7g2-     0.0000
      7g3-     0.0000
      7g4-     0.0000
      7h5+     0.0000
      7h4+     0.0000
      7h3+     0.0000
      7h2+     0.0000
      7h1+     0.0000
      7h0      0.0000
      7h1-     0.0000
      7h2-     0.0000
      7h3-     0.0000
      7h4-     0.0000
      7h5-     0.0000
      8s       0.0001
      8px      0.0000
      8pz      0.0000
      8py      0.0000
      8d2+     0.0000
      8d1+     0.0000
      8d0      0.0000
      8d1-     0.0000
      8d2-     0.0000
      8f3+     0.0000
      8f2+     0.0000
      8f1+     0.0000
      8f0      0.0000
      8f1-     0.0000
      8f2-     0.0000
      8f3-     0.0000
      8g4+     0.0000
      8g3+     0.0000
      8g2+     0.0000
      8g1+     0.0000
      8g0      0.0000
      8g1-     0.0000
      8g2-     0.0000
      8g3-     0.0000
      8g4-     0.0000
      9s       0.0000
      9px      0.0000
      9pz      0.0000
      9py      0.0000
      9d2+     0.0000
      9d1+     0.0000
      9d0      0.0000
      9d1-     0.0000
      9d2-     0.0000
      9f3+     0.0000
      9f2+     0.0000
      9f1+     0.0000
      9f0      0.0000
      9f1-     0.0000
      9f2-     0.0000
      9f3-     0.0000
     10s       0.0000
     10px      0.0000
     10pz      0.0000
     10py      0.0000
     10d2+     0.0000
     10d1+     0.0000
     10d0      0.0000
     10d1-     0.0000
     10d2-     0.0000
     11px      0.0000
     11pz      0.0000
     11py      0.0000
      Total   18.0000

      N-E      6.0000

      Total electronic charge=   18.000000

      Total            charge=    6.000000
--

 Sorry, Molden does not know how to handle
 functions with angular momentum larger than g

++    Static properties:
      ------------------


      LoProp Charges per center


                   CR    
      Nuclear     24.0000
      Electronic -18.0000

      Total        6.0000
--


++    Molecular properties:
      ---------------------

      Charge (e):
                      =    6.0000
      Dipole Moment (Debye):
      Origin of the operator (Ang)=    0.0000    0.0000    0.0000
                   X= -1.2876E+00               Y= -3.9917E-14               Z=  1.3263E-01           Total=  1.2944E+00
      Center of Charge (Ang)
                     X=   -0.04467714               Y=   -0.00000000               Z=    0.00460227
      Quadrupole Moment (Debye*Ang):
      Origin of the operator (Ang)=   -0.0000   -0.0000    0.0046
                  XX= -3.4815E+00              XY= -7.4403E-15              XZ=  5.3645E-05              YY= -3.4627E+00
                  YZ=  4.8161E-15              ZZ= -3.4627E+00
      In traceless form (Debye*Ang)
                  XX= -1.8818E-02              XY= -1.1161E-14              XZ=  8.0467E-05              YY=  9.4217E-03
                  YZ=  7.2242E-15              ZZ=  9.3959E-03
--

 Sorry, Molden does not know how to handle
 functions with angular momentum larger than g
 ###############################################################################
 ###############################################################################
 ###                                                                         ###
 ###                                                                         ###
 ###    WARNING: RunFile label nBas                                          ###
[...]
         4   14       1.47913309E-02  1.32176891E+08  2.14807243E-10  1.21664146E+08  2.53841037E+08
         4   16       6.98597644E-03  3.55953715E-10  1.20640993E+08  2.18028498E-10  1.20640993E+08
         4   18       2.69945434E-04  3.95701825E+04  2.14698544E-11  9.82320311E+06  9.86277329E+06
         5   11       8.45566149E-02  3.67594382E+08  5.43445452E-13  6.30954921E+04  3.67657478E+08
         5   13       1.83512256E-02  1.44497075E+06  3.35039429E-12  3.07095036E+08  3.08540007E+08
         5   15       1.87285377E-02  1.22027326E-11  3.16877505E+08  5.90720712E-12  3.16877505E+08
         5   17       4.08909946E-02  1.47260692E+09  4.29392444E-12  5.71473844E+05  1.47317839E+09
         6   12       8.45566149E-02  3.67594382E+08  5.43445452E-13  6.30954921E+04  3.67657478E+08
         6   14       1.83512256E-02  1.44497075E+06  3.35039429E-12  3.07095036E+08  3.08540007E+08
         6   16       1.87285377E-02  1.22027326E-11  3.16877505E+08  5.90720712E-12  3.16877505E+08
         6   18       4.08909946E-02  1.47260692E+09  4.29392444E-12  5.71473844E+05  1.47317839E+09
         7   11       1.18646367E-02  5.11037507E+05  1.51751349E-11  5.10096996E+07  5.15207371E+07
         7   13       6.51108691E-02  1.08107115E+09  3.42629223E-12  1.29129319E+07  1.09398408E+09
         7   15       3.41253158E-04  1.96892338E-10  5.77000552E+06  4.00907998E-12  5.77000552E+06
         7   17       1.11998448E-02  1.54378597E+06  1.24153690E-10  4.01769307E+08  4.03313093E+08
         8   12       1.18646367E-02  5.11037507E+05  1.51751349E-11  5.10096996E+07  5.15207371E+07
         8   14       6.51108691E-02  1.08107115E+09  3.42629223E-12  1.29129319E+07  1.09398408E+09
         8   16       3.41253158E-04  1.96892338E-10  5.77000552E+06  4.00907998E-12  5.77000552E+06
         8   18       1.11998448E-02  1.54378597E+06  1.24153690E-10  4.01769307E+08  4.03313093E+08
         9   11       1.16098195E-02  5.50077156E-12  5.03829692E+07  1.50518633E-11  5.03829692E+07
         9   13       5.24144140E-04  1.92616703E-10  8.80382357E+06  1.61369582E-11  8.80382357E+06
         9   15       6.44169922E-02  1.08006017E+09  6.77961115E-14  8.77843619E+06  1.08883861E+09
         9   17       1.14561599E-02  2.10128336E-11  4.12454330E+08  1.18809466E-10  4.12454330E+08
        10   12       1.16098195E-02  5.50077156E-12  5.03829692E+07  1.50518633E-11  5.03829692E+07
        10   14       5.24144140E-04  1.92616703E-10  8.80382357E+06  1.61369582E-11  8.80382357E+06
        10   16       6.44169922E-02  1.08006017E+09  6.77961115E-14  8.77843619E+06  1.08883861E+09
        10   18       1.14561599E-02  2.10128336E-11  4.12454330E+08  1.18809466E-10  4.12454330E+08
        11   13       2.71547025E-01  1.16617355E+03  1.59230135E-11  1.10272752E+09  1.10272868E+09
        11   15       2.71666246E-01  1.83056836E-16  1.11744909E+09  1.64991729E-11  1.11744909E+09
        11   17       3.03425183E-01  4.65547782E+09  7.56113396E-16  4.96270923E+04  4.65552745E+09
        12   14       2.71547025E-01  1.16617355E+03  1.59230135E-11  1.10272752E+09  1.10272868E+09
        12   16       2.71666246E-01  1.83056836E-16  1.11744909E+09  1.64991729E-11  1.11744909E+09
        12   18       3.03425183E-01  4.65547782E+09  7.56113396E-16  4.96270923E+04  4.65552745E+09
        13   15       3.83810648E-04  1.93561798E-23  6.44711300E+01  3.72245648E-18  6.44711300E+01
        13   17       4.09883126E-03  8.34161138E+01  2.50126891E-13  1.48259175E+07  1.48260009E+07
        14   16       3.83810648E-04  1.93561798E-23  6.44711300E+01  3.72245648E-18  6.44711300E+01
        14   18       4.09883126E-03  8.34161138E+01  2.50126891E-13  1.48259175E+07  1.48260009E+07
        15   17       4.61647311E-03  4.91838952E-17  1.64715672E+07  2.07915615E-13  1.64715672E+07
        16   18       4.61647311E-03  4.91838952E-17  1.64715672E+07  2.07915615E-13  1.64715672E+07
     -----------------------------------------------------------------------------------------------
--

++ Velocity transition strengths (SO states):
   ------------------------------------------
    for osc. strength at least    1.0000000000000001E-005

      From   To        Osc. strength     Einstein coefficients Ax, Ay, Az (sec-1)    Total A (sec-1)
     -----------------------------------------------------------------------------------------------
         1    3       3.21913052E-05  6.94546830E-21  1.42722604E-03  3.61346974E-22  1.42722604E-03
         1    5       9.27722191E-04  5.94463813E-19  1.67412644E+03  1.63947229E-15  1.67412644E+03
         1    7       4.10609750E-03  4.61790458E-18  7.89301389E+03  6.77542307E-15  7.89301389E+03
         1    9       4.18758148E-03  1.42935369E-01  7.74186375E-15  8.28848535E+03  8.28862828E+03
         1   11       6.32138994E-04  1.68092243E-14  2.86171964E+06  5.95248756E-12  2.86171964E+06
         1   13       6.31882712E-03  3.04161058E-10  1.08451787E+08  1.91752808E-10  1.08451787E+08
         1   15       1.36688314E-02  1.25894491E+08  1.89819040E-10  1.10177623E+08  2.36072115E+08
         1   17       2.06142212E-04  7.82639115E-14  7.53219863E+06  1.78015718E-11  7.53219863E+06
         2    4       3.21913052E-05  6.94546830E-21  1.42722604E-03  3.61346974E-22  1.42722604E-03
         2    6       9.27722191E-04  5.94463813E-19  1.67412644E+03  1.63947229E-15  1.67412644E+03
         2    8       4.10609750E-03  4.61790458E-18  7.89301389E+03  6.77542307E-15  7.89301389E+03
         2   10       4.18758148E-03  1.42935369E-01  7.74186375E-15  8.28848535E+03  8.28862828E+03
         2   12       6.32138994E-04  1.68092243E-14  2.86171964E+06  5.95248756E-12  2.86171964E+06
         2   14       6.31882712E-03  3.04161058E-10  1.08451787E+08  1.91752808E-10  1.08451787E+08
         2   16       1.36688314E-02  1.25894491E+08  1.89819040E-10  1.10177623E+08  2.36072115E+08
         2   18       2.06142212E-04  7.82639115E-14  7.53219863E+06  1.78015718E-11  7.53219863E+06
         3    5       6.21139310E-04  1.69928659E-03  5.15296485E-15  1.10979465E+03  1.10979635E+03
         3    7       4.33826622E-03  3.20548237E-01  6.25427166E-15  8.25907630E+03  8.25939685E+03
         3    9       4.26480369E-03  1.63579600E-18  8.36176252E+03  6.08762127E-15  8.36176252E+03
         3   11       6.10537361E-04  6.09179598E+03  6.27441179E-12  2.75728933E+06  2.76338112E+06
         3   13       1.33315263E-02  1.19841000E+08  1.91301189E-10  1.08948435E+08  2.28789435E+08
         3   15       6.23996619E-03  3.19971122E-10  1.07758499E+08  1.94280928E-10  1.07758499E+08
         3   17       2.18848840E-04  3.59027275E+04  1.72930687E-11  7.96002432E+06  7.99592705E+06
         4    6       6.21139310E-04  1.69928659E-03  5.15296485E-15  1.10979465E+03  1.10979635E+03
         4    8       4.33826622E-03  3.20548237E-01  6.25427166E-15  8.25907630E+03  8.25939685E+03
         4   10       4.26480369E-03  1.63579600E-18  8.36176252E+03  6.08762127E-15  8.36176252E+03
         4   12       6.10537361E-04  6.09179598E+03  6.27441179E-12  2.75728933E+06  2.76338112E+06
         4   14       1.33315263E-02  1.19841000E+08  1.91301189E-10  1.08948435E+08  2.28789435E+08
         4   16       6.23996619E-03  3.19971122E-10  1.07758499E+08  1.94280928E-10  1.07758499E+08
         4   18       2.18848840E-04  3.59027275E+04  1.72930687E-11  7.96002432E+06  7.99592705E+06
         5    7       4.79187177E-01  6.03571918E-04  2.56784240E-16  8.90998538E+02  8.90999142E+02
         5    9       3.21000734E-01  1.58475855E-20  1.29643528E+03  3.86134806E-16  1.29643528E+03
         5   11       7.16243619E-02  3.11379800E+08  4.11521930E-13  4.85111036E+04  3.11428312E+08
         5   13       1.86856976E-02  1.29851643E+06  3.44436173E-12  3.12866075E+08  3.14164591E+08
         5   15       1.90474404E-02  1.10144619E-11  3.22274299E+08  5.89790555E-12  3.22274299E+08
         5   17       3.65799064E-02  1.31738913E+09  3.50145616E-12  4.78422463E+05  1.31786756E+09
         6    8       4.79187177E-01  6.03571918E-04  2.56784240E-16  8.90998538E+02  8.90999142E+02
         6   10       3.21000734E-01  1.58475855E-20  1.29643528E+03  3.86134806E-16  1.29643528E+03
         6   12       7.16243619E-02  3.11379800E+08  4.11521930E-13  4.85111036E+04  3.11428312E+08
         6   14       1.86856976E-02  1.29851643E+06  3.44436173E-12  3.12866075E+08  3.14164591E+08
         6   16       1.90474404E-02  1.10144619E-11  3.22274299E+08  5.89790555E-12  3.22274299E+08
         6   18       3.65799064E-02  1.31738913E+09  3.50145616E-12  4.78422463E+05  1.31786756E+09
         7    9       1.63103772E-03  8.64879424E-21  6.80789065E-01  4.78363556E-18  6.80789065E-01
         7   11       9.14943544E-03  4.32526345E+05  1.15523784E-11  3.92979189E+07  3.97304452E+07
         7   13       5.94261048E-02  9.85520725E+08  3.36681619E-12  1.29521784E+07  9.98472903E+08
         7   15       3.37768587E-04  1.78225263E-10  5.71110726E+06  3.91164063E-12  5.71110726E+06
         7   17       9.16279935E-03  1.39897140E+06  1.01725188E-10  3.28560047E+08  3.29959018E+08
         8   10       1.63103772E-03  8.64879424E-21  6.80789065E-01  4.78363556E-18  6.80789065E-01
         8   12       9.14943544E-03  4.32526345E+05  1.15523784E-11  3.92979189E+07  3.97304452E+07
         8   14       5.94261048E-02  9.85520725E+08  3.36681619E-12  1.29521784E+07  9.98472903E+08
         8   16       3.37768587E-04  1.78225263E-10  5.71110726E+06  3.91164063E-12  5.71110726E+06
         8   18       9.16279935E-03  1.39897140E+06  1.01725188E-10  3.28560047E+08  3.29959018E+08
         9   11       8.95573535E-03  4.62100925E-12  3.88652130E+07  1.15690506E-11  3.88652130E+07
         9   13       5.22905679E-04  1.74991014E-10  8.78305221E+06  1.62603108E-11  8.78305221E+06
         9   15       5.87566643E-02  9.84385432E+08  7.64891291E-14  8.78026544E+06  9.93165698E+08
         9   17       9.38350444E-03  1.88952418E-11  3.37834013E+08  9.72214794E-11  3.37834013E+08
        10   12       8.95573535E-03  4.62100925E-12  3.88652130E+07  1.15690506E-11  3.88652130E+07
        10   14       5.22905679E-04  1.74991014E-10  8.78305221E+06  1.62603108E-11  8.78305221E+06
        10   16       5.87566643E-02  9.84385432E+08  7.64891291E-14  8.78026544E+06  9.93165698E+08
        10   18       9.38350444E-03  1.88952418E-11  3.37834013E+08  9.72214794E-11  3.37834013E+08
        11   13       3.07393407E-01  2.40505177E+03  1.82736316E-11  1.24829964E+09  1.24830204E+09
        11   15       3.06459372E-01  3.25720443E-16  1.26056859E+09  1.83423164E-11  1.26056859E+09
        11   17       2.33851541E-01  3.58802410E+09  2.25318057E-16  3.02615224E+04  3.58805436E+09
        12   14       3.07393407E-01  2.40505177E+03  1.82736316E-11  1.24829964E+09  1.24830204E+09
        12   16       3.06459372E-01  3.25720443E-16  1.26056859E+09  1.83423164E-11  1.26056859E+09
        12   18       2.33851541E-01  3.58802410E+09  2.25318057E-16  3.02615224E+04  3.58805436E+09
        13   15       2.56254090E-04  1.42389923E-19  4.30447885E+01  3.90276018E-18  4.30447885E+01
        13   17       4.51456172E-03  1.47858697E+03  2.71151495E-13  1.63283298E+07  1.63298084E+07
        14   16       2.56254090E-04  1.42389923E-19  4.30447885E+01  3.90276018E-18  4.30447885E+01
        14   18       4.51456172E-03  1.47858697E+03  2.71151495E-13  1.63283298E+07  1.63298084E+07
        15   17       5.02236052E-03  1.06092859E-15  1.79198350E+07  2.43276285E-13  1.79198350E+07
        16   18       5.02236052E-03  1.06092859E-15  1.79198350E+07  2.43276285E-13  1.79198350E+07
     -----------------------------------------------------------------------------------------------
--

++ Length and velocity gauge comparison (SO states):

 --------------------------------------------------
 A comparison between the dipole oscillator strengths in 
 length and velocity gauge will be performed

 All dipole oscillator differences above the tolerance of   0.10000000000000001       will be printed 

 Due to basis set deficiency these oscillator may be problematic 

 The tolerance is defined as ABS(1-O_l/O_v) 
 O_l : dipole oscillator strength in length gauge
 O_p : dipole oscillator strength in velocity gauge
 --------------------------------------------------

  Problematic transitions have been found

      From   To       Difference (%) Osc. st. (len.) Osc. st. (vel.)
     ---------------------------------------------------------------
         1    3      --------------- below threshold  3.21913052E-05
         1    5      --------------- below threshold  9.27722191E-04
         1    7      --------------- below threshold  4.10609750E-03
         1    9      --------------- below threshold  4.18758148E-03
         1   11            41.135845  8.92174709E-04  6.32138994E-04
         1   13            11.758468  7.06182437E-03  6.31882712E-03
         1   15            11.003781  1.51729196E-02  1.36688314E-02
         1   17            23.570577  2.54731121E-04  2.06142212E-04
         2    4      --------------- below threshold  3.21913052E-05
         2    6      --------------- below threshold  9.27722191E-04
         2    8      --------------- below threshold  4.10609750E-03
         2   10      --------------- below threshold  4.18758148E-03
         2   12            41.135845  8.92174709E-04  6.32138994E-04
         2   14            11.758468  7.06182437E-03  6.31882712E-03
         2   16            11.003781  1.51729196E-02  1.36688314E-02
         2   18            23.570577  2.54731121E-04  2.06142212E-04
         3    5      --------------- below threshold  6.21139310E-04
         3    7      --------------- below threshold  4.33826622E-03
         3    9      --------------- below threshold  4.26480369E-03
         3   11            41.236369  8.62300802E-04  6.10537361E-04
         3   13            10.950018  1.47913309E-02  1.33315263E-02
         3   15            11.955357  6.98597644E-03  6.23996619E-03
         3   17            23.347894  2.69945434E-04  2.18848840E-04
         4    6      --------------- below threshold  6.21139310E-04
         4    8      --------------- below threshold  4.33826622E-03
         4   10      --------------- below threshold  4.26480369E-03
         4   12            41.236369  8.62300802E-04  6.10537361E-04
         4   14            10.950018  1.47913309E-02  1.33315263E-02
         4   16            11.955357  6.98597644E-03  6.23996619E-03
         4   18            23.347894  2.69945434E-04  2.18848840E-04
         5    7      --------------- below threshold  4.79187177E-01
         5    9      --------------- below threshold  3.21000734E-01
         5   11            18.055662  8.45566149E-02  7.16243619E-02
         5   17            11.785400  4.08909946E-02  3.65799064E-02
         6    8      --------------- below threshold  4.79187177E-01
         6   10      --------------- below threshold  3.21000734E-01
         6   12            18.055662  8.45566149E-02  7.16243619E-02
         6   18            11.785400  4.08909946E-02  3.65799064E-02
         7    9      --------------- below threshold  1.63103772E-03
         7   11            29.676161  1.18646367E-02  9.14943544E-03
         7   17            22.231693  1.11998448E-02  9.16279935E-03
         8   10      --------------- below threshold  1.63103772E-03
         8   12            29.676161  1.18646367E-02  9.14943544E-03
         8   18            22.231693  1.11998448E-02  9.16279935E-03
         9   11            29.635580  1.16098195E-02  8.95573535E-03
         9   17            22.088288  1.14561599E-02  9.38350444E-03
        10   12            29.635580  1.16098195E-02  8.95573535E-03
        10   18            22.088288  1.14561599E-02  9.38350444E-03
        11   13            11.661402  2.71547025E-01  3.07393407E-01
        11   15            11.353259  2.71666246E-01  3.06459372E-01
        11   17            29.751201  3.03425183E-01  2.33851541E-01
        12   14            11.661402  2.71547025E-01  3.07393407E-01
        12   16            11.353259  2.71666246E-01  3.06459372E-01
        12   18            29.751201  3.03425183E-01  2.33851541E-01
        13   15            49.777375  3.83810648E-04  2.56254090E-04
        14   16            49.777375  3.83810648E-04  2.56254090E-04
     ---------------------------------------------------------------

 Number of problematic transitions =                    56

--

 Electric-dipole - electric-octupole not included
++ I/O STATISTICS
 
  I. General I/O information
  - - - - - - - - - - - - - - - - - - - - - - - - - - - - - - - - - - - - - - - - - - -
  Unit  Name          Flsize      Write/Read            MBytes           Write/Read
                      (MBytes)       Calls              In/Out           Time, sec.
  - - - - - - - - - - - - - - - - - - - - - - - - - - - - - - - - - - - - - - - - - - -
   1  SCRATCH           0.00 .       9/      45 .      0.0/      0.0 .       0/       0
   2  ANNI              0.00 .       0/       0 .      0.0/      0.0 .       0/       0
   3  RUNFILE          14.88 .     322/   10733 .      2.3/     77.8 .       0/       0
   4  ONEINT            5.58 .       0/   23543 .      0.0/   3739.9 .       0/       0
   5  JOBIPH            6.48 .       0/      92 .      0.0/      0.8 .       0/       0
   6  ORDINT          506.53 .       1/    4053 .      0.0/   1013.0 .       0/       0
  - - - - - - - - - - - - - - - - - - - - - - - - - - - - - - - - - - - - - - - - - - -
   *  TOTAL           533.47 .     332/   38466 .      2.3/   4831.6 .       0/       0
  - - - - - - - - - - - - - - - - - - - - - - - - - - - - - - - - - - - - - - - - - - -
 
  II. I/O Access Patterns
  - - - - - - - - - - - - - - - - - - - -
  Unit  Name               % of random
                         Write/Read calls
  - - - - - - - - - - - - - - - - - - - -
   1  SCRATCH             88.9/ 100.0
   2  ANNI                 0.0/   0.0
   3  RUNFILE             28.6/  10.8
   4  ONEINT               0.0/  16.4
   5  JOBIPH               0.0/  76.1
   6  ORDINT             100.0/   0.0
  - - - - - - - - - - - - - - - - - - - -
--
--- Stop Module: rassi at Wed Mar 26 15:44:58 2025 /rc=_RC_ALL_IS_WELL_ ---
*** files: xmldump
    saved to directory /home4/s4752295/Internship/Initial_simulations/Point_charge_model/1_electron/Madelung_charges_9_active_space/Cr
--- Module rassi spent 3 seconds ---

.##################.
.# Happy landing! #.
.##################.

    Timing: Wall=64.47 User=46.35 System=17.30

###############################################################################
Hbrk Cluster
Job 15909314 for user s4752295
Finished at: Wed Mar 26 15:45:02 CET 2025

Job details:
============

Job ID                         : 15909314
Name                           : Cr_no_SO
User                           : s4752295
Partition                      : regularmedium
Nodes                          : node92
Number of Nodes                : 1
Cores                          : 1
Number of Tasks                : 1
State                          : COMPLETED  
Submit                         : 2025-03-26T15:42:08
Start                          : 2025-03-26T15:43:50
End                            : 2025-03-26T15:44:58
Reserved walltime              : 15:00:00
Used walltime                  : 00:01:08
Used CPU time                  : 00:01:05 (Efficiency: 95.99%)
% User (Computation)           : 73.00%
% System (I/O)                 : 27.00%
Total memory reserved          : 25000M
Maximum memory used            : 681.93M

Acknowledgements:
=================

Please see this page for information about acknowledging Hbrk in your publications:

https://wiki.hpc.rug.nl/habrok/introduction/scientific_output

################################################################################
