   This run of MOLCAS is using the pymolcas driver

                             OPE
                             OPE          NMOL  CASOP  ENMOLC A   SO
                 OPE        NMOLC        AS  OP EN  MO LC     AS  OP
                OPENM       OL CA        SO  PE NM  OL CA     SOP EN
                OP EN      MO   LC       AS  OP ENMOL  CASO   PENMOL
                OP  EN     MO   LC       AS  OP EN     MO     LC ASO
               OP   E  NMOL  C  AS       OP  EN MO     LC     AS  OP
               OP  E   NMO   LC AS        OPEN  MO     LCASOP EN   M
               O  PEN   MO  LCA  SO
            OPE   NMO   L   CAS    OP
        OPENMOL  CASOP     ENMOL   CASOPE
     OPENMOLCA   SOPENMOLCASOPEN   MOLCASOPE
    OPENMOLCAS   OP           EN   MOL    CAS
    OPENMOLCAS       OP  ENM        O     LCA
    OPENMOLCAS    OPEN  MOLCASO     P  E  NMO
    OPENMOLCAS     OP               E  N  MOL
    OPENMOLCA   SO           PENM   O  L  CAS    OPEN    MO    LCAS
    OPENMOLCA   SOP           ENM   O  L  CAS   OP  EN  MOLC  AS   O
    OPENMOLCA   SOPE           NM      O  LCA   S      OP  EN MO
    OPENMOLC                AS         O  PEN   M      OL  CA  SOPE
    OPENMO        LCASOPE  NMOL        C  ASO   P      ENMOLC     AS
    OPE     NMO      LCA  SO     P     E   NM   OL  CA SO  PE N   MO
          OPENMOLCA            SOPE   NMO        LCAS  O    P  ENMO
     OPENMOLCASOPENMOLCASOPENMOLCASOPENMOLCA
        OPENMOLCASOPENMOLCASOPENMOLCASOPE
            OPENMOLCASOPENMOLCASOPENM
               OPENMOLCASOPENMOLCA        version: o91e1abe7de707b ?
                   OPENMOLCASO
                       OPE                tag:

 OpenMolcas is free software; you can redistribute it and/or modify it
 under the terms of the GNU Lesser General Public License version 2.1.
 OpenMolcas is distributed in the hope that it will be useful, but it
 is provided "as is" and without any express or implied warranties.
 For more details see the full text of the license in the file
 LICENSE or in <http://www.gnu.org/licenses/>.

                 Copyright (C) The OpenMolcas Authors
           For the author list and the recommended citation,
                   consult the file CONTRIBUTORS.md

           *************************************************
           * pymolcas version py2.10                       *
           *   build 3068ae8b88c9345ec6cfef6fef7f1169      *
           *   (after the EMIL interpreter by V. Veryazov) *
           *************************************************

configuration info
------------------
Host name: login1 (Linux)
C Compiler ID: GNU
C flags: -std=gnu99
Fortran Compiler ID: GNU
Fortran flags: -fno-aggressive-loop-optimizations -cpp -fdefault-integer-8 -fmax-stack-var-size=1048576
Definitions: _MOLCAS_;_I8_;_LINUX_;_MKL_
Parallel: OFF (GA=OFF)


   -----------------------------------------------------------------------------------------------------------------------------------
  |
  |           Project: chromium_so_cf
  |    Submitted from: /home4/s4752295/Internship/Initial_simulations/Point_charge_model/1_electron/Madelung_charges_9_active_space/Cr
  |      Scratch area: /tmp/chromium_so_cf
  |   Save outputs to: /home4/s4752295/Internship/Initial_simulations/Point_charge_model/1_electron/Madelung_charges_9_active_space/Cr
  |            Molcas: /home4/s4752295/Internship/Molcas/recomp_try/OpenMolcas-master/build
  |
  | Scratch area is empty
  |
  |    MOLCAS_DRIVER = /home4/s4752295/Internship/Molcas/bin/pymolcas
  |    MOLCAS_NPROCS = 1
  |    MOLCAS_SOURCE = /home4/s4752295/Internship/Molcas/recomp_try/OpenMolcas-master
  | MOLCAS_STRUCTURE = 0
  |
   -----------------------------------------------------------------------------------------------------------------------------------

++ ---------   Input file   ---------

&SEWARD
AMFi

CLIG
$R

Basis Set
Cr.ANO-rcc.Roos.21s15p10d6f4g2h.10s10p8d6f4g2h.
Spherical d
Cr            -1.0658140267135469e-14   -3.5527134223784897e-15 0.008753588724385739
End of Basis

Xfield

414
-4.402421188,-1.6940000000000002,0.9780309      -0.625931
-4.402421188,-0.0,-1.9560629    -0.625931
-4.402421188,1.6940000000000002,0.9780309       -0.625931
-4.394880677000001,0.0,0.0      1.892092
2.9250976590000004,-1.6940000000000002,-0.9780309       2.515516
2.9250976590000004,0.0,1.9560629        2.515516
2.9250976590000004,1.6940000000000002,-0.9780309        2.515516
3.9192871080000002,-3.3880000000000003,0.0      0.004632
3.9192871080000002,-1.6940000000000002,-2.9340938000000003      0.004632
3.9192871080000002,-1.6940000000000002,2.9340938000000003       0.004632
3.9192871080000002,1.6940000000000002,-2.9340938000000003       0.004632
3.9192871080000002,1.6940000000000002,2.9340938000000003        0.004632
3.9192871080000002,3.3880000000000003,0.0       0.004632
4.542065429000001,-1.6940000000000002,0.9780309 -2.519484
4.542065429000001,-0.0,-1.9560629       -2.519484
4.542065429000001,1.6940000000000002,0.9780309  -2.519484
-3.2264160170000005,-0.0,-0.0   -3.142907
-5.472607426000001,-3.3880000000000003,-1.9560629       -0.625931
-5.472607426000001,0.0,3.9121247000000006       -0.625931
-5.472607426000001,3.3880000000000003,-1.9560629        -0.625931
-7.2703125,-3.3880000000000003,0.0      1.892092
-7.2703125,-1.6940000000000002,-2.9340938000000003      1.892092
-7.2703125,-1.6940000000000002,2.9340938000000003       1.892092
-7.2703125,1.6940000000000002,-2.9340938000000003       1.892092
-7.2703125,1.6940000000000002,2.9340938000000003        1.892092
-7.2703125,3.3880000000000003,0.0       1.892092
27.689062500000002,-3.3880000000000003,1.9560629        2.515516
27.689062500000002,-0.0,-3.9121247000000006     2.515516
27.689062500000002,3.3880000000000003,1.9560629 2.515516
4.002539068,-3.3880000000000003,-1.9560629      -2.519484
4.002539068,0.0,3.9121247000000006      -2.519484
4.002539068,3.3880000000000003,-1.9560629       -2.519484
-3.5556640680000005,-3.3880000000000003,-0.0    -3.142907
-3.5556640680000005,-1.6940000000000002,-2.9340938000000003     -3.142907
-3.5556640680000005,-1.6940000000000002,2.9340938000000003      -3.142907
-3.5556640680000005,1.6940000000000002,-2.9340938000000003      -3.142907
-3.5556640680000005,1.6940000000000002,2.9340938000000003       -3.142907
-3.5556640680000005,3.3880000000000003,-0.0     -3.142907
-10.47578125,-3.3880000000000003,3.9121247000000006     -0.625931
-10.47578125,3.3880000000000003,3.9121247000000006      -0.625931
-10.47578125,-5.082000000000001,0.9780309       -0.625931
-10.47578125,5.082000000000001,0.9780309        -0.625931
-10.47578125,-1.6940000000000002,-4.8901567     -0.625931
-10.47578125,1.6940000000000002,-4.8901567      -0.625931
6.608593750000001,-1.6940000000000002,-0.9780309        4.409069
6.608593750000001,1.6940000000000002,-0.9780309 4.409069
6.608593750000001,0.0,1.9560629 4.409069
-192.775,-0.0,-0.0      -5.030367
-192.775,0.0,0.0        5.039632
14.869335932,-3.3880000000000003,-3.9121247000000006    2.515516
14.869335932,3.3880000000000003,-3.9121247000000006     2.515516
14.869335932,-5.082000000000001,-0.9780309      2.515516
14.869335932,5.082000000000001,-0.9780309       2.515516
14.869335932,-1.6940000000000002,4.8901567      2.515516
14.869335932,1.6940000000000002,4.8901567       2.515516
20.942968750000002,-5.082000000000001,-2.9340938000000003       0.004632
20.942968750000002,-5.082000000000001,2.9340938000000003        0.004632
20.942968750000002,5.082000000000001,-2.9340938000000003        0.004632
20.942968750000002,5.082000000000001,2.9340938000000003 0.004632
20.942968750000002,-0.0,-5.868187600000001      0.004632
20.942968750000002,0.0,5.868187600000001        0.004632
52.885937500000004,-3.3880000000000003,3.9121247000000006       -2.519484
52.885937500000004,3.3880000000000003,3.9121247000000006        -2.519484
52.885937500000004,-5.082000000000001,0.9780309 -2.519484
52.885937500000004,5.082000000000001,0.9780309  -2.519484
52.885937500000004,-1.6940000000000002,-4.8901567       -2.519484
52.885937500000004,1.6940000000000002,-4.8901567        -2.519484
-160.4625,-5.082000000000001,-2.9340938000000003        1.892092
-160.4625,-5.082000000000001,2.9340938000000003 1.892092
-160.4625,5.082000000000001,-2.9340938000000003 1.892092
-160.4625,5.082000000000001,2.9340938000000003  1.892092
-160.4625,-0.0,-5.868187600000001       1.892092
-160.4625,0.0,5.868187600000001 1.892092
-129.525,-3.3880000000000003,1.9560629  4.409069
-129.525,-0.0,-3.9121247000000006       4.409069
-129.525,3.3880000000000003,1.9560629   4.409069
-97.9,-3.3880000000000003,-0.0  -5.030367
-97.9,-1.6940000000000002,-2.9340938000000003   -5.030367
-97.9,-1.6940000000000002,2.9340938000000003    -5.030367
-97.9,1.6940000000000002,-2.9340938000000003    -5.030367
-97.9,-3.3880000000000003,0.0   5.039632
-97.9,3.3880000000000003,-0.0   -5.030367
-97.9,1.6940000000000002,2.9340938000000003     -5.030367
-97.9,-1.6940000000000002,-2.9340938000000003   5.039632
-97.9,-1.6940000000000002,2.9340938000000003    5.039632
-97.9,1.6940000000000002,-2.9340938000000003    5.039632
-97.9,3.3880000000000003,0.0    5.039632
-97.9,1.6940000000000002,2.9340938000000003     5.039632
-51.2875,-1.6940000000000002,-0.9780309 -5.660931
-51.2875,0.0,1.9560629  -5.660931
-51.2875,1.6940000000000002,-0.9780309  -5.660931
0.9710937500000001,-6.7759989,0.0       0.004632
0.9710937500000001,-3.3880000000000003,-5.868187600000001       0.004632
0.9710937500000001,-3.3880000000000003,5.868187600000001        0.004632
0.9710937500000001,3.3880000000000003,-5.868187600000001        0.004632
0.9710937500000001,6.7759989,0.0        0.004632
0.9710937500000001,3.3880000000000003,5.868187600000001 0.004632
74.73125,-5.082000000000001,2.9340938000000003  -3.142907
74.73125,-5.082000000000001,-2.9340938000000003 -3.142907
74.73125,5.082000000000001,-2.9340938000000003  -3.142907
74.73125,5.082000000000001,2.9340938000000003   -3.142907
74.73125,-0.0,-5.868187600000001        -3.142907
74.73125,0.0,5.868187600000001  -3.142907
95.0125,-6.7759989,-1.9560629   -0.625931
95.0125,-5.082000000000001,-4.8901567   -0.625931
95.0125,-1.6940000000000002,6.846218500000001   -0.625931
95.0125,5.082000000000001,-4.8901567    -0.625931
95.0125,6.7759989,-1.9560629    -0.625931
95.0125,1.6940000000000002,6.846218500000001    -0.625931
1.3169921820000001,-6.7759989,0.0       1.892092
1.3169921820000001,-3.3880000000000003,-5.868187600000001       1.892092
1.3169921820000001,-3.3880000000000003,5.868187600000001        1.892092
1.3169921820000001,3.3880000000000003,-5.868187600000001        1.892092
1.3169921820000001,6.7759989,0.0        1.892092
1.3169921820000001,3.3880000000000003,5.868187600000001 1.892092
37.228125000000006,-3.3880000000000003,-3.9121247000000006      4.409069
37.228125000000006,3.3880000000000003,-3.9121247000000006       4.409069
37.228125000000006,-5.082000000000001,-0.9780309        4.409069
37.228125000000006,5.082000000000001,-0.9780309 4.409069
37.228125000000006,-1.6940000000000002,4.8901567        4.409069
37.228125000000006,1.6940000000000002,4.8901567 4.409069
178.64687500000002,-3.3880000000000003,1.9560629        -5.660931
178.64687500000002,-0.0,-3.9121247000000006     -5.660931
178.64687500000002,3.3880000000000003,1.9560629 -5.660931
0.37812500000000004,-6.7759989,1.9560629        2.515516
0.37812500000000004,-1.6940000000000002,-6.846218500000001      2.515516
0.37812500000000004,-5.082000000000001,4.8901567        2.515516
0.37812500000000004,1.6940000000000002,-6.846218500000001       2.515516
0.37812500000000004,6.7759989,1.9560629 2.515516
0.37812500000000004,5.082000000000001,4.8901567 2.515516
-103.60625,-6.7759989,-1.9560629        -2.519484
-103.60625,-5.082000000000001,-4.8901567        -2.519484
-103.60625,-1.6940000000000002,6.846218500000001        -2.519484
-103.60625,5.082000000000001,-4.8901567 -2.519484
-103.60625,1.6940000000000002,6.846218500000001 -2.519484
-103.60625,6.7759989,-1.9560629 -2.519484
-24.277343750000004,-6.7759989,-0.0     -3.142907
-24.277343750000004,-3.3880000000000003,-5.868187600000001      -3.142907
-24.277343750000004,-3.3880000000000003,5.868187600000001       -3.142907
-24.277343750000004,3.3880000000000003,-5.868187600000001       -3.142907
-24.277343750000004,3.3880000000000003,5.868187600000001        -3.142907
-24.277343750000004,6.7759989,-0.0      -3.142907
667.1500000000001,0.0,0.0       6.927092
355.57500000000005,-6.7759989,3.9121247000000006        -0.625931
355.57500000000005,6.7759989,3.9121247000000006 -0.625931
355.57500000000005,-0.0,-7.824250500000001      -0.625931
-5.964062500000001,-5.082000000000001,2.9340938000000003        -5.030367
-5.964062500000001,-5.082000000000001,-2.9340938000000003       -5.030367
-5.964062500000001,-5.082000000000001,2.9340938000000003        5.039632
-5.964062500000001,-5.082000000000001,-2.9340938000000003       5.039632
-5.964062500000001,5.082000000000001,-2.9340938000000003        -5.030367
-5.964062500000001,5.082000000000001,2.9340938000000003 -5.030367
-5.964062500000001,5.082000000000001,-2.9340938000000003        5.039632
-5.964062500000001,5.082000000000001,2.9340938000000003 5.039632
-5.964062500000001,-0.0,-5.868187600000001      -5.030367
-5.964062500000001,0.0,5.868187600000001        -5.030367
-5.964062500000001,-0.0,-5.868187600000001      5.039632
-5.964062500000001,0.0,5.868187600000001        5.039632
100.99375,-3.3880000000000003,-3.9121247000000006       -5.660931
100.99375,3.3880000000000003,-3.9121247000000006        -5.660931
100.99375,-5.082000000000001,-0.9780309 -5.660931
100.99375,5.082000000000001,-0.9780309  -5.660931
100.99375,-1.6940000000000002,4.8901567 -5.660931
100.99375,1.6940000000000002,4.8901567  -5.660931
330.55,-6.7759989,-3.9121247000000006   2.515516
330.55,6.7759989,-3.9121247000000006    2.515516
330.55,0.0,7.824250500000001    2.515516
-568.975,-6.7759989,3.9121247000000006  -2.519484
-568.975,6.7759989,3.9121247000000006   -2.519484
-568.975,-0.0,-7.824250500000001        -2.519484
58.91875,-3.3880000000000003,0.0        6.927092
58.91875,-1.6940000000000002,-2.9340938000000003        6.927092
58.91875,-1.6940000000000002,2.9340938000000003 6.927092
58.91875,1.6940000000000002,-2.9340938000000003 6.927092
58.91875,1.6940000000000002,2.9340938000000003  6.927092
58.91875,3.3880000000000003,0.0 6.927092
-60.775000000000006,-1.6940000000000002,0.9780309       7.550516
-60.775000000000006,0.0,-1.9560629      7.550516
-60.775000000000006,1.6940000000000002,0.9780309        7.550516
17.084375,-1.6940000000000002,-0.9780309        -7.554483
17.084375,1.6940000000000002,-0.9780309 -7.554483
17.084375,-0.0,1.9560629        -7.554483
-137.3625,-8.4699989,0.9780309  -0.625931
-137.3625,-5.082000000000001,6.846218500000001  -0.625931
-137.3625,-3.3880000000000003,-7.824250500000001        -0.625931
-137.3625,3.3880000000000003,-7.824250500000001 -0.625931
-137.3625,8.4699989,0.9780309   -0.625931
-137.3625,5.082000000000001,6.846218500000001   -0.625931
-74.18125,-6.7759989,1.9560629  4.409069
-74.18125,-5.082000000000001,4.8901567  4.409069
-74.18125,-1.6940000000000002,-6.846218500000001        4.409069
-74.18125,1.6940000000000002,-6.846218500000001 4.409069
-74.18125,5.082000000000001,4.8901567   4.409069
-74.18125,6.7759989,1.9560629   4.409069
54.071875000000006,-6.7759989,-0.0      -5.030367
54.071875000000006,-3.3880000000000003,-5.868187600000001       -5.030367
54.071875000000006,-3.3880000000000003,5.868187600000001        -5.030367
54.071875000000006,-6.7759989,0.0       5.039632
54.071875000000006,-3.3880000000000003,-5.868187600000001       5.039632
54.071875000000006,3.3880000000000003,-5.868187600000001        -5.030367
54.071875000000006,3.3880000000000003,5.868187600000001 -5.030367
54.071875000000006,6.7759989,-0.0       -5.030367
54.071875000000006,-3.3880000000000003,5.868187600000001        5.039632
54.071875000000006,3.3880000000000003,-5.868187600000001        5.039632
54.071875000000006,6.7759989,0.0        5.039632
54.071875000000006,3.3880000000000003,5.868187600000001 5.039632
198.82500000000002,-8.4699989,-0.9780309        2.515516
198.82500000000002,-5.082000000000001,-6.846218500000001        2.515516
198.82500000000002,-3.3880000000000003,7.824250500000001        2.515516
198.82500000000002,5.082000000000001,-6.846218500000001 2.515516
198.82500000000002,8.4699989,-0.9780309 2.515516
198.82500000000002,3.3880000000000003,7.824250500000001 2.515516
-25.678125,-8.4699989,-2.9340938000000003       0.004632
-25.678125,-8.4699989,2.9340938000000003        0.004632
-25.678125,-6.7759989,-5.868187600000001        0.004632
-25.678125,-6.7759989,5.868187600000001 0.004632
-25.678125,-1.6940000000000002,-8.802281400000002       0.004632
-25.678125,1.6940000000000002,-8.802281400000002        0.004632
-25.678125,-1.6940000000000002,8.802281400000002        0.004632
-25.678125,6.7759989,-5.868187600000001 0.004632
-25.678125,1.6940000000000002,8.802281400000002 0.004632
-25.678125,8.4699989,-2.9340938000000003        0.004632
-25.678125,8.4699989,2.9340938000000003 0.004632
-25.678125,6.7759989,5.868187600000001  0.004632
-157.4375,-8.4699989,0.9780309  -2.519484
-157.4375,-5.082000000000001,6.846218500000001  -2.519484
-157.4375,-3.3880000000000003,-7.824250500000001        -2.519484
-157.4375,3.3880000000000003,-7.824250500000001 -2.519484
-157.4375,8.4699989,0.9780309   -2.519484
-157.4375,5.082000000000001,6.846218500000001   -2.519484
3335.2000000000003,-0.0,-0.0    -8.177907
-127.60000000000001,-3.3880000000000003,-1.9560629      7.550516
-127.60000000000001,0.0,3.9121247000000006      7.550516
-127.60000000000001,3.3880000000000003,-1.9560629       7.550516
-663.85,-3.3880000000000003,1.9560629   -7.554483
-663.85,-0.0,-3.9121247000000006        -7.554483
-663.85,3.3880000000000003,1.9560629    -7.554483
53.79687500000001,-8.4699989,2.9340938000000003 1.892092
53.79687500000001,-8.4699989,-2.9340938000000003        1.892092
53.79687500000001,-6.7759989,-5.868187600000001 1.892092
53.79687500000001,-6.7759989,5.868187600000001  1.892092
53.79687500000001,-1.6940000000000002,-8.802281400000002        1.892092
53.79687500000001,1.6940000000000002,-8.802281400000002 1.892092
53.79687500000001,-1.6940000000000002,8.802281400000002 1.892092
53.79687500000001,6.7759989,-5.868187600000001  1.892092
53.79687500000001,1.6940000000000002,8.802281400000002  1.892092
53.79687500000001,8.4699989,-2.9340938000000003 1.892092
53.79687500000001,8.4699989,2.9340938000000003  1.892092
53.79687500000001,6.7759989,5.868187600000001   1.892092
-555.5,-6.7759989,-3.9121247000000006   4.409069
-555.5,6.7759989,-3.9121247000000006    4.409069
-555.5,0.0,7.824250500000001    4.409069
28.402343750000004,-6.7759989,1.9560629 -5.660931
28.402343750000004,-1.6940000000000002,-6.846218500000001       -5.660931
28.402343750000004,-5.082000000000001,4.8901567 -5.660931
28.402343750000004,1.6940000000000002,-6.846218500000001        -5.660931
28.402343750000004,5.082000000000001,4.8901567  -5.660931
28.402343750000004,6.7759989,1.9560629  -5.660931
-64.00625000000001,-6.7759989,-5.868187600000001        -3.142907
-64.00625000000001,-8.4699989,2.9340938000000003        -3.142907
-64.00625000000001,-8.4699989,-2.9340938000000003       -3.142907
-64.00625000000001,-6.7759989,5.868187600000001 -3.142907
-64.00625000000001,-1.6940000000000002,-8.802281400000002       -3.142907
-64.00625000000001,1.6940000000000002,-8.802281400000002        -3.142907
-64.00625000000001,-1.6940000000000002,8.802281400000002        -3.142907
-64.00625000000001,8.4699989,-2.9340938000000003        -3.142907
-64.00625000000001,6.7759989,-5.868187600000001 -3.142907
-64.00625000000001,1.6940000000000002,8.802281400000002 -3.142907
-64.00625000000001,8.4699989,2.9340938000000003 -3.142907
-64.00625000000001,6.7759989,5.868187600000001  -3.142907
71.946875,-5.082000000000001,-2.9340938000000003        6.927092
71.946875,-5.082000000000001,2.9340938000000003 6.927092
71.946875,5.082000000000001,-2.9340938000000003 6.927092
71.946875,5.082000000000001,2.9340938000000003  6.927092
71.946875,-0.0,-5.868187600000001       6.927092
71.946875,0.0,5.868187600000001 6.927092
-91.575,-3.3880000000000003,-0.0        -8.177907
-91.575,-1.6940000000000002,2.9340938000000003  -8.177907
-91.575,-1.6940000000000002,-2.9340938000000003 -8.177907
-91.575,1.6940000000000002,-2.9340938000000003  -8.177907
-91.575,3.3880000000000003,-0.0 -8.177907
-91.575,1.6940000000000002,2.9340938000000003   -8.177907
-99.996875,-3.3880000000000003,3.9121247000000006       7.550516
-99.996875,3.3880000000000003,3.9121247000000006        7.550516
-99.996875,-5.082000000000001,0.9780309 7.550516
-99.996875,5.082000000000001,0.9780309  7.550516
-99.996875,-1.6940000000000002,-4.8901567       7.550516
-99.996875,1.6940000000000002,-4.8901567        7.550516
-50.25625,-3.3880000000000003,-3.9121247000000006       -7.554483
-50.25625,3.3880000000000003,-3.9121247000000006        -7.554483
-50.25625,-5.082000000000001,-0.9780309 -7.554483
-50.25625,5.082000000000001,-0.9780309  -7.554483
-50.25625,-1.6940000000000002,4.8901567 -7.554483
-50.25625,1.6940000000000002,4.8901567  -7.554483
-550.2750000000001,0.0,9.7803123        -0.625931
-550.2750000000001,-8.4699989,-4.8901567        -0.625931
-550.2750000000001,8.4699989,-4.8901567 -0.625931
-296.725,-8.4699989,-0.9780309  4.409069
-296.725,-5.082000000000001,-6.846218500000001  4.409069
-296.725,-3.3880000000000003,7.824250500000001  4.409069
-296.725,5.082000000000001,-6.846218500000001   4.409069
-296.725,8.4699989,-0.9780309   4.409069
-296.725,3.3880000000000003,7.824250500000001   4.409069
341.4125,-6.7759989,-3.9121247000000006 -5.660931
341.4125,6.7759989,-3.9121247000000006  -5.660931
341.4125,0.0,7.824250500000001  -5.660931
645.7,-0.0,-9.7803123   2.515516
645.7,-8.4699989,4.8901567      2.515516
645.7,8.4699989,4.8901567       2.515516
-103.2625,-10.1639989,-0.0      0.004632
-103.2625,5.082000000000001,-8.802281400000002  0.004632
-103.2625,-5.082000000000001,8.802281400000002  0.004632
-103.2625,10.1639989,-0.0       0.004632
-103.2625,-5.082000000000001,-8.802281400000002 0.004632
-103.2625,5.082000000000001,8.802281400000002   0.004632
-424.32500000000005,0.0,9.7803123       -2.519484
-424.32500000000005,-8.4699989,-4.8901567       -2.519484
-424.32500000000005,8.4699989,-4.8901567        -2.519484
250.8,-6.7759989,0.0    6.927092
250.8,-3.3880000000000003,-5.868187600000001    6.927092
250.8,-3.3880000000000003,5.868187600000001     6.927092
250.8,3.3880000000000003,-5.868187600000001     6.927092
250.8,6.7759989,0.0     6.927092
250.8,3.3880000000000003,5.868187600000001      6.927092
233.06250000000003,-10.1639989,-1.9560629       -0.625931
233.06250000000003,-3.3880000000000003,9.7803123        -0.625931
233.06250000000003,-6.7759989,-7.824250500000001        -0.625931
233.06250000000003,6.7759989,-7.824250500000001 -0.625931
233.06250000000003,3.3880000000000003,9.7803123 -0.625931
233.06250000000003,10.1639989,-1.9560629        -0.625931
123.13125000000001,-10.1639989,0.0      1.892092
123.13125000000001,-5.082000000000001,-8.802281400000002        1.892092
123.13125000000001,-5.082000000000001,8.802281400000002 1.892092
123.13125000000001,5.082000000000001,-8.802281400000002 1.892092
123.13125000000001,10.1639989,0.0       1.892092
123.13125000000001,5.082000000000001,8.802281400000002  1.892092
-4.7523437500000005,-8.4699989,2.9340938000000003       -5.030367
-4.7523437500000005,-8.4699989,-2.9340938000000003      -5.030367
-4.7523437500000005,-6.7759989,-5.868187600000001       -5.030367
-4.7523437500000005,-6.7759989,5.868187600000001        -5.030367
-4.7523437500000005,-8.4699989,2.9340938000000003       5.039632
-4.7523437500000005,1.6940000000000002,-8.802281400000002       -5.030367
-4.7523437500000005,-1.6940000000000002,-8.802281400000002      -5.030367
-4.7523437500000005,-8.4699989,-2.9340938000000003      5.039632
-4.7523437500000005,-6.7759989,-5.868187600000001       5.039632
-4.7523437500000005,-1.6940000000000002,8.802281400000002       -5.030367
-4.7523437500000005,1.6940000000000002,-8.802281400000002       5.039632
-4.7523437500000005,-6.7759989,5.868187600000001        5.039632
-4.7523437500000005,-1.6940000000000002,-8.802281400000002      5.039632
-4.7523437500000005,6.7759989,-5.868187600000001        -5.030367
-4.7523437500000005,1.6940000000000002,8.802281400000002        -5.030367
-4.7523437500000005,8.4699989,-2.9340938000000003       -5.030367
-4.7523437500000005,8.4699989,2.9340938000000003        -5.030367
-4.7523437500000005,6.7759989,5.868187600000001 -5.030367
-4.7523437500000005,-1.6940000000000002,8.802281400000002       5.039632
-4.7523437500000005,6.7759989,-5.868187600000001        5.039632
-4.7523437500000005,8.4699989,-2.9340938000000003       5.039632
-4.7523437500000005,1.6940000000000002,8.802281400000002        5.039632
-4.7523437500000005,8.4699989,2.9340938000000003        5.039632
-4.7523437500000005,6.7759989,5.868187600000001 5.039632
-0.7562500000000001,-8.4699989,-0.9780309       -5.660931
-0.7562500000000001,-5.082000000000001,-6.846218500000001       -5.660931
-0.7562500000000001,-3.3880000000000003,7.824250500000001       -5.660931
-0.7562500000000001,5.082000000000001,-6.846218500000001        -5.660931
-0.7562500000000001,3.3880000000000003,7.824250500000001        -5.660931
-0.7562500000000001,8.4699989,-0.9780309        -5.660931
127.60000000000001,-1.6940000000000002,0.9780309        9.444068
127.60000000000001,0.0,-1.9560629       9.444068
127.60000000000001,1.6940000000000002,0.9780309 9.444068
56.44375,-10.1639989,1.9560629  2.515516
56.44375,-3.3880000000000003,-9.7803123 2.515516
56.44375,3.3880000000000003,-9.7803123  2.515516
56.44375,-6.7759989,7.824250500000001   2.515516
56.44375,10.1639989,1.9560629   2.515516
56.44375,6.7759989,7.824250500000001    2.515516
172.5625,-10.1639989,-1.9560629 -2.519484
172.5625,-3.3880000000000003,9.7803123  -2.519484
172.5625,-6.7759989,-7.824250500000001  -2.519484
172.5625,6.7759989,-7.824250500000001   -2.519484
172.5625,10.1639989,-1.9560629  -2.519484
172.5625,3.3880000000000003,9.7803123   -2.519484
241.5875,-10.1639989,-0.0       -3.142907
241.5875,-5.082000000000001,-8.802281400000002  -3.142907
241.5875,-5.082000000000001,8.802281400000002   -3.142907
241.5875,5.082000000000001,-8.802281400000002   -3.142907
241.5875,10.1639989,-0.0        -3.142907
241.5875,5.082000000000001,8.802281400000002    -3.142907
9.510058591,-5.082000000000001,-2.9340938000000003      -8.177907
9.510058591,-5.082000000000001,2.9340938000000003       -8.177907
9.510058591,5.082000000000001,2.9340938000000003        -8.177907
9.510058591,5.082000000000001,-2.9340938000000003       -8.177907
9.510058591,-0.0,-5.868187600000001     -8.177907
9.510058591,0.0,5.868187600000001       -8.177907
277.0625,-5.082000000000001,-4.8901567  7.550516
277.0625,-6.7759989,-1.9560629  7.550516
277.0625,-1.6940000000000002,6.846218500000001  7.550516
277.0625,5.082000000000001,-4.8901567   7.550516
277.0625,1.6940000000000002,6.846218500000001   7.550516
277.0625,6.7759989,-1.9560629   7.550516
-382.8,-5.082000000000001,4.8901567     -7.554483
-382.8,-6.7759989,1.9560629     -7.554483
-382.8,-1.6940000000000002,-6.846218500000001   -7.554483
-382.8,1.6940000000000002,-6.846218500000001    -7.554483
-382.8,6.7759989,1.9560629      -7.554483
-382.8,5.082000000000001,4.8901567      -7.554483
78.3921875,-8.4699989,6.846218500000001 -0.625931
78.3921875,-10.1639989,3.9121247000000006       -0.625931
78.3921875,-1.6940000000000002,-10.758344300000001      -0.625931
78.3921875,1.6940000000000002,-10.758344300000001       -0.625931
78.3921875,10.1639989,3.9121247000000006        -0.625931
78.3921875,8.4699989,6.846218500000001  -0.625931
-532.125,-0.0,-9.7803123        4.409069
-532.125,-8.4699989,4.8901567   4.409069
-532.125,8.4699989,4.8901567    4.409069

End of input

&SCF
Occupied
9
Iterations
   50  100
End of Input

&RASSCF
LumOrb
Symmetry
1
Spin
2
Nactel
1 0 0
CIRoot
9 9 1
inactive
9
ras2
9
End of Input

>>> COPY chromium_so_cf.JobIph $SLURM_SUBMIT_DIR/chromium_so_cf.doublet.JobIph

>>> COPY $SLURM_SUBMIT_DIR/chromium_so_cf.doublet.JobIph ./JOB002

&RASSI
NROFJobIph
1 All
SpinOrbit
End of Input

EOF

-- ----------------------------------

--- Start Module: seward at Wed Mar 26 12:27:12 2025 ---

()()()()()()()()()()()()()()()()()()()()()()()()()()()()()()()()()()()()()()()()()()()()()()()()()()

                                              &SEWARD

                                   only a single process is used
                       available to each process: 4.1 GB of memory, 1 thread?
                                            pid: 2749188
()()()()()()()()()()()()()()()()()()()()()()()()()()()()()()()()()()()()()()()()()()()()()()()()()()

 The speed of LIGHT in this CALCULATION =   137.03599917700001     
               SEWARD will generate:
                  Multipole Moment integrals up to order  2
                  Kinetic Energy integrals
                  Nuclear Attraction integrals (point charge)
                  One-Electron Hamiltonian integrals
                  Velocity integrals
                  Relativistic Douglas-Kroll-Hess integrals:
                    - Parametrization         : EXP
                    - DKH order of Hamiltonian: 2
                    - DKH order of Properties : 0
                         - multipole moment operators
                         - electric potential operators
                         - contact operators
                  External field from   414 point(s) added to the one-electron Hamiltonian
                  Orbital angular momentum around (-0.0000 -0.0000  0.0088 )
                  Velocity quadrupole around (-0.0000 -0.0000  0.0088 )
                  Atomic mean-field integrals
                  Two-Electron Repulsion integrals

                   Integrals are discarded if absolute value <: 0.10E-13
                   Integral cutoff threshold is set to       <: 0.10E-15

++    Symmetry information:
      ---------------------

                    Character Table for C1 

                             E  
                    a        1  x, y, xy, Rz, z, xz, Ry, yz, Rx, I
--


++    Basis set information:
      ----------------------


      Basis set label: CR.ANO-RCC.ROOS.21S15P10D6F4G2H.10S10P8D6F4G2H......

      Electronic valence basis set:
      ------------------
      Associated Effective Charge  24.000000 au
      Associated Actual Charge     24.000000 au
      Nuclear Model: Point charge

      Shell  nPrim  nBasis  Cartesian Spherical Contaminant
         s      21      10        X                  
         p      15      10        X                  
         d      10       8                 X         
         f       6       6                 X         
         g       4       4                 X         
         h       2       2                 X         
--


++    Molecular structure info:
      -------------------------

                    ************************************************ 
                    **** Cartesian Coordinates / Bohr, Angstrom **** 
                    ************************************************ 

     Center  Label                x              y              z                     x              y              z
        1      CR              -0.000000      -0.000000       0.008754             -0.000000      -0.000000       0.004632
--


++    Operator info:
      --------------


  Net charge from external field:   -39.268449999999902     
--


            Nuclear Potential Energy              0.00000000 au

                    Nuclear-External Field Potential Energy    -199.61383987 au
                    External Field Potential Energy            1459.66991035 au 


            Total Nuclear Potential Energy           -199.61383987 au


      Basis set specifications :
      Symmetry species         a  
      Basis functions          180

 Sorry, Molden does not know how to handle
 functions with angular momentum larger than g
Note: The following floating-point exceptions are signalling: IEEE_UNDERFLOW_FLAG IEEE_DENORMAL
--- Stop Module: seward at Wed Mar 26 12:27:21 2025 /rc=_RC_ALL_IS_WELL_ ---
*** files: chromium_so_cf.GssOrb xmldump
    saved to directory /home4/s4752295/Internship/Initial_simulations/Point_charge_model/1_electron/Madelung_charges_9_active_space/Cr
--- Module seward spent 9 seconds ---

*** symbolic link created: INPORB -> chromium_so_cf.GssOrb
--- Start Module: scf at Wed Mar 26 12:27:21 2025 ---

()()()()()()()()()()()()()()()()()()()()()()()()()()()()()()()()()()()()()()()()()()()()()()()()()()

                                                &SCF

                                   only a single process is used
                       available to each process: 4.1 GB of memory, 1 thread?
                                            pid: 2749244
()()()()()()()()()()()()()()()()()()()()()()()()()()()()()()()()()()()()()()()()()()()()()()()()()()

++    Input section:
      --------------

      Header of the integral files:
      
       Integrals generated by seward 4.2.0  , Wed Mar 26 12:27:12 2025


      Cartesian coordinates in Angstrom:
      -----------------------------------------------------
      No.  Label        X            Y            Z        
      -----------------------------------------------------
       1   CR        -0.00000000  -0.00000000   0.00463220
      -----------------------------------------------------
      Nuclear repulsion energy = -199.61383987
--

++    Orbital specifications:
      -----------------------

      Symmetry species               1
                                     a
      Frozen orbitals                0
      Occupied orbitals              9
      Secondary orbitals           171
      Deleted orbitals               0
      Total number of orbitals     180
      Number of basis functions    180
--

      Molecular charge                           6.000

++    Optimization specifications:
      ----------------------------

      SCF Algorithm: Conventional
      Minimized density differences are used
      Number of density matrices in core                5
      Maximum number of NDDO SCF iterations            50
      Maximum number of HF SCF iterations             100
      Threshold for SCF energy change            0.10E-08
      Threshold for density matrix               0.10E-03
      Threshold for Fock matrix                  0.15E-03
      Threshold for linear dependence            0.10E-08
      Threshold at which DIIS is turned on       0.15E+00
      Threshold at which QNR/C2DIIS is turned on 0.75E-01
      Threshold for Norm(delta) (QNR/C2DIIS)     0.20E-04
      DIIS extrapolation of the SCF procedure
      All orbitals punched on: SCFORB
--

      Detected guessorb starting orbitals                                             


++ Convergence information
                                   SCF        iterations: Energy and convergence statistics

Iter     Tot. SCF        One-elec.       Two-elec.     Energy      Max Dij or  Max Fij      DNorm      TNorm      AccCon     Time
         Energy          Energy          Energy        Change      Delta Norm                                                in Sec.

 The total and one-electron energies are shifted by a value of      1000. a.u.

   1   -89.510803996  -195.273627204   305.376663078   0.00E+00    0.22E+00*   0.41E+00*    0.60E+01   0.25E+03   None         1.
   2   -90.394853589  -207.336853956   316.555840237  -0.88E+00*   0.43E-01*   0.74E-01*    0.14E+01   0.25E+03   EDIIS        1.
   3   -90.414562996  -205.924564950   315.123841824  -0.20E-01*   0.94E-02*   0.21E-01*    0.15E+00   0.25E+03   EDIIS        1.
   4   -90.415358938  -206.145684099   315.344165031  -0.80E-03*   0.42E-03*   0.38E-02*    0.16E-01   0.25E+03   c2DIIS       1.
   5   -90.415401453  -206.119308043   315.317746459  -0.43E-04*   0.17E-03*   0.35E-03*    0.18E-02   0.25E+03   QNRc2DIIS    1.
   6   -90.415401679  -206.117449147   315.315887337  -0.23E-06*   0.59E-04*   0.57E-04     0.26E-03   0.25E+03   QNRc2DIIS    1.
   7   -90.415401697  -206.117663577   315.316101749  -0.18E-07*   0.10E-04    0.15E-04     0.46E-04   0.25E+03   QNRc2DIIS    1.
   8   -90.415401698  -206.117706082   315.316144253  -0.65E-09    0.30E-05    0.39E-05     0.29E-04   0.25E+03   QNRc2DIIS    1.

       Convergence after  8 Macro Iterations
--

 *****************************************************************************************************************************
 *                                                                                                                           *
 *                                             SCF/KS-DFT Program, Final results                                             *
 *                                                                                                                           *
 *                                                                                                                           *
 *                                                                                                                           *
 *                                                       Final Results                                                       *
 *                                                                                                                           *
 *****************************************************************************************************************************

::    Total SCF energy                              -1090.4154016977
      One-electron energy                           -1206.1177060815
      Two-electron energy                             315.3161442533
      Nuclear repulsion energy                       -199.6138398695
      Kinetic energy (interpolated)                  1077.6037062534
      Virial theorem                                    1.0118890603
      Total spin, S(S+1)                                0.0000000000
      Total spin, S                                     0.0000000000
      Max non-diagonal density matrix element           0.0000039286
      Max non-diagonal Fock matrix element              0.0000015164


      All orbitals with orbital energies smaller than  E(LUMO)+0.5 are printed

++    Molecular orbitals:
      -------------------

      Title: SCF orbitals

      Molecular orbitals for symmetry species 1: a  

          Orbital            1         2         3         4         5         6         7         8         9        10    
          Energy         -218.0596  -22.7224  -18.3477  -18.3477  -18.3458    0.9557    2.3505    2.3505    2.4237    4.9289
          Occ. No.          2.0000    2.0000    2.0000    2.0000    2.0000    2.0000    2.0000    2.0000    2.0000    0.0000

        1 CR     1s         1.0000   -0.0001    0.0000   -0.0000   -0.0000    0.0001   -0.0000   -0.0000    0.0000   -0.0000
        2 CR     2s         0.0001    1.0000    0.0000   -0.0000   -0.0057    0.0021    0.0000   -0.0000   -0.0016    0.0002
        3 CR     3s        -0.0001   -0.0023   -0.0000    0.0000    0.0016    0.9790    0.0002   -0.0000   -0.1768    0.0301
        4 CR     4s         0.0000    0.0001    0.0000   -0.0000   -0.0002   -0.0442   -0.0000    0.0000    0.0401    0.3010
        5 CR     5s        -0.0000   -0.0005   -0.0000    0.0000    0.0004    0.0654    0.0001   -0.0000   -0.0591   -0.1441
        6 CR     6s         0.0000    0.0004    0.0000   -0.0000   -0.0003   -0.0276   -0.0000    0.0000    0.0223   -0.0733
        7 CR     7s        -0.0000   -0.0001   -0.0000    0.0000    0.0001   -0.0071   -0.0000    0.0000    0.0085    0.0346
        8 CR     8s         0.0000    0.0000    0.0000   -0.0000   -0.0000    0.0055    0.0000   -0.0000   -0.0053    0.0407
        9 CR     9s        -0.0001    0.0002    0.0000   -0.0000   -0.0000    0.0016    0.0000   -0.0000   -0.0021    0.0072
       10 CR    10s         0.0001   -0.0002   -0.0000    0.0000    0.0000    0.0003    0.0000   -0.0000   -0.0002    0.0005
       11 CR     2px        0.0000    0.0057   -0.0025    0.0000    1.0000   -0.0010   -0.0000    0.0000    0.0036   -0.0011
       12 CR     3px       -0.0000    0.0011    0.0000   -0.0000   -0.0033    0.1856   -0.0016    0.0000    0.9634   -0.0732
       13 CR     4px        0.0000   -0.0002   -0.0000    0.0000    0.0006   -0.0019    0.0001   -0.0000   -0.0787    0.4377
       14 CR     5px       -0.0000    0.0004    0.0000   -0.0000   -0.0010   -0.0055   -0.0001    0.0000    0.0909   -0.1671
       15 CR     6px        0.0000   -0.0001   -0.0000    0.0000    0.0003    0.0046    0.0000   -0.0000   -0.0062   -0.1367
       16 CR     7px       -0.0000    0.0001    0.0000   -0.0000   -0.0001   -0.0032    0.0000   -0.0000   -0.0103    0.0565
       17 CR     8px        0.0000   -0.0000    0.0000   -0.0000   -0.0002   -0.0010   -0.0000    0.0000    0.0033    0.0605
       18 CR     9px       -0.0000    0.0000   -0.0000    0.0000    0.0003    0.0011   -0.0000   -0.0000    0.0021    0.0068
       19 CR    10px        0.0000   -0.0000    0.0000   -0.0000   -0.0003    0.0006   -0.0000   -0.0000   -0.0007   -0.0067
       20 CR    11px       -0.0000    0.0001   -0.0000    0.0000    0.0002    0.0001    0.0000   -0.0000   -0.0005   -0.0018
       21 CR     2py       -0.0000   -0.0000    0.0000    1.0000   -0.0000   -0.0000    0.0000    0.0032    0.0000   -0.0000
       22 CR     3py        0.0000    0.0000   -0.0000   -0.0032    0.0000   -0.0000    0.0000    0.9857   -0.0000   -0.0000
       23 CR     4py       -0.0000   -0.0000    0.0000    0.0005   -0.0000    0.0000   -0.0000   -0.0841    0.0000   -0.0000
       24 CR     5py        0.0000    0.0000   -0.0000   -0.0009    0.0000   -0.0000    0.0000    0.0913   -0.0000    0.0000
       25 CR     6py       -0.0000   -0.0000    0.0000    0.0002   -0.0000    0.0000   -0.0000   -0.0026    0.0000    0.0000
       26 CR     7py        0.0000    0.0000   -0.0000   -0.0001    0.0000   -0.0000   -0.0000   -0.0135    0.0000   -0.0000
       27 CR     8py       -0.0000   -0.0000   -0.0000   -0.0001    0.0000    0.0000    0.0000    0.0024   -0.0000    0.0000
       28 CR     9py        0.0000    0.0000    0.0000    0.0003   -0.0000   -0.0000    0.0000    0.0033   -0.0000    0.0000
       29 CR    10py       -0.0000   -0.0000   -0.0000   -0.0003    0.0000    0.0000   -0.0000   -0.0000   -0.0000    0.0000
       30 CR    11py        0.0000    0.0000    0.0000    0.0002   -0.0000   -0.0000   -0.0000   -0.0004    0.0000   -0.0000
       31 CR     2pz        0.0000    0.0000    1.0000   -0.0000    0.0025   -0.0000    0.0032   -0.0000    0.0000   -0.0000
       32 CR     3pz       -0.0000    0.0000   -0.0032    0.0000   -0.0000    0.0001    0.9857   -0.0000    0.0016   -0.0002
       33 CR     4pz        0.0000   -0.0000    0.0005   -0.0000    0.0000   -0.0000   -0.0841    0.0000   -0.0001    0.0007
       34 CR     5pz       -0.0000    0.0000   -0.0009    0.0000   -0.0000   -0.0000    0.0913   -0.0000    0.0002   -0.0004
       35 CR     6pz        0.0000   -0.0000    0.0002   -0.0000    0.0000    0.0000   -0.0026    0.0000   -0.0000   -0.0002
       36 CR     7pz       -0.0000    0.0000   -0.0001    0.0000   -0.0000   -0.0000   -0.0134    0.0000   -0.0000    0.0002
       37 CR     8pz        0.0000   -0.0000   -0.0001    0.0000   -0.0000   -0.0000    0.0024   -0.0000    0.0000    0.0001
       38 CR     9pz       -0.0000    0.0000    0.0003   -0.0000    0.0000    0.0000    0.0033   -0.0000    0.0000   -0.0000
       39 CR    10pz        0.0000   -0.0000   -0.0003    0.0000   -0.0000    0.0000   -0.0000    0.0000   -0.0000   -0.0000
       40 CR    11pz       -0.0000    0.0000    0.0002   -0.0000    0.0000    0.0000   -0.0004    0.0000   -0.0000   -0.0000
       41 CR     3d2-       0.0000    0.0000    0.0000    0.0006   -0.0000   -0.0000    0.0000    0.1088   -0.0000   -0.0000
       42 CR     4d2-      -0.0000   -0.0000   -0.0000   -0.0004    0.0000    0.0000   -0.0000   -0.0234    0.0000   -0.0000
       43 CR     5d2-       0.0000    0.0000    0.0000    0.0003   -0.0000    0.0000   -0.0000   -0.0141    0.0000   -0.0000
       44 CR     6d2-      -0.0000   -0.0000   -0.0000   -0.0002    0.0000    0.0000    0.0000    0.0069   -0.0000    0.0000
       45 CR     7d2-       0.0000    0.0000    0.0000    0.0001   -0.0000   -0.0000    0.0000    0.0039   -0.0000    0.0000
       46 CR     8d2-      -0.0000   -0.0000   -0.0000   -0.0000    0.0000   -0.0000   -0.0000   -0.0010   -0.0000   -0.0000
       47 CR     9d2-       0.0000    0.0000    0.0000    0.0001   -0.0000    0.0000   -0.0000   -0.0019    0.0000   -0.0000
       48 CR    10d2-      -0.0000    0.0000   -0.0000   -0.0001    0.0000   -0.0000   -0.0000   -0.0003   -0.0000    0.0000
       49 CR     3d1-      -0.0000    0.0000    0.0000    0.0000    0.0000   -0.0000   -0.0000   -0.0003   -0.0000    0.0000
       50 CR     4d1-       0.0000   -0.0000   -0.0000   -0.0000   -0.0000    0.0000   -0.0000   -0.0002    0.0000   -0.0000
       51 CR     5d1-      -0.0000    0.0000    0.0000    0.0000    0.0000   -0.0000    0.0000    0.0000    0.0000   -0.0000
       52 CR     6d1-      -0.0000   -0.0000   -0.0000   -0.0000   -0.0000    0.0000    0.0000    0.0001    0.0000   -0.0000
       53 CR     7d1-       0.0000    0.0000    0.0000    0.0000    0.0000    0.0000    0.0000    0.0000    0.0000   -0.0000
       54 CR     8d1-      -0.0000   -0.0000   -0.0000   -0.0000   -0.0000   -0.0000   -0.0000   -0.0001    0.0000    0.0000
       55 CR     9d1-       0.0000    0.0000    0.0000    0.0000    0.0000   -0.0000   -0.0000   -0.0001   -0.0000    0.0000
       56 CR    10d1-       0.0000   -0.0000   -0.0000   -0.0000   -0.0000    0.0000   -0.0000   -0.0000    0.0000    0.0000
       57 CR     3d0       -0.0000    0.0000    0.0000   -0.0000   -0.0003   -0.0035    0.0005   -0.0000   -0.0687   -0.3821
       58 CR     4d0        0.0000   -0.0000   -0.0000    0.0000    0.0003   -0.0006    0.0001   -0.0000    0.0148    0.0011
       59 CR     5d0        0.0000    0.0000    0.0000   -0.0000   -0.0002    0.0012   -0.0000    0.0000    0.0085   -0.0059
       60 CR     6d0       -0.0000    0.0000    0.0000    0.0000    0.0001    0.0000   -0.0000    0.0000   -0.0040    0.0233
       61 CR     7d0        0.0000   -0.0000    0.0000   -0.0000   -0.0000   -0.0003   -0.0000    0.0000   -0.0023    0.0176
       62 CR     8d0       -0.0000    0.0000    0.0000   -0.0000    0.0000   -0.0001    0.0001   -0.0000    0.0005   -0.0094
       63 CR     9d0        0.0000   -0.0000    0.0000   -0.0000   -0.0000    0.0002    0.0000   -0.0000    0.0011   -0.0183
       64 CR    10d0       -0.0000   -0.0000   -0.0000    0.0000    0.0000    0.0001    0.0000   -0.0000    0.0002   -0.0057
       65 CR     3d1+       0.0000   -0.0000    0.0006   -0.0000    0.0000   -0.0000    0.1089   -0.0000    0.0003    0.0026
       66 CR     4d1+       0.0000    0.0000   -0.0004    0.0000   -0.0000    0.0000   -0.0234    0.0000   -0.0001   -0.0001
       67 CR     5d1+      -0.0000   -0.0000    0.0003   -0.0000    0.0000    0.0000   -0.0141    0.0000   -0.0000   -0.0000
       68 CR     6d1+       0.0000    0.0000   -0.0002    0.0000   -0.0000   -0.0000    0.0069   -0.0000    0.0000   -0.0002
       69 CR     7d1+      -0.0000    0.0000    0.0001   -0.0000    0.0000   -0.0000    0.0039   -0.0000    0.0000   -0.0001
       70 CR     8d1+       0.0000   -0.0000   -0.0000    0.0000   -0.0000    0.0000   -0.0010    0.0000   -0.0000    0.0001
       71 CR     9d1+      -0.0000    0.0000    0.0001   -0.0000    0.0000    0.0000   -0.0019    0.0000   -0.0000    0.0002
       72 CR    10d1+       0.0000   -0.0000   -0.0001    0.0000   -0.0000   -0.0000   -0.0003    0.0000   -0.0000    0.0001
       73 CR     3d2+       0.0000   -0.0000   -0.0000    0.0000    0.0006    0.0061    0.0000    0.0000    0.1191    0.6677
       74 CR     4d2+      -0.0000    0.0000    0.0000   -0.0000   -0.0005    0.0011    0.0001   -0.0000   -0.0255   -0.0027
       75 CR     5d2+      -0.0000   -0.0000   -0.0000    0.0000    0.0003   -0.0021    0.0000   -0.0000   -0.0148    0.0104
       76 CR     6d2+       0.0000   -0.0000    0.0000   -0.0000   -0.0002   -0.0000   -0.0000    0.0000    0.0070   -0.0405
       77 CR     7d2+      -0.0000    0.0000   -0.0000    0.0000    0.0000    0.0005   -0.0000    0.0000    0.0040   -0.0307
       78 CR     8d2+       0.0000   -0.0000    0.0000   -0.0000   -0.0000    0.0002    0.0000   -0.0000   -0.0009    0.0163
       79 CR     9d2+      -0.0000    0.0000   -0.0000    0.0000    0.0001   -0.0003    0.0000   -0.0000   -0.0018    0.0319
       80 CR    10d2+       0.0000    0.0000    0.0000   -0.0000   -0.0001   -0.0001    0.0000   -0.0000   -0.0003    0.0099
       81 CR     4f3-      -0.0000   -0.0000   -0.0000   -0.0000    0.0000    0.0000    0.0000    0.0037   -0.0000   -0.0000
       82 CR     5f3-       0.0000    0.0000    0.0000    0.0000   -0.0000   -0.0000    0.0000    0.0029   -0.0000   -0.0000
       83 CR     6f3-      -0.0000   -0.0000   -0.0000   -0.0000    0.0000   -0.0000   -0.0000   -0.0005   -0.0000   -0.0000
       84 CR     7f3-       0.0000    0.0000    0.0000    0.0000   -0.0000   -0.0000   -0.0000   -0.0011   -0.0000    0.0000
       85 CR     8f3-      -0.0000   -0.0000   -0.0000   -0.0000    0.0000    0.0000   -0.0000   -0.0001   -0.0000    0.0000
       86 CR     9f3-       0.0000    0.0000    0.0000    0.0000   -0.0000   -0.0000    0.0000    0.0004   -0.0000    0.0000
       87 CR     4f2-      -0.0000   -0.0000   -0.0000   -0.0000    0.0000   -0.0000   -0.0000   -0.0008   -0.0000    0.0000
       88 CR     5f2-       0.0000    0.0000    0.0000    0.0000   -0.0000    0.0000   -0.0000   -0.0007    0.0000    0.0000
       89 CR     6f2-      -0.0000   -0.0000   -0.0000   -0.0000   -0.0000   -0.0000   -0.0000   -0.0001   -0.0000    0.0000
       90 CR     7f2-       0.0000   -0.0000    0.0000    0.0000    0.0000    0.0000    0.0000    0.0002    0.0000   -0.0000
       91 CR     8f2-      -0.0000    0.0000   -0.0000   -0.0000   -0.0000    0.0000    0.0000    0.0001    0.0000   -0.0000
       92 CR     9f2-       0.0000   -0.0000   -0.0000   -0.0000    0.0000   -0.0000    0.0000    0.0000    0.0000   -0.0000
       93 CR     4f1-      -0.0000   -0.0000    0.0000    0.0000   -0.0000    0.0000   -0.0000   -0.0009   -0.0000    0.0000
       94 CR     5f1-       0.0000    0.0000   -0.0000   -0.0000    0.0000   -0.0000   -0.0000   -0.0007    0.0000    0.0000
       95 CR     6f1-      -0.0000   -0.0000    0.0000    0.0000   -0.0000    0.0000    0.0000    0.0001   -0.0000    0.0000
       96 CR     7f1-       0.0000    0.0000   -0.0000   -0.0000    0.0000    0.0000    0.0000    0.0003    0.0000   -0.0000
       97 CR     8f1-      -0.0000   -0.0000    0.0000    0.0000   -0.0000    0.0000    0.0000    0.0000   -0.0000   -0.0000
       98 CR     9f1-      -0.0000    0.0000   -0.0000   -0.0000   -0.0000    0.0000   -0.0000   -0.0001    0.0000   -0.0000
       99 CR     4f0       -0.0000    0.0000    0.0000   -0.0000    0.0000    0.0001   -0.0023    0.0000    0.0005    0.0071
      100 CR     5f0        0.0000    0.0000   -0.0000    0.0000   -0.0000    0.0001   -0.0019    0.0000    0.0004    0.0132
      101 CR     6f0       -0.0000   -0.0000    0.0000   -0.0000    0.0000    0.0000    0.0003   -0.0000    0.0001    0.0100
      102 CR     7f0        0.0000    0.0000   -0.0000    0.0000   -0.0000   -0.0000    0.0007   -0.0000   -0.0001    0.0023
      103 CR     8f0       -0.0000   -0.0000    0.0000   -0.0000    0.0000   -0.0000    0.0001   -0.0000   -0.0000   -0.0023
      104 CR     9f0        0.0000   -0.0000   -0.0000    0.0000    0.0000   -0.0000   -0.0002    0.0000    0.0000   -0.0036
      105 CR     4f1+       0.0000   -0.0000    0.0000   -0.0000    0.0000   -0.0007    0.0006   -0.0000   -0.0027   -0.0817
      106 CR     5f1+      -0.0000    0.0000   -0.0000    0.0000   -0.0000   -0.0003    0.0005   -0.0000   -0.0021   -0.0601
      107 CR     6f1+       0.0000   -0.0000   -0.0000    0.0000    0.0000    0.0002    0.0001   -0.0000    0.0004   -0.0051
      108 CR     7f1+      -0.0000   -0.0000    0.0000   -0.0000   -0.0000    0.0001   -0.0001    0.0000    0.0009    0.0182
      109 CR     8f1+       0.0000    0.0000   -0.0000    0.0000    0.0000   -0.0000   -0.0001    0.0000    0.0001    0.0140
      110 CR     9f1+      -0.0000   -0.0000    0.0000   -0.0000   -0.0000   -0.0000   -0.0000    0.0000   -0.0003    0.0084
      111 CR     4f2+      -0.0000    0.0000   -0.0000    0.0000    0.0000    0.0001    0.0030   -0.0000    0.0004    0.0064
      112 CR     5f2+       0.0000    0.0000    0.0000   -0.0000   -0.0000    0.0001    0.0024   -0.0000    0.0003    0.0111
      113 CR     6f2+      -0.0000   -0.0000   -0.0000    0.0000   -0.0000   -0.0000   -0.0004    0.0000    0.0000    0.0080
      114 CR     7f2+       0.0000    0.0000    0.0000   -0.0000    0.0000   -0.0000   -0.0009    0.0000   -0.0001    0.0016
      115 CR     8f2+      -0.0000   -0.0000   -0.0000    0.0000   -0.0000   -0.0000   -0.0001    0.0000   -0.0000   -0.0020
      116 CR     9f2+       0.0000   -0.0000    0.0000   -0.0000    0.0000   -0.0000    0.0003   -0.0000    0.0000   -0.0030
      117 CR     4f3+      -0.0000    0.0000    0.0000   -0.0000   -0.0000    0.0010    0.0005   -0.0000    0.0035    0.1066
      118 CR     5f3+       0.0000   -0.0000   -0.0000    0.0000    0.0000    0.0003    0.0004   -0.0000    0.0027    0.0790
      119 CR     6f3+      -0.0000    0.0000    0.0000   -0.0000   -0.0000   -0.0002    0.0000   -0.0000   -0.0006    0.0072
      120 CR     7f3+       0.0000    0.0000   -0.0000    0.0000    0.0000   -0.0001   -0.0001    0.0000   -0.0011   -0.0236
      121 CR     8f3+      -0.0000   -0.0000    0.0000   -0.0000   -0.0000    0.0000   -0.0001    0.0000   -0.0001   -0.0185
      122 CR     9f3+       0.0000    0.0000    0.0000   -0.0000    0.0000    0.0001   -0.0000    0.0000    0.0004   -0.0113
      123 CR     5g4-      -0.0000   -0.0000    0.0000    0.0000   -0.0000    0.0000    0.0000    0.0009   -0.0000   -0.0000
      124 CR     6g4-       0.0000    0.0000   -0.0000   -0.0000    0.0000    0.0000    0.0000    0.0009   -0.0000   -0.0000
      125 CR     7g4-      -0.0000   -0.0000    0.0000    0.0000   -0.0000   -0.0000    0.0000    0.0003    0.0000   -0.0000
      126 CR     8g4-       0.0000    0.0000    0.0000    0.0000    0.0000    0.0000   -0.0000   -0.0000   -0.0000   -0.0000
      127 CR     5g3-       0.0000    0.0000   -0.0000   -0.0000    0.0000    0.0000   -0.0000   -0.0004    0.0000    0.0000
      128 CR     6g3-      -0.0000   -0.0000    0.0000    0.0000    0.0000   -0.0000   -0.0000   -0.0006    0.0000    0.0000
      129 CR     7g3-       0.0000    0.0000   -0.0000   -0.0000   -0.0000    0.0000   -0.0000   -0.0004   -0.0000    0.0000
      130 CR     8g3-      -0.0000   -0.0000    0.0000    0.0000    0.0000   -0.0000   -0.0000   -0.0001   -0.0000    0.0000
      131 CR     5g2-      -0.0000   -0.0000   -0.0000   -0.0000    0.0000   -0.0000   -0.0000   -0.0003    0.0000    0.0000
      132 CR     6g2-       0.0000    0.0000    0.0000    0.0000   -0.0000   -0.0000   -0.0000   -0.0003    0.0000    0.0000
      133 CR     7g2-      -0.0000   -0.0000   -0.0000   -0.0000   -0.0000    0.0000   -0.0000   -0.0001    0.0000    0.0000
      134 CR     8g2-       0.0000    0.0000   -0.0000   -0.0000    0.0000   -0.0000    0.0000    0.0000   -0.0000    0.0000
      135 CR     5g1-      -0.0000   -0.0000    0.0000    0.0000   -0.0000    0.0000    0.0000    0.0002    0.0000   -0.0000
      136 CR     6g1-       0.0000    0.0000    0.0000    0.0000   -0.0000   -0.0000    0.0000    0.0003   -0.0000   -0.0000
      137 CR     7g1-      -0.0000   -0.0000   -0.0000   -0.0000    0.0000    0.0000    0.0000    0.0002   -0.0000   -0.0000
      138 CR     8g1-       0.0000    0.0000   -0.0000   -0.0000    0.0000   -0.0000    0.0000    0.0000   -0.0000   -0.0000
      139 CR     5g0        0.0000   -0.0000   -0.0000    0.0000    0.0000   -0.0001   -0.0002    0.0000    0.0003    0.0031
      140 CR     6g0        0.0000    0.0000    0.0000   -0.0000   -0.0000   -0.0000   -0.0003    0.0000    0.0002    0.0050
      141 CR     7g0        0.0000   -0.0000   -0.0000    0.0000    0.0000   -0.0000   -0.0002    0.0000   -0.0000    0.0021
      142 CR     8g0       -0.0000    0.0000    0.0000   -0.0000    0.0000    0.0000   -0.0001    0.0000   -0.0001   -0.0011
      143 CR     5g1+      -0.0000    0.0000   -0.0000    0.0000    0.0000    0.0003   -0.0007    0.0000    0.0003    0.0046
      144 CR     6g1+      -0.0000   -0.0000    0.0000   -0.0000    0.0000    0.0003   -0.0007    0.0000    0.0005    0.0119
      145 CR     7g1+       0.0000    0.0000   -0.0000    0.0000   -0.0000    0.0001   -0.0003    0.0000    0.0003    0.0139
      146 CR     8g1+       0.0000   -0.0000   -0.0000    0.0000   -0.0000   -0.0000    0.0000   -0.0000    0.0001    0.0110
      147 CR     5g2+      -0.0000    0.0000    0.0000   -0.0000   -0.0000    0.0001    0.0002   -0.0000   -0.0005   -0.0047
      148 CR     6g2+      -0.0000   -0.0000   -0.0000    0.0000    0.0000    0.0001    0.0004   -0.0000   -0.0003   -0.0077
      149 CR     7g2+      -0.0000    0.0000   -0.0000    0.0000   -0.0000    0.0000    0.0002   -0.0000    0.0001   -0.0034
      150 CR     8g2+       0.0000   -0.0000   -0.0000    0.0000   -0.0000   -0.0000    0.0000   -0.0000    0.0001    0.0014
      151 CR     5g3+      -0.0000    0.0000    0.0000   -0.0000    0.0000    0.0003    0.0006   -0.0000    0.0003    0.0054
      152 CR     6g3+      -0.0000   -0.0000   -0.0000    0.0000    0.0000    0.0003    0.0007   -0.0000    0.0005    0.0141
      153 CR     7g3+       0.0000    0.0000    0.0000   -0.0000   -0.0000    0.0001    0.0002   -0.0000    0.0004    0.0162
      154 CR     8g3+       0.0000   -0.0000    0.0000   -0.0000   -0.0000   -0.0000   -0.0000    0.0000    0.0001    0.0128
      155 CR     5g4+       0.0000   -0.0000    0.0000   -0.0000    0.0000   -0.0001    0.0003   -0.0000    0.0006    0.0066
      156 CR     6g4+       0.0000    0.0000   -0.0000    0.0000   -0.0000   -0.0001    0.0004   -0.0000    0.0004    0.0110
      157 CR     7g4+       0.0000   -0.0000   -0.0000    0.0000    0.0000   -0.0000    0.0003   -0.0000   -0.0001    0.0052
      158 CR     8g4+      -0.0000    0.0000   -0.0000    0.0000    0.0000    0.0000    0.0001   -0.0000   -0.0002   -0.0013
      159 CR     6h5-      -0.0000   -0.0000   -0.0000   -0.0000   -0.0000    0.0000    0.0000    0.0000   -0.0000   -0.0000
      160 CR     7h5-       0.0000    0.0000    0.0000    0.0000    0.0000   -0.0000    0.0000    0.0001   -0.0000   -0.0000
      161 CR     6h4-      -0.0000   -0.0000    0.0000    0.0000   -0.0000   -0.0000    0.0000    0.0000   -0.0000    0.0000
      162 CR     7h4-       0.0000    0.0000   -0.0000   -0.0000    0.0000   -0.0000   -0.0000   -0.0001    0.0000    0.0000
      163 CR     6h3-      -0.0000   -0.0000    0.0000    0.0000   -0.0000    0.0000   -0.0000   -0.0000    0.0000   -0.0000
      164 CR     7h3-       0.0000    0.0000   -0.0000   -0.0000    0.0000   -0.0000   -0.0000   -0.0001   -0.0000    0.0000
      165 CR     6h2-       0.0000    0.0000    0.0000    0.0000   -0.0000    0.0000    0.0000    0.0003   -0.0000   -0.0000
      166 CR     7h2-       0.0000   -0.0000   -0.0000   -0.0000    0.0000    0.0000    0.0000    0.0004   -0.0000   -0.0000
      167 CR     6h1-      -0.0000   -0.0000   -0.0000   -0.0000   -0.0000    0.0000   -0.0000   -0.0000    0.0000   -0.0000
      168 CR     7h1-       0.0000    0.0000    0.0000    0.0000    0.0000   -0.0000    0.0000    0.0000   -0.0000   -0.0000
      169 CR     6h0        0.0000   -0.0000   -0.0000    0.0000   -0.0000   -0.0001    0.0000   -0.0000   -0.0002   -0.0017
      170 CR     7h0        0.0000   -0.0000    0.0000   -0.0000    0.0000   -0.0002    0.0001   -0.0000   -0.0003   -0.0035
      171 CR     6h1+       0.0000   -0.0000    0.0000   -0.0000   -0.0000   -0.0000    0.0001   -0.0000   -0.0002   -0.0002
      172 CR     7h1+       0.0000   -0.0000   -0.0000    0.0000    0.0000   -0.0001    0.0000   -0.0000   -0.0002   -0.0009
      173 CR     6h2+      -0.0000    0.0000    0.0000   -0.0000    0.0000    0.0001   -0.0000    0.0000    0.0001    0.0010
      174 CR     7h2+      -0.0000    0.0000   -0.0000    0.0000   -0.0000    0.0001   -0.0001    0.0000    0.0002    0.0020
      175 CR     6h3+      -0.0000    0.0000    0.0000   -0.0000    0.0000    0.0000    0.0002   -0.0000    0.0002    0.0002
      176 CR     7h3+      -0.0000    0.0000   -0.0000    0.0000   -0.0000    0.0001    0.0003   -0.0000    0.0002    0.0009
      177 CR     6h4+      -0.0000    0.0000   -0.0000    0.0000    0.0000    0.0002    0.0000   -0.0000    0.0003    0.0027
      178 CR     7h4+      -0.0000    0.0000    0.0000   -0.0000   -0.0000    0.0003    0.0001   -0.0000    0.0005    0.0055
      179 CR     6h5+       0.0000   -0.0000    0.0000   -0.0000   -0.0000   -0.0001    0.0001   -0.0000   -0.0003   -0.0001
      180 CR     7h5+       0.0000   -0.0000    0.0000   -0.0000    0.0000   -0.0001    0.0002   -0.0000   -0.0003   -0.0011

          Orbital           11        12        13        14        15    
          Energy            4.9753    4.9756    4.9939    4.9941    5.1672
          Occ. No.          0.0000    0.0000    0.0000    0.0000    0.0000

        1 CR     1s         0.0000    0.0000    0.0000    0.0000   -0.0000
        2 CR     2s        -0.0000    0.0000   -0.0000    0.0000   -0.0001
        3 CR     3s        -0.0001    0.0000   -0.0001   -0.0000    0.0181
        4 CR     4s        -0.0011    0.0000   -0.0002    0.0000    0.4498
        5 CR     5s         0.0005   -0.0000    0.0001    0.0000   -0.2249
        6 CR     6s         0.0002   -0.0000    0.0001   -0.0000   -0.0894
        7 CR     7s        -0.0001   -0.0000   -0.0000   -0.0000    0.0478
        8 CR     8s        -0.0001   -0.0000   -0.0000   -0.0000    0.0547
        9 CR     9s        -0.0000   -0.0000   -0.0000   -0.0000    0.0111
       10 CR    10s        -0.0000   -0.0000    0.0000   -0.0000    0.0009
       11 CR     2px        0.0000   -0.0000    0.0000   -0.0000    0.0008
       12 CR     3px        0.0003   -0.0000    0.0002    0.0000    0.1029
       13 CR     4px       -0.0015    0.0000   -0.0005   -0.0000    0.4305
       14 CR     5px        0.0005   -0.0000    0.0003    0.0000   -0.0585
       15 CR     6px        0.0004   -0.0000    0.0001    0.0000   -0.1699
       16 CR     7px       -0.0001    0.0000   -0.0001    0.0000    0.0273
       17 CR     8px       -0.0002    0.0000   -0.0001    0.0000    0.0795
       18 CR     9px       -0.0001    0.0000    0.0000    0.0000    0.0279
       19 CR    10px       -0.0000    0.0000    0.0000    0.0000   -0.0012
       20 CR    11px       -0.0000    0.0000    0.0000    0.0000   -0.0014
       21 CR     2py       -0.0000   -0.0009    0.0000   -0.0005    0.0000
       22 CR     3py       -0.0000   -0.0726    0.0000   -0.0380    0.0000
       23 CR     4py        0.0000    0.1732   -0.0000    0.0755    0.0000
       24 CR     5py       -0.0000   -0.0911    0.0000   -0.0453    0.0000
       25 CR     6py       -0.0000   -0.0376    0.0000   -0.0146    0.0000
       26 CR     7py        0.0000    0.0315   -0.0000    0.0148   -0.0000
       27 CR     8py        0.0000    0.0198   -0.0000    0.0066   -0.0000
       28 CR     9py       -0.0000   -0.0013    0.0000   -0.0022    0.0000
       29 CR    10py       -0.0000   -0.0032    0.0000   -0.0017    0.0000
       30 CR    11py       -0.0000   -0.0006    0.0000   -0.0003    0.0000
       31 CR     2pz       -0.0009    0.0000    0.0005    0.0000    0.0000
       32 CR     3pz       -0.0732    0.0000    0.0366    0.0000    0.0000
       33 CR     4pz        0.1753   -0.0000   -0.0727   -0.0000   -0.0001
       34 CR     5pz       -0.0920    0.0000    0.0436    0.0000   -0.0001
       35 CR     6pz       -0.0381    0.0000    0.0141    0.0000    0.0000
       36 CR     7pz        0.0319   -0.0000   -0.0142   -0.0000    0.0001
       37 CR     8pz        0.0201   -0.0000   -0.0064   -0.0000    0.0000
       38 CR     9pz       -0.0013    0.0000    0.0021    0.0000   -0.0001
       39 CR    10pz       -0.0032    0.0000    0.0017    0.0000   -0.0000
       40 CR    11pz       -0.0006    0.0000    0.0003    0.0000   -0.0000
       41 CR     3d2-       0.0000    0.8335   -0.0000    0.4219   -0.0000
       42 CR     4d2-      -0.0000   -0.1375    0.0000   -0.0915    0.0000
       43 CR     5d2-       0.0000    0.0110   -0.0000    0.0012    0.0000
       44 CR     6d2-      -0.0000   -0.0144    0.0000   -0.0033   -0.0000
       45 CR     7d2-      -0.0000   -0.0124    0.0000   -0.0009   -0.0000
       46 CR     8d2-       0.0000    0.0044   -0.0000    0.0021   -0.0000
       47 CR     9d2-       0.0000    0.0157   -0.0000    0.0044    0.0000
       48 CR    10d2-       0.0000    0.0055   -0.0000    0.0015    0.0000
       49 CR     3d1-      -0.0000   -0.4295   -0.0000    0.8471    0.0000
       50 CR     4d1-       0.0000    0.1098    0.0000   -0.2685   -0.0000
       51 CR     5d1-      -0.0000   -0.0033    0.0000   -0.0053    0.0000
       52 CR     6d1-      -0.0000   -0.0012   -0.0000    0.0131    0.0000
       53 CR     7d1-       0.0000    0.0017   -0.0000    0.0142    0.0000
       54 CR     8d1-       0.0000    0.0031    0.0000   -0.0016    0.0000
       55 CR     9d1-      -0.0000   -0.0018    0.0000   -0.0030   -0.0000
       56 CR    10d1-      -0.0000   -0.0012    0.0000   -0.0003   -0.0000
       57 CR     3d0        0.3609   -0.0000    0.7406    0.0000    0.2639
       58 CR     4d0       -0.0914    0.0000   -0.2343   -0.0000   -0.2213
       59 CR     5d0        0.0029   -0.0000   -0.0046   -0.0000   -0.0142
       60 CR     6d0        0.0008   -0.0000    0.0113    0.0000    0.0333
       61 CR     7d0       -0.0017    0.0000    0.0122    0.0000    0.0340
       62 CR     8d0       -0.0026    0.0000   -0.0014   -0.0000   -0.0080
       63 CR     9d0        0.0017   -0.0000   -0.0025   -0.0000   -0.0231
       64 CR    10d0        0.0010   -0.0000   -0.0003   -0.0000   -0.0071
       65 CR     3d1+       0.8404   -0.0000   -0.4074   -0.0000   -0.0006
       66 CR     4d1+      -0.1377    0.0000    0.0885    0.0000    0.0001
       67 CR     5d1+       0.0112   -0.0000   -0.0011   -0.0000   -0.0002
       68 CR     6d1+      -0.0148    0.0000    0.0032    0.0000   -0.0001
       69 CR     7d1+      -0.0128    0.0000    0.0008    0.0000    0.0001
       70 CR     8d1+       0.0045   -0.0000   -0.0021   -0.0000    0.0002
       71 CR     9d1+       0.0160   -0.0000   -0.0042   -0.0000    0.0001
       72 CR    10d1+       0.0056   -0.0000   -0.0015   -0.0000    0.0000
       73 CR     3d2+       0.2044   -0.0000    0.4261    0.0000   -0.4582
       74 CR     4d2+      -0.0522    0.0000   -0.1351   -0.0000    0.3846
       75 CR     5d2+       0.0016   -0.0000   -0.0026   -0.0000    0.0248
       76 CR     6d2+       0.0005   -0.0000    0.0066    0.0000   -0.0580
       77 CR     7d2+      -0.0009    0.0000    0.0071    0.0000   -0.0592
       78 CR     8d2+      -0.0015    0.0000   -0.0008   -0.0000    0.0139
       79 CR     9d2+       0.0009   -0.0000   -0.0015   -0.0000    0.0403
       80 CR    10d2+       0.0006   -0.0000   -0.0002   -0.0000    0.0124
       81 CR     4f3-       0.0000    0.1341   -0.0000    0.0604   -0.0000
       82 CR     5f3-       0.0000    0.1014   -0.0000    0.0375    0.0000
       83 CR     6f3-       0.0000    0.0199   -0.0000    0.0013    0.0000
       84 CR     7f3-      -0.0000   -0.0182    0.0000   -0.0087   -0.0000
       85 CR     8f3-      -0.0000   -0.0217    0.0000   -0.0063   -0.0000
       86 CR     9f3-      -0.0000   -0.0182    0.0000   -0.0036   -0.0000
       87 CR     4f2-      -0.0000   -0.0585   -0.0000    0.0810   -0.0000
       88 CR     5f2-      -0.0000   -0.0486   -0.0000    0.0332   -0.0000
       89 CR     6f2-      -0.0000   -0.0153    0.0000   -0.0126   -0.0000
       90 CR     7f2-       0.0000    0.0045    0.0000   -0.0106    0.0000
       91 CR     8f2-       0.0000    0.0109    0.0000   -0.0005    0.0000
       92 CR     9f2-       0.0000    0.0116   -0.0000    0.0048    0.0000
       93 CR     4f1-      -0.0000   -0.0346    0.0000   -0.0155    0.0000
       94 CR     5f1-      -0.0000   -0.0261    0.0000   -0.0096   -0.0000
       95 CR     6f1-      -0.0000   -0.0050    0.0000   -0.0003   -0.0000
       96 CR     7f1-       0.0000    0.0047   -0.0000    0.0022    0.0000
       97 CR     8f1-       0.0000    0.0056   -0.0000    0.0016    0.0000
       98 CR     9f1-       0.0000    0.0047   -0.0000    0.0009    0.0000
       99 CR     4f0       -0.0858    0.0000    0.0369    0.0000    0.0093
      100 CR     5f0       -0.0651    0.0000    0.0229    0.0000    0.0168
      101 CR     6f0       -0.0130    0.0000    0.0008    0.0000    0.0126
      102 CR     7f0        0.0116   -0.0000   -0.0053   -0.0000    0.0027
      103 CR     8f0        0.0140   -0.0000   -0.0038   -0.0000   -0.0032
      104 CR     9f0        0.0118   -0.0000   -0.0022   -0.0000   -0.0049
      105 CR     4f1+       0.0455   -0.0000    0.0649    0.0000    0.0269
      106 CR     5f1+       0.0380   -0.0000    0.0269    0.0000   -0.0162
      107 CR     6f1+       0.0120   -0.0000   -0.0098   -0.0000   -0.0206
      108 CR     7f1+      -0.0036    0.0000   -0.0084   -0.0000    0.0069
      109 CR     8f1+      -0.0085    0.0000   -0.0005   -0.0000    0.0150
      110 CR     9f1+      -0.0091    0.0000    0.0036    0.0000    0.0155
      111 CR     4f2+       0.1107   -0.0000   -0.0476   -0.0000    0.0072
      112 CR     5f2+       0.0839   -0.0000   -0.0295   -0.0000    0.0131
      113 CR     6f2+       0.0166   -0.0000   -0.0010   -0.0000    0.0097
      114 CR     7f2+      -0.0151    0.0000    0.0068    0.0000    0.0020
      115 CR     8f2+      -0.0180    0.0000    0.0049    0.0000   -0.0025
      116 CR     9f2+      -0.0152    0.0000    0.0028    0.0000   -0.0038
      117 CR     4f3+       0.0346   -0.0000    0.0499    0.0000   -0.0341
      118 CR     5f3+       0.0292   -0.0000    0.0206    0.0000    0.0219
      119 CR     6f3+       0.0095   -0.0000   -0.0076   -0.0000    0.0272
      120 CR     7f3+      -0.0026    0.0000   -0.0065   -0.0000   -0.0090
      121 CR     8f3+      -0.0066    0.0000   -0.0004   -0.0000   -0.0197
      122 CR     9f3+      -0.0071    0.0000    0.0028    0.0000   -0.0205
      123 CR     5g4-       0.0000    0.0151   -0.0000    0.0057    0.0000
      124 CR     6g4-       0.0000    0.0326   -0.0000    0.0112    0.0000
      125 CR     7g4-       0.0000    0.0298   -0.0000    0.0088    0.0000
      126 CR     8g4-       0.0000    0.0180   -0.0000    0.0041    0.0000
      127 CR     5g3-      -0.0000   -0.0094   -0.0000    0.0031   -0.0000
      128 CR     6g3-      -0.0000   -0.0220   -0.0000    0.0044   -0.0000
      129 CR     7g3-      -0.0000   -0.0227   -0.0000    0.0006   -0.0000
      130 CR     8g3-      -0.0000   -0.0162    0.0000   -0.0026   -0.0000
      131 CR     5g2-      -0.0000   -0.0056    0.0000   -0.0021   -0.0000
      132 CR     6g2-      -0.0000   -0.0122    0.0000   -0.0042   -0.0000
      133 CR     7g2-      -0.0000   -0.0111    0.0000   -0.0033   -0.0000
      134 CR     8g2-      -0.0000   -0.0067    0.0000   -0.0015   -0.0000
      135 CR     5g1-       0.0000    0.0048    0.0000   -0.0007    0.0000
      136 CR     6g1-       0.0000    0.0110    0.0000   -0.0008    0.0000
      137 CR     7g1-       0.0000    0.0112   -0.0000    0.0005    0.0000
      138 CR     8g1-       0.0000    0.0079   -0.0000    0.0014    0.0000
      139 CR     5g0       -0.0050    0.0000   -0.0022   -0.0000   -0.0007
      140 CR     6g0       -0.0117    0.0000   -0.0033   -0.0000   -0.0024
      141 CR     7g0       -0.0122    0.0000   -0.0009   -0.0000   -0.0028
      142 CR     8g0       -0.0088    0.0000    0.0012    0.0000   -0.0024
      143 CR     5g1+      -0.0123    0.0000    0.0044    0.0000    0.0061
      144 CR     6g1+      -0.0267    0.0000    0.0087    0.0000    0.0158
      145 CR     7g1+      -0.0244    0.0000    0.0068    0.0000    0.0183
      146 CR     8g1+      -0.0148    0.0000    0.0032    0.0000    0.0145
      147 CR     5g2+       0.0060   -0.0000    0.0014    0.0000    0.0010
      148 CR     6g2+       0.0138   -0.0000    0.0019    0.0000    0.0032
      149 CR     7g2+       0.0141   -0.0000   -0.0000   -0.0000    0.0039
      150 CR     8g2+       0.0100   -0.0000   -0.0015   -0.0000    0.0034
      151 CR     5g3+       0.0108   -0.0000   -0.0039   -0.0000    0.0071
      152 CR     6g3+       0.0234   -0.0000   -0.0077   -0.0000    0.0182
      153 CR     7g3+       0.0214   -0.0000   -0.0060   -0.0000    0.0210
      154 CR     8g3+       0.0129   -0.0000   -0.0028   -0.0000    0.0165
      155 CR     5g4+       0.0071   -0.0000    0.0021    0.0000   -0.0010
      156 CR     6g4+       0.0165   -0.0000    0.0030    0.0000   -0.0037
      157 CR     7g4+       0.0170   -0.0000    0.0004    0.0000   -0.0045
      158 CR     8g4+       0.0122   -0.0000   -0.0018   -0.0000   -0.0040
      159 CR     6h5-       0.0000    0.0024   -0.0000    0.0012    0.0000
      160 CR     7h5-       0.0000    0.0041   -0.0000    0.0019    0.0000
      161 CR     6h4-      -0.0000   -0.0020   -0.0000    0.0006   -0.0000
      162 CR     7h4-      -0.0000   -0.0038   -0.0000    0.0006   -0.0000
      163 CR     6h3-      -0.0000   -0.0011    0.0000   -0.0006    0.0000
      164 CR     7h3-      -0.0000   -0.0018    0.0000   -0.0009    0.0000
      165 CR     6h2-       0.0000    0.0022   -0.0000    0.0001    0.0000
      166 CR     7h2-       0.0000    0.0041   -0.0000    0.0004    0.0000
      167 CR     6h1-       0.0000    0.0003   -0.0000    0.0001    0.0000
      168 CR     7h1-       0.0000    0.0004   -0.0000    0.0002    0.0000
      169 CR     6h0        0.0013   -0.0000   -0.0007   -0.0000   -0.0021
      170 CR     7h0        0.0023   -0.0000   -0.0010   -0.0000   -0.0042
      171 CR     6h1+      -0.0014    0.0000   -0.0005   -0.0000   -0.0014
      172 CR     7h1+      -0.0026    0.0000   -0.0006   -0.0000   -0.0026
      173 CR     6h2+      -0.0018    0.0000    0.0008    0.0000    0.0012
      174 CR     7h2+      -0.0030    0.0000    0.0013    0.0000    0.0025
      175 CR     6h3+       0.0016   -0.0000   -0.0001   -0.0000    0.0015
      176 CR     7h3+       0.0030   -0.0000   -0.0004   -0.0000    0.0027
      177 CR     6h4+       0.0016   -0.0000   -0.0008   -0.0000    0.0032
      178 CR     7h4+       0.0027   -0.0000   -0.0012   -0.0000    0.0065
      179 CR     6h5+       0.0021   -0.0000    0.0003    0.0000   -0.0019
      180 CR     7h5+       0.0040   -0.0000    0.0001    0.0000   -0.0035
--


++    Molecular charges:
      ------------------

      Mulliken charges per centre and basis function type
      ---------------------------------------------------

                CR    
      1s       2.0000
      2s       2.0000
      2px      2.0000
      2pz      2.0000
      2py      2.0000
      3s       1.9793
      3px      1.9254
      3pz      1.9434
      3py      1.9434
      4s       0.0071
      3d2+     0.0284
      3d1+     0.0237
      3d0      0.0095
      3d1-     0.0000
      3d2-     0.0237
      4px      0.0124
      4pz      0.0141
      4py      0.0141
      5s       0.0155
      4d2+     0.0013
      4d1+     0.0011
      4d0      0.0004
      4d1-     0.0000
      4d2-     0.0011
      5px      0.0166
      5pz      0.0167
      5py      0.0167
      6s       0.0025
      4f3+     0.0000
      4f2+     0.0000
      4f1+     0.0000
      4f0      0.0000
      4f1-     0.0000
      4f2-     0.0000
      4f3-     0.0000
      5d2+     0.0004
      5d1+     0.0004
      5d0      0.0001
      5d1-     0.0000
      5d2-     0.0004
      6px      0.0001
      6pz      0.0000
      6py      0.0000
      7s       0.0002
      5f3+     0.0000
      5f2+     0.0000
      5f1+     0.0000
      5f0      0.0000
      5f1-     0.0000
      5f2-     0.0000
      5f3-     0.0000
      6d2+     0.0001
      6d1+     0.0001
      6d0      0.0000
      6d1-     0.0000
      6d2-     0.0001
      7px      0.0002
      7pz      0.0004
      7py      0.0004
      5g4+     0.0000
      5g3+     0.0000
      5g2+     0.0000
      5g1+     0.0000
      5g0      0.0000
      5g1-     0.0000
      5g2-     0.0000
      5g3-     0.0000
      5g4-     0.0000
      6f3+     0.0000
      6f2+     0.0000
      6f1+     0.0000
      6f0      0.0000
      6f1-     0.0000
      6f2-     0.0000
      6f3-     0.0000
      6g4+     0.0000
      6g3+     0.0000
      6g2+     0.0000
      6g1+     0.0000
      6g0      0.0000
      6g1-     0.0000
      6g2-     0.0000
      6g3-     0.0000
      6g4-     0.0000
      6h5+     0.0000
      6h4+     0.0000
      6h3+     0.0000
      6h2+     0.0000
      6h1+     0.0000
      6h0      0.0000
      6h1-     0.0000
      6h2-     0.0000
      6h3-     0.0000
      6h4-     0.0000
      6h5-     0.0000
      7d2+     0.0000
      7d1+     0.0000
      7d0      0.0000
      7d1-     0.0000
      7d2-     0.0000
      7f3+     0.0000
      7f2+     0.0000
      7f1+     0.0000
      7f0      0.0000
      7f1-     0.0000
      7f2-     0.0000
      7f3-     0.0000
      7g4+     0.0000
      7g3+     0.0000
      7g2+     0.0000
      7g1+     0.0000
      7g0      0.0000
      7g1-     0.0000
      7g2-     0.0000
      7g3-     0.0000
      7g4-     0.0000
      7h5+     0.0000
      7h4+     0.0000
      7h3+     0.0000
      7h2+     0.0000
      7h1+     0.0000
      7h0      0.0000
      7h1-     0.0000
      7h2-     0.0000
      7h3-     0.0000
      7h4-     0.0000
      7h5-     0.0000
      8s       0.0001
      8px      0.0000
      8pz      0.0000
      8py      0.0000
      8d2+     0.0000
      8d1+     0.0000
      8d0      0.0000
      8d1-     0.0000
      8d2-     0.0000
      8f3+     0.0000
      8f2+     0.0000
      8f1+     0.0000
      8f0      0.0000
      8f1-     0.0000
      8f2-     0.0000
      8f3-     0.0000
      8g4+     0.0000
      8g3+     0.0000
      8g2+     0.0000
      8g1+     0.0000
      8g0      0.0000
      8g1-     0.0000
      8g2-     0.0000
      8g3-     0.0000
      8g4-     0.0000
      9s       0.0000
      9px      0.0000
      9pz      0.0000
      9py      0.0000
      9d2+     0.0000
      9d1+     0.0000
      9d0      0.0000
      9d1-     0.0000
      9d2-     0.0000
      9f3+     0.0000
      9f2+     0.0000
      9f1+     0.0000
      9f0      0.0000
      9f1-     0.0000
      9f2-     0.0000
      9f3-     0.0000
     10s       0.0000
     10px      0.0000
     10pz      0.0000
     10py      0.0000
     10d2+     0.0000
     10d1+     0.0000
     10d0      0.0000
     10d1-     0.0000
     10d2-     0.0000
     11px      0.0000
     11pz      0.0000
     11py      0.0000
      Total   18.0000

      N-E      6.0000

      Total electronic charge=   18.000000

      Total            charge=    6.000000
--

 Sorry, Molden does not know how to handle
 functions with angular momentum larger than g

++    Static properties:
      ------------------


      LoProp Charges per center


                   CR    
      Nuclear     24.0000
      Electronic -18.0000

      Total        6.0000
--


++    Molecular properties:
      ---------------------

      Charge (e):
                      =    6.0000
      Dipole Moment (Debye):
      Origin of the operator (Ang)=    0.0000    0.0000    0.0000
[...]
         1   11       1.58551147E-01  2.93807676E+08  4.89924603E-18  8.36846853E+02  2.93808513E+08
         1   13       1.09228978E-01  4.54743386E+04  1.56790368E-11  1.03956166E+09  1.03960713E+09
         1   15       1.07873895E-01  1.70311472E-15  1.03571932E+09  1.56970394E-11  1.03571932E+09
         1   17       1.51018702E-02  2.25850388E+08  7.18415613E-18  9.56555015E+02  2.25851344E+08
         2    4       6.65983463E-04  3.20452370E+00  1.30523148E-15  2.20164793E+04  2.20196838E+04
         2    6       6.38792725E-04  2.80752975E-20  2.13721297E+04  1.39048462E-15  2.13721297E+04
         2    8       2.28569169E-04  3.94695557E+00  4.53814663E-14  1.57529286E+04  1.57568755E+04
         2   10       2.43431207E-04  2.30064876E-20  1.69616884E+04  4.33573941E-14  1.69616884E+04
         2   12       1.58551147E-01  2.93807676E+08  4.89924603E-18  8.36846853E+02  2.93808513E+08
         2   14       1.09228978E-01  4.54743386E+04  1.56790368E-11  1.03956166E+09  1.03960713E+09
         2   16       1.07873895E-01  1.70311472E-15  1.03571932E+09  1.56970394E-11  1.03571932E+09
         2   18       1.51018702E-02  2.25850388E+08  7.18415613E-18  9.56555015E+02  2.25851344E+08
         3    7       5.15622783E-05  3.35599180E+02  2.19599871E-19  4.08738975E-01  3.36007919E+02
         3   11       1.08682814E-02  2.78606510E+03  9.11065310E-13  1.51160187E+07  1.51188047E+07
         3   13       1.30478026E-01  1.00329006E+09  1.60106362E-12  9.64844195E+07  1.09977448E+09
         3   15       1.24397992E-02  1.38829940E-10  1.05830552E+08  1.79227909E-12  1.05830552E+08
         4    8       5.15622783E-05  3.35599180E+02  2.19599871E-19  4.08738975E-01  3.36007919E+02
         4   12       1.08682814E-02  2.78606510E+03  9.11065310E-13  1.51160187E+07  1.51188047E+07
         4   14       1.30478026E-01  1.00329006E+09  1.60106362E-12  9.64844195E+07  1.09977448E+09
         4   16       1.24397992E-02  1.38829940E-10  1.05830552E+08  1.79227909E-12  1.05830552E+08
         5    9       5.35928816E-05  3.52040017E+02  5.93500414E-19  3.72394490E-02  3.52077256E+02
         5   11       1.04651188E-02  1.51313296E-18  1.45313370E+07  9.31501322E-13  1.45313370E+07
         5   13       1.20470043E-02  1.37123061E-10  1.01466429E+08  1.49317001E-12  1.01466429E+08
         5   15       1.28463692E-01  9.88290666E+08  1.64291728E-12  1.03794816E+08  1.09208548E+09
         6   10       5.35928816E-05  3.52040017E+02  5.93500414E-19  3.72394490E-02  3.52077256E+02
         6   12       1.04651188E-02  1.51313296E-18  1.45313370E+07  9.31501322E-13  1.45313370E+07
         6   14       1.20470043E-02  1.37123061E-10  1.01466429E+08  1.49317001E-12  1.01466429E+08
         6   16       1.28463692E-01  9.88290666E+08  1.64291728E-12  1.03794816E+08  1.09208548E+09
         7   11       2.62787470E-03  1.55428964E+02  9.16837169E-12  3.17218586E+06  3.17234129E+06
         7   13       2.02189380E-02  1.58778464E+08  3.92336745E-12  2.29767718E+06  1.61076141E+08
         7   15       2.86396507E-04  5.40934522E-10  2.30349380E+06  3.97949118E-12  2.30349380E+06
         8   12       2.62787470E-03  1.55428964E+02  9.16837169E-12  3.17218586E+06  3.17234129E+06
         8   14       2.02189380E-02  1.58778464E+08  3.92336745E-12  2.29767718E+06  1.61076141E+08
         8   16       2.86396507E-04  5.40934522E-10  2.30349380E+06  3.97949118E-12  2.30349380E+06
         9   11       2.78872614E-03  1.07520146E-16  3.35790603E+06  8.55515735E-12  3.35790603E+06
         9   13       2.18402560E-04  4.98130771E-10  1.73819171E+06  5.82851907E-12  1.73819171E+06
         9   15       2.17194311E-02  1.72751320E+08  5.20008039E-12  1.76534891E+06  1.74516669E+08
        10   12       2.78872614E-03  1.07520146E-16  3.35790603E+06  8.55515735E-12  3.35790603E+06
        10   14       2.18402560E-04  4.98130771E-10  1.73819171E+06  5.82851907E-12  1.73819171E+06
        10   16       2.17194311E-02  1.72751320E+08  5.20008039E-12  1.76534891E+06  1.74516669E+08
        11   13       1.32911014E-01  4.68783646E+02  5.96053795E-12  3.94940359E+08  3.94940827E+08
        11   15       1.33369197E-01  9.45163210E-17  4.02536857E+08  6.11089414E-12  4.02536857E+08
        11   17       2.32021566E-02  1.45699770E+08  8.72143347E-18  6.12846980E+02  1.45700383E+08
        12   14       1.32911014E-01  4.68783646E+02  5.96053795E-12  3.94940359E+08  3.94940827E+08
        12   16       1.33369197E-01  9.45163210E-17  4.02536857E+08  6.11089414E-12  4.02536857E+08
        12   18       2.32021566E-02  1.45699770E+08  8.72143347E-18  6.12846980E+02  1.45700383E+08
        13   15       4.35964540E-04  6.06013667E-23  7.95286300E+01  4.70169224E-18  7.95286300E+01
        13   17       3.07534777E-04  3.00497037E+03  2.89674234E-15  1.85117352E+05  1.88122322E+05
        14   16       4.35964540E-04  6.06013667E-23  7.95286300E+01  4.70169224E-18  7.95286300E+01
        14   18       3.07534777E-04  3.00497037E+03  2.89674234E-15  1.85117352E+05  1.88122322E+05
        15   17       3.14436527E-04  8.47875989E-17  1.85758435E+05  2.68638984E-15  1.85758435E+05
        16   18       3.14436527E-04  8.47875989E-17  1.85758435E+05  2.68638984E-15  1.85758435E+05
     -----------------------------------------------------------------------------------------------
--

++ Velocity transition strengths (SO states):
   ------------------------------------------
    for osc. strength at least    1.0000000000000001E-005

      From   To        Osc. strength     Einstein coefficients Ax, Ay, Az (sec-1)    Total A (sec-1)
     -----------------------------------------------------------------------------------------------
         1    3       1.51491783E-02  3.96440261E-02  3.11416554E-14  5.00885185E+05  5.00885225E+05
         1    5       1.45731775E-02  2.92036312E-18  4.87577442E+05  3.00397319E-14  4.87577442E+05
         1    7       2.81943208E-03  4.28437375E+00  5.70187501E-13  1.94359614E+05  1.94363899E+05
         1    9       3.01858339E-03  1.91268018E-17  2.10328206E+05  5.24630938E-13  2.10328206E+05
         1   11       1.25059017E-01  2.31745344E+08  3.49815182E-19  2.62063299E+02  2.31745606E+08
         1   13       1.28697201E-01  5.15201616E+04  1.85123868E-11  1.22485231E+09  1.22490383E+09
         1   15       1.27009178E-01  1.96888891E-15  1.21944532E+09  1.83982043E-11  1.21944532E+09
         1   17       9.86939056E-04  1.47583913E+07  2.08487683E-18  1.52159345E+03  1.47599129E+07
         2    4       1.51491783E-02  3.96440261E-02  3.11416554E-14  5.00885185E+05  5.00885225E+05
         2    6       1.45731775E-02  2.92036312E-18  4.87577442E+05  3.00397319E-14  4.87577442E+05
         2    8       2.81943208E-03  4.28437375E+00  5.70187501E-13  1.94359614E+05  1.94363899E+05
         2   10       3.01858339E-03  1.91268018E-17  2.10328206E+05  5.24630938E-13  2.10328206E+05
         2   12       1.25059017E-01  2.31745344E+08  3.49815182E-19  2.62063299E+02  2.31745606E+08
         2   14       1.28697201E-01  5.15201616E+04  1.85123868E-11  1.22485231E+09  1.22490383E+09
         2   16       1.27009178E-01  1.96888891E-15  1.21944532E+09  1.83982043E-11  1.21944532E+09
         2   18       9.86939056E-04  1.47583913E+07  2.08487683E-18  1.52159345E+03  1.47599129E+07
         3    5       1.93482320E-04  7.82667774E-19  2.25369130E-01  4.59486270E-20  2.25369130E-01
         3    7       1.97062705E-03  6.02507966E+01  4.45058746E-14  1.27814742E+04  1.28417250E+04
         3    9       1.83596804E-03  5.00254865E-17  1.23847412E+04  4.68484397E-14  1.23847412E+04
         3   11       4.55544811E-03  2.51013591E+03  3.79108343E-13  6.33457000E+06  6.33708014E+06
         3   13       1.16718455E-01  8.95322198E+08  1.45629410E-12  8.84788944E+07  9.83801092E+08
         3   15       1.14670442E-02  1.22868824E-10  9.75552596E+07  1.65667126E-12  9.75552596E+07
         4    6       1.93482320E-04  7.82667774E-19  2.25369130E-01  4.59486270E-20  2.25369130E-01
         4    8       1.97062705E-03  6.02507966E+01  4.45058746E-14  1.27814742E+04  1.28417250E+04
         4   10       1.83596804E-03  5.00254865E-17  1.23847412E+04  4.68484397E-14  1.23847412E+04
         4   12       4.55544811E-03  2.51013591E+03  3.79108343E-13  6.33457000E+06  6.33708014E+06
         4   14       1.16718455E-01  8.95322198E+08  1.45629410E-12  8.84788944E+07  9.83801092E+08
         4   16       1.14670442E-02  1.22868824E-10  9.75552596E+07  1.65667126E-12  9.75552596E+07
         5    7       1.93550308E-03  1.05028199E-16  1.22778355E+04  4.49258737E-14  1.22778355E+04
         5    9       1.91663041E-03  7.19938318E+01  4.63275043E-14  1.25193113E+04  1.25913051E+04
         5   11       4.39577995E-03  7.37759098E-17  6.10377994E+06  4.11059174E-13  6.10377994E+06
         5   13       1.10736539E-02  1.23179790E-10  9.32686657E+07  1.42974354E-12  9.32686657E+07
         5   15       1.14990728E-01  8.82118700E+08  1.53993190E-12  9.54348762E+07  9.77553576E+08
         6    8       1.93550308E-03  1.05028199E-16  1.22778355E+04  4.49258737E-14  1.22778355E+04
         6   10       1.91663041E-03  7.19938318E+01  4.63275043E-14  1.25193113E+04  1.25913051E+04
         6   12       4.39577995E-03  7.37759098E-17  6.10377994E+06  4.11059174E-13  6.10377994E+06
         6   14       1.10736539E-02  1.23179790E-10  9.32686657E+07  1.42974354E-12  9.32686657E+07
         6   16       1.14990728E-01  8.82118700E+08  1.53993190E-12  9.54348762E+07  9.77553576E+08
         7    9       3.06121954E-05  1.74587651E-19  6.05546143E-02  1.79685097E-20  6.05546143E-02
         7   11       1.46740136E-03  1.11431399E+02  5.07568036E-12  1.77132543E+06  1.77143686E+06
         7   13       1.85315577E-02  1.45462936E+08  3.81605191E-12  2.17103779E+06  1.47633974E+08
         7   15       2.71710499E-04  4.93185440E-10  2.18538149E+06  3.82600302E-12  2.18538149E+06
         8   10       3.06121954E-05  1.74587651E-19  6.05546143E-02  1.79685097E-20  6.05546143E-02
         8   12       1.46740136E-03  1.11431399E+02  5.07568036E-12  1.77132543E+06  1.77143686E+06
         8   14       1.85315577E-02  1.45462936E+08  3.81605191E-12  2.17103779E+06  1.47633974E+08
         8   16       2.71710499E-04  4.93185440E-10  2.18538149E+06  3.82600302E-12  2.18538149E+06
         9   11       1.55562146E-03  3.05880206E-16  1.87313081E+06  4.81087719E-12  1.87313081E+06
         9   13       2.08128204E-04  4.57529696E-10  1.65642737E+06  5.59558232E-12  1.65642737E+06
         9   15       1.98938494E-02  1.58183516E+08  4.87404559E-12  1.66507212E+06  1.59848588E+08
        10   12       1.55562146E-03  3.05880206E-16  1.87313081E+06  4.81087719E-12  1.87313081E+06
        10   14       2.08128204E-04  4.57529696E-10  1.65642737E+06  5.59558232E-12  1.65642737E+06
        10   16       1.98938494E-02  1.58183516E+08  4.87404559E-12  1.66507212E+06  1.59848588E+08
        11   13       2.01006660E-01  2.36238931E+01  9.04306644E-12  5.97286916E+08  5.97286939E+08
        11   15       2.00514460E-01  6.99034028E-17  6.05197774E+08  9.13069068E-12  6.05197774E+08
        11   17       3.35515255E-03  2.10677765E+07  8.15563796E-18  1.33006716E+03  2.10691065E+07
        12   14       2.01006660E-01  2.36238931E+01  9.04306644E-12  5.97286916E+08  5.97286939E+08
        12   16       2.00514460E-01  6.99034028E-17  6.05197774E+08  9.13069068E-12  6.05197774E+08
        12   18       3.35515255E-03  2.10677765E+07  8.15563796E-18  1.33006716E+03  2.10691065E+07
        13   15       4.55456389E-04  4.52331174E-19  8.30846209E+01  5.28732570E-19  8.30846209E+01
        13   17       2.28241746E-03  2.27772058E+02  2.14002292E-14  1.39595633E+06  1.39618410E+06
        14   16       4.55456389E-04  4.52331174E-19  8.30846209E+01  5.28732570E-19  8.30846209E+01
        14   18       2.28241746E-03  2.27772058E+02  2.14002292E-14  1.39595633E+06  1.39618410E+06
        15   17       2.36013948E-03  7.37256400E-18  1.39429520E+06  2.08495680E-14  1.39429520E+06
        16   18       2.36013948E-03  7.37256400E-18  1.39429520E+06  2.08495680E-14  1.39429520E+06
     -----------------------------------------------------------------------------------------------
--

++ Length and velocity gauge comparison (SO states):

 --------------------------------------------------
 A comparison between the dipole oscillator strengths in 
 length and velocity gauge will be performed

 All dipole oscillator differences above the tolerance of   0.10000000000000001       will be printed 

 Due to basis set deficiency these oscillator may be problematic 

 The tolerance is defined as ABS(1-O_l/O_v) 
 O_l : dipole oscillator strength in length gauge
 O_p : dipole oscillator strength in velocity gauge
 --------------------------------------------------

  Problematic transitions have been found

      From   To       Difference (%) Osc. st. (len.) Osc. st. (vel.)
     ---------------------------------------------------------------
         1    3            95.603831  6.65983463E-04  1.51491783E-02
         1    5            95.616654  6.38792725E-04  1.45731775E-02
         1    7            91.893078  2.28569169E-04  2.81943208E-03
         1    9            91.935581  2.43431207E-04  3.01858339E-03
         1   11            26.781060  1.58551147E-01  1.25059017E-01
         1   13            15.127154  1.09228978E-01  1.28697201E-01
         1   15            15.066063  1.07873895E-01  1.27009178E-01
         1   17          1430.172512  1.51018702E-02  9.86939056E-04
         2    4            95.603831  6.65983463E-04  1.51491783E-02
         2    6            95.616654  6.38792725E-04  1.45731775E-02
         2    8            91.893078  2.28569169E-04  2.81943208E-03
         2   10            91.935581  2.43431207E-04  3.01858339E-03
         2   12            26.781060  1.58551147E-01  1.25059017E-01
         2   14            15.127154  1.09228978E-01  1.28697201E-01
         2   16            15.066063  1.07873895E-01  1.27009178E-01
         2   18          1430.172512  1.51018702E-02  9.86939056E-04
         3    5      --------------- below threshold  1.93482320E-04
         3    7            97.383458  5.15622783E-05  1.97062705E-03
         3    9      --------------- below threshold  1.83596804E-03
         3   11           138.577657  1.08682814E-02  4.55544811E-03
         3   13            11.788685  1.30478026E-01  1.16718455E-01
         4    6      --------------- below threshold  1.93482320E-04
         4    8            97.383458  5.15622783E-05  1.97062705E-03
         4   10      --------------- below threshold  1.83596804E-03
         4   12           138.577657  1.08682814E-02  4.55544811E-03
         4   14            11.788685  1.30478026E-01  1.16718455E-01
         5    7      --------------- below threshold  1.93550308E-03
         5    9            97.203797  5.35928816E-05  1.91663041E-03
         5   11           138.071944  1.04651188E-02  4.39577995E-03
         5   15            11.716565  1.28463692E-01  1.14990728E-01
         6    8      --------------- below threshold  1.93550308E-03
         6   10            97.203797  5.35928816E-05  1.91663041E-03
         6   12           138.071944  1.04651188E-02  4.39577995E-03
         6   16            11.716565  1.28463692E-01  1.14990728E-01
         7    9      --------------- below threshold  3.06121954E-05
         7   11            79.083567  2.62787470E-03  1.46740136E-03
         8   10      --------------- below threshold  3.06121954E-05
         8   12            79.083567  2.62787470E-03  1.46740136E-03
         9   11            79.267657  2.78872614E-03  1.55562146E-03
        10   12            79.267657  2.78872614E-03  1.55562146E-03
        11   13            33.877308  1.32911014E-01  2.01006660E-01
        11   15            33.486494  1.33369197E-01  2.00514460E-01
        11   17           591.538052  2.32021566E-02  3.35515255E-03
        12   14            33.877308  1.32911014E-01  2.01006660E-01
        12   16            33.486494  1.33369197E-01  2.00514460E-01
        12   18           591.538052  2.32021566E-02  3.35515255E-03
        13   17            86.525919  3.07534777E-04  2.28241746E-03
        14   18            86.525919  3.07534777E-04  2.28241746E-03
        15   17            86.677206  3.14436527E-04  2.36013948E-03
        16   18            86.677206  3.14436527E-04  2.36013948E-03
     ---------------------------------------------------------------

 Number of problematic transitions =                    50

--

 Electric-dipole - electric-octupole not included
++ I/O STATISTICS
 
  I. General I/O information
  - - - - - - - - - - - - - - - - - - - - - - - - - - - - - - - - - - - - - - - - - - -
  Unit  Name          Flsize      Write/Read            MBytes           Write/Read
                      (MBytes)       Calls              In/Out           Time, sec.
  - - - - - - - - - - - - - - - - - - - - - - - - - - - - - - - - - - - - - - - - - - -
   1  SCRATCH           0.00 .       9/      45 .      0.0/      0.0 .       0/       0
   2  ANNI              0.00 .       0/       0 .      0.0/      0.0 .       0/       0
   3  RUNFILE          14.88 .     322/   10733 .      2.3/     77.8 .       0/       0
   4  ONEINT            5.58 .       0/   23543 .      0.0/   3739.9 .       0/       0
   5  JOBIPH            6.48 .       0/      92 .      0.0/      0.8 .       0/       0
   6  ORDINT          506.53 .       1/    4053 .      0.0/   1013.0 .       0/       0
  - - - - - - - - - - - - - - - - - - - - - - - - - - - - - - - - - - - - - - - - - - -
   *  TOTAL           533.47 .     332/   38466 .      2.3/   4831.6 .       0/       0
  - - - - - - - - - - - - - - - - - - - - - - - - - - - - - - - - - - - - - - - - - - -
 
  II. I/O Access Patterns
  - - - - - - - - - - - - - - - - - - - -
  Unit  Name               % of random
                         Write/Read calls
  - - - - - - - - - - - - - - - - - - - -
   1  SCRATCH             88.9/ 100.0
   2  ANNI                 0.0/   0.0
   3  RUNFILE             28.6/  10.8
   4  ONEINT               0.0/  16.4
   5  JOBIPH               0.0/  76.1
   6  ORDINT             100.0/   0.0
  - - - - - - - - - - - - - - - - - - - -
--
--- Stop Module: rassi at Wed Mar 26 12:27:59 2025 /rc=_RC_ALL_IS_WELL_ ---
*** files: xmldump
    saved to directory /home4/s4752295/Internship/Initial_simulations/Point_charge_model/1_electron/Madelung_charges_9_active_space/Cr
--- Module rassi spent 2 seconds ---

.##################.
.# Happy landing! #.
.##################.

    Timing: Wall=46.92 User=36.74 System=8.89

###############################################################################
Hbrk Cluster
Job 15905767 for user s4752295
Finished at: Wed Mar 26 12:28:03 CET 2025

Job details:
============

Job ID                         : 15905767
Name                           : Cr_no_SO
User                           : s4752295
Partition                      : regularmedium
Nodes                          : node84
Number of Nodes                : 1
Cores                          : 1
Number of Tasks                : 1
State                          : COMPLETED  
Submit                         : 2025-03-26T12:26:48
Start                          : 2025-03-26T12:27:08
End                            : 2025-03-26T12:27:59
Reserved walltime              : 15:00:00
Used walltime                  : 00:00:51
Used CPU time                  : 00:00:47 (Efficiency: 91.98%)
% User (Computation)           : 80.53%
% System (I/O)                 : 19.47%
Total memory reserved          : 25000M
Maximum memory used            : 2.03G

Acknowledgements:
=================

Please see this page for information about acknowledging Hbrk in your publications:

https://wiki.hpc.rug.nl/habrok/introduction/scientific_output

################################################################################
