   This run of MOLCAS is using the pymolcas driver

                             OPE
                             OPE          NMOL  CASOP  ENMOLC A   SO
                 OPE        NMOLC        AS  OP EN  MO LC     AS  OP
                OPENM       OL CA        SO  PE NM  OL CA     SOP EN
                OP EN      MO   LC       AS  OP ENMOL  CASO   PENMOL
                OP  EN     MO   LC       AS  OP EN     MO     LC ASO
               OP   E  NMOL  C  AS       OP  EN MO     LC     AS  OP
               OP  E   NMO   LC AS        OPEN  MO     LCASOP EN   M
               O  PEN   MO  LCA  SO
            OPE   NMO   L   CAS    OP
        OPENMOL  CASOP     ENMOL   CASOPE
     OPENMOLCA   SOPENMOLCASOPEN   MOLCASOPE
    OPENMOLCAS   OP           EN   MOL    CAS
    OPENMOLCAS       OP  ENM        O     LCA
    OPENMOLCAS    OPEN  MOLCASO     P  E  NMO
    OPENMOLCAS     OP               E  N  MOL
    OPENMOLCA   SO           PENM   O  L  CAS    OPEN    MO    LCAS
    OPENMOLCA   SOP           ENM   O  L  CAS   OP  EN  MOLC  AS   O
    OPENMOLCA   SOPE           NM      O  LCA   S      OP  EN MO
    OPENMOLC                AS         O  PEN   M      OL  CA  SOPE
    OPENMO        LCASOPE  NMOL        C  ASO   P      ENMOLC     AS
    OPE     NMO      LCA  SO     P     E   NM   OL  CA SO  PE N   MO
          OPENMOLCA            SOPE   NMO        LCAS  O    P  ENMO
     OPENMOLCASOPENMOLCASOPENMOLCASOPENMOLCA
        OPENMOLCASOPENMOLCASOPENMOLCASOPE
            OPENMOLCASOPENMOLCASOPENM
               OPENMOLCASOPENMOLCA        version: o91e1abe7de707b ?
                   OPENMOLCASO
                       OPE                tag:

 OpenMolcas is free software; you can redistribute it and/or modify it
 under the terms of the GNU Lesser General Public License version 2.1.
 OpenMolcas is distributed in the hope that it will be useful, but it
 is provided "as is" and without any express or implied warranties.
 For more details see the full text of the license in the file
 LICENSE or in <http://www.gnu.org/licenses/>.

                 Copyright (C) The OpenMolcas Authors
           For the author list and the recommended citation,
                   consult the file CONTRIBUTORS.md

           *************************************************
           * pymolcas version py2.10                       *
           *   build 3068ae8b88c9345ec6cfef6fef7f1169      *
           *   (after the EMIL interpreter by V. Veryazov) *
           *************************************************

configuration info
------------------
Host name: login1 (Linux)
C Compiler ID: GNU
C flags: -std=gnu99
Fortran Compiler ID: GNU
Fortran flags: -fno-aggressive-loop-optimizations -cpp -fdefault-integer-8 -fmax-stack-var-size=1048576
Definitions: _MOLCAS_;_I8_;_LINUX_;_MKL_
Parallel: OFF (GA=OFF)


   -----------------------------------------------------------------------------------------------------------------------------------
  |
  |           Project: chromium_so_cf
  |    Submitted from: /home4/s4752295/Internship/Initial_simulations/Point_charge_model/1_electron/Madelung_charges_9_active_space/Cr
  |      Scratch area: /tmp/chromium_so_cf
  |   Save outputs to: /home4/s4752295/Internship/Initial_simulations/Point_charge_model/1_electron/Madelung_charges_9_active_space/Cr
  |            Molcas: /home4/s4752295/Internship/Molcas/recomp_try/OpenMolcas-master/build
  |
  | Scratch area is empty
  |
  |    MOLCAS_DRIVER = /home4/s4752295/Internship/Molcas/bin/pymolcas
  |    MOLCAS_NPROCS = 1
  |    MOLCAS_SOURCE = /home4/s4752295/Internship/Molcas/recomp_try/OpenMolcas-master
  | MOLCAS_STRUCTURE = 0
  |
   -----------------------------------------------------------------------------------------------------------------------------------

++ ---------   Input file   ---------

&SEWARD
AMFi

CLIG
$R

Basis Set
Cr.ANO-rcc.Roos.21s15p10d6f4g2h.10s10p8d6f4g2h.
Spherical d
Cr            -1.0658140267135469e-14   -3.5527134223784897e-15 0.008753588724385739
End of Basis

Xfield

414
-7.203961944,-2.7720000000000002,1.6004142000000001     -0.625931
-7.203961944,-0.0,-3.2008302    -0.625931
-7.203961944,2.7720000000000002,1.6004142000000001      -0.625931
-7.191622926,0.0,0.0    1.892092
4.786523442000001,-2.7720000000000002,-1.6004142000000001       2.515516
4.786523442000001,0.0,3.2008302 2.515516
4.786523442000001,2.7720000000000002,-1.6004142000000001        2.515516
6.413378904,-5.5440000000000005,0.0     0.004632
6.413378904,-2.7720000000000002,-4.801244400000001      0.004632
6.413378904,-2.7720000000000002,4.801244400000001       0.004632
6.413378904,2.7720000000000002,-4.801244400000001       0.004632
6.413378904,2.7720000000000002,4.801244400000001        0.004632
6.413378904,5.5440000000000005,0.0      0.004632
7.432470702000001,-2.7720000000000002,1.6004142000000001        -2.519484
7.432470702000001,-0.0,-3.2008302       -2.519484
7.432470702000001,2.7720000000000002,1.6004142000000001 -2.519484
-5.279589846,-0.0,-0.0  -3.142907
-8.955175788,-5.5440000000000005,-3.2008302     -0.625931
-8.955175788,0.0,6.4016586      -0.625931
-8.955175788,5.5440000000000005,-3.2008302      -0.625931
-11.896875,-5.5440000000000005,0.0      1.892092
-11.896875,-2.7720000000000002,-4.801244400000001       1.892092
-11.896875,-2.7720000000000002,4.801244400000001        1.892092
-11.896875,2.7720000000000002,-4.801244400000001        1.892092
-11.896875,2.7720000000000002,4.801244400000001 1.892092
-11.896875,5.5440000000000005,0.0       1.892092
45.309375,-5.5440000000000005,3.2008302 2.515516
45.309375,-0.0,-6.4016586       2.515516
45.309375,5.5440000000000005,3.2008302  2.515516
6.549609384,-5.5440000000000005,-3.2008302      -2.519484
6.549609384,0.0,6.4016586       -2.519484
6.549609384,5.5440000000000005,-3.2008302       -2.519484
-5.818359384,-5.5440000000000005,-0.0   -3.142907
-5.818359384,-2.7720000000000002,-4.801244400000001     -3.142907
-5.818359384,-2.7720000000000002,4.801244400000001      -3.142907
-5.818359384,2.7720000000000002,-4.801244400000001      -3.142907
-5.818359384,2.7720000000000002,4.801244400000001       -3.142907
-5.818359384,5.5440000000000005,-0.0    -3.142907
-17.142187500000002,-5.5440000000000005,6.4016586       -0.625931
-17.142187500000002,5.5440000000000005,6.4016586        -0.625931
-17.142187500000002,-8.316,1.6004142000000001   -0.625931
-17.142187500000002,8.316,1.6004142000000001    -0.625931
-17.142187500000002,-2.7720000000000002,-8.0020746      -0.625931
-17.142187500000002,2.7720000000000002,-8.0020746       -0.625931
10.8140625,-2.7720000000000002,-1.6004142000000001      4.409069
10.8140625,2.7720000000000002,-1.6004142000000001       4.409069
10.8140625,0.0,3.2008302        4.409069
-315.45,-0.0,-0.0       -5.030367
-315.45,0.0,0.0 5.039632
24.331640616,-5.5440000000000005,-6.4016586     2.515516
24.331640616,5.5440000000000005,-6.4016586      2.515516
24.331640616,-8.316,-1.6004142000000001 2.515516
24.331640616,8.316,-1.6004142000000001  2.515516
24.331640616,-2.7720000000000002,8.0020746      2.515516
24.331640616,2.7720000000000002,8.0020746       2.515516
34.2703125,-8.316,-4.801244400000001    0.004632
34.2703125,-8.316,4.801244400000001     0.004632
34.2703125,8.316,-4.801244400000001     0.004632
34.2703125,8.316,4.801244400000001      0.004632
34.2703125,-0.0,-9.602488800000001      0.004632
34.2703125,0.0,9.602488800000001        0.004632
86.540625,-5.5440000000000005,6.4016586 -2.519484
86.540625,5.5440000000000005,6.4016586  -2.519484
86.540625,-8.316,1.6004142000000001     -2.519484
86.540625,8.316,1.6004142000000001      -2.519484
86.540625,-2.7720000000000002,-8.0020746        -2.519484
86.540625,2.7720000000000002,-8.0020746 -2.519484
-262.575,-8.316,-4.801244400000001      1.892092
-262.575,-8.316,4.801244400000001       1.892092
-262.575,8.316,-4.801244400000001       1.892092
-262.575,8.316,4.801244400000001        1.892092
-262.575,-0.0,-9.602488800000001        1.892092
-262.575,0.0,9.602488800000001  1.892092
-211.95000000000002,-5.5440000000000005,3.2008302       4.409069
-211.95000000000002,-0.0,-6.4016586     4.409069
-211.95000000000002,5.5440000000000005,3.2008302        4.409069
-160.20000000000002,-5.5440000000000005,-0.0    -5.030367
-160.20000000000002,-2.7720000000000002,-4.801244400000001      -5.030367
-160.20000000000002,-2.7720000000000002,4.801244400000001       -5.030367
-160.20000000000002,2.7720000000000002,-4.801244400000001       -5.030367
-160.20000000000002,-5.5440000000000005,0.0     5.039632
-160.20000000000002,5.5440000000000005,-0.0     -5.030367
-160.20000000000002,2.7720000000000002,4.801244400000001        -5.030367
-160.20000000000002,-2.7720000000000002,-4.801244400000001      5.039632
-160.20000000000002,-2.7720000000000002,4.801244400000001       5.039632
-160.20000000000002,2.7720000000000002,-4.801244400000001       5.039632
-160.20000000000002,5.5440000000000005,0.0      5.039632
-160.20000000000002,2.7720000000000002,4.801244400000001        5.039632
-83.925,-2.7720000000000002,-1.6004142000000001 -5.660931
-83.925,0.0,3.2008302   -5.660931
-83.925,2.7720000000000002,-1.6004142000000001  -5.660931
1.5890625,-11.0879982,0.0       0.004632
1.5890625,-5.5440000000000005,-9.602488800000001        0.004632
1.5890625,-5.5440000000000005,9.602488800000001 0.004632
1.5890625,5.5440000000000005,-9.602488800000001 0.004632
1.5890625,11.0879982,0.0        0.004632
1.5890625,5.5440000000000005,9.602488800000001  0.004632
122.28750000000001,-8.316,4.801244400000001     -3.142907
122.28750000000001,-8.316,-4.801244400000001    -3.142907
122.28750000000001,8.316,-4.801244400000001     -3.142907
122.28750000000001,8.316,4.801244400000001      -3.142907
122.28750000000001,-0.0,-9.602488800000001      -3.142907
122.28750000000001,0.0,9.602488800000001        -3.142907
155.475,-11.0879982,-3.2008302  -0.625931
155.475,-8.316,-8.0020746       -0.625931
155.475,-2.7720000000000002,11.202903000000001  -0.625931
155.475,8.316,-8.0020746        -0.625931
155.475,11.0879982,-3.2008302   -0.625931
155.475,2.7720000000000002,11.202903000000001   -0.625931
2.1550781160000003,-11.0879982,0.0      1.892092
2.1550781160000003,-5.5440000000000005,-9.602488800000001       1.892092
2.1550781160000003,-5.5440000000000005,9.602488800000001        1.892092
2.1550781160000003,5.5440000000000005,-9.602488800000001        1.892092
2.1550781160000003,11.0879982,0.0       1.892092
2.1550781160000003,5.5440000000000005,9.602488800000001 1.892092
60.91875,-5.5440000000000005,-6.4016586 4.409069
60.91875,5.5440000000000005,-6.4016586  4.409069
60.91875,-8.316,-1.6004142000000001     4.409069
60.91875,8.316,-1.6004142000000001      4.409069
60.91875,-2.7720000000000002,8.0020746  4.409069
60.91875,2.7720000000000002,8.0020746   4.409069
292.33125,-5.5440000000000005,3.2008302 -5.660931
292.33125,-0.0,-6.4016586       -5.660931
292.33125,5.5440000000000005,3.2008302  -5.660931
0.61875,-11.0879982,3.2008302   2.515516
0.61875,-2.7720000000000002,-11.202903000000001 2.515516
0.61875,-8.316,8.0020746        2.515516
0.61875,2.7720000000000002,-11.202903000000001  2.515516
0.61875,11.0879982,3.2008302    2.515516
0.61875,8.316,8.0020746 2.515516
-169.5375,-11.0879982,-3.2008302        -2.519484
-169.5375,-8.316,-8.0020746     -2.519484
-169.5375,-2.7720000000000002,11.202903000000001        -2.519484
-169.5375,8.316,-8.0020746      -2.519484
-169.5375,2.7720000000000002,11.202903000000001 -2.519484
-169.5375,11.0879982,-3.2008302 -2.519484
-39.7265625,-11.0879982,-0.0    -3.142907
-39.7265625,-5.5440000000000005,-9.602488800000001      -3.142907
-39.7265625,-5.5440000000000005,9.602488800000001       -3.142907
-39.7265625,5.5440000000000005,-9.602488800000001       -3.142907
-39.7265625,5.5440000000000005,9.602488800000001        -3.142907
-39.7265625,11.0879982,-0.0     -3.142907
1091.7,0.0,0.0  6.927092
581.85,-11.0879982,6.4016586    -0.625931
581.85,11.0879982,6.4016586     -0.625931
581.85,-0.0,-12.803319  -0.625931
-9.759375,-8.316,4.801244400000001      -5.030367
-9.759375,-8.316,-4.801244400000001     -5.030367
-9.759375,-8.316,4.801244400000001      5.039632
-9.759375,-8.316,-4.801244400000001     5.039632
-9.759375,8.316,-4.801244400000001      -5.030367
-9.759375,8.316,4.801244400000001       -5.030367
-9.759375,8.316,-4.801244400000001      5.039632
-9.759375,8.316,4.801244400000001       5.039632
-9.759375,-0.0,-9.602488800000001       -5.030367
-9.759375,0.0,9.602488800000001 -5.030367
-9.759375,-0.0,-9.602488800000001       5.039632
-9.759375,0.0,9.602488800000001 5.039632
165.26250000000002,-5.5440000000000005,-6.4016586       -5.660931
165.26250000000002,5.5440000000000005,-6.4016586        -5.660931
165.26250000000002,-8.316,-1.6004142000000001   -5.660931
165.26250000000002,8.316,-1.6004142000000001    -5.660931
165.26250000000002,-2.7720000000000002,8.0020746        -5.660931
165.26250000000002,2.7720000000000002,8.0020746 -5.660931
540.9,-11.0879982,-6.4016586    2.515516
540.9,11.0879982,-6.4016586     2.515516
540.9,0.0,12.803319     2.515516
-931.0500000000001,-11.0879982,6.4016586        -2.519484
-931.0500000000001,11.0879982,6.4016586 -2.519484
-931.0500000000001,-0.0,-12.803319      -2.519484
96.41250000000001,-5.5440000000000005,0.0       6.927092
96.41250000000001,-2.7720000000000002,-4.801244400000001        6.927092
96.41250000000001,-2.7720000000000002,4.801244400000001 6.927092
96.41250000000001,2.7720000000000002,-4.801244400000001 6.927092
96.41250000000001,2.7720000000000002,4.801244400000001  6.927092
96.41250000000001,5.5440000000000005,0.0        6.927092
-99.45,-2.7720000000000002,1.6004142000000001   7.550516
-99.45,0.0,-3.2008302   7.550516
-99.45,2.7720000000000002,1.6004142000000001    7.550516
27.95625,-2.7720000000000002,-1.6004142000000001        -7.554483
27.95625,2.7720000000000002,-1.6004142000000001 -7.554483
27.95625,-0.0,3.2008302 -7.554483
-224.775,-13.8599982,1.6004142000000001 -0.625931
-224.775,-8.316,11.202903000000001      -0.625931
-224.775,-5.5440000000000005,-12.803319 -0.625931
-224.775,5.5440000000000005,-12.803319  -0.625931
-224.775,13.8599982,1.6004142000000001  -0.625931
-224.775,8.316,11.202903000000001       -0.625931
-121.3875,-11.0879982,3.2008302 4.409069
-121.3875,-8.316,8.0020746      4.409069
-121.3875,-2.7720000000000002,-11.202903000000001       4.409069
-121.3875,2.7720000000000002,-11.202903000000001        4.409069
-121.3875,8.316,8.0020746       4.409069
-121.3875,11.0879982,3.2008302  4.409069
88.48125,-11.0879982,-0.0       -5.030367
88.48125,-5.5440000000000005,-9.602488800000001 -5.030367
88.48125,-5.5440000000000005,9.602488800000001  -5.030367
88.48125,-11.0879982,0.0        5.039632
88.48125,-5.5440000000000005,-9.602488800000001 5.039632
88.48125,5.5440000000000005,-9.602488800000001  -5.030367
88.48125,5.5440000000000005,9.602488800000001   -5.030367
88.48125,11.0879982,-0.0        -5.030367
88.48125,-5.5440000000000005,9.602488800000001  5.039632
88.48125,5.5440000000000005,-9.602488800000001  5.039632
88.48125,11.0879982,0.0 5.039632
88.48125,5.5440000000000005,9.602488800000001   5.039632
325.35,-13.8599982,-1.6004142000000001  2.515516
325.35,-8.316,-11.202903000000001       2.515516
325.35,-5.5440000000000005,12.803319    2.515516
325.35,8.316,-11.202903000000001        2.515516
325.35,13.8599982,-1.6004142000000001   2.515516
325.35,5.5440000000000005,12.803319     2.515516
-42.018750000000004,-13.8599982,-4.801244400000001      0.004632
-42.018750000000004,-13.8599982,4.801244400000001       0.004632
-42.018750000000004,-11.0879982,-9.602488800000001      0.004632
-42.018750000000004,-11.0879982,9.602488800000001       0.004632
-42.018750000000004,-2.7720000000000002,-14.403733200000001     0.004632
-42.018750000000004,2.7720000000000002,-14.403733200000001      0.004632
-42.018750000000004,-2.7720000000000002,14.403733200000001      0.004632
-42.018750000000004,11.0879982,-9.602488800000001       0.004632
-42.018750000000004,2.7720000000000002,14.403733200000001       0.004632
-42.018750000000004,13.8599982,-4.801244400000001       0.004632
-42.018750000000004,13.8599982,4.801244400000001        0.004632
-42.018750000000004,11.0879982,9.602488800000001        0.004632
-257.625,-13.8599982,1.6004142000000001 -2.519484
-257.625,-8.316,11.202903000000001      -2.519484
-257.625,-5.5440000000000005,-12.803319 -2.519484
-257.625,5.5440000000000005,-12.803319  -2.519484
-257.625,13.8599982,1.6004142000000001  -2.519484
-257.625,8.316,11.202903000000001       -2.519484
5457.6,-0.0,-0.0        -8.177907
-208.8,-5.5440000000000005,-3.2008302   7.550516
-208.8,0.0,6.4016586    7.550516
-208.8,5.5440000000000005,-3.2008302    7.550516
-1086.3,-5.5440000000000005,3.2008302   -7.554483
-1086.3,-0.0,-6.4016586 -7.554483
-1086.3,5.5440000000000005,3.2008302    -7.554483
88.03125,-13.8599982,4.801244400000001  1.892092
88.03125,-13.8599982,-4.801244400000001 1.892092
88.03125,-11.0879982,-9.602488800000001 1.892092
88.03125,-11.0879982,9.602488800000001  1.892092
88.03125,-2.7720000000000002,-14.403733200000001        1.892092
88.03125,2.7720000000000002,-14.403733200000001 1.892092
88.03125,-2.7720000000000002,14.403733200000001 1.892092
88.03125,11.0879982,-9.602488800000001  1.892092
88.03125,2.7720000000000002,14.403733200000001  1.892092
88.03125,13.8599982,-4.801244400000001  1.892092
88.03125,13.8599982,4.801244400000001   1.892092
88.03125,11.0879982,9.602488800000001   1.892092
-909.0,-11.0879982,-6.4016586   4.409069
-909.0,11.0879982,-6.4016586    4.409069
-909.0,0.0,12.803319    4.409069
46.4765625,-11.0879982,3.2008302        -5.660931
46.4765625,-2.7720000000000002,-11.202903000000001      -5.660931
46.4765625,-8.316,8.0020746     -5.660931
46.4765625,2.7720000000000002,-11.202903000000001       -5.660931
46.4765625,8.316,8.0020746      -5.660931
46.4765625,11.0879982,3.2008302 -5.660931
-104.7375,-11.0879982,-9.602488800000001        -3.142907
-104.7375,-13.8599982,4.801244400000001 -3.142907
-104.7375,-13.8599982,-4.801244400000001        -3.142907
-104.7375,-11.0879982,9.602488800000001 -3.142907
-104.7375,-2.7720000000000002,-14.403733200000001       -3.142907
-104.7375,2.7720000000000002,-14.403733200000001        -3.142907
-104.7375,-2.7720000000000002,14.403733200000001        -3.142907
-104.7375,13.8599982,-4.801244400000001 -3.142907
-104.7375,11.0879982,-9.602488800000001 -3.142907
-104.7375,2.7720000000000002,14.403733200000001 -3.142907
-104.7375,13.8599982,4.801244400000001  -3.142907
-104.7375,11.0879982,9.602488800000001  -3.142907
117.73125,-8.316,-4.801244400000001     6.927092
117.73125,-8.316,4.801244400000001      6.927092
117.73125,8.316,-4.801244400000001      6.927092
117.73125,8.316,4.801244400000001       6.927092
117.73125,-0.0,-9.602488800000001       6.927092
117.73125,0.0,9.602488800000001 6.927092
-149.85,-5.5440000000000005,-0.0        -8.177907
-149.85,-2.7720000000000002,4.801244400000001   -8.177907
-149.85,-2.7720000000000002,-4.801244400000001  -8.177907
-149.85,2.7720000000000002,-4.801244400000001   -8.177907
-149.85,5.5440000000000005,-0.0 -8.177907
-149.85,2.7720000000000002,4.801244400000001    -8.177907
-163.63125,-5.5440000000000005,6.4016586        7.550516
-163.63125,5.5440000000000005,6.4016586 7.550516
-163.63125,-8.316,1.6004142000000001    7.550516
-163.63125,8.316,1.6004142000000001     7.550516
-163.63125,-2.7720000000000002,-8.0020746       7.550516
-163.63125,2.7720000000000002,-8.0020746        7.550516
-82.2375,-5.5440000000000005,-6.4016586 -7.554483
-82.2375,5.5440000000000005,-6.4016586  -7.554483
-82.2375,-8.316,-1.6004142000000001     -7.554483
-82.2375,8.316,-1.6004142000000001      -7.554483
-82.2375,-2.7720000000000002,8.0020746  -7.554483
-82.2375,2.7720000000000002,8.0020746   -7.554483
-900.45,0.0,16.0041474  -0.625931
-900.45,-13.8599982,-8.0020746  -0.625931
-900.45,13.8599982,-8.0020746   -0.625931
-485.55,-13.8599982,-1.6004142000000001 4.409069
-485.55,-8.316,-11.202903000000001      4.409069
-485.55,-5.5440000000000005,12.803319   4.409069
-485.55,8.316,-11.202903000000001       4.409069
-485.55,13.8599982,-1.6004142000000001  4.409069
-485.55,5.5440000000000005,12.803319    4.409069
558.6750000000001,-11.0879982,-6.4016586        -5.660931
558.6750000000001,11.0879982,-6.4016586 -5.660931
558.6750000000001,0.0,12.803319 -5.660931
1056.6000000000001,-0.0,-16.0041474     2.515516
1056.6000000000001,-13.8599982,8.0020746        2.515516
1056.6000000000001,13.8599982,8.0020746 2.515516
-168.975,-16.631998199999998,-0.0       0.004632
-168.975,8.316,-14.403733200000001      0.004632
-168.975,-8.316,14.403733200000001      0.004632
-168.975,16.631998199999998,-0.0        0.004632
-168.975,-8.316,-14.403733200000001     0.004632
-168.975,8.316,14.403733200000001       0.004632
-694.35,0.0,16.0041474  -2.519484
-694.35,-13.8599982,-8.0020746  -2.519484
-694.35,13.8599982,-8.0020746   -2.519484
410.40000000000003,-11.0879982,0.0      6.927092
410.40000000000003,-5.5440000000000005,-9.602488800000001       6.927092
410.40000000000003,-5.5440000000000005,9.602488800000001        6.927092
410.40000000000003,5.5440000000000005,-9.602488800000001        6.927092
410.40000000000003,11.0879982,0.0       6.927092
410.40000000000003,5.5440000000000005,9.602488800000001 6.927092
381.375,-16.631998199999998,-3.2008302  -0.625931
381.375,-5.5440000000000005,16.0041474  -0.625931
381.375,-11.0879982,-12.803319  -0.625931
381.375,11.0879982,-12.803319   -0.625931
381.375,5.5440000000000005,16.0041474   -0.625931
381.375,16.631998199999998,-3.2008302   -0.625931
201.4875,-16.631998199999998,0.0        1.892092
201.4875,-8.316,-14.403733200000001     1.892092
201.4875,-8.316,14.403733200000001      1.892092
201.4875,8.316,-14.403733200000001      1.892092
201.4875,16.631998199999998,0.0 1.892092
201.4875,8.316,14.403733200000001       1.892092
-7.7765625,-13.8599982,4.801244400000001        -5.030367
-7.7765625,-13.8599982,-4.801244400000001       -5.030367
-7.7765625,-11.0879982,-9.602488800000001       -5.030367
-7.7765625,-11.0879982,9.602488800000001        -5.030367
-7.7765625,-13.8599982,4.801244400000001        5.039632
-7.7765625,2.7720000000000002,-14.403733200000001       -5.030367
-7.7765625,-2.7720000000000002,-14.403733200000001      -5.030367
-7.7765625,-13.8599982,-4.801244400000001       5.039632
-7.7765625,-11.0879982,-9.602488800000001       5.039632
-7.7765625,-2.7720000000000002,14.403733200000001       -5.030367
-7.7765625,2.7720000000000002,-14.403733200000001       5.039632
-7.7765625,-11.0879982,9.602488800000001        5.039632
-7.7765625,-2.7720000000000002,-14.403733200000001      5.039632
-7.7765625,11.0879982,-9.602488800000001        -5.030367
-7.7765625,2.7720000000000002,14.403733200000001        -5.030367
-7.7765625,13.8599982,-4.801244400000001        -5.030367
-7.7765625,13.8599982,4.801244400000001 -5.030367
-7.7765625,11.0879982,9.602488800000001 -5.030367
-7.7765625,-2.7720000000000002,14.403733200000001       5.039632
-7.7765625,11.0879982,-9.602488800000001        5.039632
-7.7765625,13.8599982,-4.801244400000001        5.039632
-7.7765625,2.7720000000000002,14.403733200000001        5.039632
-7.7765625,13.8599982,4.801244400000001 5.039632
-7.7765625,11.0879982,9.602488800000001 5.039632
-1.2375,-13.8599982,-1.6004142000000001 -5.660931
-1.2375,-8.316,-11.202903000000001      -5.660931
-1.2375,-5.5440000000000005,12.803319   -5.660931
-1.2375,8.316,-11.202903000000001       -5.660931
-1.2375,5.5440000000000005,12.803319    -5.660931
-1.2375,13.8599982,-1.6004142000000001  -5.660931
208.8,-2.7720000000000002,1.6004142000000001    9.444068
208.8,0.0,-3.2008302    9.444068
208.8,2.7720000000000002,1.6004142000000001     9.444068
92.3625,-16.631998199999998,3.2008302   2.515516
92.3625,-5.5440000000000005,-16.0041474 2.515516
92.3625,5.5440000000000005,-16.0041474  2.515516
92.3625,-11.0879982,12.803319   2.515516
92.3625,16.631998199999998,3.2008302    2.515516
92.3625,11.0879982,12.803319    2.515516
282.375,-16.631998199999998,-3.2008302  -2.519484
282.375,-5.5440000000000005,16.0041474  -2.519484
282.375,-11.0879982,-12.803319  -2.519484
282.375,11.0879982,-12.803319   -2.519484
282.375,16.631998199999998,-3.2008302   -2.519484
282.375,5.5440000000000005,16.0041474   -2.519484
395.325,-16.631998199999998,-0.0        -3.142907
395.325,-8.316,-14.403733200000001      -3.142907
395.325,-8.316,14.403733200000001       -3.142907
395.325,8.316,-14.403733200000001       -3.142907
395.325,16.631998199999998,-0.0 -3.142907
395.325,8.316,14.403733200000001        -3.142907
15.561914058,-8.316,-4.801244400000001  -8.177907
15.561914058,-8.316,4.801244400000001   -8.177907
15.561914058,8.316,4.801244400000001    -8.177907
15.561914058,8.316,-4.801244400000001   -8.177907
15.561914058,-0.0,-9.602488800000001    -8.177907
15.561914058,0.0,9.602488800000001      -8.177907
453.375,-8.316,-8.0020746       7.550516
453.375,-11.0879982,-3.2008302  7.550516
453.375,-2.7720000000000002,11.202903000000001  7.550516
453.375,8.316,-8.0020746        7.550516
453.375,2.7720000000000002,11.202903000000001   7.550516
453.375,11.0879982,-3.2008302   7.550516
-626.4,-8.316,8.0020746 -7.554483
-626.4,-11.0879982,3.2008302    -7.554483
-626.4,-2.7720000000000002,-11.202903000000001  -7.554483
-626.4,2.7720000000000002,-11.202903000000001   -7.554483
-626.4,11.0879982,3.2008302     -7.554483
-626.4,8.316,8.0020746  -7.554483
128.27812500000002,-13.8599982,11.202903000000001       -0.625931
128.27812500000002,-16.631998199999998,6.4016586        -0.625931
128.27812500000002,-2.7720000000000002,-17.6045634      -0.625931
128.27812500000002,2.7720000000000002,-17.6045634       -0.625931
128.27812500000002,16.631998199999998,6.4016586 -0.625931
128.27812500000002,13.8599982,11.202903000000001        -0.625931
-870.75,-0.0,-16.0041474        4.409069
-870.75,-13.8599982,8.0020746   4.409069
-870.75,13.8599982,8.0020746    4.409069

End of input

&SCF
Occupied
9
Iterations
   50  100
End of Input

&RASSCF
LumOrb
Symmetry
1
Spin
2
Nactel
1 0 0
CIRoot
9 9 1
inactive
9
ras2
9
End of Input

>>> COPY chromium_so_cf.JobIph $SLURM_SUBMIT_DIR/chromium_so_cf.doublet.JobIph

>>> COPY $SLURM_SUBMIT_DIR/chromium_so_cf.doublet.JobIph ./JOB002

&RASSI
NROFJobIph
1 All
SpinOrbit
End of Input

EOF

-- ----------------------------------

--- Start Module: seward at Wed Mar 26 22:31:53 2025 ---

()()()()()()()()()()()()()()()()()()()()()()()()()()()()()()()()()()()()()()()()()()()()()()()()()()

                                              &SEWARD

                                   only a single process is used
                       available to each process: 4.1 GB of memory, 1 thread?
                                            pid: 1935750
()()()()()()()()()()()()()()()()()()()()()()()()()()()()()()()()()()()()()()()()()()()()()()()()()()

 The speed of LIGHT in this CALCULATION =   137.03599917700001     
               SEWARD will generate:
                  Multipole Moment integrals up to order  2
                  Kinetic Energy integrals
                  Nuclear Attraction integrals (point charge)
                  One-Electron Hamiltonian integrals
                  Velocity integrals
                  Relativistic Douglas-Kroll-Hess integrals:
                    - Parametrization         : EXP
                    - DKH order of Hamiltonian: 2
                    - DKH order of Properties : 0
                         - multipole moment operators
                         - electric potential operators
                         - contact operators
                  External field from   414 point(s) added to the one-electron Hamiltonian
                  Orbital angular momentum around (-0.0000 -0.0000  0.0088 )
                  Velocity quadrupole around (-0.0000 -0.0000  0.0088 )
                  Atomic mean-field integrals
                  Two-Electron Repulsion integrals

                   Integrals are discarded if absolute value <: 0.10E-13
                   Integral cutoff threshold is set to       <: 0.10E-15

++    Symmetry information:
      ---------------------

                    Character Table for C1 

                             E  
                    a        1  x, y, xy, Rz, z, xz, Ry, yz, Rx, I
--


++    Basis set information:
      ----------------------


      Basis set label: CR.ANO-RCC.ROOS.21S15P10D6F4G2H.10S10P8D6F4G2H......

      Electronic valence basis set:
      ------------------
      Associated Effective Charge  24.000000 au
      Associated Actual Charge     24.000000 au
      Nuclear Model: Point charge

      Shell  nPrim  nBasis  Cartesian Spherical Contaminant
         s      21      10        X                  
         p      15      10        X                  
         d      10       8                 X         
         f       6       6                 X         
         g       4       4                 X         
         h       2       2                 X         
--


++    Molecular structure info:
      -------------------------

                    ************************************************ 
                    **** Cartesian Coordinates / Bohr, Angstrom **** 
                    ************************************************ 

     Center  Label                x              y              z                     x              y              z
        1      CR              -0.000000      -0.000000       0.008754             -0.000000      -0.000000       0.004632
--


++    Operator info:
      --------------


  Net charge from external field:   -39.268449999999902     
--


            Nuclear Potential Energy              0.00000000 au

                    Nuclear-External Field Potential Energy    -121.98626450 au
                    External Field Potential Energy             892.02050077 au 


            Total Nuclear Potential Energy           -121.98626450 au


      Basis set specifications :
      Symmetry species         a  
      Basis functions          180

 Sorry, Molden does not know how to handle
 functions with angular momentum larger than g
Note: The following floating-point exceptions are signalling: IEEE_UNDERFLOW_FLAG IEEE_DENORMAL
--- Stop Module: seward at Wed Mar 26 22:32:01 2025 /rc=_RC_ALL_IS_WELL_ ---
*** files: chromium_so_cf.GssOrb xmldump
    saved to directory /home4/s4752295/Internship/Initial_simulations/Point_charge_model/1_electron/Madelung_charges_9_active_space/Cr
--- Module seward spent 8 seconds ---

*** symbolic link created: INPORB -> chromium_so_cf.GssOrb
--- Start Module: scf at Wed Mar 26 22:32:01 2025 ---

()()()()()()()()()()()()()()()()()()()()()()()()()()()()()()()()()()()()()()()()()()()()()()()()()()

                                                &SCF

                                   only a single process is used
                       available to each process: 4.1 GB of memory, 1 thread?
                                            pid: 1935754
()()()()()()()()()()()()()()()()()()()()()()()()()()()()()()()()()()()()()()()()()()()()()()()()()()

++    Input section:
      --------------

      Header of the integral files:
      
       Integrals generated by seward 4.2.0  , Wed Mar 26 22:31:53 2025


      Cartesian coordinates in Angstrom:
      -----------------------------------------------------
      No.  Label        X            Y            Z        
      -----------------------------------------------------
       1   CR        -0.00000000  -0.00000000   0.00463220
      -----------------------------------------------------
      Nuclear repulsion energy = -121.98626450
--

++    Orbital specifications:
      -----------------------

      Symmetry species               1
                                     a
      Frozen orbitals                0
      Occupied orbitals              9
      Secondary orbitals           171
      Deleted orbitals               0
      Total number of orbitals     180
      Number of basis functions    180
--

      Molecular charge                           6.000

++    Optimization specifications:
      ----------------------------

      SCF Algorithm: Conventional
      Minimized density differences are used
      Number of density matrices in core                5
      Maximum number of NDDO SCF iterations            50
      Maximum number of HF SCF iterations             100
      Threshold for SCF energy change            0.10E-08
      Threshold for density matrix               0.10E-03
      Threshold for Fock matrix                  0.15E-03
      Threshold for linear dependence            0.10E-08
      Threshold at which DIIS is turned on       0.15E+00
      Threshold at which QNR/C2DIIS is turned on 0.75E-01
      Threshold for Norm(delta) (QNR/C2DIIS)     0.20E-04
      DIIS extrapolation of the SCF procedure
      All orbitals punched on: SCFORB
--

      Detected guessorb starting orbitals                                             


++ Convergence information
                                   SCF        iterations: Energy and convergence statistics

Iter     Tot. SCF        One-elec.       Two-elec.     Energy      Max Dij or  Max Fij      DNorm      TNorm      AccCon     Time
         Energy          Energy          Energy        Change      Delta Norm                                                in Sec.

 The total and one-electron energies are shifted by a value of      1000. a.u.

   1   -70.103869357  -253.494267937   305.376663078   0.00E+00    0.19E+00*   0.40E+00*    0.60E+01   0.25E+03   None         1.
   2   -70.733161740  -265.977635394   317.230738154  -0.63E+00*   0.15E-01*   0.77E-01*    0.11E+01   0.25E+03   EDIIS        1.
   3   -70.743206730  -264.525792764   315.768850533  -0.10E-01*   0.47E-02*   0.12E-01*    0.89E-01   0.25E+03   EDIIS        1.
   4   -70.743480001  -264.764554095   316.007338593  -0.27E-03*   0.28E-03*   0.17E-02*    0.90E-02   0.25E+03   c2DIIS       1.
   5   -70.743490302  -264.734651778   315.977425975  -0.10E-04*   0.66E-04*   0.12E-03     0.79E-03   0.25E+03   QNRc2DIIS    1.
   6   -70.743490339  -264.733828284   315.976602444  -0.37E-07*   0.14E-04    0.24E-04     0.99E-04   0.25E+03   QNRc2DIIS    1.
   7   -70.743490340  -264.733966059   315.976740217  -0.16E-08*   0.23E-05    0.39E-05     0.13E-04   0.25E+03   QNRc2DIIS    1.
   8   -70.743490341  -264.733989906   315.976764064  -0.36E-10    0.10E-05    0.14E-05     0.75E-04   0.25E+03   QNRc2DIIS    1.

       Convergence after  8 Macro Iterations
--

 *****************************************************************************************************************************
 *                                                                                                                           *
 *                                             SCF/KS-DFT Program, Final results                                             *
 *                                                                                                                           *
 *                                                                                                                           *
 *                                                                                                                           *
 *                                                       Final Results                                                       *
 *                                                                                                                           *
 *****************************************************************************************************************************

::    Total SCF energy                              -1070.7434903405
      One-electron energy                           -1264.7339899059
      Two-electron energy                             315.9767640644
      Nuclear repulsion energy                       -121.9862644990
      Kinetic energy (interpolated)                  1078.4065919402
      Virial theorem                                    0.9928940516
      Total spin, S(S+1)                                0.0000000000
      Total spin, S                                     0.0000000000
      Max non-diagonal density matrix element           0.0000015455
      Max non-diagonal Fock matrix element              0.0000006513


      All orbitals with orbital energies smaller than  E(LUMO)+0.5 are printed

++    Molecular orbitals:
      -------------------

      Title: SCF orbitals

      Molecular orbitals for symmetry species 1: a  

          Orbital            1         2         3         4         5         6         7         8         9        10    
          Energy         -221.2238  -25.9040  -21.5278  -21.5278  -21.5274   -2.2113   -0.8274   -0.8274   -0.8131    1.8202
          Occ. No.          2.0000    2.0000    2.0000    2.0000    2.0000    2.0000    2.0000    2.0000    2.0000    0.0000

        1 CR     1s         1.0000   -0.0001    0.0000   -0.0000   -0.0000    0.0001   -0.0000    0.0000    0.0000   -0.0000
        2 CR     2s         0.0001    1.0000    0.0000   -0.0000   -0.0021    0.0021    0.0000   -0.0000   -0.0006   -0.0000
        3 CR     3s        -0.0001   -0.0021   -0.0000    0.0000    0.0006    0.9929    0.0000   -0.0000   -0.0695   -0.0000
        4 CR     4s         0.0000    0.0001    0.0000   -0.0000   -0.0001   -0.0497   -0.0000    0.0000    0.0148   -0.0000
        5 CR     5s        -0.0000   -0.0004   -0.0000    0.0000    0.0002    0.0728    0.0000   -0.0000   -0.0225    0.0000
        6 CR     6s         0.0000    0.0003    0.0000   -0.0000   -0.0001   -0.0297   -0.0000    0.0000    0.0089    0.0000
        7 CR     7s        -0.0000   -0.0001   -0.0000    0.0000    0.0000   -0.0089   -0.0000    0.0000    0.0032   -0.0000
        8 CR     8s         0.0000   -0.0000    0.0000   -0.0000   -0.0000    0.0064    0.0000   -0.0000   -0.0022   -0.0000
        9 CR     9s        -0.0001    0.0002    0.0000   -0.0000   -0.0000    0.0021    0.0000   -0.0000   -0.0008   -0.0000
       10 CR    10s         0.0001   -0.0003   -0.0000    0.0000    0.0000    0.0004    0.0000   -0.0000   -0.0001   -0.0000
       11 CR     2px        0.0000    0.0021   -0.0015    0.0000    1.0000   -0.0004   -0.0000    0.0000    0.0033   -0.0000
       12 CR     3px       -0.0000    0.0004    0.0000   -0.0000   -0.0032    0.0727   -0.0012    0.0000    0.9868    0.0000
       13 CR     4px        0.0000   -0.0001   -0.0000    0.0000    0.0005   -0.0012    0.0001   -0.0000   -0.0902   -0.0000
       14 CR     5px       -0.0000    0.0001    0.0000   -0.0000   -0.0008   -0.0018   -0.0001    0.0000    0.0976    0.0000
       15 CR     6px        0.0000   -0.0000   -0.0000    0.0000    0.0002    0.0019    0.0000   -0.0000   -0.0023    0.0000
       16 CR     7px       -0.0000    0.0000    0.0000   -0.0000   -0.0000   -0.0014    0.0000   -0.0000   -0.0151   -0.0000
       17 CR     8px        0.0000   -0.0000    0.0000   -0.0000   -0.0002   -0.0004   -0.0000    0.0000    0.0025   -0.0000
       18 CR     9px       -0.0000    0.0000   -0.0000    0.0000    0.0003    0.0005   -0.0000    0.0000    0.0037    0.0000
       19 CR    10px        0.0000   -0.0000    0.0000   -0.0000   -0.0003    0.0002   -0.0000   -0.0000   -0.0000    0.0000
       20 CR    11px       -0.0000    0.0000   -0.0000    0.0000    0.0002    0.0000    0.0000   -0.0000   -0.0004    0.0000
       21 CR     2py       -0.0000   -0.0000    0.0000    1.0000   -0.0000   -0.0000    0.0000    0.0032    0.0000    0.0000
       22 CR     3py        0.0000    0.0000   -0.0000   -0.0031    0.0000   -0.0000    0.0000    0.9901   -0.0000    0.0014
       23 CR     4py       -0.0000   -0.0000    0.0000    0.0005   -0.0000    0.0000   -0.0000   -0.0902    0.0000   -0.0022
       24 CR     5py        0.0000    0.0000   -0.0000   -0.0008    0.0000   -0.0000    0.0000    0.0969   -0.0000    0.0015
       25 CR     6py       -0.0000   -0.0000    0.0000    0.0002   -0.0000    0.0000   -0.0000   -0.0018    0.0000    0.0003
       26 CR     7py        0.0000    0.0000   -0.0000   -0.0000    0.0000   -0.0000   -0.0000   -0.0154    0.0000   -0.0004
       27 CR     8py       -0.0000   -0.0000   -0.0000   -0.0002    0.0000    0.0000    0.0000    0.0024   -0.0000   -0.0001
       28 CR     9py        0.0000    0.0000    0.0000    0.0003   -0.0000   -0.0000    0.0000    0.0038   -0.0000    0.0001
       29 CR    10py       -0.0000   -0.0000   -0.0000   -0.0003    0.0000    0.0000    0.0000    0.0001   -0.0000    0.0000
       30 CR    11py        0.0000    0.0000    0.0000    0.0002   -0.0000   -0.0000   -0.0000   -0.0004    0.0000    0.0000
       31 CR     2pz        0.0000    0.0000    1.0000   -0.0000    0.0015   -0.0000    0.0032   -0.0000    0.0000   -0.0000
       32 CR     3pz       -0.0000    0.0000   -0.0031    0.0000   -0.0000    0.0000    0.9901   -0.0000    0.0012   -0.0000
       33 CR     4pz        0.0000   -0.0000    0.0005   -0.0000    0.0000   -0.0000   -0.0902    0.0000   -0.0001    0.0000
       34 CR     5pz       -0.0000    0.0000   -0.0008    0.0000   -0.0000   -0.0000    0.0969   -0.0000    0.0001   -0.0000
       35 CR     6pz        0.0000   -0.0000    0.0002   -0.0000    0.0000    0.0000   -0.0018    0.0000   -0.0000   -0.0000
       36 CR     7pz       -0.0000    0.0000   -0.0000    0.0000   -0.0000   -0.0000   -0.0154    0.0000   -0.0000    0.0000
       37 CR     8pz        0.0000   -0.0000   -0.0002    0.0000   -0.0000   -0.0000    0.0024   -0.0000    0.0000    0.0000
       38 CR     9pz       -0.0000    0.0000    0.0003   -0.0000    0.0000    0.0000    0.0038   -0.0000    0.0000   -0.0000
       39 CR    10pz        0.0000   -0.0000   -0.0003    0.0000   -0.0000    0.0000    0.0001   -0.0000    0.0000   -0.0000
       40 CR    11pz       -0.0000    0.0000    0.0002   -0.0000    0.0000    0.0000   -0.0004    0.0000   -0.0000   -0.0000
       41 CR     3d2-      -0.0000    0.0000    0.0000    0.0002   -0.0000   -0.0000    0.0000    0.0417   -0.0000   -0.0397
       42 CR     4d2-      -0.0000   -0.0000   -0.0000   -0.0002    0.0000    0.0000   -0.0000   -0.0094    0.0000    0.0128
       43 CR     5d2-       0.0000    0.0000    0.0000    0.0001   -0.0000   -0.0000   -0.0000   -0.0054    0.0000   -0.0001
       44 CR     6d2-      -0.0000   -0.0000   -0.0000   -0.0001    0.0000    0.0000    0.0000    0.0028   -0.0000   -0.0007
       45 CR     7d2-       0.0000    0.0000    0.0000    0.0000   -0.0000   -0.0000    0.0000    0.0016   -0.0000   -0.0006
       46 CR     8d2-      -0.0000   -0.0000   -0.0000   -0.0000    0.0000    0.0000   -0.0000   -0.0005    0.0000    0.0002
       47 CR     9d2-       0.0000    0.0000    0.0000    0.0000   -0.0000   -0.0000   -0.0000   -0.0008    0.0000    0.0002
       48 CR    10d2-      -0.0000    0.0000   -0.0000   -0.0000    0.0000   -0.0000   -0.0000   -0.0001   -0.0000    0.0000
       49 CR     3d1-      -0.0000    0.0000    0.0000    0.0000    0.0000   -0.0000    0.0000    0.0000   -0.0000    0.9449
       50 CR     4d1-       0.0000   -0.0000   -0.0000   -0.0000   -0.0000    0.0000   -0.0000   -0.0000    0.0000   -0.3212
       51 CR     5d1-      -0.0000    0.0000    0.0000    0.0000    0.0000   -0.0000   -0.0000   -0.0000   -0.0000   -0.0015
       52 CR     6d1-      -0.0000   -0.0000   -0.0000   -0.0000   -0.0000    0.0000    0.0000    0.0000    0.0000    0.0190
       53 CR     7d1-       0.0000    0.0000    0.0000    0.0000    0.0000   -0.0000    0.0000    0.0000   -0.0000    0.0159
       54 CR     8d1-      -0.0000   -0.0000   -0.0000   -0.0000   -0.0000   -0.0000    0.0000    0.0000    0.0000   -0.0051
       55 CR     9d1-       0.0000    0.0000    0.0000    0.0000    0.0000   -0.0000    0.0000    0.0000   -0.0000   -0.0046
       56 CR    10d1-       0.0000   -0.0000   -0.0000   -0.0000   -0.0000    0.0000    0.0000    0.0000    0.0000   -0.0004
       57 CR     3d0        0.0000    0.0000    0.0000   -0.0000   -0.0001   -0.0001    0.0001   -0.0000   -0.0249    0.0000
       58 CR     4d0       -0.0000   -0.0000   -0.0000    0.0000    0.0001   -0.0001   -0.0000    0.0000    0.0056   -0.0000
       59 CR     5d0        0.0000    0.0000    0.0000   -0.0000   -0.0001    0.0001   -0.0000    0.0000    0.0032   -0.0000
       60 CR     6d0       -0.0000   -0.0000   -0.0000    0.0000    0.0000    0.0000    0.0000   -0.0000   -0.0016    0.0000
       61 CR     7d0        0.0000   -0.0000    0.0000   -0.0000   -0.0000   -0.0000    0.0000   -0.0000   -0.0009    0.0000
       62 CR     8d0       -0.0000    0.0000   -0.0000    0.0000    0.0000   -0.0000   -0.0000    0.0000    0.0003   -0.0000
       63 CR     9d0        0.0000   -0.0000    0.0000   -0.0000   -0.0000    0.0000   -0.0000    0.0000    0.0005   -0.0000
       64 CR    10d0       -0.0000    0.0000   -0.0000    0.0000    0.0000    0.0000   -0.0000    0.0000    0.0001   -0.0000
       65 CR     3d1+      -0.0000   -0.0000    0.0002   -0.0000    0.0000   -0.0000    0.0418   -0.0000    0.0001    0.0000
       66 CR     4d1+       0.0000    0.0000   -0.0002    0.0000   -0.0000    0.0000   -0.0094    0.0000   -0.0000   -0.0000
       67 CR     5d1+      -0.0000   -0.0000    0.0001   -0.0000    0.0000    0.0000   -0.0054    0.0000   -0.0000    0.0000
       68 CR     6d1+       0.0000    0.0000   -0.0001    0.0000   -0.0000   -0.0000    0.0028   -0.0000    0.0000    0.0000
       69 CR     7d1+      -0.0000   -0.0000    0.0000   -0.0000    0.0000   -0.0000    0.0016   -0.0000    0.0000    0.0000
       70 CR     8d1+       0.0000   -0.0000   -0.0000    0.0000   -0.0000    0.0000   -0.0005    0.0000   -0.0000   -0.0000
       71 CR     9d1+      -0.0000    0.0000    0.0000   -0.0000    0.0000    0.0000   -0.0008    0.0000   -0.0000   -0.0000
       72 CR    10d1+       0.0000   -0.0000   -0.0000    0.0000   -0.0000    0.0000   -0.0001    0.0000   -0.0000   -0.0000
       73 CR     3d2+      -0.0000   -0.0000   -0.0000    0.0000    0.0002    0.0002   -0.0000    0.0000    0.0431    0.0000
       74 CR     4d2+       0.0000    0.0000    0.0000   -0.0000   -0.0002    0.0002    0.0000   -0.0000   -0.0097   -0.0000
       75 CR     5d2+      -0.0000   -0.0000   -0.0000    0.0000    0.0001   -0.0002    0.0000   -0.0000   -0.0055   -0.0000
       76 CR     6d2+       0.0000    0.0000    0.0000   -0.0000   -0.0001   -0.0001   -0.0000    0.0000    0.0029    0.0000
       77 CR     7d2+      -0.0000    0.0000   -0.0000    0.0000    0.0000    0.0000   -0.0000    0.0000    0.0016    0.0000
       78 CR     8d2+       0.0000   -0.0000    0.0000   -0.0000   -0.0000    0.0000    0.0000   -0.0000   -0.0005   -0.0000
       79 CR     9d2+      -0.0000    0.0000   -0.0000    0.0000    0.0000   -0.0000    0.0000   -0.0000   -0.0009   -0.0000
       80 CR    10d2+       0.0000   -0.0000    0.0000   -0.0000   -0.0000   -0.0000   -0.0000    0.0000   -0.0001   -0.0000
       81 CR     4f3-      -0.0000   -0.0000   -0.0000   -0.0000    0.0000    0.0000    0.0000    0.0000   -0.0000   -0.0020
       82 CR     5f3-       0.0000    0.0000    0.0000    0.0000   -0.0000   -0.0000    0.0000    0.0003   -0.0000   -0.0010
       83 CR     6f3-      -0.0000   -0.0000   -0.0000   -0.0000    0.0000    0.0000    0.0000    0.0000   -0.0000    0.0000
       84 CR     7f3-       0.0000    0.0000    0.0000    0.0000   -0.0000   -0.0000   -0.0000   -0.0001    0.0000    0.0002
       85 CR     8f3-      -0.0000   -0.0000   -0.0000   -0.0000    0.0000    0.0000   -0.0000   -0.0000    0.0000    0.0001
       86 CR     9f3-       0.0000    0.0000    0.0000    0.0000   -0.0000   -0.0000    0.0000    0.0000   -0.0000   -0.0000
       87 CR     4f2-      -0.0000   -0.0000   -0.0000   -0.0000    0.0000   -0.0000   -0.0000   -0.0000   -0.0000    0.0355
       88 CR     5f2-       0.0000    0.0000    0.0000    0.0000    0.0000    0.0000   -0.0000   -0.0000    0.0000    0.0156
       89 CR     6f2-      -0.0000   -0.0000   -0.0000   -0.0000   -0.0000   -0.0000    0.0000    0.0000   -0.0000   -0.0042
       90 CR     7f2-       0.0000   -0.0000   -0.0000   -0.0000    0.0000   -0.0000    0.0000    0.0000    0.0000   -0.0040
       91 CR     8f2-      -0.0000    0.0000   -0.0000   -0.0000   -0.0000    0.0000    0.0000    0.0000   -0.0000   -0.0007
       92 CR     9f2-       0.0000   -0.0000    0.0000    0.0000    0.0000   -0.0000   -0.0000   -0.0000    0.0000    0.0012
       93 CR     4f1-      -0.0000   -0.0000    0.0000    0.0000   -0.0000    0.0000   -0.0000   -0.0000   -0.0000    0.0005
       94 CR     5f1-       0.0000    0.0000   -0.0000   -0.0000    0.0000   -0.0000   -0.0000   -0.0001    0.0000    0.0003
       95 CR     6f1-      -0.0000   -0.0000    0.0000    0.0000   -0.0000    0.0000   -0.0000   -0.0000   -0.0000   -0.0000
       96 CR     7f1-       0.0000    0.0000   -0.0000   -0.0000    0.0000   -0.0000    0.0000    0.0000    0.0000   -0.0000
       97 CR     8f1-      -0.0000   -0.0000    0.0000    0.0000   -0.0000    0.0000    0.0000    0.0000   -0.0000   -0.0000
       98 CR     9f1-      -0.0000    0.0000   -0.0000   -0.0000    0.0000   -0.0000   -0.0000   -0.0000    0.0000    0.0000
       99 CR     4f0       -0.0000    0.0000    0.0000   -0.0000    0.0000    0.0000   -0.0000    0.0000    0.0000   -0.0000
      100 CR     5f0        0.0000   -0.0000   -0.0000    0.0000   -0.0000    0.0000   -0.0002    0.0000    0.0000   -0.0000
      101 CR     6f0        0.0000   -0.0000    0.0000   -0.0000    0.0000   -0.0000   -0.0000    0.0000   -0.0000    0.0000
      102 CR     7f0        0.0000   -0.0000   -0.0000    0.0000   -0.0000   -0.0000    0.0001   -0.0000   -0.0000    0.0000
      103 CR     8f0        0.0000   -0.0000    0.0000   -0.0000    0.0000   -0.0000    0.0000   -0.0000   -0.0000    0.0000
      104 CR     9f0        0.0000   -0.0000   -0.0000    0.0000   -0.0000   -0.0000   -0.0000    0.0000    0.0000   -0.0000
      105 CR     4f1+       0.0000   -0.0000    0.0000   -0.0000    0.0000   -0.0001    0.0000   -0.0000    0.0000    0.0000
      106 CR     5f1+      -0.0000    0.0000   -0.0000    0.0000   -0.0000   -0.0000    0.0000   -0.0000   -0.0002    0.0000
      107 CR     6f1+       0.0000   -0.0000   -0.0000    0.0000    0.0000    0.0000    0.0000   -0.0000   -0.0000   -0.0000
      108 CR     7f1+      -0.0000   -0.0000    0.0000   -0.0000   -0.0000    0.0000   -0.0000    0.0000    0.0001   -0.0000
      109 CR     8f1+       0.0000    0.0000   -0.0000    0.0000    0.0000   -0.0000   -0.0000    0.0000    0.0000   -0.0000
      110 CR     9f1+      -0.0000   -0.0000   -0.0000    0.0000   -0.0000   -0.0000    0.0000   -0.0000   -0.0000    0.0000
      111 CR     4f2+      -0.0000    0.0000   -0.0000    0.0000    0.0000    0.0000    0.0000   -0.0000    0.0000    0.0000
      112 CR     5f2+       0.0000   -0.0000    0.0000   -0.0000    0.0000    0.0000    0.0002   -0.0000    0.0000    0.0000
      113 CR     6f2+      -0.0000   -0.0000   -0.0000    0.0000   -0.0000   -0.0000    0.0000   -0.0000    0.0000   -0.0000
      114 CR     7f2+       0.0000   -0.0000    0.0000   -0.0000    0.0000   -0.0000   -0.0001    0.0000   -0.0000   -0.0000
      115 CR     8f2+      -0.0000   -0.0000   -0.0000    0.0000   -0.0000   -0.0000   -0.0000    0.0000   -0.0000   -0.0000
      116 CR     9f2+       0.0000   -0.0000    0.0000   -0.0000   -0.0000   -0.0000    0.0000   -0.0000    0.0000    0.0000
      117 CR     4f3+      -0.0000    0.0000    0.0000   -0.0000   -0.0000    0.0001    0.0000   -0.0000   -0.0000    0.0000
      118 CR     5f3+       0.0000   -0.0000   -0.0000    0.0000    0.0000    0.0000    0.0000   -0.0000    0.0003    0.0000
      119 CR     6f3+      -0.0000    0.0000    0.0000   -0.0000   -0.0000   -0.0000   -0.0000    0.0000    0.0000   -0.0000
      120 CR     7f3+       0.0000    0.0000    0.0000   -0.0000    0.0000   -0.0000   -0.0000    0.0000   -0.0001   -0.0000
      121 CR     8f3+      -0.0000   -0.0000    0.0000   -0.0000   -0.0000    0.0000   -0.0000    0.0000   -0.0000   -0.0000
      122 CR     9f3+       0.0000    0.0000   -0.0000    0.0000    0.0000    0.0000    0.0000   -0.0000    0.0000    0.0000
      123 CR     5g4-      -0.0000   -0.0000    0.0000    0.0000   -0.0000    0.0000    0.0000    0.0001   -0.0000   -0.0000
      124 CR     6g4-       0.0000    0.0000   -0.0000   -0.0000    0.0000    0.0000    0.0000    0.0001   -0.0000   -0.0001
      125 CR     7g4-      -0.0000   -0.0000    0.0000    0.0000   -0.0000   -0.0000    0.0000    0.0000    0.0000   -0.0001
      126 CR     8g4-       0.0000    0.0000    0.0000    0.0000    0.0000    0.0000   -0.0000   -0.0000   -0.0000   -0.0001
      127 CR     5g3-       0.0000    0.0000   -0.0000   -0.0000   -0.0000    0.0000   -0.0000   -0.0000   -0.0000    0.0003
      128 CR     6g3-      -0.0000   -0.0000    0.0000    0.0000    0.0000   -0.0000   -0.0000   -0.0000    0.0000    0.0011
      129 CR     7g3-       0.0000    0.0000   -0.0000   -0.0000   -0.0000    0.0000   -0.0000   -0.0000   -0.0000    0.0009
      130 CR     8g3-      -0.0000   -0.0000   -0.0000   -0.0000    0.0000   -0.0000   -0.0000   -0.0000   -0.0000    0.0004
      131 CR     5g2-      -0.0000   -0.0000   -0.0000   -0.0000    0.0000   -0.0000   -0.0000   -0.0000   -0.0000   -0.0000
      132 CR     6g2-       0.0000    0.0000    0.0000    0.0000   -0.0000   -0.0000   -0.0000   -0.0000    0.0000    0.0000
      133 CR     7g2-      -0.0000   -0.0000   -0.0000   -0.0000   -0.0000    0.0000   -0.0000   -0.0000   -0.0000    0.0000
      134 CR     8g2-       0.0000    0.0000   -0.0000   -0.0000    0.0000   -0.0000    0.0000    0.0000   -0.0000    0.0000
      135 CR     5g1-      -0.0000   -0.0000    0.0000    0.0000   -0.0000    0.0000    0.0000    0.0000    0.0000   -0.0001
      136 CR     6g1-       0.0000    0.0000    0.0000    0.0000   -0.0000   -0.0000    0.0000    0.0000   -0.0000   -0.0004
      137 CR     7g1-      -0.0000   -0.0000   -0.0000   -0.0000    0.0000    0.0000    0.0000    0.0000    0.0000   -0.0004
      138 CR     8g1-       0.0000    0.0000    0.0000    0.0000    0.0000   -0.0000    0.0000    0.0000   -0.0000   -0.0002
      139 CR     5g0        0.0000   -0.0000   -0.0000    0.0000    0.0000   -0.0000   -0.0000    0.0000    0.0001   -0.0000
      140 CR     6g0       -0.0000    0.0000    0.0000   -0.0000   -0.0000   -0.0000   -0.0000    0.0000    0.0000   -0.0000
      141 CR     7g0       -0.0000   -0.0000   -0.0000    0.0000    0.0000    0.0000   -0.0000    0.0000    0.0000   -0.0000
      142 CR     8g0       -0.0000    0.0000   -0.0000    0.0000    0.0000    0.0000   -0.0000    0.0000   -0.0000   -0.0000
      143 CR     5g1+      -0.0000    0.0000   -0.0000    0.0000    0.0000    0.0000   -0.0001    0.0000    0.0000   -0.0000
      144 CR     6g1+      -0.0000   -0.0000    0.0000   -0.0000    0.0000    0.0000   -0.0001    0.0000    0.0000   -0.0000
      145 CR     7g1+       0.0000    0.0000   -0.0000    0.0000    0.0000    0.0000   -0.0000    0.0000    0.0000   -0.0000
      146 CR     8g1+       0.0000   -0.0000   -0.0000    0.0000    0.0000   -0.0000    0.0000   -0.0000    0.0000   -0.0000
      147 CR     5g2+      -0.0000    0.0000    0.0000   -0.0000   -0.0000    0.0000    0.0000   -0.0000   -0.0001    0.0000
      148 CR     6g2+       0.0000   -0.0000   -0.0000    0.0000    0.0000    0.0000    0.0000   -0.0000   -0.0001    0.0000
      149 CR     7g2+       0.0000    0.0000    0.0000   -0.0000   -0.0000   -0.0000    0.0000   -0.0000   -0.0000    0.0000
      150 CR     8g2+       0.0000   -0.0000    0.0000   -0.0000   -0.0000   -0.0000    0.0000   -0.0000    0.0000    0.0000
      151 CR     5g3+      -0.0000    0.0000    0.0000   -0.0000    0.0000    0.0000    0.0001   -0.0000    0.0000    0.0000
      152 CR     6g3+      -0.0000   -0.0000   -0.0000    0.0000   -0.0000    0.0000    0.0001   -0.0000    0.0000    0.0000
      153 CR     7g3+       0.0000    0.0000    0.0000   -0.0000    0.0000    0.0000    0.0000   -0.0000    0.0000    0.0000
      154 CR     8g3+       0.0000   -0.0000    0.0000   -0.0000    0.0000   -0.0000   -0.0000    0.0000    0.0000    0.0000
      155 CR     5g4+       0.0000   -0.0000    0.0000   -0.0000    0.0000   -0.0000    0.0000   -0.0000    0.0001    0.0000
      156 CR     6g4+      -0.0000    0.0000   -0.0000    0.0000   -0.0000   -0.0000    0.0000   -0.0000    0.0001    0.0000
      157 CR     7g4+      -0.0000   -0.0000    0.0000   -0.0000    0.0000    0.0000    0.0000   -0.0000    0.0000    0.0000
      158 CR     8g4+      -0.0000    0.0000    0.0000   -0.0000    0.0000    0.0000    0.0000   -0.0000   -0.0000    0.0000
      159 CR     6h5-      -0.0000   -0.0000   -0.0000   -0.0000   -0.0000    0.0000   -0.0000   -0.0000   -0.0000    0.0000
      160 CR     7h5-       0.0000    0.0000    0.0000    0.0000    0.0000   -0.0000   -0.0000   -0.0000   -0.0000    0.0000
      161 CR     6h4-      -0.0000   -0.0000    0.0000    0.0000   -0.0000    0.0000    0.0000    0.0000   -0.0000    0.0001
      162 CR     7h4-       0.0000    0.0000   -0.0000   -0.0000    0.0000    0.0000    0.0000    0.0000   -0.0000    0.0002
      163 CR     6h3-      -0.0000   -0.0000    0.0000    0.0000   -0.0000    0.0000    0.0000    0.0000    0.0000   -0.0000
      164 CR     7h3-       0.0000    0.0000   -0.0000   -0.0000    0.0000   -0.0000    0.0000    0.0000   -0.0000   -0.0000
      165 CR     6h2-      -0.0000    0.0000    0.0000    0.0000   -0.0000    0.0000    0.0000    0.0000   -0.0000   -0.0001
      166 CR     7h2-       0.0000   -0.0000   -0.0000   -0.0000    0.0000    0.0000    0.0000    0.0000   -0.0000   -0.0001
      167 CR     6h1-      -0.0000   -0.0000   -0.0000   -0.0000   -0.0000    0.0000   -0.0000   -0.0000    0.0000   -0.0000
      168 CR     7h1-       0.0000    0.0000    0.0000    0.0000    0.0000   -0.0000   -0.0000   -0.0000   -0.0000   -0.0000
      169 CR     6h0        0.0000   -0.0000   -0.0000    0.0000   -0.0000   -0.0000   -0.0000    0.0000   -0.0000   -0.0000
      170 CR     7h0        0.0000   -0.0000    0.0000   -0.0000    0.0000   -0.0000   -0.0000    0.0000   -0.0000   -0.0000
      171 CR     6h1+       0.0000    0.0000    0.0000   -0.0000   -0.0000   -0.0000    0.0000   -0.0000   -0.0000   -0.0000
      172 CR     7h1+       0.0000   -0.0000   -0.0000    0.0000    0.0000   -0.0000    0.0000   -0.0000   -0.0000   -0.0000
      173 CR     6h2+      -0.0000    0.0000    0.0000   -0.0000    0.0000    0.0000    0.0000   -0.0000    0.0000    0.0000
      174 CR     7h2+      -0.0000    0.0000   -0.0000    0.0000   -0.0000    0.0000    0.0000   -0.0000    0.0000    0.0000
      175 CR     6h3+      -0.0000   -0.0000    0.0000   -0.0000    0.0000    0.0000    0.0000   -0.0000    0.0000    0.0000
      176 CR     7h3+      -0.0000    0.0000   -0.0000    0.0000   -0.0000    0.0000    0.0000   -0.0000    0.0000    0.0000
      177 CR     6h4+      -0.0000    0.0000   -0.0000    0.0000    0.0000    0.0000   -0.0000    0.0000    0.0000   -0.0000
      178 CR     7h4+      -0.0000    0.0000    0.0000   -0.0000   -0.0000    0.0000   -0.0000    0.0000    0.0000   -0.0000
      179 CR     6h5+       0.0000    0.0000    0.0000   -0.0000   -0.0000   -0.0000    0.0000   -0.0000   -0.0000    0.0000
      180 CR     7h5+       0.0000   -0.0000   -0.0000    0.0000    0.0000   -0.0000    0.0000   -0.0000   -0.0000    0.0000

          Orbital           11        12        13        14    
          Energy            1.8202    1.8251    1.8251    1.8271
          Occ. No.          0.0000    0.0000    0.0000    0.0000

        1 CR     1s        -0.0000    0.0000    0.0000   -0.0000
        2 CR     2s         0.0000   -0.0000    0.0000    0.0000
        3 CR     3s         0.0000   -0.0000    0.0000    0.0036
        4 CR     4s         0.0000   -0.0000    0.0000    0.0109
        5 CR     5s        -0.0000    0.0000   -0.0000   -0.0032
        6 CR     6s        -0.0000    0.0000   -0.0000   -0.0032
        7 CR     7s         0.0000   -0.0000    0.0000    0.0008
        8 CR     8s         0.0000   -0.0000    0.0000    0.0010
        9 CR     9s         0.0000    0.0000   -0.0000    0.0001
       10 CR    10s         0.0000    0.0000   -0.0000   -0.0000
       11 CR     2px       -0.0000    0.0000   -0.0000   -0.0005
       12 CR     3px       -0.0000    0.0001   -0.0000   -0.0410
       13 CR     4px        0.0000   -0.0002    0.0000    0.0616
       14 CR     5px       -0.0000    0.0001   -0.0000   -0.0444
       15 CR     6px       -0.0000    0.0000   -0.0000   -0.0094
       16 CR     7px        0.0000   -0.0000    0.0000    0.0129
       17 CR     8px        0.0000   -0.0000    0.0000    0.0026
       18 CR     9px       -0.0000    0.0000   -0.0000   -0.0033
       19 CR    10px       -0.0000    0.0000   -0.0000   -0.0014
       20 CR    11px       -0.0000    0.0000    0.0000   -0.0001
       21 CR     2py        0.0000   -0.0000   -0.0004   -0.0000
       22 CR     3py       -0.0000   -0.0000   -0.0347   -0.0000
       23 CR     4py        0.0000    0.0000    0.0485    0.0000
       24 CR     5py       -0.0000   -0.0000   -0.0371   -0.0000
       25 CR     6py       -0.0000   -0.0000   -0.0070   -0.0000
       26 CR     7py        0.0000    0.0000    0.0109    0.0000
       27 CR     8py        0.0000    0.0000    0.0019    0.0000
       28 CR     9py       -0.0000   -0.0000   -0.0030   -0.0000
       29 CR    10py       -0.0000   -0.0000   -0.0013   -0.0000
       30 CR    11py        0.0000   -0.0000   -0.0001   -0.0000
       31 CR     2pz       -0.0000   -0.0004    0.0000   -0.0000
       32 CR     3pz       -0.0013   -0.0347    0.0000   -0.0001
       33 CR     4pz        0.0020    0.0485   -0.0000    0.0001
       34 CR     5pz       -0.0014   -0.0371    0.0000   -0.0001
       35 CR     6pz       -0.0003   -0.0070    0.0000   -0.0000
       36 CR     7pz        0.0004    0.0109   -0.0000    0.0000
       37 CR     8pz        0.0001    0.0019   -0.0000    0.0000
       38 CR     9pz       -0.0001   -0.0030    0.0000   -0.0000
       39 CR    10pz       -0.0000   -0.0013    0.0000   -0.0000
       40 CR    11pz       -0.0000   -0.0001    0.0000   -0.0000
       41 CR     3d2-       0.0000    0.0000    0.9441    0.0000
       42 CR     4d2-      -0.0000   -0.0000   -0.3139   -0.0000
       43 CR     5d2-       0.0000   -0.0000   -0.0003   -0.0000
       44 CR     6d2-       0.0000    0.0000    0.0173    0.0000
       45 CR     7d2-       0.0000    0.0000    0.0148    0.0000
       46 CR     8d2-      -0.0000   -0.0000   -0.0046   -0.0000
       47 CR     9d2-      -0.0000   -0.0000   -0.0038   -0.0000
       48 CR    10d2-      -0.0000   -0.0000   -0.0002    0.0000
       49 CR     3d1-      -0.0000    0.0000    0.0395    0.0000
       50 CR     4d1-       0.0000   -0.0000   -0.0138   -0.0000
       51 CR     5d1-       0.0000   -0.0000   -0.0002   -0.0000
       52 CR     6d1-      -0.0000    0.0000    0.0008    0.0000
       53 CR     7d1-      -0.0000    0.0000    0.0007    0.0000
       54 CR     8d1-       0.0000   -0.0000   -0.0002   -0.0000
       55 CR     9d1-       0.0000   -0.0000   -0.0002   -0.0000
       56 CR    10d1-       0.0000   -0.0000   -0.0000   -0.0000
       57 CR     3d0        0.8184   -0.0288    0.0000   -0.4725
       58 CR     4d0       -0.2782    0.0102   -0.0000    0.1556
       59 CR     5d0       -0.0013    0.0001   -0.0000   -0.0002
       60 CR     6d0        0.0165   -0.0006    0.0000   -0.0084
       61 CR     7d0        0.0138   -0.0005    0.0000   -0.0071
       62 CR     8d0       -0.0044    0.0001   -0.0000    0.0023
       63 CR     9d0       -0.0040    0.0001   -0.0000    0.0018
       64 CR    10d0       -0.0004    0.0000   -0.0000    0.0001
       65 CR     3d1+       0.0353    0.9443   -0.0000    0.0031
       66 CR     4d1+      -0.0113   -0.3140    0.0000   -0.0010
       67 CR     5d1+       0.0001   -0.0003    0.0000    0.0000
       68 CR     6d1+       0.0006    0.0173   -0.0000    0.0001
       69 CR     7d1+       0.0005    0.0148   -0.0000    0.0000
       70 CR     8d1+      -0.0002   -0.0046    0.0000   -0.0000
       71 CR     9d1+      -0.0001   -0.0038    0.0000   -0.0000
       72 CR    10d1+      -0.0000   -0.0002    0.0000   -0.0000
       73 CR     3d2+       0.4727   -0.0202    0.0000    0.8177
       74 CR     4d2+      -0.1607    0.0071   -0.0000   -0.2693
       75 CR     5d2+      -0.0008    0.0001   -0.0000    0.0004
       76 CR     6d2+       0.0095   -0.0004    0.0000    0.0145
       77 CR     7d2+       0.0080   -0.0004    0.0000    0.0124
       78 CR     8d2+      -0.0025    0.0001   -0.0000   -0.0039
       79 CR     9d2+      -0.0023    0.0001   -0.0000   -0.0030
       80 CR    10d2+      -0.0002    0.0000   -0.0000   -0.0001
       81 CR     4f3-       0.0000    0.0000    0.0448    0.0000
       82 CR     5f3-       0.0000    0.0000    0.0204    0.0000
       83 CR     6f3-      -0.0000   -0.0000   -0.0045   -0.0000
       84 CR     7f3-      -0.0000   -0.0000   -0.0049   -0.0000
       85 CR     8f3-      -0.0000   -0.0000   -0.0010   -0.0000
       86 CR     9f3-       0.0000    0.0000    0.0012    0.0000
       87 CR     4f2-      -0.0000    0.0000    0.0013    0.0000
       88 CR     5f2-      -0.0000    0.0000    0.0003    0.0000
       89 CR     6f2-       0.0000   -0.0000   -0.0005   -0.0000
       90 CR     7f2-       0.0000   -0.0000   -0.0003   -0.0000
       91 CR     8f2-       0.0000   -0.0000   -0.0000   -0.0000
       92 CR     9f2-      -0.0000    0.0000    0.0001    0.0000
       93 CR     4f1-      -0.0000   -0.0000   -0.0116   -0.0000
       94 CR     5f1-      -0.0000   -0.0000   -0.0053   -0.0000
       95 CR     6f1-       0.0000    0.0000    0.0012    0.0000
       96 CR     7f1-       0.0000    0.0000    0.0013    0.0000
       97 CR     8f1-       0.0000    0.0000    0.0003    0.0000
       98 CR     9f1-      -0.0000   -0.0000   -0.0003   -0.0000
       99 CR     4f0       -0.0011   -0.0283    0.0000   -0.0000
      100 CR     5f0       -0.0006   -0.0129    0.0000    0.0001
      101 CR     6f0        0.0000    0.0028   -0.0000    0.0001
      102 CR     7f0        0.0001    0.0031   -0.0000    0.0001
      103 CR     8f0        0.0000    0.0006   -0.0000    0.0000
      104 CR     9f0       -0.0000   -0.0008    0.0000   -0.0000
      105 CR     4f1+       0.0281   -0.0008    0.0000   -0.0303
      106 CR     5f1+       0.0123   -0.0001    0.0000   -0.0139
      107 CR     6f1+      -0.0033    0.0003   -0.0000    0.0030
      108 CR     7f1+      -0.0032    0.0002   -0.0000    0.0034
      109 CR     8f1+      -0.0005   -0.0000    0.0000    0.0007
      110 CR     9f1+       0.0009   -0.0001    0.0000   -0.0008
      111 CR     4f2+       0.0015    0.0366   -0.0000    0.0002
      112 CR     5f2+       0.0008    0.0167   -0.0000    0.0002
      113 CR     6f2+      -0.0000   -0.0037    0.0000    0.0001
      114 CR     7f2+      -0.0001   -0.0040    0.0000    0.0000
      115 CR     8f2+      -0.0000   -0.0008    0.0000   -0.0000
      116 CR     9f2+       0.0000    0.0010   -0.0000   -0.0000
      117 CR     4f3+       0.0217   -0.0008    0.0000    0.0391
      118 CR     5f3+       0.0095   -0.0002    0.0000    0.0180
      119 CR     6f3+      -0.0026    0.0003   -0.0000   -0.0039
      120 CR     7f3+      -0.0025    0.0002   -0.0000   -0.0043
      121 CR     8f3+      -0.0004    0.0000   -0.0000   -0.0009
      122 CR     9f3+       0.0007   -0.0001    0.0000    0.0010
      123 CR     5g4-       0.0000    0.0000    0.0005    0.0000
      124 CR     6g4-       0.0000    0.0000    0.0016    0.0000
      125 CR     7g4-       0.0000    0.0000    0.0015    0.0000
      126 CR     8g4-       0.0000    0.0000    0.0008    0.0000
      127 CR     5g3-      -0.0000   -0.0000   -0.0001    0.0000
      128 CR     6g3-      -0.0000   -0.0000   -0.0002    0.0000
      129 CR     7g3-      -0.0000   -0.0000   -0.0002    0.0000
      130 CR     8g3-      -0.0000   -0.0000   -0.0002    0.0000
      131 CR     5g2-       0.0000   -0.0000   -0.0002   -0.0000
      132 CR     6g2-      -0.0000   -0.0000   -0.0006   -0.0000
      133 CR     7g2-      -0.0000   -0.0000   -0.0006   -0.0000
      134 CR     8g2-      -0.0000   -0.0000   -0.0003   -0.0000
      135 CR     5g1-       0.0000    0.0000    0.0001    0.0000
      136 CR     6g1-       0.0000    0.0000    0.0002   -0.0000
      137 CR     7g1-       0.0000    0.0000    0.0002   -0.0000
      138 CR     8g1-       0.0000    0.0000    0.0001   -0.0000
      139 CR     5g0       -0.0002   -0.0000    0.0000    0.0002
      140 CR     6g0       -0.0006   -0.0000    0.0000    0.0006
      141 CR     7g0       -0.0006   -0.0001    0.0000    0.0006
      142 CR     8g0       -0.0003   -0.0001    0.0000    0.0003
      143 CR     5g1+      -0.0000   -0.0004    0.0000    0.0000
      144 CR     6g1+      -0.0000   -0.0013    0.0000    0.0001
      145 CR     7g1+      -0.0001   -0.0012    0.0000    0.0001
      146 CR     8g1+      -0.0001   -0.0006    0.0000    0.0001
      147 CR     5g2+       0.0002    0.0001   -0.0000   -0.0003
      148 CR     6g2+       0.0006    0.0002   -0.0000   -0.0009
      149 CR     7g2+       0.0005    0.0002   -0.0000   -0.0008
      150 CR     8g2+       0.0002    0.0001   -0.0000   -0.0004
      151 CR     5g3+      -0.0000    0.0003   -0.0000    0.0000
      152 CR     6g3+       0.0000    0.0012   -0.0000    0.0001
      153 CR     7g3+       0.0001    0.0011   -0.0000    0.0001
      154 CR     8g3+       0.0000    0.0006   -0.0000    0.0001
      155 CR     5g4+       0.0002    0.0001   -0.0000    0.0003
      156 CR     6g4+       0.0008    0.0001   -0.0000    0.0012
      157 CR     7g4+       0.0007    0.0002   -0.0000    0.0011
      158 CR     8g4+       0.0003    0.0001   -0.0000    0.0005
      159 CR     6h5-       0.0000    0.0000    0.0002   -0.0000
      160 CR     7h5-      -0.0000    0.0000    0.0002   -0.0000
      161 CR     6h4-      -0.0000   -0.0000   -0.0000    0.0000
      162 CR     7h4-      -0.0000   -0.0000   -0.0000    0.0000
      163 CR     6h3-       0.0000   -0.0000   -0.0001   -0.0000
      164 CR     7h3-       0.0000   -0.0000   -0.0001   -0.0000
      165 CR     6h2-       0.0000    0.0000    0.0000   -0.0000
      166 CR     7h2-       0.0000    0.0000    0.0001    0.0000
      167 CR     6h1-       0.0000    0.0000    0.0000   -0.0000
      168 CR     7h1-       0.0000    0.0000    0.0000   -0.0000
      169 CR     6h0       -0.0000    0.0001   -0.0000   -0.0000
      170 CR     7h0       -0.0000    0.0001   -0.0000   -0.0000
      171 CR     6h1+      -0.0001   -0.0000    0.0000    0.0001
      172 CR     7h1+      -0.0001   -0.0000    0.0000    0.0001
      173 CR     6h2+       0.0000   -0.0001    0.0000    0.0000
      174 CR     7h2+       0.0000   -0.0002    0.0000    0.0000
      175 CR     6h3+       0.0000    0.0000   -0.0000   -0.0001
      176 CR     7h3+       0.0001    0.0001   -0.0000   -0.0001
      177 CR     6h4+      -0.0000    0.0001   -0.0000    0.0000
      178 CR     7h4+      -0.0000    0.0002   -0.0000    0.0000
      179 CR     6h5+       0.0001    0.0000   -0.0000    0.0002
      180 CR     7h5+       0.0001    0.0000   -0.0000    0.0002
--


++    Molecular charges:
      ------------------

      Mulliken charges per centre and basis function type
      ---------------------------------------------------

                CR    
      1s       2.0000
      2s       2.0000
      2px      2.0000
      2pz      2.0000
      2py      2.0000
      3s       1.9815
      3px      1.9581
      3pz      1.9607
      3py      1.9607
      4s       0.0054
      3d2+     0.0037
      3d1+     0.0035
      3d0      0.0012
      3d1-     0.0000
      3d2-     0.0035
      4px      0.0163
      4pz      0.0163
      4py      0.0163
      5s       0.0116
      4d2+     0.0002
      4d1+     0.0002
      4d0      0.0001
      4d1-     0.0000
      4d2-     0.0002
      5px      0.0191
      5pz      0.0188
      5py      0.0188
      6s       0.0019
      4f3+     0.0000
      4f2+     0.0000
      4f1+     0.0000
      4f0      0.0000
      4f1-     0.0000
      4f2-     0.0000
      4f3-     0.0000
      5d2+     0.0001
      5d1+     0.0001
      5d0      0.0000
      5d1-     0.0000
      5d2-     0.0001
      6px      0.0000
      6pz      0.0000
      6py      0.0000
      7s       0.0002
      5f3+     0.0000
      5f2+     0.0000
      5f1+     0.0000
      5f0      0.0000
      5f1-     0.0000
      5f2-     0.0000
      5f3-     0.0000
      6d2+     0.0000
      6d1+     0.0000
      6d0      0.0000
      6d1-     0.0000
      6d2-     0.0000
      7px      0.0005
      7pz      0.0005
      7py      0.0005
      5g4+     0.0000
      5g3+     0.0000
      5g2+     0.0000
      5g1+     0.0000
      5g0      0.0000
      5g1-     0.0000
      5g2-     0.0000
      5g3-     0.0000
      5g4-     0.0000
      6f3+     0.0000
      6f2+     0.0000
      6f1+     0.0000
      6f0      0.0000
      6f1-     0.0000
      6f2-     0.0000
      6f3-     0.0000
      6g4+     0.0000
      6g3+     0.0000
      6g2+     0.0000
      6g1+     0.0000
      6g0      0.0000
      6g1-     0.0000
      6g2-     0.0000
      6g3-     0.0000
      6g4-     0.0000
      6h5+     0.0000
      6h4+     0.0000
      6h3+     0.0000
      6h2+     0.0000
      6h1+     0.0000
      6h0      0.0000
      6h1-     0.0000
      6h2-     0.0000
      6h3-     0.0000
      6h4-     0.0000
      6h5-     0.0000
      7d2+     0.0000
      7d1+     0.0000
      7d0      0.0000
      7d1-     0.0000
      7d2-     0.0000
      7f3+     0.0000
      7f2+     0.0000
      7f1+     0.0000
      7f0      0.0000
      7f1-     0.0000
      7f2-     0.0000
      7f3-     0.0000
      7g4+     0.0000
      7g3+     0.0000
      7g2+     0.0000
      7g1+     0.0000
      7g0      0.0000
      7g1-     0.0000
      7g2-     0.0000
      7g3-     0.0000
      7g4-     0.0000
      7h5+     0.0000
      7h4+     0.0000
      7h3+     0.0000
      7h2+     0.0000
      7h1+     0.0000
      7h0      0.0000
      7h1-     0.0000
      7h2-     0.0000
      7h3-     0.0000
      7h4-     0.0000
      7h5-     0.0000
      8s       0.0001
      8px      0.0000
      8pz      0.0000
      8py      0.0000
      8d2+     0.0000
      8d1+     0.0000
      8d0      0.0000
      8d1-     0.0000
      8d2-     0.0000
      8f3+     0.0000
      8f2+     0.0000
      8f1+     0.0000
      8f0      0.0000
      8f1-     0.0000
      8f2-     0.0000
      8f3-     0.0000
      8g4+     0.0000
      8g3+     0.0000
      8g2+     0.0000
      8g1+     0.0000
      8g0      0.0000
      8g1-     0.0000
      8g2-     0.0000
      8g3-     0.0000
      8g4-     0.0000
      9s       0.0000
      9px      0.0000
      9pz      0.0000
      9py      0.0000
      9d2+     0.0000
      9d1+     0.0000
      9d0      0.0000
      9d1-     0.0000
      9d2-     0.0000
      9f3+     0.0000
      9f2+     0.0000
      9f1+     0.0000
      9f0      0.0000
      9f1-     0.0000
      9f2-     0.0000
      9f3-     0.0000
     10s       0.0000
     10px      0.0000
     10pz      0.0000
     10py      0.0000
     10d2+     0.0000
     10d1+     0.0000
     10d0      0.0000
     10d1-     0.0000
     10d2-     0.0000
     11px      0.0000
     11pz      0.0000
     11py      0.0000
      Total   18.0000

      N-E      6.0000

      Total electronic charge=   18.000000

      Total            charge=    6.000000
--

 Sorry, Molden does not know how to handle
 functions with angular momentum larger than g

++    Static properties:
      ------------------


      LoProp Charges per center


                   CR    
      Nuclear     24.0000
      Electronic -18.0000

      Total        6.0000
--


++    Molecular properties:
      ---------------------

      Charge (e):
                      =    6.0000
      Dipole Moment (Debye):
      Origin of the operator (Ang)=    0.0000    0.0000    0.0000
                   X= -6.7057E-01               Y= -3.6741E-14               Z=  1.3316E-01           Total=  6.8366E-01
      Center of Charge (Ang)
                     X=   -0.02326812               Y=   -0.00000000               Z=    0.00462063
      Quadrupole Moment (Debye*Ang):
      Origin of the operator (Ang)=   -0.0000   -0.0000    0.0046
                  XX= -3.4434E+00              XY= -7.1591E-15              XZ=  1.8689E-05              YY= -3.4436E+00
                  YZ=  5.4326E-15              ZZ= -3.4436E+00
      In traceless form (Debye*Ang)
                  XX=  2.2806E-04              XY= -1.0739E-14              XZ=  2.8034E-05              YY= -1.1264E-04
                  YZ=  8.1489E-15              ZZ= -1.1542E-04
--

 Sorry, Molden does not know how to handle
 functions with angular momentum larger than g
 ###############################################################################
 ###############################################################################
 ###                                                                         ###
 ###                                                                         ###
 ###    WARNING: RunFile label nBas                                          ###
 ###    was used       62 times                                              ###
 ###                                                                         ###
 ###                                                                         ###
 ###############################################################################
 ###############################################################################
Note: The following floating-point exceptions are signalling: IEEE_UNDERFLOW_FLAG IEEE_DENORMAL
--- Stop Module: scf at Wed Mar 26 22:32:09 2025 /rc=_RC_ALL_IS_WELL_ ---
*** files: chromium_so_cf.LprOrb chromium_so_cf.ScfOrb xmldump
    saved to directory /home4/s4752295/Internship/Initial_simulations/Point_charge_model/1_electron/Madelung_charges_9_active_space/Cr
--- Module scf spent 8 seconds ---

*** symbolic link created: INPORB -> chromium_so_cf.ScfOrb
--- Start Module: rasscf at Wed Mar 26 22:32:09 2025 ---

()()()()()()()()()()()()()()()()()()()()()()()()()()()()()()()()()()()()()()()()()()()()()()()()()()

                                              &RASSCF

                                   only a single process is used
                       available to each process: 4.1 GB of memory, 1 thread?
                                            pid: 1935758
()()()()()()()()()()()()()()()()()()()()()()()()()()()()()()()()()()()()()()()()()()()()()()()()()()


      Header of the ONEINT file:
      --------------------------
      
      Integrals generated by seward 4.2.0  , Wed Mar 26 22:31:53 2025


      OrdInt status: non-squared


      Cartesian coordinates in Angstrom:
      -----------------------------------------------------
      No.  Label        X            Y            Z        
      -----------------------------------------------------
       1   CR        -0.00000000  -0.00000000   0.00463220
      -----------------------------------------------------
      Nuclear repulsion energy = -121.98626450

++    Wave function specifications:
      -----------------------------

      Number of closed shell electrons          18
      Number of electrons in active shells       1
      Max number of holes in RAS1 space          0
      Max nr of electrons in RAS3 space          0
      Number of inactive orbitals                9
      Number of active orbitals                  9
      Number of secondary orbitals             162
      Spin quantum number                      0.5
      State symmetry                             1
--

++    Orbital specifications:
      -----------------------

      Symmetry species                           1
[...]
   17         1.255058       9 0.5  1.0000    8 0.5  0.0000    7 0.5  0.0000    6 0.5  0.0000    5 0.5  0.0000
   18         1.255058       9 0.5  1.0000    8 0.5  0.0000    7 0.5  0.0000    6 0.5  0.0000    5 0.5  0.0000
 -------------------------------------------------------------------------------------------------------


      ****************************************************************************************************
      *                                                                                                  *
      *                                    Special properties section                                    *
      *                                                                                                  *
      ****************************************************************************************************


++ Dipole transition strengths (SO states):
   ----------------------------------------
    for osc. strength at least    1.0000000000000001E-005

      From   To        Osc. strength     Einstein coefficients Ax, Ay, Az (sec-1)    Total A (sec-1)
     -----------------------------------------------------------------------------------------------
         1   11       2.59596013E-05  2.87110192E-13  4.99917938E+05  9.95263787E-10  4.99917938E+05
         1   13       2.01367692E-02  1.59335473E-08  8.56740802E+08  2.01503159E-06  8.56740802E+08
         1   15       2.03707719E-02  7.55761826E+06  2.02142398E-06  8.59681719E+08  8.67239337E+08
         2   12       2.59596013E-05  2.87110192E-13  4.99917938E+05  9.95263787E-10  4.99917938E+05
         2   14       2.01367692E-02  1.59335473E-08  8.56740802E+08  2.01503159E-06  8.56740802E+08
         2   16       2.03707719E-02  7.55761826E+06  2.02142398E-06  8.59681719E+08  8.67239337E+08
         3   11       2.20135789E-05  8.68206748E+01  1.20522206E-09  4.23837619E+05  4.23924440E+05
         3   13       2.02896720E-02  6.50512463E+06  2.01510565E-06  8.56737214E+08  8.63242339E+08
         3   15       2.01846723E-02  1.87766328E-08  8.59312703E+08  2.02216662E-06  8.59312703E+08
         4   12       2.20135789E-05  8.68206748E+01  1.20522206E-09  4.23837619E+05  4.23924440E+05
         4   14       2.02896720E-02  6.50512463E+06  2.01510565E-06  8.56737214E+08  8.63242339E+08
         4   16       2.01846723E-02  1.87766328E-08  8.59312703E+08  2.02216662E-06  8.59312703E+08
         5   11       1.24187252E-02  3.98883839E+03  9.66327692E-10  2.35909166E+08  2.35913155E+08
         5   13       5.05616548E-02  2.13155529E+09  1.13400974E-12  1.08659319E+04  2.13156616E+09
         5   17       4.26921648E-04  8.46438509E+03  8.88687668E-11  2.14172240E+07  2.14256883E+07
         6   12       1.24187252E-02  3.98883839E+03  9.66327692E-10  2.35909166E+08  2.35913155E+08
         6   14       5.05616548E-02  2.13155529E+09  1.13400974E-12  1.08659319E+04  2.13156616E+09
         6   18       4.26921648E-04  8.46438509E+03  8.88687668E-11  2.14172240E+07  2.14256883E+07
         7   11       1.24014698E-02  2.73096963E-14  2.35580829E+08  9.69809645E-10  2.35580829E+08
         7   15       5.05638359E-02  2.13297062E+09  2.78364632E-15  6.88698232E+02  2.13297131E+09
         7   17       4.33341694E-04  9.86016415E-15  2.17476303E+07  8.79610461E-11  2.17476303E+07
         8   12       1.24014698E-02  2.73096963E-14  2.35580829E+08  9.69809645E-10  2.35580829E+08
         8   16       5.05638359E-02  2.13297062E+09  2.78364632E-15  6.88698232E+02  2.13297131E+09
         8   18       4.33341694E-04  9.86016415E-15  2.17476303E+07  8.79610461E-11  2.17476303E+07
         9   11       2.96807331E-02  5.60653752E+08  3.69812270E-14  2.16275432E+03  5.60655915E+08
         9   13       5.16602154E-04  1.69153888E+04  1.23535497E-11  2.16794828E+07  2.16963982E+07
         9   15       5.21677109E-04  4.81061312E-13  2.19233441E+07  1.36846257E-11  2.19233441E+07
         9   17       1.32114038E-02  6.60734182E+08  4.41133673E-15  3.28011892E+02  6.60734510E+08
        10   12       2.96807331E-02  5.60653752E+08  3.69812270E-14  2.16275432E+03  5.60655915E+08
        10   14       5.16602154E-04  1.69153888E+04  1.23535497E-11  2.16794828E+07  2.16963982E+07
        10   16       5.21677109E-04  4.81061312E-13  2.19233441E+07  1.36846257E-11  2.19233441E+07
        10   18       1.32114038E-02  6.60734182E+08  4.41133673E-15  3.28011892E+02  6.60734510E+08
        11   13       3.33850641E-01  5.23931277E+01  9.06334671E-10  1.52090478E+09  1.52090484E+09
        11   15       3.33772881E-01  7.55506313E-18  1.52346087E+09  9.10514844E-10  1.52346087E+09
        11   17       3.41004562E-01  2.53353882E+09  2.81322565E-16  6.37347479E+01  2.53353888E+09
        12   14       3.33850641E-01  5.23931277E+01  9.06334671E-10  1.52090478E+09  1.52090484E+09
        12   16       3.33772881E-01  7.55506313E-18  1.52346087E+09  9.10514844E-10  1.52346087E+09
        12   18       3.41004562E-01  2.53353882E+09  2.81322565E-16  6.37347479E+01  2.53353888E+09
        13   17       1.50937930E-03  2.65291693E+01  3.30774715E-13  5.27777390E+05  5.27803919E+05
        14   18       1.50937930E-03  2.65291693E+01  3.30774715E-13  5.27777390E+05  5.27803919E+05
        15   17       1.58147834E-03  5.46215936E-17  5.49203735E+05  3.11152342E-13  5.49203735E+05
        16   18       1.58147834E-03  5.46215936E-17  5.49203735E+05  3.11152342E-13  5.49203735E+05
     -----------------------------------------------------------------------------------------------
--

++ Velocity transition strengths (SO states):
   ------------------------------------------
    for osc. strength at least    1.0000000000000001E-005

      From   To        Osc. strength     Einstein coefficients Ax, Ay, Az (sec-1)    Total A (sec-1)
     -----------------------------------------------------------------------------------------------
         1    3       1.02229071E-04  3.85969345E-21  2.19810306E-05  1.99049392E-21  2.19810306E-05
         1    5       4.50414927E-03  1.04646412E-17  4.00944395E+03  1.05286915E-11  4.00944395E+03
         1    7       4.49637089E-03  1.26176011E-04  1.05649553E-11  4.01377861E+03  4.01377874E+03
         1    9       1.26182081E-05  1.08783847E-19  2.23955168E+01  5.06824448E-14  2.23955168E+01
         1   11       2.22263373E-05  2.62126309E-13  4.28025963E+05  8.52735447E-10  4.28025963E+05
         1   13       1.76312757E-02  1.43466334E-08  7.50144458E+08  1.76427785E-06  7.50144458E+08
         1   15       1.78405602E-02  6.79980098E+06  1.76981080E-06  7.52724162E+08  7.59523963E+08
         2    4       1.02229071E-04  3.85969345E-21  2.19810306E-05  1.99049392E-21  2.19810306E-05
         2    6       4.50414927E-03  1.04646412E-17  4.00944395E+03  1.05286915E-11  4.00944395E+03
         2    8       4.49637089E-03  1.26176011E-04  1.05649553E-11  4.01377861E+03  4.01377874E+03
         2   10       1.26182081E-05  1.08783847E-19  2.23955168E+01  5.06824448E-14  2.23955168E+01
         2   12       2.22263373E-05  2.62126309E-13  4.28025963E+05  8.52735447E-10  4.28025963E+05
         2   14       1.76312757E-02  1.43466334E-08  7.50144458E+08  1.76427785E-06  7.50144458E+08
         2   16       1.78405602E-02  6.79980098E+06  1.76981080E-06  7.52724162E+08  7.59523963E+08
         3    5       4.50037590E-03  5.51048376E-03  1.05347401E-11  4.00214270E+03  4.00214821E+03
         3    7       4.50213746E-03  1.00147657E-18  4.01498250E+03  1.05432318E-11  4.01498250E+03
         3    9       1.20328883E-05  4.19421930E-06  5.30116270E-14  2.13417895E+01  2.13417937E+01
         3   11       1.88619373E-05  7.62761590E+01  1.03339041E-09  3.63156983E+05  3.63233260E+05
         3   13       1.77688537E-02  5.85824986E+06  1.76435232E-06  7.50136237E+08  7.55994487E+08
         3   15       1.76728419E-02  1.69048339E-08  7.52380329E+08  1.77058509E-06  7.52380329E+08
         4    6       4.50037590E-03  5.51048376E-03  1.05347401E-11  4.00214270E+03  4.00214821E+03
         4    8       4.50213746E-03  1.00147657E-18  4.01498250E+03  1.05432318E-11  4.01498250E+03
         4   10       1.20328883E-05  4.19421930E-06  5.30116270E-14  2.13417895E+01  2.13417937E+01
         4   12       1.88619373E-05  7.62761590E+01  1.03339041E-09  3.63156983E+05  3.63233260E+05
         4   14       1.77688537E-02  5.85824986E+06  1.76435232E-06  7.50136237E+08  7.55994487E+08
         4   16       1.76728419E-02  1.69048339E-08  7.52380329E+08  1.77058509E-06  7.52380329E+08
         5    9       3.35844941E-02  1.22595364E-03  2.10534178E-14  5.07553816E+03  5.07553939E+03
         5   11       1.05435499E-02  3.44315799E+03  8.18886253E-10  2.00288514E+08  2.00291957E+08
         5   13       4.50143157E-02  1.89769118E+09  9.21842145E-13  1.81796318E+04  1.89770936E+09
         5   17       3.26216562E-04  7.78925385E+03  6.84479569E-11  1.63639238E+07  1.63717130E+07
         6   10       3.35844941E-02  1.22595364E-03  2.10534178E-14  5.07553816E+03  5.07553939E+03
         6   12       1.05435499E-02  3.44315799E+03  8.18886253E-10  2.00288514E+08  2.00291957E+08
         6   14       4.50143157E-02  1.89769118E+09  9.21842145E-13  1.81796318E+04  1.89770936E+09
         6   18       3.26216562E-04  7.78925385E+03  6.84479569E-11  1.63639238E+07  1.63717130E+07
         7    9       3.36729729E-02  1.21476552E-18  5.05425302E+03  2.08567800E-14  5.05425302E+03
         7   11       1.05285293E-02  2.36955827E-14  2.00002768E+08  8.20523149E-10  2.00002768E+08
         7   15       4.50137521E-02  1.89885448E+09  3.29314493E-15  1.83731788E+02  1.89885467E+09
         7   17       3.31616769E-04  7.40532110E-15  1.66425342E+07  6.71453224E-11  1.66425342E+07
         8   10       3.36729729E-02  1.21476552E-18  5.05425302E+03  2.08567800E-14  5.05425302E+03
         8   12       1.05285293E-02  2.36955827E-14  2.00002768E+08  8.20523149E-10  2.00002768E+08
         8   16       4.50137521E-02  1.89885448E+09  3.29314493E-15  1.83731788E+02  1.89885467E+09
         8   18       3.31616769E-04  7.40532110E-15  1.66425342E+07  6.71453224E-11  1.66425342E+07
         9   11       2.56618254E-02  4.84740367E+08  2.49284466E-14  1.84585331E+03  4.84742212E+08
         9   13       3.83348735E-04  1.52390375E+04  9.10538006E-12  1.60848017E+07  1.61000407E+07
         9   15       3.87599486E-04  3.70064987E-13  1.62888237E+07  1.01772273E-11  1.62888237E+07
         9   17       1.25327615E-02  6.26795804E+08  2.37754719E-15  3.30563895E+02  6.26796134E+08
        10   12       2.56618254E-02  4.84740367E+08  2.49284466E-14  1.84585331E+03  4.84742212E+08
        10   14       3.83348735E-04  1.52390375E+04  9.10538006E-12  1.60848017E+07  1.61000407E+07
        10   16       3.87599486E-04  3.70064987E-13  1.62888237E+07  1.01772273E-11  1.62888237E+07
        10   18       1.25327615E-02  6.26795804E+08  2.37754719E-15  3.30563895E+02  6.26796134E+08
        11   13       3.20548246E-01  4.08425271E+01  8.72235233E-10  1.46030889E+09  1.46030893E+09
        11   15       3.20437959E-01  2.63040867E-19  1.46260052E+09  8.72504105E-10  1.46260052E+09
        11   17       2.84860139E-01  2.11641366E+09  5.54751874E-17  9.13317488E+01  2.11641375E+09
        12   14       3.20548246E-01  4.08425271E+01  8.72235233E-10  1.46030889E+09  1.46030893E+09
        12   16       3.20437959E-01  2.63040867E-19  1.46260052E+09  8.72504105E-10  1.46260052E+09
        12   18       2.84860139E-01  2.11641366E+09  5.54751874E-17  9.13317488E+01  2.11641375E+09
        13   17       1.40135850E-03  1.05175061E+01  2.85468173E-13  4.90022093E+05  4.90032610E+05
        14   18       1.40135850E-03  1.05175061E+01  2.85468173E-13  4.90022093E+05  4.90032610E+05
        15   17       1.37172914E-03  3.04402119E-16  4.76365287E+05  2.90648419E-13  4.76365287E+05
        16   18       1.37172914E-03  3.04402119E-16  4.76365287E+05  2.90648419E-13  4.76365287E+05
     -----------------------------------------------------------------------------------------------
--

++ Length and velocity gauge comparison (SO states):

 --------------------------------------------------
 A comparison between the dipole oscillator strengths in 
 length and velocity gauge will be performed

 All dipole oscillator differences above the tolerance of   0.10000000000000001       will be printed 

 Due to basis set deficiency these oscillator may be problematic 

 The tolerance is defined as ABS(1-O_l/O_v) 
 O_l : dipole oscillator strength in length gauge
 O_p : dipole oscillator strength in velocity gauge
 --------------------------------------------------

  Problematic transitions have been found

      From   To       Difference (%) Osc. st. (len.) Osc. st. (vel.)
     ---------------------------------------------------------------
         1    3      --------------- below threshold  1.02229071E-04
         1    5      --------------- below threshold  4.50414927E-03
         1    7      --------------- below threshold  4.49637089E-03
         1    9      --------------- below threshold  1.26182081E-05
         1   11            16.796578  2.59596013E-05  2.22263373E-05
         1   13            14.210506  2.01367692E-02  1.76312757E-02
         1   15            14.182356  2.03707719E-02  1.78405602E-02
         2    4      --------------- below threshold  1.02229071E-04
         2    6      --------------- below threshold  4.50414927E-03
         2    8      --------------- below threshold  4.49637089E-03
         2   10      --------------- below threshold  1.26182081E-05
         2   12            16.796578  2.59596013E-05  2.22263373E-05
         2   14            14.210506  2.01367692E-02  1.76312757E-02
         2   16            14.182356  2.03707719E-02  1.78405602E-02
         3    5      --------------- below threshold  4.50037590E-03
         3    7      --------------- below threshold  4.50213746E-03
         3    9      --------------- below threshold  1.20328883E-05
         3   11            16.709002  2.20135789E-05  1.88619373E-05
         3   13            14.186724  2.02896720E-02  1.77688537E-02
         3   15            14.212940  2.01846723E-02  1.76728419E-02
         4    6      --------------- below threshold  4.50037590E-03
         4    8      --------------- below threshold  4.50213746E-03
         4   10      --------------- below threshold  1.20328883E-05
         4   12            16.709002  2.20135789E-05  1.88619373E-05
         4   14            14.186724  2.02896720E-02  1.77688537E-02
         4   16            14.212940  2.01846723E-02  1.76728419E-02
         5    9      --------------- below threshold  3.35844941E-02
         5   11            17.785047  1.24187252E-02  1.05435499E-02
         5   13            12.323500  5.05616548E-02  4.50143157E-02
         5   17            30.870623  4.26921648E-04  3.26216562E-04
         6   10      --------------- below threshold  3.35844941E-02
         6   12            17.785047  1.24187252E-02  1.05435499E-02
         6   14            12.323500  5.05616548E-02  4.50143157E-02
         6   18            30.870623  4.26921648E-04  3.26216562E-04
         7    9      --------------- below threshold  3.36729729E-02
         7   11            17.789194  1.24014698E-02  1.05285293E-02
         7   15            12.329751  5.05638359E-02  4.50137521E-02
         7   17            30.675447  4.33341694E-04  3.31616769E-04
         8   10      --------------- below threshold  3.36729729E-02
         8   12            17.789194  1.24014698E-02  1.05285293E-02
         8   16            12.329751  5.05638359E-02  4.50137521E-02
         8   18            30.675447  4.33341694E-04  3.31616769E-04
         9   11            15.661036  2.96807331E-02  2.56618254E-02
         9   13            34.760365  5.16602154E-04  3.83348735E-04
         9   15            34.591796  5.21677109E-04  3.87599486E-04
        10   12            15.661036  2.96807331E-02  2.56618254E-02
        10   14            34.760365  5.16602154E-04  3.83348735E-04
        10   16            34.591796  5.21677109E-04  3.87599486E-04
        11   17            19.709470  3.41004562E-01  2.84860139E-01
        12   18            19.709470  3.41004562E-01  2.84860139E-01
        15   17            15.290862  1.58147834E-03  1.37172914E-03
        16   18            15.290862  1.58147834E-03  1.37172914E-03
     ---------------------------------------------------------------

 Number of problematic transitions =                    52

--

 Electric-dipole - electric-octupole not included
++ I/O STATISTICS
 
  I. General I/O information
  - - - - - - - - - - - - - - - - - - - - - - - - - - - - - - - - - - - - - - - - - - -
  Unit  Name          Flsize      Write/Read            MBytes           Write/Read
                      (MBytes)       Calls              In/Out           Time, sec.
  - - - - - - - - - - - - - - - - - - - - - - - - - - - - - - - - - - - - - - - - - - -
   1  SCRATCH           0.00 .       9/      45 .      0.0/      0.0 .       0/       0
   2  ANNI              0.00 .       0/       0 .      0.0/      0.0 .       0/       0
   3  RUNFILE          14.88 .     322/   10733 .      2.3/     77.8 .       0/       0
   4  ONEINT            5.58 .       0/   23543 .      0.0/   3739.9 .       0/       0
   5  JOBIPH            6.48 .       0/      92 .      0.0/      0.8 .       0/       0
   6  ORDINT          506.53 .       1/    4053 .      0.0/   1013.0 .       0/       0
  - - - - - - - - - - - - - - - - - - - - - - - - - - - - - - - - - - - - - - - - - - -
   *  TOTAL           533.47 .     332/   38466 .      2.3/   4831.6 .       0/       0
  - - - - - - - - - - - - - - - - - - - - - - - - - - - - - - - - - - - - - - - - - - -
 
  II. I/O Access Patterns
  - - - - - - - - - - - - - - - - - - - -
  Unit  Name               % of random
                         Write/Read calls
  - - - - - - - - - - - - - - - - - - - -
   1  SCRATCH             88.9/ 100.0
   2  ANNI                 0.0/   0.0
   3  RUNFILE             28.6/  10.8
   4  ONEINT               0.0/  16.4
   5  JOBIPH               0.0/  76.1
   6  ORDINT             100.0/   0.0
  - - - - - - - - - - - - - - - - - - - -
--
--- Stop Module: rassi at Wed Mar 26 22:32:42 2025 /rc=_RC_ALL_IS_WELL_ ---
*** files: xmldump
    saved to directory /home4/s4752295/Internship/Initial_simulations/Point_charge_model/1_electron/Madelung_charges_9_active_space/Cr
--- Module rassi spent 2 seconds ---

.##################.
.# Happy landing! #.
.##################.

    Timing: Wall=49.35 User=39.85 System=8.49

###############################################################################
Hbrk Cluster
Job 15913348 for user s4752295
Finished at: Wed Mar 26 22:32:47 CET 2025

Job details:
============

Job ID                         : 15913348
Name                           : Cr_no_SO
User                           : s4752295
Partition                      : regularmedium
Nodes                          : node101
Number of Nodes                : 1
Cores                          : 1
Number of Tasks                : 1
State                          : COMPLETED  
Submit                         : 2025-03-26T22:30:18
Start                          : 2025-03-26T22:31:49
End                            : 2025-03-26T22:32:42
Reserved walltime              : 15:00:00
Used walltime                  : 00:00:53
Used CPU time                  : 00:00:49 (Efficiency: 93.36%)
% User (Computation)           : 82.40%
% System (I/O)                 : 17.60%
Total memory reserved          : 25000M
Maximum memory used            : 2.03G

Acknowledgements:
=================

Please see this page for information about acknowledging Hbrk in your publications:

https://wiki.hpc.rug.nl/habrok/introduction/scientific_output

################################################################################
