   This run of MOLCAS is using the pymolcas driver

                             OPE
                             OPE          NMOL  CASOP  ENMOLC A   SO
                 OPE        NMOLC        AS  OP EN  MO LC     AS  OP
                OPENM       OL CA        SO  PE NM  OL CA     SOP EN
                OP EN      MO   LC       AS  OP ENMOL  CASO   PENMOL
                OP  EN     MO   LC       AS  OP EN     MO     LC ASO
               OP   E  NMOL  C  AS       OP  EN MO     LC     AS  OP
               OP  E   NMO   LC AS        OPEN  MO     LCASOP EN   M
               O  PEN   MO  LCA  SO
            OPE   NMO   L   CAS    OP
        OPENMOL  CASOP     ENMOL   CASOPE
     OPENMOLCA   SOPENMOLCASOPEN   MOLCASOPE
    OPENMOLCAS   OP           EN   MOL    CAS
    OPENMOLCAS       OP  ENM        O     LCA
    OPENMOLCAS    OPEN  MOLCASO     P  E  NMO
    OPENMOLCAS     OP               E  N  MOL
    OPENMOLCA   SO           PENM   O  L  CAS    OPEN    MO    LCAS
    OPENMOLCA   SOP           ENM   O  L  CAS   OP  EN  MOLC  AS   O
    OPENMOLCA   SOPE           NM      O  LCA   S      OP  EN MO
    OPENMOLC                AS         O  PEN   M      OL  CA  SOPE
    OPENMO        LCASOPE  NMOL        C  ASO   P      ENMOLC     AS
    OPE     NMO      LCA  SO     P     E   NM   OL  CA SO  PE N   MO
          OPENMOLCA            SOPE   NMO        LCAS  O    P  ENMO
     OPENMOLCASOPENMOLCASOPENMOLCASOPENMOLCA
        OPENMOLCASOPENMOLCASOPENMOLCASOPE
            OPENMOLCASOPENMOLCASOPENM
               OPENMOLCASOPENMOLCA        version: o91e1abe7de707b ?
                   OPENMOLCASO
                       OPE                tag:

 OpenMolcas is free software; you can redistribute it and/or modify it
 under the terms of the GNU Lesser General Public License version 2.1.
 OpenMolcas is distributed in the hope that it will be useful, but it
 is provided "as is" and without any express or implied warranties.
 For more details see the full text of the license in the file
 LICENSE or in <http://www.gnu.org/licenses/>.

                 Copyright (C) The OpenMolcas Authors
           For the author list and the recommended citation,
                   consult the file CONTRIBUTORS.md

           *************************************************
           * pymolcas version py2.10                       *
           *   build 3068ae8b88c9345ec6cfef6fef7f1169      *
           *   (after the EMIL interpreter by V. Veryazov) *
           *************************************************

configuration info
------------------
Host name: login1 (Linux)
C Compiler ID: GNU
C flags: -std=gnu99
Fortran Compiler ID: GNU
Fortran flags: -fno-aggressive-loop-optimizations -cpp -fdefault-integer-8 -fmax-stack-var-size=1048576
Definitions: _MOLCAS_;_I8_;_LINUX_;_MKL_
Parallel: OFF (GA=OFF)


   -----------------------------------------------------------------------------------------------------------------------------------
  |
  |           Project: molybdenum_so_cf
  |    Submitted from: /home4/s4752295/Internship/Initial_simulations/Point_charge_model/1_electron/Madelung_charges_9_active_space/Mo
  |      Scratch area: /tmp/molybdenum_so_cf
  |   Save outputs to: /home4/s4752295/Internship/Initial_simulations/Point_charge_model/1_electron/Madelung_charges_9_active_space/Mo
  |            Molcas: /home4/s4752295/Internship/Molcas/recomp_try/OpenMolcas-master/build
  |
  | Scratch area is empty
  |
  |    MOLCAS_DRIVER = /home4/s4752295/Internship/Molcas/bin/pymolcas
  |    MOLCAS_NPROCS = 1
  |    MOLCAS_SOURCE = /home4/s4752295/Internship/Molcas/recomp_try/OpenMolcas-master
  | MOLCAS_STRUCTURE = 0
  |
   -----------------------------------------------------------------------------------------------------------------------------------

++ ---------   Input file   ---------

&SEWARD
AMFi

CLIG
$R

Basis Set
Mo.ANO-rcc.Roos.21s18p13d6f4g2h.10s9p9d6f4g2h.
Spherical d
Mo           -1.0658140267135469e-14    -3.5527134223784897e-15 0.008753588724385739
End of Basis

Xfield

414
-7.604182052,-2.9259999999999997,1.6893261      -0.625931
-7.604182052,-0.0,-3.3786540999999994   -0.625931
-7.604182052,2.9259999999999997,1.6893261       -0.625931
-7.591157533,0.0,0.0    1.892092
5.052441411,-2.9259999999999997,-1.6893261      2.515516
5.052441411,0.0,3.3786540999999994      2.515516
5.052441411,2.9259999999999997,-1.6893261       2.515516
6.769677732,-5.851999999999999,0.0      0.004632
6.769677732,-2.9259999999999997,-5.0679802      0.004632
6.769677732,-2.9259999999999997,5.0679802       0.004632
6.769677732,2.9259999999999997,-5.0679802       0.004632
6.769677732,2.9259999999999997,5.0679802        0.004632
6.769677732,5.851999999999999,0.0       0.004632
7.845385741,-2.9259999999999997,1.6893261       -2.519484
7.845385741,-0.0,-3.3786540999999994    -2.519484
7.845385741,2.9259999999999997,1.6893261        -2.519484
-5.572900393,-0.0,-0.0  -3.142907
-9.452685554,-5.851999999999999,-3.3786540999999994     -0.625931
-9.452685554,0.0,6.7573063      -0.625931
-9.452685554,5.851999999999999,-3.3786540999999994      -0.625931
-12.557812499999999,-5.851999999999999,0.0      1.892092
-12.557812499999999,-2.9259999999999997,-5.0679802      1.892092
-12.557812499999999,-2.9259999999999997,5.0679802       1.892092
-12.557812499999999,2.9259999999999997,-5.0679802       1.892092
-12.557812499999999,2.9259999999999997,5.0679802        1.892092
-12.557812499999999,5.851999999999999,0.0       1.892092
47.826562499999994,-5.851999999999999,3.3786540999999994        2.515516
47.826562499999994,-0.0,-6.7573063      2.515516
47.826562499999994,5.851999999999999,3.3786540999999994 2.515516
6.9134765719999995,-5.851999999999999,-3.3786540999999994       -2.519484
6.9134765719999995,0.0,6.7573063        -2.519484
6.9134765719999995,5.851999999999999,-3.3786540999999994        -2.519484
-6.141601572,-5.851999999999999,-0.0    -3.142907
-6.141601572,-2.9259999999999997,-5.0679802     -3.142907
-6.141601572,-2.9259999999999997,5.0679802      -3.142907
-6.141601572,2.9259999999999997,-5.0679802      -3.142907
-6.141601572,2.9259999999999997,5.0679802       -3.142907
-6.141601572,5.851999999999999,-0.0     -3.142907
-18.09453125,-5.851999999999999,6.7573063       -0.625931
-18.09453125,5.851999999999999,6.7573063        -0.625931
-18.09453125,-8.778,1.6893261   -0.625931
-18.09453125,8.778,1.6893261    -0.625931
-18.09453125,-2.9259999999999997,-8.4466343     -0.625931
-18.09453125,2.9259999999999997,-8.4466343      -0.625931
11.41484375,-2.9259999999999997,-1.6893261      4.409069
11.41484375,2.9259999999999997,-1.6893261       4.409069
11.41484375,0.0,3.3786540999999994      4.409069
-332.97499999999997,-0.0,-0.0   -5.030367
-332.97499999999997,0.0,0.0     5.039632
25.683398427999997,-5.851999999999999,-6.7573063        2.515516
25.683398427999997,5.851999999999999,-6.7573063 2.515516
25.683398427999997,-8.778,-1.6893261    2.515516
25.683398427999997,8.778,-1.6893261     2.515516
25.683398427999997,-2.9259999999999997,8.4466343        2.515516
25.683398427999997,2.9259999999999997,8.4466343 2.515516
36.17421875,-8.778,-5.0679802   0.004632
36.17421875,-8.778,5.0679802    0.004632
36.17421875,8.778,-5.0679802    0.004632
36.17421875,8.778,5.0679802     0.004632
36.17421875,-0.0,-10.1359604    0.004632
36.17421875,0.0,10.1359604      0.004632
91.34843749999999,-5.851999999999999,6.7573063  -2.519484
91.34843749999999,5.851999999999999,6.7573063   -2.519484
91.34843749999999,-8.778,1.6893261      -2.519484
91.34843749999999,8.778,1.6893261       -2.519484
91.34843749999999,-2.9259999999999997,-8.4466343        -2.519484
91.34843749999999,2.9259999999999997,-8.4466343 -2.519484
-277.16249999999997,-8.778,-5.0679802   1.892092
-277.16249999999997,-8.778,5.0679802    1.892092
-277.16249999999997,8.778,-5.0679802    1.892092
-277.16249999999997,8.778,5.0679802     1.892092
-277.16249999999997,-0.0,-10.1359604    1.892092
-277.16249999999997,0.0,10.1359604      1.892092
-223.725,-5.851999999999999,3.3786540999999994  4.409069
-223.725,-0.0,-6.7573063        4.409069
-223.725,5.851999999999999,3.3786540999999994   4.409069
-169.1,-5.851999999999999,-0.0  -5.030367
-169.1,-2.9259999999999997,-5.0679802   -5.030367
-169.1,-2.9259999999999997,5.0679802    -5.030367
-169.1,2.9259999999999997,-5.0679802    -5.030367
-169.1,-5.851999999999999,0.0   5.039632
-169.1,5.851999999999999,-0.0   -5.030367
-169.1,2.9259999999999997,5.0679802     -5.030367
-169.1,-2.9259999999999997,-5.0679802   5.039632
-169.1,-2.9259999999999997,5.0679802    5.039632
-169.1,2.9259999999999997,-5.0679802    5.039632
-169.1,5.851999999999999,0.0    5.039632
-169.1,2.9259999999999997,5.0679802     5.039632
-88.58749999999999,-2.9259999999999997,-1.6893261       -5.660931
-88.58749999999999,0.0,3.3786540999999994       -5.660931
-88.58749999999999,2.9259999999999997,-1.6893261        -5.660931
1.67734375,-11.7039981,0.0      0.004632
1.67734375,-5.851999999999999,-10.1359604       0.004632
1.67734375,-5.851999999999999,10.1359604        0.004632
1.67734375,5.851999999999999,-10.1359604        0.004632
1.67734375,11.7039981,0.0       0.004632
1.67734375,5.851999999999999,10.1359604 0.004632
129.08124999999998,-8.778,5.0679802     -3.142907
129.08124999999998,-8.778,-5.0679802    -3.142907
129.08124999999998,8.778,-5.0679802     -3.142907
129.08124999999998,8.778,5.0679802      -3.142907
129.08124999999998,-0.0,-10.1359604     -3.142907
129.08124999999998,0.0,10.1359604       -3.142907
164.11249999999998,-11.7039981,-3.3786540999999994      -0.625931
164.11249999999998,-8.778,-8.4466343    -0.625931
164.11249999999998,-2.9259999999999997,11.8252865       -0.625931
164.11249999999998,8.778,-8.4466343     -0.625931
164.11249999999998,11.7039981,-3.3786540999999994       -0.625931
164.11249999999998,2.9259999999999997,11.8252865        -0.625931
2.2748046779999997,-11.7039981,0.0      1.892092
2.2748046779999997,-5.851999999999999,-10.1359604       1.892092
2.2748046779999997,-5.851999999999999,10.1359604        1.892092
2.2748046779999997,5.851999999999999,-10.1359604        1.892092
2.2748046779999997,11.7039981,0.0       1.892092
2.2748046779999997,5.851999999999999,10.1359604 1.892092
64.303125,-5.851999999999999,-6.7573063 4.409069
64.303125,5.851999999999999,-6.7573063  4.409069
64.303125,-8.778,-1.6893261     4.409069
64.303125,8.778,-1.6893261      4.409069
64.303125,-2.9259999999999997,8.4466343 4.409069
64.303125,2.9259999999999997,8.4466343  4.409069
308.571875,-5.851999999999999,3.3786540999999994        -5.660931
308.571875,-0.0,-6.7573063      -5.660931
308.571875,5.851999999999999,3.3786540999999994 -5.660931
0.653125,-11.7039981,3.3786540999999994 2.515516
0.653125,-2.9259999999999997,-11.8252865        2.515516
0.653125,-8.778,8.4466343       2.515516
0.653125,2.9259999999999997,-11.8252865 2.515516
0.653125,11.7039981,3.3786540999999994  2.515516
0.653125,8.778,8.4466343        2.515516
-178.95624999999998,-11.7039981,-3.3786540999999994     -2.519484
-178.95624999999998,-8.778,-8.4466343   -2.519484
-178.95624999999998,-2.9259999999999997,11.8252865      -2.519484
-178.95624999999998,8.778,-8.4466343    -2.519484
-178.95624999999998,2.9259999999999997,11.8252865       -2.519484
-178.95624999999998,11.7039981,-3.3786540999999994      -2.519484
-41.93359375,-11.7039981,-0.0   -3.142907
-41.93359375,-5.851999999999999,-10.1359604     -3.142907
-41.93359375,-5.851999999999999,10.1359604      -3.142907
-41.93359375,5.851999999999999,-10.1359604      -3.142907
-41.93359375,5.851999999999999,10.1359604       -3.142907
-41.93359375,11.7039981,-0.0    -3.142907
1152.35,0.0,0.0 6.927092
614.175,-11.7039981,6.7573063   -0.625931
614.175,11.7039981,6.7573063    -0.625931
614.175,-0.0,-13.5146145        -0.625931
-10.3015625,-8.778,5.0679802    -5.030367
-10.3015625,-8.778,-5.0679802   -5.030367
-10.3015625,-8.778,5.0679802    5.039632
-10.3015625,-8.778,-5.0679802   5.039632
-10.3015625,8.778,-5.0679802    -5.030367
-10.3015625,8.778,5.0679802     -5.030367
-10.3015625,8.778,-5.0679802    5.039632
-10.3015625,8.778,5.0679802     5.039632
-10.3015625,-0.0,-10.1359604    -5.030367
-10.3015625,0.0,10.1359604      -5.030367
-10.3015625,-0.0,-10.1359604    5.039632
-10.3015625,0.0,10.1359604      5.039632
174.44375,-5.851999999999999,-6.7573063 -5.660931
174.44375,5.851999999999999,-6.7573063  -5.660931
174.44375,-8.778,-1.6893261     -5.660931
174.44375,8.778,-1.6893261      -5.660931
174.44375,-2.9259999999999997,8.4466343 -5.660931
174.44375,2.9259999999999997,8.4466343  -5.660931
570.9499999999999,-11.7039981,-6.7573063        2.515516
570.9499999999999,11.7039981,-6.7573063 2.515516
570.9499999999999,0.0,13.5146145        2.515516
-982.775,-11.7039981,6.7573063  -2.519484
-982.775,11.7039981,6.7573063   -2.519484
-982.775,-0.0,-13.5146145       -2.519484
101.76875,-5.851999999999999,0.0        6.927092
101.76875,-2.9259999999999997,-5.0679802        6.927092
101.76875,-2.9259999999999997,5.0679802 6.927092
101.76875,2.9259999999999997,-5.0679802 6.927092
101.76875,2.9259999999999997,5.0679802  6.927092
101.76875,5.851999999999999,0.0 6.927092
-104.975,-2.9259999999999997,1.6893261  7.550516
-104.975,0.0,-3.3786540999999994        7.550516
-104.975,2.9259999999999997,1.6893261   7.550516
29.509375,-2.9259999999999997,-1.6893261        -7.554483
29.509375,2.9259999999999997,-1.6893261 -7.554483
29.509375,-0.0,3.3786540999999994       -7.554483
-237.2625,-14.6299981,1.6893261 -0.625931
-237.2625,-8.778,11.8252865     -0.625931
-237.2625,-5.851999999999999,-13.5146145        -0.625931
-237.2625,5.851999999999999,-13.5146145 -0.625931
-237.2625,14.6299981,1.6893261  -0.625931
-237.2625,8.778,11.8252865      -0.625931
-128.13125,-11.7039981,3.3786540999999994       4.409069
-128.13125,-8.778,8.4466343     4.409069
-128.13125,-2.9259999999999997,-11.8252865      4.409069
-128.13125,2.9259999999999997,-11.8252865       4.409069
-128.13125,8.778,8.4466343      4.409069
-128.13125,11.7039981,3.3786540999999994        4.409069
93.396875,-11.7039981,-0.0      -5.030367
93.396875,-5.851999999999999,-10.1359604        -5.030367
93.396875,-5.851999999999999,10.1359604 -5.030367
93.396875,-11.7039981,0.0       5.039632
93.396875,-5.851999999999999,-10.1359604        5.039632
93.396875,5.851999999999999,-10.1359604 -5.030367
93.396875,5.851999999999999,10.1359604  -5.030367
93.396875,11.7039981,-0.0       -5.030367
93.396875,-5.851999999999999,10.1359604 5.039632
93.396875,5.851999999999999,-10.1359604 5.039632
93.396875,11.7039981,0.0        5.039632
93.396875,5.851999999999999,10.1359604  5.039632
343.425,-14.6299981,-1.6893261  2.515516
343.425,-8.778,-11.8252865      2.515516
343.425,-5.851999999999999,13.5146145   2.515516
343.425,8.778,-11.8252865       2.515516
343.425,14.6299981,-1.6893261   2.515516
343.425,5.851999999999999,13.5146145    2.515516
-44.353125,-14.6299981,-5.0679802       0.004632
-44.353125,-14.6299981,5.0679802        0.004632
-44.353125,-11.7039981,-10.1359604      0.004632
-44.353125,-11.7039981,10.1359604       0.004632
-44.353125,-2.9259999999999997,-15.2039406      0.004632
-44.353125,2.9259999999999997,-15.2039406       0.004632
-44.353125,-2.9259999999999997,15.2039406       0.004632
-44.353125,11.7039981,-10.1359604       0.004632
-44.353125,2.9259999999999997,15.2039406        0.004632
-44.353125,14.6299981,-5.0679802        0.004632
-44.353125,14.6299981,5.0679802 0.004632
-44.353125,11.7039981,10.1359604        0.004632
-271.9375,-14.6299981,1.6893261 -2.519484
-271.9375,-8.778,11.8252865     -2.519484
-271.9375,-5.851999999999999,-13.5146145        -2.519484
-271.9375,5.851999999999999,-13.5146145 -2.519484
-271.9375,14.6299981,1.6893261  -2.519484
-271.9375,8.778,11.8252865      -2.519484
5760.8,-0.0,-0.0        -8.177907
-220.39999999999998,-5.851999999999999,-3.3786540999999994      7.550516
-220.39999999999998,0.0,6.7573063       7.550516
-220.39999999999998,5.851999999999999,-3.3786540999999994       7.550516
-1146.6499999999999,-5.851999999999999,3.3786540999999994       -7.554483
-1146.6499999999999,-0.0,-6.7573063     -7.554483
-1146.6499999999999,5.851999999999999,3.3786540999999994        -7.554483
92.921875,-14.6299981,5.0679802 1.892092
92.921875,-14.6299981,-5.0679802        1.892092
92.921875,-11.7039981,-10.1359604       1.892092
92.921875,-11.7039981,10.1359604        1.892092
92.921875,-2.9259999999999997,-15.2039406       1.892092
92.921875,2.9259999999999997,-15.2039406        1.892092
92.921875,-2.9259999999999997,15.2039406        1.892092
92.921875,11.7039981,-10.1359604        1.892092
92.921875,2.9259999999999997,15.2039406 1.892092
92.921875,14.6299981,-5.0679802 1.892092
92.921875,14.6299981,5.0679802  1.892092
92.921875,11.7039981,10.1359604 1.892092
-959.5,-11.7039981,-6.7573063   4.409069
-959.5,11.7039981,-6.7573063    4.409069
-959.5,0.0,13.5146145   4.409069
49.05859375,-11.7039981,3.3786540999999994      -5.660931
49.05859375,-2.9259999999999997,-11.8252865     -5.660931
49.05859375,-8.778,8.4466343    -5.660931
49.05859375,2.9259999999999997,-11.8252865      -5.660931
49.05859375,8.778,8.4466343     -5.660931
49.05859375,11.7039981,3.3786540999999994       -5.660931
-110.55624999999999,-11.7039981,-10.1359604     -3.142907
-110.55624999999999,-14.6299981,5.0679802       -3.142907
-110.55624999999999,-14.6299981,-5.0679802      -3.142907
-110.55624999999999,-11.7039981,10.1359604      -3.142907
-110.55624999999999,-2.9259999999999997,-15.2039406     -3.142907
-110.55624999999999,2.9259999999999997,-15.2039406      -3.142907
-110.55624999999999,-2.9259999999999997,15.2039406      -3.142907
-110.55624999999999,14.6299981,-5.0679802       -3.142907
-110.55624999999999,11.7039981,-10.1359604      -3.142907
-110.55624999999999,2.9259999999999997,15.2039406       -3.142907
-110.55624999999999,14.6299981,5.0679802        -3.142907
-110.55624999999999,11.7039981,10.1359604       -3.142907
124.271875,-8.778,-5.0679802    6.927092
124.271875,-8.778,5.0679802     6.927092
124.271875,8.778,-5.0679802     6.927092
124.271875,8.778,5.0679802      6.927092
124.271875,-0.0,-10.1359604     6.927092
124.271875,0.0,10.1359604       6.927092
-158.17499999999998,-5.851999999999999,-0.0     -8.177907
-158.17499999999998,-2.9259999999999997,5.0679802       -8.177907
-158.17499999999998,-2.9259999999999997,-5.0679802      -8.177907
-158.17499999999998,2.9259999999999997,-5.0679802       -8.177907
-158.17499999999998,5.851999999999999,-0.0      -8.177907
-158.17499999999998,2.9259999999999997,5.0679802        -8.177907
-172.72187499999998,-5.851999999999999,6.7573063        7.550516
-172.72187499999998,5.851999999999999,6.7573063 7.550516
-172.72187499999998,-8.778,1.6893261    7.550516
-172.72187499999998,8.778,1.6893261     7.550516
-172.72187499999998,-2.9259999999999997,-8.4466343      7.550516
-172.72187499999998,2.9259999999999997,-8.4466343       7.550516
-86.80624999999999,-5.851999999999999,-6.7573063        -7.554483
-86.80624999999999,5.851999999999999,-6.7573063 -7.554483
-86.80624999999999,-8.778,-1.6893261    -7.554483
-86.80624999999999,8.778,-1.6893261     -7.554483
-86.80624999999999,-2.9259999999999997,8.4466343        -7.554483
-86.80624999999999,2.9259999999999997,8.4466343 -7.554483
-950.4749999999999,0.0,16.893266699999998       -0.625931
-950.4749999999999,-14.6299981,-8.4466343       -0.625931
-950.4749999999999,14.6299981,-8.4466343        -0.625931
-512.525,-14.6299981,-1.6893261 4.409069
-512.525,-8.778,-11.8252865     4.409069
-512.525,-5.851999999999999,13.5146145  4.409069
-512.525,8.778,-11.8252865      4.409069
-512.525,14.6299981,-1.6893261  4.409069
-512.525,5.851999999999999,13.5146145   4.409069
589.7125,-11.7039981,-6.7573063 -5.660931
589.7125,11.7039981,-6.7573063  -5.660931
589.7125,0.0,13.5146145 -5.660931
1115.3,-0.0,-16.893266699999998 2.515516
1115.3,-14.6299981,8.4466343    2.515516
1115.3,14.6299981,8.4466343     2.515516
-178.36249999999998,-17.555998099999996,-0.0    0.004632
-178.36249999999998,8.778,-15.2039406   0.004632
-178.36249999999998,-8.778,15.2039406   0.004632
-178.36249999999998,17.555998099999996,-0.0     0.004632
-178.36249999999998,-8.778,-15.2039406  0.004632
-178.36249999999998,8.778,15.2039406    0.004632
-732.925,0.0,16.893266699999998 -2.519484
-732.925,-14.6299981,-8.4466343 -2.519484
-732.925,14.6299981,-8.4466343  -2.519484
433.2,-11.7039981,0.0   6.927092
433.2,-5.851999999999999,-10.1359604    6.927092
433.2,-5.851999999999999,10.1359604     6.927092
433.2,5.851999999999999,-10.1359604     6.927092
433.2,11.7039981,0.0    6.927092
433.2,5.851999999999999,10.1359604      6.927092
402.5625,-17.555998099999996,-3.3786540999999994        -0.625931
402.5625,-5.851999999999999,16.893266699999998  -0.625931
402.5625,-11.7039981,-13.5146145        -0.625931
402.5625,11.7039981,-13.5146145 -0.625931
402.5625,5.851999999999999,16.893266699999998   -0.625931
402.5625,17.555998099999996,-3.3786540999999994 -0.625931
212.68124999999998,-17.555998099999996,0.0      1.892092
212.68124999999998,-8.778,-15.2039406   1.892092
212.68124999999998,-8.778,15.2039406    1.892092
212.68124999999998,8.778,-15.2039406    1.892092
212.68124999999998,17.555998099999996,0.0       1.892092
212.68124999999998,8.778,15.2039406     1.892092
-8.20859375,-14.6299981,5.0679802       -5.030367
-8.20859375,-14.6299981,-5.0679802      -5.030367
-8.20859375,-11.7039981,-10.1359604     -5.030367
-8.20859375,-11.7039981,10.1359604      -5.030367
-8.20859375,-14.6299981,5.0679802       5.039632
-8.20859375,2.9259999999999997,-15.2039406      -5.030367
-8.20859375,-2.9259999999999997,-15.2039406     -5.030367
-8.20859375,-14.6299981,-5.0679802      5.039632
-8.20859375,-11.7039981,-10.1359604     5.039632
-8.20859375,-2.9259999999999997,15.2039406      -5.030367
-8.20859375,2.9259999999999997,-15.2039406      5.039632
-8.20859375,-11.7039981,10.1359604      5.039632
-8.20859375,-2.9259999999999997,-15.2039406     5.039632
-8.20859375,11.7039981,-10.1359604      -5.030367
-8.20859375,2.9259999999999997,15.2039406       -5.030367
-8.20859375,14.6299981,-5.0679802       -5.030367
-8.20859375,14.6299981,5.0679802        -5.030367
-8.20859375,11.7039981,10.1359604       -5.030367
-8.20859375,-2.9259999999999997,15.2039406      5.039632
-8.20859375,11.7039981,-10.1359604      5.039632
-8.20859375,14.6299981,-5.0679802       5.039632
-8.20859375,2.9259999999999997,15.2039406       5.039632
-8.20859375,14.6299981,5.0679802        5.039632
-8.20859375,11.7039981,10.1359604       5.039632
-1.30625,-14.6299981,-1.6893261 -5.660931
-1.30625,-8.778,-11.8252865     -5.660931
-1.30625,-5.851999999999999,13.5146145  -5.660931
-1.30625,8.778,-11.8252865      -5.660931
-1.30625,5.851999999999999,13.5146145   -5.660931
-1.30625,14.6299981,-1.6893261  -5.660931
220.39999999999998,-2.9259999999999997,1.6893261        9.444068
220.39999999999998,0.0,-3.3786540999999994      9.444068
220.39999999999998,2.9259999999999997,1.6893261 9.444068
97.49374999999999,-17.555998099999996,3.3786540999999994        2.515516
97.49374999999999,-5.851999999999999,-16.893266699999998        2.515516
97.49374999999999,5.851999999999999,-16.893266699999998 2.515516
97.49374999999999,-11.7039981,13.5146145        2.515516
97.49374999999999,17.555998099999996,3.3786540999999994 2.515516
97.49374999999999,11.7039981,13.5146145 2.515516
298.0625,-17.555998099999996,-3.3786540999999994        -2.519484
298.0625,-5.851999999999999,16.893266699999998  -2.519484
298.0625,-11.7039981,-13.5146145        -2.519484
298.0625,11.7039981,-13.5146145 -2.519484
298.0625,17.555998099999996,-3.3786540999999994 -2.519484
298.0625,5.851999999999999,16.893266699999998   -2.519484
417.28749999999997,-17.555998099999996,-0.0     -3.142907
417.28749999999997,-8.778,-15.2039406   -3.142907
417.28749999999997,-8.778,15.2039406    -3.142907
417.28749999999997,8.778,-15.2039406    -3.142907
417.28749999999997,17.555998099999996,-0.0      -3.142907
417.28749999999997,8.778,15.2039406     -3.142907
16.426464838999998,-8.778,-5.0679802    -8.177907
16.426464838999998,-8.778,5.0679802     -8.177907
16.426464838999998,8.778,5.0679802      -8.177907
16.426464838999998,8.778,-5.0679802     -8.177907
16.426464838999998,-0.0,-10.1359604     -8.177907
16.426464838999998,0.0,10.1359604       -8.177907
478.5625,-8.778,-8.4466343      7.550516
478.5625,-11.7039981,-3.3786540999999994        7.550516
478.5625,-2.9259999999999997,11.8252865 7.550516
478.5625,8.778,-8.4466343       7.550516
478.5625,2.9259999999999997,11.8252865  7.550516
478.5625,11.7039981,-3.3786540999999994 7.550516
-661.1999999999999,-8.778,8.4466343     -7.554483
-661.1999999999999,-11.7039981,3.3786540999999994       -7.554483
-661.1999999999999,-2.9259999999999997,-11.8252865      -7.554483
-661.1999999999999,2.9259999999999997,-11.8252865       -7.554483
-661.1999999999999,11.7039981,3.3786540999999994        -7.554483
-661.1999999999999,8.778,8.4466343      -7.554483
135.4046875,-14.6299981,11.8252865      -0.625931
135.4046875,-17.555998099999996,6.7573063       -0.625931
135.4046875,-2.9259999999999997,-18.582594699999998     -0.625931
135.4046875,2.9259999999999997,-18.582594699999998      -0.625931
135.4046875,17.555998099999996,6.7573063        -0.625931
135.4046875,14.6299981,11.8252865       -0.625931
-919.125,-0.0,-16.893266699999998       4.409069
-919.125,-14.6299981,8.4466343  4.409069
-919.125,14.6299981,8.4466343   4.409069

End of input

&SCF
Occupied
9
Iterations
   50  100
End of Input

&RASSCF
LumOrb
Symmetry
1
Spin
2
Nactel
1 0 0
CIRoot
9 9 1
inactive
9
ras2
9
End of Input

>>> COPY molybdenum_so_cf.JobIph $SLURM_SUBMIT_DIR/molybdenum_so_cf.doublet.JobIph

>>> COPY $SLURM_SUBMIT_DIR/molybdenum_so_cf.doublet.JobIph ./JOB002

&RASSI
NROFJobIph
1 All
SpinOrbit
End of Input

EOF

-- ----------------------------------

--- Start Module: seward at Wed Mar 26 23:42:17 2025 ---

()()()()()()()()()()()()()()()()()()()()()()()()()()()()()()()()()()()()()()()()()()()()()()()()()()

                                              &SEWARD

                                   only a single process is used
                       available to each process: 4.1 GB of memory, 1 thread?
                                            pid: 3974634
()()()()()()()()()()()()()()()()()()()()()()()()()()()()()()()()()()()()()()()()()()()()()()()()()()

 The speed of LIGHT in this CALCULATION =   137.03599917700001     
               SEWARD will generate:
                  Multipole Moment integrals up to order  2
                  Kinetic Energy integrals
                  Nuclear Attraction integrals (point charge)
                  One-Electron Hamiltonian integrals
                  Velocity integrals
                  Relativistic Douglas-Kroll-Hess integrals:
                    - Parametrization         : EXP
                    - DKH order of Hamiltonian: 2
                    - DKH order of Properties : 0
                         - multipole moment operators
                         - electric potential operators
                         - contact operators
                  External field from   414 point(s) added to the one-electron Hamiltonian
                  Orbital angular momentum around (-0.0000 -0.0000  0.0088 )
                  Velocity quadrupole around (-0.0000 -0.0000  0.0088 )
                  Atomic mean-field integrals
                  Two-Electron Repulsion integrals

                   Integrals are discarded if absolute value <: 0.10E-13
                   Integral cutoff threshold is set to       <: 0.10E-15

++    Symmetry information:
      ---------------------

                    Character Table for C1 

                             E  
                    a        1  x, y, xy, Rz, z, xz, Ry, yz, Rx, I
--


++    Basis set information:
      ----------------------


      Basis set label: MO.ANO-RCC.ROOS.21S18P13D6F4G2H.10S9P9D6F4G2H......

      Electronic valence basis set:
      ------------------
      Associated Effective Charge  42.000000 au
      Associated Actual Charge     42.000000 au
      Nuclear Model: Point charge

      Shell  nPrim  nBasis  Cartesian Spherical Contaminant
         s      21      10        X                  
         p      18       9        X                  
         d      13       9                 X         
         f       6       6                 X         
         g       4       4                 X         
         h       2       2                 X         
--


++    Molecular structure info:
      -------------------------

                    ************************************************ 
                    **** Cartesian Coordinates / Bohr, Angstrom **** 
                    ************************************************ 

     Center  Label                x              y              z                     x              y              z
        1      MO              -0.000000      -0.000000       0.008754             -0.000000      -0.000000       0.004632
--


++    Operator info:
      --------------


  Net charge from external field:   -39.268449999999902     
--


            Nuclear Potential Energy              0.00000000 au

                    Nuclear-External Field Potential Energy    -202.24038882 au
                    External Field Potential Energy             845.07205336 au 


            Total Nuclear Potential Energy           -202.24038882 au


      Basis set specifications :
      Symmetry species         a  
      Basis functions          182

 Sorry, Molden does not know how to handle
 functions with angular momentum larger than g
Note: The following floating-point exceptions are signalling: IEEE_UNDERFLOW_FLAG IEEE_DENORMAL
--- Stop Module: seward at Wed Mar 26 23:42:27 2025 /rc=_RC_ALL_IS_WELL_ ---
*** files: molybdenum_so_cf.GssOrb xmldump
    saved to directory /home4/s4752295/Internship/Initial_simulations/Point_charge_model/1_electron/Madelung_charges_9_active_space/Mo
--- Module seward spent 9 seconds ---

*** symbolic link created: INPORB -> molybdenum_so_cf.GssOrb
--- Start Module: scf at Wed Mar 26 23:42:27 2025 ---

()()()()()()()()()()()()()()()()()()()()()()()()()()()()()()()()()()()()()()()()()()()()()()()()()()

                                                &SCF

                                   only a single process is used
                       available to each process: 4.1 GB of memory, 1 thread?
                                            pid: 3974643
()()()()()()()()()()()()()()()()()()()()()()()()()()()()()()()()()()()()()()()()()()()()()()()()()()

++    Input section:
      --------------

      Header of the integral files:
      
       Integrals generated by seward 4.2.0  , Wed Mar 26 23:42:17 2025


      Cartesian coordinates in Angstrom:
      -----------------------------------------------------
      No.  Label        X            Y            Z        
      -----------------------------------------------------
       1   MO        -0.00000000  -0.00000000   0.00463220
      -----------------------------------------------------
      Nuclear repulsion energy = -202.24038882
--

++    Orbital specifications:
      -----------------------

      Symmetry species               1
                                     a
      Frozen orbitals                0
      Occupied orbitals              9
      Secondary orbitals           173
      Deleted orbitals               0
      Total number of orbitals     182
      Number of basis functions    182
--

      Molecular charge                          24.000

++    Optimization specifications:
      ----------------------------

      SCF Algorithm: Conventional
      Minimized density differences are used
      Number of density matrices in core                5
      Maximum number of NDDO SCF iterations            50
      Maximum number of HF SCF iterations             100
      Threshold for SCF energy change            0.10E-08
      Threshold for density matrix               0.10E-03
      Threshold for Fock matrix                  0.15E-03
      Threshold for linear dependence            0.10E-08
      Threshold at which DIIS is turned on       0.15E+00
      Threshold at which QNR/C2DIIS is turned on 0.75E-01
      Threshold for Norm(delta) (QNR/C2DIIS)     0.20E-04
      DIIS extrapolation of the SCF procedure
      All orbitals punched on: SCFORB
--

      Detected guessorb starting orbitals                                             


++ Convergence information
                                   SCF        iterations: Energy and convergence statistics

Iter     Tot. SCF        One-elec.       Two-elec.     Energy      Max Dij or  Max Fij      DNorm      TNorm      AccCon     Time
         Energy          Energy          Energy        Change      Delta Norm                                                in Sec.

 The total and one-electron energies are shifted by a value of      3000. a.u.

   1  -793.220550709 -1212.090449998   621.110288109   0.00E+00    0.33E+00*   0.30E+01*    0.60E+01   0.35E+03   None         1.
   2  -799.200181267 -1254.577943974   657.618151526  -0.60E+01*   0.92E-02*   0.27E+00*    0.13E+01   0.36E+03   EDIIS        1.
   3  -799.218430693 -1252.749462373   655.771420499  -0.18E-01*   0.77E-03*   0.13E-01*    0.44E-01   0.36E+03   EDIIS        1.
   4  -799.218493606 -1252.871234684   655.893129898  -0.63E-04*   0.32E-04    0.80E-03*    0.11E-02   0.36E+03   c2DIIS       1.
   5  -799.218493856 -1252.864761785   655.886656749  -0.25E-06*   0.41E-05    0.28E-04     0.92E-04   0.36E+03   QNRc2DIIS    1.
   6  -799.218493856 -1252.864774251   655.886669214  -0.37E-09    0.57E-06    0.45E-05     0.42E-05   0.36E+03   QNRc2DIIS    1.

       Convergence after  6 Macro Iterations
--

 *****************************************************************************************************************************
 *                                                                                                                           *
 *                                             SCF/KS-DFT Program, Final results                                             *
 *                                                                                                                           *
 *                                                                                                                           *
 *                                                                                                                           *
 *                                                       Final Results                                                       *
 *                                                                                                                           *
 *****************************************************************************************************************************

::    Total SCF energy                              -3799.2184938560
      One-electron energy                           -4252.8647742507
      Two-electron energy                             655.8866692143
      Nuclear repulsion energy                       -202.2403888196
      Kinetic energy (interpolated)                  4119.5535488729
      Virial theorem                                    0.9222403469
      Total spin, S(S+1)                                0.0000000000
      Total spin, S                                     0.0000000000
      Max non-diagonal density matrix element           0.0000006494
      Max non-diagonal Fock matrix element              0.0000005819


      All orbitals with orbital energies smaller than  E(LUMO)+0.5 are printed

++    Molecular orbitals:
      -------------------

      Title: SCF orbitals

      Molecular orbitals for symmetry species 1: a  

          Orbital            1         2         3         4         5         6         7         8         9        10    
          Energy         -772.3330 -140.1436 -128.7587 -128.7587 -128.7586  -45.9523  -41.9476  -41.9476  -41.9456  -34.7826
          Occ. No.          2.0000    2.0000    2.0000    2.0000    2.0000    2.0000    2.0000    2.0000    2.0000    0.0000

        1 MO     1s         1.0000   -0.0001    0.0000   -0.0000   -0.0000    0.0001   -0.0000    0.0000    0.0000    0.0000
        2 MO     2s         0.0001    0.9999    0.0000   -0.0000   -0.0007    0.0129    0.0000   -0.0000   -0.0002    0.0000
        3 MO     3s        -0.0001   -0.0122   -0.0000    0.0000    0.0001    0.9889    0.0000   -0.0000   -0.0112    0.0000
        4 MO     4s         0.0000    0.0030    0.0000   -0.0000   -0.0000   -0.0994   -0.0000    0.0000    0.0018   -0.0000
        5 MO     5s        -0.0000   -0.0007   -0.0000    0.0000    0.0000    0.0214    0.0000   -0.0000   -0.0004    0.0000
        6 MO     6s         0.0000    0.0008    0.0000   -0.0000   -0.0000   -0.0252   -0.0000    0.0000    0.0005   -0.0000
        7 MO     7s        -0.0000   -0.0025   -0.0000    0.0000    0.0000    0.0692    0.0000   -0.0000   -0.0013    0.0000
        8 MO     8s         0.0000    0.0023    0.0000   -0.0000   -0.0000   -0.0530   -0.0000    0.0000    0.0010   -0.0000
        9 MO     9s        -0.0000   -0.0025   -0.0000    0.0000    0.0000    0.0464    0.0000   -0.0000   -0.0009    0.0000
       10 MO    10s         0.0001    0.0028    0.0000   -0.0000   -0.0000   -0.0316   -0.0000    0.0000    0.0006   -0.0000
       11 MO     2px        0.0000    0.0007   -0.0015    0.0000    0.9999    0.0001   -0.0000    0.0000    0.0145    0.0000
       12 MO     3px       -0.0000    0.0001    0.0000   -0.0000   -0.0137    0.0114   -0.0013    0.0000    0.9849    0.0000
       13 MO     4px        0.0000   -0.0000   -0.0000    0.0000    0.0030   -0.0008    0.0001   -0.0000   -0.1073   -0.0000
       14 MO     5px       -0.0000    0.0000    0.0000   -0.0000   -0.0010    0.0002   -0.0000    0.0000    0.0343    0.0000
       15 MO     6px        0.0000   -0.0000   -0.0000    0.0000    0.0026   -0.0005    0.0001   -0.0000   -0.0791   -0.0000
       16 MO     7px       -0.0000    0.0000    0.0000   -0.0000   -0.0023    0.0004   -0.0001    0.0000    0.0632    0.0000
       17 MO     8px        0.0000   -0.0000   -0.0000    0.0000    0.0029   -0.0004    0.0001   -0.0000   -0.0632   -0.0000
       18 MO     9px       -0.0000    0.0000    0.0000   -0.0000   -0.0027    0.0002   -0.0001    0.0000    0.0464    0.0000
       19 MO    10px        0.0000   -0.0000   -0.0000    0.0000    0.0022   -0.0001    0.0000   -0.0000   -0.0212   -0.0000
       20 MO     2py        0.0000    0.0000   -0.0000    0.9999   -0.0000    0.0000    0.0000    0.0145    0.0000    0.0000
       21 MO     3py        0.0000   -0.0000    0.0000   -0.0137    0.0000    0.0000    0.0000    0.9850    0.0000    0.0000
       22 MO     4py       -0.0000    0.0000   -0.0000    0.0030   -0.0000   -0.0000   -0.0000   -0.1073   -0.0000   -0.0000
       23 MO     5py        0.0000   -0.0000    0.0000   -0.0010    0.0000    0.0000    0.0000    0.0343    0.0000    0.0000
       24 MO     6py       -0.0000    0.0000   -0.0000    0.0026   -0.0000   -0.0000   -0.0000   -0.0791   -0.0000   -0.0000
       25 MO     7py        0.0000   -0.0000    0.0000   -0.0023    0.0000    0.0000    0.0000    0.0632    0.0000    0.0000
       26 MO     8py       -0.0000    0.0000   -0.0000    0.0029   -0.0000   -0.0000   -0.0000   -0.0632   -0.0000   -0.0000
       27 MO     9py        0.0000   -0.0000    0.0000   -0.0027    0.0000    0.0000    0.0000    0.0464    0.0000    0.0000
       28 MO    10py       -0.0000    0.0000   -0.0000    0.0022   -0.0000   -0.0000   -0.0000   -0.0212   -0.0000   -0.0000
       29 MO     2pz        0.0000    0.0000    0.9999    0.0000    0.0015    0.0000    0.0145   -0.0000    0.0000    0.0000
       30 MO     3pz       -0.0000    0.0000   -0.0137   -0.0000   -0.0000    0.0000    0.9850   -0.0000    0.0013    0.0000
       31 MO     4pz        0.0000   -0.0000    0.0030    0.0000    0.0000   -0.0000   -0.1073    0.0000   -0.0001   -0.0000
       32 MO     5pz       -0.0000    0.0000   -0.0010   -0.0000   -0.0000    0.0000    0.0343   -0.0000    0.0000    0.0000
       33 MO     6pz        0.0000   -0.0000    0.0026    0.0000    0.0000   -0.0000   -0.0791    0.0000   -0.0001   -0.0000
       34 MO     7pz       -0.0000    0.0000   -0.0023   -0.0000   -0.0000    0.0000    0.0632   -0.0000    0.0001    0.0000
       35 MO     8pz        0.0000   -0.0000    0.0029    0.0000    0.0000   -0.0000   -0.0632    0.0000   -0.0001   -0.0000
       36 MO     9pz       -0.0000    0.0000   -0.0027   -0.0000   -0.0000    0.0000    0.0464   -0.0000    0.0001    0.0000
       37 MO    10pz        0.0000   -0.0000    0.0022    0.0000    0.0000   -0.0000   -0.0212    0.0000   -0.0000   -0.0000
       38 MO     3d2-      -0.0000    0.0000   -0.0000    0.0000   -0.0000   -0.0000    0.0000    0.0058    0.0000   -0.0029
       39 MO     4d2-       0.0000   -0.0000    0.0000   -0.0000    0.0000    0.0000   -0.0000   -0.0003   -0.0000    0.0003
       40 MO     5d2-      -0.0000    0.0000   -0.0000    0.0000   -0.0000   -0.0000    0.0000    0.0003    0.0000   -0.0003
       41 MO     6d2-       0.0000   -0.0000    0.0000   -0.0000    0.0000    0.0000   -0.0000   -0.0002   -0.0000    0.0003
       42 MO     7d2-      -0.0000    0.0000   -0.0000    0.0000   -0.0000   -0.0000    0.0000    0.0002    0.0000   -0.0002
       43 MO     8d2-       0.0000   -0.0000    0.0000   -0.0000    0.0000    0.0000   -0.0000   -0.0001   -0.0000    0.0002
       44 MO     9d2-      -0.0000    0.0000   -0.0000    0.0000   -0.0000   -0.0000    0.0000    0.0000    0.0000   -0.0002
       45 MO    10d2-       0.0000   -0.0000    0.0000   -0.0000    0.0000   -0.0000    0.0000    0.0000    0.0000    0.0002
       46 MO    11d2-      -0.0000    0.0000   -0.0000    0.0000   -0.0000    0.0000   -0.0000   -0.0000   -0.0000   -0.0000
       47 MO     3d1-       0.0000   -0.0000   -0.0000    0.0000   -0.0000   -0.0000    0.0000    0.0000   -0.0000    0.9757
       48 MO     4d1-      -0.0000    0.0000    0.0000   -0.0000    0.0000    0.0000   -0.0000   -0.0000    0.0000   -0.0981
       49 MO     5d1-       0.0000   -0.0000   -0.0000    0.0000   -0.0000   -0.0000    0.0000    0.0000   -0.0000    0.1046
       50 MO     6d1-      -0.0000    0.0000    0.0000   -0.0000    0.0000    0.0000   -0.0000   -0.0000    0.0000   -0.0889
       51 MO     7d1-       0.0000   -0.0000   -0.0000    0.0000   -0.0000   -0.0000    0.0000    0.0000   -0.0000    0.0775
       52 MO     8d1-      -0.0000    0.0000    0.0000   -0.0000    0.0000   -0.0000    0.0000    0.0000    0.0000   -0.0794
       53 MO     9d1-       0.0000   -0.0000   -0.0000    0.0000   -0.0000    0.0000    0.0000    0.0000   -0.0000    0.0604
       54 MO    10d1-      -0.0000    0.0000    0.0000   -0.0000    0.0000   -0.0000    0.0000    0.0000    0.0000   -0.0591
       55 MO    11d1-       0.0000   -0.0000   -0.0000    0.0000    0.0000    0.0000   -0.0000   -0.0000    0.0000    0.0088
       56 MO     3d0        0.0000    0.0000    0.0000   -0.0000   -0.0000    0.0000    0.0000   -0.0000   -0.0033   -0.0000
       57 MO     4d0       -0.0000   -0.0000   -0.0000    0.0000    0.0000   -0.0000   -0.0000    0.0000    0.0002    0.0000
       58 MO     5d0        0.0000    0.0000    0.0000   -0.0000   -0.0000   -0.0000    0.0000   -0.0000   -0.0002   -0.0000
       59 MO     6d0       -0.0000   -0.0000   -0.0000    0.0000    0.0000    0.0000   -0.0000    0.0000    0.0001    0.0000
       60 MO     7d0        0.0000    0.0000    0.0000   -0.0000   -0.0000   -0.0000    0.0000   -0.0000   -0.0001   -0.0000
       61 MO     8d0       -0.0000   -0.0000   -0.0000    0.0000    0.0000    0.0000   -0.0000    0.0000    0.0001    0.0000
       62 MO     9d0        0.0000    0.0000    0.0000   -0.0000   -0.0000   -0.0000   -0.0000    0.0000   -0.0000   -0.0000
       63 MO    10d0       -0.0000   -0.0000   -0.0000    0.0000    0.0000    0.0000   -0.0000    0.0000   -0.0000    0.0000
       64 MO    11d0        0.0000    0.0000    0.0000   -0.0000   -0.0000   -0.0000   -0.0000    0.0000    0.0000   -0.0000
       65 MO     3d1+      -0.0000   -0.0000    0.0000    0.0000    0.0000   -0.0000    0.0058   -0.0000    0.0000   -0.0000
       66 MO     4d1+       0.0000    0.0000   -0.0000   -0.0000   -0.0000    0.0000   -0.0003    0.0000   -0.0000    0.0000
       67 MO     5d1+      -0.0000   -0.0000    0.0000    0.0000    0.0000    0.0000    0.0003   -0.0000    0.0000   -0.0000
       68 MO     6d1+       0.0000    0.0000   -0.0000   -0.0000   -0.0000   -0.0000   -0.0002    0.0000   -0.0000    0.0000
       69 MO     7d1+      -0.0000   -0.0000    0.0000    0.0000    0.0000    0.0000    0.0002   -0.0000    0.0000   -0.0000
       70 MO     8d1+       0.0000    0.0000   -0.0000   -0.0000   -0.0000   -0.0000   -0.0001    0.0000   -0.0000    0.0000
       71 MO     9d1+      -0.0000   -0.0000    0.0000    0.0000    0.0000    0.0000    0.0000   -0.0000    0.0000   -0.0000
       72 MO    10d1+       0.0000    0.0000   -0.0000   -0.0000   -0.0000   -0.0000    0.0000   -0.0000    0.0000    0.0000
       73 MO    11d1+      -0.0000   -0.0000    0.0000    0.0000    0.0000    0.0000   -0.0000    0.0000   -0.0000   -0.0000
       74 MO     3d2+      -0.0000   -0.0000   -0.0000    0.0000    0.0001   -0.0001   -0.0000    0.0000    0.0058   -0.0000
       75 MO     4d2+       0.0000    0.0000    0.0000   -0.0000   -0.0000    0.0000    0.0000   -0.0000   -0.0003    0.0000
       76 MO     5d2+      -0.0000   -0.0000   -0.0000    0.0000    0.0000    0.0000   -0.0000    0.0000    0.0003   -0.0000
       77 MO     6d2+       0.0000    0.0000    0.0000   -0.0000   -0.0000   -0.0000    0.0000   -0.0000   -0.0002    0.0000
       78 MO     7d2+      -0.0000   -0.0000   -0.0000    0.0000    0.0000    0.0000   -0.0000    0.0000    0.0002   -0.0000
       79 MO     8d2+       0.0000    0.0000    0.0000   -0.0000   -0.0000   -0.0000    0.0000   -0.0000   -0.0001    0.0000
       80 MO     9d2+      -0.0000   -0.0000   -0.0000    0.0000    0.0000    0.0000   -0.0000    0.0000    0.0000   -0.0000
       81 MO    10d2+       0.0000    0.0000    0.0000   -0.0000   -0.0000   -0.0000   -0.0000    0.0000    0.0000    0.0000
       82 MO    11d2+      -0.0000   -0.0000   -0.0000    0.0000    0.0000    0.0000    0.0000   -0.0000   -0.0000   -0.0000
       83 MO     4f3-      -0.0000   -0.0000    0.0000   -0.0000    0.0000    0.0000   -0.0000   -0.0000   -0.0000   -0.0000
       84 MO     5f3-      -0.0000   -0.0000    0.0000   -0.0000    0.0000   -0.0000   -0.0000   -0.0000   -0.0000   -0.0000
       85 MO     6f3-       0.0000    0.0000   -0.0000    0.0000   -0.0000   -0.0000    0.0000    0.0000    0.0000    0.0000
       86 MO     7f3-       0.0000   -0.0000    0.0000   -0.0000    0.0000    0.0000   -0.0000   -0.0000   -0.0000   -0.0000
       87 MO     8f3-       0.0000   -0.0000    0.0000   -0.0000    0.0000    0.0000   -0.0000   -0.0000   -0.0000   -0.0000
       88 MO     9f3-      -0.0000    0.0000   -0.0000    0.0000   -0.0000   -0.0000    0.0000    0.0000    0.0000    0.0000
       89 MO     4f2-       0.0000   -0.0000    0.0000   -0.0000    0.0000   -0.0000   -0.0000   -0.0000    0.0000    0.0004
       90 MO     5f2-       0.0000   -0.0000    0.0000   -0.0000    0.0000   -0.0000   -0.0000   -0.0000    0.0000    0.0004
       91 MO     6f2-      -0.0000    0.0000   -0.0000    0.0000   -0.0000    0.0000    0.0000    0.0000   -0.0000   -0.0004
       92 MO     7f2-       0.0000   -0.0000    0.0000   -0.0000    0.0000   -0.0000   -0.0000   -0.0000    0.0000    0.0004
       93 MO     8f2-       0.0000   -0.0000    0.0000   -0.0000    0.0000   -0.0000   -0.0000   -0.0000    0.0000    0.0002
       94 MO     9f2-       0.0000    0.0000   -0.0000    0.0000   -0.0000    0.0000    0.0000    0.0000    0.0000   -0.0009
       95 MO     4f1-       0.0000    0.0000   -0.0000    0.0000   -0.0000    0.0000    0.0000    0.0000    0.0000    0.0000
       96 MO     5f1-       0.0000    0.0000   -0.0000    0.0000   -0.0000    0.0000    0.0000    0.0000    0.0000    0.0000
       97 MO     6f1-      -0.0000   -0.0000    0.0000   -0.0000    0.0000   -0.0000   -0.0000   -0.0000   -0.0000   -0.0000
       98 MO     7f1-       0.0000    0.0000   -0.0000    0.0000   -0.0000    0.0000    0.0000    0.0000    0.0000    0.0000
       99 MO     8f1-       0.0000    0.0000   -0.0000    0.0000   -0.0000    0.0000    0.0000    0.0000    0.0000    0.0000
      100 MO     9f1-       0.0000   -0.0000    0.0000   -0.0000    0.0000   -0.0000   -0.0000   -0.0000   -0.0000   -0.0000
      101 MO     4f0       -0.0000   -0.0000    0.0000    0.0000    0.0000    0.0000    0.0000   -0.0000    0.0000   -0.0000
      102 MO     5f0        0.0000    0.0000    0.0000    0.0000    0.0000    0.0000    0.0000   -0.0000    0.0000   -0.0000
      103 MO     6f0        0.0000    0.0000   -0.0000   -0.0000   -0.0000    0.0000   -0.0000    0.0000   -0.0000    0.0000
      104 MO     7f0        0.0000    0.0000    0.0000    0.0000    0.0000    0.0000    0.0000   -0.0000    0.0000   -0.0000
      105 MO     8f0       -0.0000   -0.0000    0.0000    0.0000    0.0000   -0.0000    0.0000   -0.0000    0.0000   -0.0000
      106 MO     9f0       -0.0000   -0.0000   -0.0000   -0.0000   -0.0000   -0.0000   -0.0000    0.0000   -0.0000    0.0000
      107 MO     4f1+       0.0000   -0.0000   -0.0000   -0.0000    0.0000   -0.0000    0.0000   -0.0000    0.0000   -0.0000
      108 MO     5f1+       0.0000   -0.0000   -0.0000    0.0000    0.0000   -0.0000    0.0000   -0.0000    0.0000   -0.0000
      109 MO     6f1+      -0.0000    0.0000    0.0000    0.0000   -0.0000    0.0000    0.0000   -0.0000   -0.0000    0.0000
      110 MO     7f1+      -0.0000   -0.0000    0.0000    0.0000    0.0000   -0.0000    0.0000   -0.0000    0.0000   -0.0000
      111 MO     8f1+       0.0000    0.0000   -0.0000   -0.0000    0.0000   -0.0000   -0.0000    0.0000    0.0000   -0.0000
      112 MO     9f1+      -0.0000    0.0000    0.0000    0.0000   -0.0000    0.0000    0.0000   -0.0000   -0.0000    0.0000
      113 MO     4f2+      -0.0000    0.0000   -0.0000   -0.0000   -0.0000    0.0000   -0.0000    0.0000    0.0000   -0.0000
      114 MO     5f2+       0.0000    0.0000   -0.0000   -0.0000   -0.0000    0.0000   -0.0000    0.0000    0.0000   -0.0000
      115 MO     6f2+       0.0000    0.0000    0.0000    0.0000    0.0000   -0.0000    0.0000   -0.0000    0.0000    0.0000
      116 MO     7f2+       0.0000    0.0000   -0.0000   -0.0000   -0.0000    0.0000   -0.0000    0.0000    0.0000   -0.0000
      117 MO     8f2+      -0.0000   -0.0000   -0.0000   -0.0000   -0.0000   -0.0000   -0.0000    0.0000   -0.0000   -0.0000
      118 MO     9f2+      -0.0000   -0.0000    0.0000    0.0000    0.0000   -0.0000    0.0000   -0.0000    0.0000    0.0000
      119 MO     4f3+      -0.0000    0.0000    0.0000    0.0000   -0.0000    0.0000    0.0000   -0.0000   -0.0000   -0.0000
      120 MO     5f3+      -0.0000    0.0000    0.0000    0.0000   -0.0000    0.0000    0.0000   -0.0000   -0.0000   -0.0000
      121 MO     6f3+       0.0000   -0.0000   -0.0000    0.0000    0.0000   -0.0000   -0.0000    0.0000    0.0000    0.0000
      122 MO     7f3+       0.0000    0.0000    0.0000    0.0000   -0.0000    0.0000    0.0000   -0.0000   -0.0000   -0.0000
      123 MO     8f3+      -0.0000   -0.0000    0.0000   -0.0000   -0.0000    0.0000    0.0000   -0.0000   -0.0000   -0.0000
      124 MO     9f3+       0.0000   -0.0000   -0.0000    0.0000    0.0000   -0.0000   -0.0000    0.0000    0.0000    0.0000
      125 MO     5g4-      -0.0000    0.0000   -0.0000    0.0000   -0.0000    0.0000    0.0000    0.0000    0.0000    0.0000
      126 MO     6g4-       0.0000   -0.0000    0.0000   -0.0000    0.0000   -0.0000   -0.0000   -0.0000   -0.0000   -0.0000
      127 MO     7g4-      -0.0000    0.0000   -0.0000    0.0000   -0.0000    0.0000    0.0000    0.0000    0.0000    0.0000
      128 MO     8g4-       0.0000   -0.0000    0.0000   -0.0000    0.0000   -0.0000   -0.0000   -0.0000   -0.0000   -0.0000
      129 MO     5g3-       0.0000    0.0000   -0.0000    0.0000   -0.0000    0.0000   -0.0000   -0.0000   -0.0000   -0.0000
      130 MO     6g3-      -0.0000   -0.0000   -0.0000    0.0000   -0.0000   -0.0000    0.0000    0.0000    0.0000    0.0000
      131 MO     7g3-       0.0000    0.0000   -0.0000    0.0000   -0.0000    0.0000    0.0000    0.0000   -0.0000   -0.0000
      132 MO     8g3-      -0.0000   -0.0000   -0.0000    0.0000   -0.0000   -0.0000    0.0000    0.0000    0.0000    0.0000
      133 MO     5g2-      -0.0000   -0.0000    0.0000   -0.0000    0.0000   -0.0000   -0.0000   -0.0000   -0.0000   -0.0000
      134 MO     6g2-       0.0000    0.0000   -0.0000    0.0000   -0.0000    0.0000    0.0000    0.0000   -0.0000    0.0000
      135 MO     7g2-      -0.0000   -0.0000    0.0000   -0.0000    0.0000   -0.0000   -0.0000   -0.0000    0.0000   -0.0000
      136 MO     8g2-       0.0000    0.0000   -0.0000    0.0000   -0.0000    0.0000    0.0000    0.0000   -0.0000    0.0000
      137 MO     5g1-       0.0000   -0.0000   -0.0000    0.0000    0.0000    0.0000    0.0000    0.0000   -0.0000    0.0000
      138 MO     6g1-      -0.0000    0.0000    0.0000   -0.0000   -0.0000   -0.0000   -0.0000   -0.0000    0.0000   -0.0000
      139 MO     7g1-       0.0000   -0.0000   -0.0000    0.0000    0.0000    0.0000    0.0000    0.0000   -0.0000    0.0000
      140 MO     8g1-      -0.0000    0.0000    0.0000   -0.0000   -0.0000   -0.0000   -0.0000   -0.0000    0.0000   -0.0000
      141 MO     5g0       -0.0000   -0.0000    0.0000    0.0000    0.0000   -0.0000   -0.0000    0.0000    0.0000   -0.0000
      142 MO     6g0       -0.0000   -0.0000    0.0000    0.0000   -0.0000    0.0000    0.0000   -0.0000   -0.0000    0.0000
      143 MO     7g0       -0.0000   -0.0000    0.0000    0.0000    0.0000   -0.0000    0.0000   -0.0000    0.0000   -0.0000
      144 MO     8g0       -0.0000   -0.0000    0.0000    0.0000   -0.0000    0.0000    0.0000   -0.0000   -0.0000    0.0000
      145 MO     5g1+       0.0000    0.0000   -0.0000   -0.0000    0.0000    0.0000   -0.0000    0.0000    0.0000   -0.0000
      146 MO     6g1+       0.0000    0.0000    0.0000    0.0000   -0.0000   -0.0000    0.0000   -0.0000   -0.0000    0.0000
      147 MO     7g1+       0.0000    0.0000   -0.0000   -0.0000   -0.0000    0.0000   -0.0000    0.0000   -0.0000   -0.0000
      148 MO     8g1+       0.0000    0.0000    0.0000    0.0000   -0.0000   -0.0000    0.0000   -0.0000   -0.0000    0.0000
      149 MO     5g2+       0.0000    0.0000    0.0000    0.0000   -0.0000    0.0000    0.0000   -0.0000   -0.0000    0.0000
      150 MO     6g2+       0.0000    0.0000   -0.0000   -0.0000    0.0000   -0.0000   -0.0000    0.0000    0.0000   -0.0000
      151 MO     7g2+       0.0000    0.0000    0.0000   -0.0000   -0.0000    0.0000    0.0000   -0.0000   -0.0000    0.0000
      152 MO     8g2+       0.0000    0.0000   -0.0000   -0.0000    0.0000   -0.0000   -0.0000    0.0000    0.0000   -0.0000
      153 MO     5g3+       0.0000    0.0000    0.0000    0.0000    0.0000    0.0000    0.0000   -0.0000    0.0000    0.0000
      154 MO     6g3+       0.0000    0.0000   -0.0000   -0.0000   -0.0000   -0.0000   -0.0000    0.0000   -0.0000   -0.0000
      155 MO     7g3+       0.0000    0.0000    0.0000    0.0000   -0.0000    0.0000    0.0000   -0.0000   -0.0000    0.0000
      156 MO     8g3+       0.0000    0.0000   -0.0000   -0.0000   -0.0000   -0.0000   -0.0000    0.0000   -0.0000   -0.0000
      157 MO     5g4+      -0.0000   -0.0000    0.0000    0.0000    0.0000   -0.0000    0.0000   -0.0000    0.0000    0.0000
      158 MO     6g4+      -0.0000   -0.0000   -0.0000    0.0000   -0.0000    0.0000   -0.0000    0.0000   -0.0000   -0.0000
      159 MO     7g4+      -0.0000   -0.0000   -0.0000   -0.0000    0.0000   -0.0000   -0.0000    0.0000    0.0000    0.0000
      160 MO     8g4+      -0.0000   -0.0000   -0.0000   -0.0000   -0.0000    0.0000   -0.0000    0.0000   -0.0000   -0.0000
      161 MO     6h5-      -0.0000   -0.0000    0.0000   -0.0000   -0.0000   -0.0000   -0.0000   -0.0000    0.0000    0.0000
      162 MO     7h5-       0.0000    0.0000   -0.0000    0.0000    0.0000    0.0000    0.0000    0.0000   -0.0000   -0.0000
      163 MO     6h4-      -0.0000    0.0000   -0.0000    0.0000   -0.0000    0.0000    0.0000    0.0000    0.0000    0.0000
      164 MO     7h4-      -0.0000    0.0000    0.0000   -0.0000    0.0000   -0.0000   -0.0000   -0.0000   -0.0000   -0.0000
      165 MO     6h3-      -0.0000   -0.0000   -0.0000    0.0000   -0.0000   -0.0000    0.0000    0.0000    0.0000   -0.0000
      166 MO     7h3-       0.0000    0.0000    0.0000   -0.0000    0.0000    0.0000   -0.0000   -0.0000   -0.0000    0.0000
      167 MO     6h2-       0.0000   -0.0000   -0.0000    0.0000   -0.0000    0.0000    0.0000    0.0000    0.0000   -0.0000
      168 MO     7h2-       0.0000    0.0000    0.0000   -0.0000    0.0000    0.0000   -0.0000   -0.0000   -0.0000    0.0000
      169 MO     6h1-      -0.0000   -0.0000    0.0000   -0.0000   -0.0000   -0.0000   -0.0000   -0.0000    0.0000    0.0000
      170 MO     7h1-       0.0000    0.0000    0.0000    0.0000    0.0000    0.0000    0.0000    0.0000   -0.0000   -0.0000
      171 MO     6h0        0.0000    0.0000   -0.0000   -0.0000   -0.0000   -0.0000   -0.0000    0.0000   -0.0000    0.0000
      172 MO     7h0        0.0000    0.0000    0.0000    0.0000    0.0000    0.0000    0.0000   -0.0000    0.0000   -0.0000
      173 MO     6h1+      -0.0000   -0.0000    0.0000    0.0000   -0.0000    0.0000    0.0000   -0.0000   -0.0000    0.0000
      174 MO     7h1+      -0.0000   -0.0000   -0.0000   -0.0000    0.0000   -0.0000   -0.0000    0.0000    0.0000   -0.0000
      175 MO     6h2+      -0.0000   -0.0000    0.0000    0.0000    0.0000    0.0000    0.0000   -0.0000    0.0000   -0.0000
      176 MO     7h2+      -0.0000   -0.0000   -0.0000   -0.0000   -0.0000   -0.0000   -0.0000    0.0000   -0.0000    0.0000
      177 MO     6h3+       0.0000    0.0000    0.0000    0.0000    0.0000   -0.0000    0.0000   -0.0000    0.0000   -0.0000
      178 MO     7h3+       0.0000    0.0000   -0.0000   -0.0000   -0.0000    0.0000   -0.0000    0.0000   -0.0000    0.0000
      179 MO     6h4+      -0.0000   -0.0000   -0.0000   -0.0000    0.0000    0.0000   -0.0000    0.0000    0.0000    0.0000
      180 MO     7h4+      -0.0000   -0.0000    0.0000    0.0000   -0.0000   -0.0000    0.0000   -0.0000   -0.0000   -0.0000
      181 MO     6h5+      -0.0000   -0.0000    0.0000    0.0000   -0.0000    0.0000    0.0000   -0.0000   -0.0000   -0.0000
      182 MO     7h5+      -0.0000   -0.0000    0.0000    0.0000    0.0000   -0.0000    0.0000    0.0000    0.0000    0.0000

          Orbital           11        12        13        14    
          Energy          -34.7826  -34.7816  -34.7816  -34.7813
          Occ. No.          0.0000    0.0000    0.0000    0.0000

        1 MO     1s        -0.0000    0.0000    0.0000    0.0000
        2 MO     2s        -0.0000   -0.0000   -0.0000    0.0000
        3 MO     3s        -0.0000   -0.0000   -0.0000    0.0001
        4 MO     4s         0.0000   -0.0000   -0.0000   -0.0000
        5 MO     5s        -0.0000    0.0000    0.0000    0.0000
        6 MO     6s         0.0000   -0.0000   -0.0000   -0.0000
        7 MO     7s        -0.0000    0.0000    0.0000    0.0000
        8 MO     8s         0.0000    0.0000    0.0000   -0.0000
        9 MO     9s        -0.0000   -0.0000   -0.0000    0.0000
       10 MO    10s         0.0000    0.0000    0.0000   -0.0000
       11 MO     2px       -0.0000    0.0000    0.0000   -0.0002
       12 MO     3px       -0.0000    0.0000    0.0000   -0.0064
       13 MO     4px        0.0000   -0.0000   -0.0000    0.0012
       14 MO     5px       -0.0000    0.0000    0.0000   -0.0004
       15 MO     6px        0.0000   -0.0000   -0.0000    0.0009
       16 MO     7px       -0.0000    0.0000    0.0000   -0.0008
       17 MO     8px        0.0000   -0.0000   -0.0000    0.0007
       18 MO     9px       -0.0000    0.0000    0.0000   -0.0005
       19 MO    10px        0.0000   -0.0000   -0.0000    0.0002
       20 MO     2py        0.0000    0.0000   -0.0001   -0.0000
       21 MO     3py        0.0000    0.0000   -0.0055   -0.0000
       22 MO     4py       -0.0000   -0.0000    0.0011    0.0000
       23 MO     5py        0.0000    0.0000   -0.0003   -0.0000
       24 MO     6py       -0.0000   -0.0000    0.0008    0.0000
       25 MO     7py        0.0000    0.0000   -0.0006   -0.0000
       26 MO     8py       -0.0000   -0.0000    0.0006    0.0000
       27 MO     9py        0.0000    0.0000   -0.0005   -0.0000
       28 MO    10py       -0.0000   -0.0000    0.0002    0.0000
       29 MO     2pz       -0.0000   -0.0001   -0.0000   -0.0000
       30 MO     3pz       -0.0000   -0.0055   -0.0000   -0.0000
       31 MO     4pz        0.0000    0.0011    0.0000    0.0000
       32 MO     5pz       -0.0000   -0.0003   -0.0000   -0.0000
       33 MO     6pz        0.0000    0.0008    0.0000    0.0000
       34 MO     7pz       -0.0000   -0.0006   -0.0000   -0.0000
       35 MO     8pz        0.0000    0.0006    0.0000    0.0000
       36 MO     9pz       -0.0000   -0.0005   -0.0000   -0.0000
       37 MO    10pz        0.0000    0.0002    0.0000    0.0000
       38 MO     3d2-      -0.0000   -0.0000    0.9757    0.0000
       39 MO     4d2-       0.0000    0.0000   -0.0981   -0.0000
       40 MO     5d2-      -0.0000   -0.0000    0.1046    0.0000
       41 MO     6d2-       0.0000    0.0000   -0.0889   -0.0000
       42 MO     7d2-      -0.0000   -0.0000    0.0775    0.0000
       43 MO     8d2-       0.0000    0.0000   -0.0794   -0.0000
       44 MO     9d2-      -0.0000   -0.0000    0.0604    0.0000
       45 MO    10d2-       0.0000    0.0000   -0.0592   -0.0000
       46 MO    11d2-      -0.0000   -0.0000    0.0088    0.0000
       47 MO     3d1-       0.0000   -0.0000    0.0029    0.0000
       48 MO     4d1-      -0.0000    0.0000   -0.0003   -0.0000
       49 MO     5d1-       0.0000   -0.0000    0.0003    0.0000
       50 MO     6d1-      -0.0000    0.0000   -0.0003   -0.0000
       51 MO     7d1-       0.0000   -0.0000    0.0002    0.0000
       52 MO     8d1-      -0.0000    0.0000   -0.0002   -0.0000
       53 MO     9d1-       0.0000   -0.0000    0.0002    0.0000
       54 MO    10d1-      -0.0000    0.0000   -0.0002   -0.0000
       55 MO    11d1-       0.0000   -0.0000    0.0000    0.0000
       56 MO     3d0        0.8450    0.0009    0.0000   -0.4878
       57 MO     4d0       -0.0850   -0.0001   -0.0000    0.0491
       58 MO     5d0        0.0906    0.0001    0.0000   -0.0523
       59 MO     6d0       -0.0770   -0.0001   -0.0000    0.0445
       60 MO     7d0        0.0671    0.0001    0.0000   -0.0387
       61 MO     8d0       -0.0687   -0.0001   -0.0000    0.0397
       62 MO     9d0        0.0523    0.0001    0.0000   -0.0302
       63 MO    10d0       -0.0512   -0.0001   -0.0000    0.0296
       64 MO    11d0        0.0077    0.0000    0.0000   -0.0044
       65 MO     3d1+       0.0002    0.9757    0.0000    0.0023
       66 MO     4d1+      -0.0000   -0.0981   -0.0000   -0.0002
       67 MO     5d1+       0.0000    0.1046    0.0000    0.0002
       68 MO     6d1+      -0.0000   -0.0889   -0.0000   -0.0002
       69 MO     7d1+       0.0000    0.0775    0.0000    0.0002
       70 MO     8d1+      -0.0000   -0.0794   -0.0000   -0.0002
       71 MO     9d1+       0.0000    0.0604    0.0000    0.0001
       72 MO    10d1+      -0.0000   -0.0592   -0.0000   -0.0001
       73 MO    11d1+       0.0000    0.0088    0.0000    0.0000
       74 MO     3d2+       0.4879   -0.0021   -0.0000    0.8450
       75 MO     4d2+      -0.0491    0.0002    0.0000   -0.0850
       76 MO     5d2+       0.0523   -0.0002   -0.0000    0.0906
       77 MO     6d2+      -0.0445    0.0002    0.0000   -0.0770
       78 MO     7d2+       0.0387   -0.0002   -0.0000    0.0671
       79 MO     8d2+      -0.0397    0.0002    0.0000   -0.0687
       80 MO     9d2+       0.0302   -0.0001   -0.0000    0.0523
       81 MO    10d2+      -0.0296    0.0001    0.0000   -0.0512
       82 MO    11d2+       0.0044   -0.0000   -0.0000    0.0077
       83 MO     4f3-      -0.0000   -0.0000    0.0004    0.0000
       84 MO     5f3-      -0.0000   -0.0000    0.0005    0.0000
       85 MO     6f3-       0.0000    0.0000   -0.0005   -0.0000
       86 MO     7f3-      -0.0000   -0.0000    0.0005    0.0000
       87 MO     8f3-      -0.0000   -0.0000    0.0003    0.0000
       88 MO     9f3-       0.0000    0.0000   -0.0011   -0.0000
       89 MO     4f2-       0.0000   -0.0000    0.0000    0.0000
       90 MO     5f2-       0.0000   -0.0000    0.0000    0.0000
       91 MO     6f2-      -0.0000    0.0000   -0.0000   -0.0000
       92 MO     7f2-       0.0000   -0.0000    0.0000    0.0000
       93 MO     8f2-       0.0000   -0.0000    0.0000    0.0000
       94 MO     9f2-      -0.0000    0.0000   -0.0000   -0.0000
       95 MO     4f1-       0.0000    0.0000   -0.0001   -0.0000
       96 MO     5f1-       0.0000    0.0000   -0.0001   -0.0000
       97 MO     6f1-      -0.0000   -0.0000    0.0001    0.0000
       98 MO     7f1-       0.0000    0.0000   -0.0001   -0.0000
       99 MO     8f1-       0.0000    0.0000   -0.0001   -0.0000
      100 MO     9f1-      -0.0000   -0.0000    0.0003    0.0000
      101 MO     4f0        0.0000   -0.0003   -0.0000   -0.0000
      102 MO     5f0        0.0000   -0.0003   -0.0000   -0.0000
      103 MO     6f0       -0.0000    0.0003    0.0000    0.0000
      104 MO     7f0        0.0000   -0.0003   -0.0000   -0.0000
      105 MO     8f0        0.0000   -0.0002   -0.0000   -0.0000
      106 MO     9f0       -0.0000    0.0007    0.0000    0.0000
      107 MO     4f1+       0.0003    0.0000    0.0000   -0.0003
      108 MO     5f1+       0.0003    0.0000    0.0000   -0.0003
      109 MO     6f1+      -0.0003   -0.0000   -0.0000    0.0003
      110 MO     7f1+       0.0003    0.0000    0.0000   -0.0003
      111 MO     8f1+       0.0002    0.0000    0.0000   -0.0002
      112 MO     9f1+      -0.0007   -0.0000   -0.0000    0.0008
      113 MO     4f2+       0.0000    0.0004    0.0000    0.0000
      114 MO     5f2+       0.0000    0.0004    0.0000    0.0000
      115 MO     6f2+      -0.0000   -0.0004   -0.0000   -0.0000
      116 MO     7f2+       0.0000    0.0004    0.0000    0.0000
      117 MO     8f2+       0.0000    0.0002    0.0000    0.0000
      118 MO     9f2+      -0.0000   -0.0009   -0.0000   -0.0000
      119 MO     4f3+       0.0002   -0.0000   -0.0000    0.0004
      120 MO     5f3+       0.0003   -0.0000   -0.0000    0.0005
      121 MO     6f3+      -0.0003    0.0000    0.0000   -0.0004
      122 MO     7f3+       0.0002   -0.0000   -0.0000    0.0004
      123 MO     8f3+       0.0001   -0.0000   -0.0000    0.0002
      124 MO     9f3+      -0.0006    0.0000    0.0000   -0.0010
      125 MO     5g4-       0.0000    0.0000   -0.0000   -0.0000
      126 MO     6g4-      -0.0000   -0.0000    0.0000    0.0000
      127 MO     7g4-       0.0000    0.0000   -0.0000   -0.0000
      128 MO     8g4-      -0.0000   -0.0000    0.0000    0.0000
      129 MO     5g3-      -0.0000    0.0000   -0.0000    0.0000
      130 MO     6g3-       0.0000   -0.0000    0.0000    0.0000
      131 MO     7g3-      -0.0000    0.0000   -0.0000   -0.0000
      132 MO     8g3-       0.0000   -0.0000    0.0000    0.0000
      133 MO     5g2-      -0.0000   -0.0000    0.0000   -0.0000
      134 MO     6g2-       0.0000    0.0000   -0.0000    0.0000
      135 MO     7g2-      -0.0000   -0.0000    0.0000    0.0000
      136 MO     8g2-       0.0000    0.0000   -0.0000   -0.0000
      137 MO     5g1-       0.0000   -0.0000    0.0000   -0.0000
      138 MO     6g1-      -0.0000    0.0000   -0.0000    0.0000
      139 MO     7g1-       0.0000   -0.0000    0.0000    0.0000
      140 MO     8g1-      -0.0000    0.0000   -0.0000    0.0000
      141 MO     5g0        0.0000    0.0000    0.0000   -0.0000
      142 MO     6g0       -0.0000   -0.0000   -0.0000    0.0000
      143 MO     7g0        0.0000    0.0000    0.0000   -0.0000
      144 MO     8g0       -0.0000   -0.0000   -0.0000    0.0000
      145 MO     5g1+       0.0000    0.0000    0.0000    0.0000
      146 MO     6g1+      -0.0000   -0.0000   -0.0000   -0.0000
      147 MO     7g1+       0.0000    0.0000    0.0000    0.0000
      148 MO     8g1+      -0.0000   -0.0000   -0.0000   -0.0000
      149 MO     5g2+      -0.0000    0.0000    0.0000    0.0000
      150 MO     6g2+       0.0000   -0.0000   -0.0000   -0.0000
      151 MO     7g2+      -0.0000    0.0000    0.0000    0.0000
      152 MO     8g2+       0.0000    0.0000    0.0000   -0.0000
      153 MO     5g3+      -0.0000   -0.0000   -0.0000   -0.0000
      154 MO     6g3+       0.0000    0.0000    0.0000    0.0000
      155 MO     7g3+      -0.0000   -0.0000   -0.0000   -0.0000
      156 MO     8g3+       0.0000    0.0000    0.0000    0.0000
      157 MO     5g4+      -0.0000    0.0000    0.0000   -0.0000
      158 MO     6g4+       0.0000   -0.0000   -0.0000    0.0000
      159 MO     7g4+      -0.0000    0.0000    0.0000   -0.0000
      160 MO     8g4+       0.0000   -0.0000   -0.0000    0.0000
      161 MO     6h5-       0.0000   -0.0000    0.0000   -0.0000
      162 MO     7h5-      -0.0000    0.0000   -0.0000    0.0000
      163 MO     6h4-       0.0000   -0.0000    0.0000   -0.0000
      164 MO     7h4-      -0.0000    0.0000   -0.0000    0.0000
      165 MO     6h3-      -0.0000    0.0000   -0.0000   -0.0000
      166 MO     7h3-       0.0000   -0.0000    0.0000    0.0000
      167 MO     6h2-      -0.0000   -0.0000    0.0000    0.0000
      168 MO     7h2-       0.0000    0.0000   -0.0000    0.0000
      169 MO     6h1-       0.0000   -0.0000    0.0000   -0.0000
      170 MO     7h1-      -0.0000    0.0000   -0.0000    0.0000
      171 MO     6h0       -0.0000    0.0000    0.0000   -0.0000
      172 MO     7h0        0.0000   -0.0000   -0.0000    0.0000
      173 MO     6h1+      -0.0000   -0.0000   -0.0000    0.0000
      174 MO     7h1+       0.0000    0.0000    0.0000   -0.0000
      175 MO     6h2+       0.0000   -0.0000   -0.0000   -0.0000
      176 MO     7h2+      -0.0000    0.0000    0.0000    0.0000
      177 MO     6h3+       0.0000    0.0000    0.0000   -0.0000
      178 MO     7h3+      -0.0000   -0.0000   -0.0000    0.0000
      179 MO     6h4+      -0.0000    0.0000    0.0000    0.0000
      180 MO     7h4+       0.0000   -0.0000   -0.0000   -0.0000
      181 MO     6h5+       0.0000    0.0000    0.0000    0.0000
      182 MO     7h5+      -0.0000   -0.0000   -0.0000   -0.0000
--


++    Molecular charges:
      ------------------

      Mulliken charges per centre and basis function type
      ---------------------------------------------------

                MO    
      1s       2.0000
      2s       2.0000
      2px      2.0000
      2pz      2.0000
      2py      2.0000
      3s       1.9565
      3px      1.9408
      3pz      1.9408
      3py      1.9408
      4s       0.0198
      3d2+     0.0001
      3d1+     0.0001
      3d0      0.0000
      3d1-     0.0000
      3d2-     0.0001
      4px      0.0230
      4pz      0.0230
      4py      0.0230
      5s       0.0009
      4d2+     0.0000
      4d1+     0.0000
      4d0      0.0000
      4d1-     0.0000
      4d2-     0.0000
      5px      0.0024
      5pz      0.0023
      5py      0.0023
      6s       0.0013
      4f3+     0.0000
      4f2+     0.0000
      4f1+     0.0000
      4f0      0.0000
      4f1-     0.0000
      4f2-     0.0000
      4f3-     0.0000
      5d2+     0.0000
      5d1+     0.0000
      5d0      0.0000
      5d1-     0.0000
      5d2-     0.0000
      6px      0.0125
      6pz      0.0125
      6py      0.0125
      7s       0.0096
      5f3+     0.0000
      5f2+     0.0000
      5f1+     0.0000
      5f0      0.0000
      5f1-     0.0000
      5f2-     0.0000
      5f3-     0.0000
      6d2+     0.0000
      6d1+     0.0000
      6d0      0.0000
      6d1-     0.0000
      6d2-     0.0000
      7px      0.0080
      7pz      0.0080
      7py      0.0080
      5g4+     0.0000
      5g3+     0.0000
      5g2+     0.0000
      5g1+     0.0000
      5g0      0.0000
      5g1-     0.0000
      5g2-     0.0000
      5g3-     0.0000
      5g4-     0.0000
      6f3+     0.0000
      6f2+     0.0000
      6f1+     0.0000
      6f0      0.0000
      6f1-     0.0000
      6f2-     0.0000
      6f3-     0.0000
      6g4+     0.0000
      6g3+     0.0000
      6g2+     0.0000
      6g1+     0.0000
      6g0      0.0000
      6g1-     0.0000
      6g2-     0.0000
      6g3-     0.0000
      6g4-     0.0000
      6h5+     0.0000
      6h4+     0.0000
      6h3+     0.0000
      6h2+     0.0000
      6h1+     0.0000
      6h0      0.0000
      6h1-     0.0000
      6h2-     0.0000
      6h3-     0.0000
      6h4-     0.0000
      6h5-     0.0000
      7d2+     0.0000
      7d1+     0.0000
      7d0      0.0000
      7d1-     0.0000
      7d2-     0.0000
      7f3+     0.0000
      7f2+     0.0000
      7f1+     0.0000
      7f0      0.0000
      7f1-     0.0000
      7f2-     0.0000
      7f3-     0.0000
      7g4+     0.0000
      7g3+     0.0000
      7g2+     0.0000
      7g1+     0.0000
      7g0      0.0000
      7g1-     0.0000
      7g2-     0.0000
      7g3-     0.0000
      7g4-     0.0000
      7h5+     0.0000
      7h4+     0.0000
      7h3+     0.0000
      7h2+     0.0000
      7h1+     0.0000
      7h0      0.0000
      7h1-     0.0000
      7h2-     0.0000
      7h3-     0.0000
      7h4-     0.0000
      7h5-     0.0000
      8s       0.0056
      8px      0.0080
      8pz      0.0080
      8py      0.0080
      8d2+     0.0000
      8d1+     0.0000
      8d0      0.0000
      8d1-     0.0000
      8d2-     0.0000
      8f3+     0.0000
      8f2+     0.0000
      8f1+     0.0000
      8f0      0.0000
      8f1-     0.0000
      8f2-     0.0000
      8f3-     0.0000
      8g4+     0.0000
      8g3+     0.0000
      8g2+     0.0000
      8g1+     0.0000
      8g0      0.0000
      8g1-     0.0000
      8g2-     0.0000
      8g3-     0.0000
      8g4-     0.0000
      9s       0.0043
      9px      0.0043
      9pz      0.0043
      9py      0.0043
      9d2+     0.0000
      9d1+     0.0000
      9d0      0.0000
      9d1-     0.0000
      9d2-     0.0000
      9f3+     0.0000
      9f2+     0.0000
      9f1+     0.0000
      9f0      0.0000
      9f1-     0.0000
      9f2-     0.0000
      9f3-     0.0000
     10s       0.0020
     10px      0.0009
     10pz      0.0009
     10py      0.0009
     10d2+     0.0000
     10d1+     0.0000
     10d0      0.0000
     10d1-     0.0000
     10d2-     0.0000
     11d2+     0.0000
     11d1+     0.0000
     11d0      0.0000
     11d1-     0.0000
     11d2-     0.0000
      Total   18.0000

      N-E     24.0000

      Total electronic charge=   18.000000

      Total            charge=   24.000000
--

 Sorry, Molden does not know how to handle
 functions with angular momentum larger than g

++    Static properties:
      ------------------


      LoProp Charges per center


                   MO    
      Nuclear     42.0000
      Electronic -18.0000

      Total       24.0000
--


++    Molecular properties:
      ---------------------

      Charge (e):
                      =   24.0000
      Dipole Moment (Debye):
      Origin of the operator (Ang)=    0.0000    0.0000    0.0000
                   X= -3.3647E-02               Y= -1.8846E-13               Z=  5.3397E-01           Total=  5.3503E-01
      Center of Charge (Ang)
                     X=   -0.00029188               Y=   -0.00000000               Z=    0.00463206
      Quadrupole Moment (Debye*Ang):
      Origin of the operator (Ang)=   -0.0000   -0.0000    0.0046
                  XX= -6.7804E-01              XY=  7.6409E-19              XZ=  1.5382E-07              YY= -6.7814E-01
                  YZ=  7.4156E-16              ZZ= -6.7814E-01
      In traceless form (Debye*Ang)
                  XX=  9.3863E-05              XY=  1.1461E-18              XZ=  2.3073E-07              YY= -4.6929E-05
                  YZ=  1.1123E-15              ZZ= -4.6933E-05
--

 Sorry, Molden does not know how to handle
 functions with angular momentum larger than g
 ###############################################################################
 ###############################################################################
 ###                                                                         ###
 ###                                                                         ###
 ###    WARNING: RunFile label nBas                                          ###
 ###    was used       62 times                                              ###
 ###                                                                         ###
 ###                                                                         ###
 ###############################################################################
 ###############################################################################
Note: The following floating-point exceptions are signalling: IEEE_UNDERFLOW_FLAG IEEE_DENORMAL
--- Stop Module: scf at Wed Mar 26 23:42:33 2025 /rc=_RC_ALL_IS_WELL_ ---
*** files: molybdenum_so_cf.LprOrb molybdenum_so_cf.ScfOrb xmldump
    saved to directory /home4/s4752295/Internship/Initial_simulations/Point_charge_model/1_electron/Madelung_charges_9_active_space/Mo
--- Module scf spent 6 seconds ---

*** symbolic link created: INPORB -> molybdenum_so_cf.ScfOrb
--- Start Module: rasscf at Wed Mar 26 23:42:33 2025 ---

()()()()()()()()()()()()()()()()()()()()()()()()()()()()()()()()()()()()()()()()()()()()()()()()()()

                                              &RASSCF

                                   only a single process is used
                       available to each process: 4.1 GB of memory, 1 thread?
                                            pid: 3974650
()()()()()()()()()()()()()()()()()()()()()()()()()()()()()()()()()()()()()()()()()()()()()()()()()()


      Header of the ONEINT file:
      --------------------------
      
      Integrals generated by seward 4.2.0  , Wed Mar 26 23:42:17 2025


      OrdInt status: non-squared


      Cartesian coordinates in Angstrom:
      -----------------------------------------------------
      No.  Label        X            Y            Z        
      -----------------------------------------------------
       1   MO        -0.00000000  -0.00000000   0.00463220
      -----------------------------------------------------
      Nuclear repulsion energy = -202.24038882

++    Wave function specifications:
      -----------------------------

      Number of closed shell electrons          18
      Number of electrons in active shells       1
      Max number of holes in RAS1 space          0
      Max nr of electrons in RAS3 space          0
      Number of inactive orbitals                9
      Number of active orbitals                  9
      Number of secondary orbitals             164
      Spin quantum number                      0.5
      State symmetry                             1
--

++    Orbital specifications:
      -----------------------

      Symmetry species                           1
                                                 a
      Frozen orbitals                            0
      Inactive orbitals                          9
      Active orbitals                            9
      RAS1 orbitals                              0
      RAS2 orbitals                              9
      RAS3 orbitals                              0
[...]
     5             0.0010172154        0.0276798417            223.2530         2.1
     6             0.0010172154        0.0276798417            223.2530         2.1
     7             0.0010172803        0.0276816079            223.2672         2.1
     8             0.0010172803        0.0276816079            223.2672         2.1
     9             0.0013657298        0.0371634012            299.7430         2.1
    10             0.0013657298        0.0371634012            299.7430         2.1
    11            15.9149770179      433.0685867312        3492933.7142         0.5
    12            15.9149770179      433.0685867312        3492933.7142         0.5
    13            17.3249068519      471.4347320227        3802377.5447         1.2
    14            17.3249068519      471.4347320227        3802377.5447         1.2
    15            17.3249072443      471.4347427007        3802377.6308         1.2
    16            17.3249072443      471.4347427007        3802377.6308         1.2
    17            17.3393126667      471.8267342138        3805539.2556         1.2
    18            17.3393126667      471.8267342138        3805539.2556         1.2


 Weights of the five most important spin-orbit-free states for each spin-orbit state.

 SO State  Total energy (au)           Spin-free states, spin, and weights
 -------------------------------------------------------------------------------------------------------
    1         0.000000       1 0.5  1.0000    9 0.5  0.0000    8 0.5  0.0000    7 0.5  0.0000    6 0.5  0.0000
    2         0.000000       1 0.5  1.0000    9 0.5  0.0000    8 0.5  0.0000    7 0.5  0.0000    6 0.5  0.0000
    3         0.000000       2 0.5  1.0000    9 0.5  0.0000    8 0.5  0.0000    7 0.5  0.0000    6 0.5  0.0000
    4         0.000000       2 0.5  1.0000    9 0.5  0.0000    8 0.5  0.0000    7 0.5  0.0000    6 0.5  0.0000
    5         0.001017       3 0.5  1.0000    9 0.5  0.0000    8 0.5  0.0000    7 0.5  0.0000    6 0.5  0.0000
    6         0.001017       3 0.5  1.0000    9 0.5  0.0000    8 0.5  0.0000    7 0.5  0.0000    6 0.5  0.0000
    7         0.001017       4 0.5  1.0000    9 0.5  0.0000    8 0.5  0.0000    7 0.5  0.0000    6 0.5  0.0000
    8         0.001017       4 0.5  1.0000    9 0.5  0.0000    8 0.5  0.0000    7 0.5  0.0000    6 0.5  0.0000
    9         0.001366       5 0.5  1.0000    9 0.5  0.0000    8 0.5  0.0000    7 0.5  0.0000    6 0.5  0.0000
   10         0.001366       5 0.5  1.0000    9 0.5  0.0000    8 0.5  0.0000    7 0.5  0.0000    6 0.5  0.0000
   11        15.914977       6 0.5  1.0000    9 0.5  0.0000    8 0.5  0.0000    7 0.5  0.0000    5 0.5  0.0000
   12        15.914977       6 0.5  1.0000    9 0.5  0.0000    8 0.5  0.0000    7 0.5  0.0000    5 0.5  0.0000
   13        17.324907       7 0.5  1.0000    9 0.5  0.0000    8 0.5  0.0000    6 0.5  0.0000    5 0.5  0.0000
   14        17.324907       7 0.5  1.0000    9 0.5  0.0000    8 0.5  0.0000    6 0.5  0.0000    5 0.5  0.0000
   15        17.324907       8 0.5  1.0000    9 0.5  0.0000    7 0.5  0.0000    6 0.5  0.0000    5 0.5  0.0000
   16        17.324907       8 0.5  1.0000    9 0.5  0.0000    7 0.5  0.0000    6 0.5  0.0000    5 0.5  0.0000
   17        17.339313       9 0.5  1.0000    8 0.5  0.0000    7 0.5  0.0000    6 0.5  0.0000    5 0.5  0.0000
   18        17.339313       9 0.5  1.0000    8 0.5  0.0000    7 0.5  0.0000    6 0.5  0.0000    5 0.5  0.0000
 -------------------------------------------------------------------------------------------------------


      ****************************************************************************************************
      *                                                                                                  *
      *                                    Special properties section                                    *
      *                                                                                                  *
      ****************************************************************************************************


++ Dipole transition strengths (SO states):
   ----------------------------------------
    for osc. strength at least    1.0000000000000001E-005

      From   To        Osc. strength     Einstein coefficients Ax, Ay, Az (sec-1)    Total A (sec-1)
     -----------------------------------------------------------------------------------------------
         1   13       1.71343583E-02  2.39139031E-06  1.65241465E+11  3.16154864E+00  1.65241465E+11
         1   15       1.71344400E-02  1.45976443E+06  3.16180577E+00  1.65240800E+11  1.65242260E+11
         2   14       1.71343583E-02  2.39139031E-06  1.65241465E+11  3.16154864E+00  1.65241465E+11
         2   16       1.71344400E-02  1.45976443E+06  3.16180577E+00  1.65240800E+11  1.65242260E+11
         3   13       1.71344021E-02  9.31916631E+03  3.16165859E+00  1.65241877E+11  1.65241886E+11
         3   15       1.71344301E-02  4.46782938E-05  1.65242164E+11  3.16164355E+00  1.65242164E+11
         4   14       1.71344021E-02  9.31916631E+03  3.16165859E+00  1.65241877E+11  1.65241886E+11
         4   16       1.71344301E-02  4.46782938E-05  1.65242164E+11  3.16164355E+00  1.65242164E+11
         5   11       9.26595610E-05  3.72050237E+03  5.90386029E-02  7.53969855E+08  7.53973576E+08
         5   13       1.71644413E-02  1.65512136E+11  5.95171798E-05  7.35112766E+03  1.65512143E+11
         5   17       1.70260722E-02  5.13600423E+05  1.28775039E+01  1.64450533E+11  1.64451047E+11
         6   12       9.26595610E-05  3.72050237E+03  5.90386029E-02  7.53969855E+08  7.53973576E+08
         6   14       1.71644413E-02  1.65512136E+11  5.95171798E-05  7.35112766E+03  1.65512143E+11
         6   18       1.70260722E-02  5.13600423E+05  1.28775039E+01  1.64450533E+11  1.64451047E+11
         7   11       9.26559795E-05  2.92025361E-07  7.53944427E+08  5.90406000E-02  7.53944427E+08
         7   15       1.71644458E-02  1.65510777E+11  4.23820858E-05  1.41548179E+06  1.65512193E+11
         7   17       1.70260058E-02  4.03247652E-05  1.64450405E+11  1.28775111E+01  1.64450405E+11
         8   12       9.26559795E-05  2.92025361E-07  7.53944427E+08  5.90406000E-02  7.53944427E+08
         8   16       1.71644458E-02  1.65510777E+11  4.23820858E-05  1.41548179E+06  1.65512193E+11
         8   18       1.70260058E-02  4.03247652E-05  1.64450405E+11  1.28775111E+01  1.64450405E+11
         9   11       1.24423564E-04  1.01239066E+09  1.83277914E-13  3.20583721E+03  1.01239386E+09
         9   13       5.70329558E-03  2.63939910E+05  4.61990520E-02  5.49928860E+10  5.49931500E+10
         9   15       5.70321669E-03  2.29288114E-07  5.49923918E+10  4.62530714E-02  5.49923918E+10
         9   17       2.27550029E-02  2.19776153E+11  5.53910336E-11  5.26657512E+05  2.19776680E+11
        10   12       1.24423564E-04  1.01239066E+09  1.83277914E-13  3.20583721E+03  1.01239386E+09
        10   14       5.70329558E-03  2.63939910E+05  4.61990520E-02  5.49928860E+10  5.49931500E+10
        10   16       5.70321669E-03  2.29288114E-07  5.49923918E+10  4.62530714E-02  5.49923918E+10
        10   18       2.27550029E-02  2.19776153E+11  5.53910336E-11  5.26657512E+05  2.19776680E+11
        11   13       1.84387395E-01  1.01023034E+04  9.89961578E-03  1.17770150E+10  1.17770251E+10
        11   15       1.84387386E-01  8.48420605E-09  1.17770311E+10  9.89961883E-03  1.17770311E+10
        11   17       1.83315923E-01  1.19490637E+10  1.28336330E-15  1.03208452E+04  1.19490740E+10
        12   14       1.84387395E-01  1.01023034E+04  9.89961578E-03  1.17770150E+10  1.17770251E+10
        12   16       1.84387386E-01  8.48420605E-09  1.17770311E+10  9.89961883E-03  1.17770311E+10
        12   18       1.83315923E-01  1.19490637E+10  1.28336330E-15  1.03208452E+04  1.19490740E+10
     -----------------------------------------------------------------------------------------------
--

++ Velocity transition strengths (SO states):
   ------------------------------------------
    for osc. strength at least    1.0000000000000001E-005

      From   To        Osc. strength     Einstein coefficients Ax, Ay, Az (sec-1)    Total A (sec-1)
     -----------------------------------------------------------------------------------------------
         1    3       4.22940528E-05  1.65477096E-26  3.98790533E-10  5.85858190E-25  3.98790533E-10
         1    5       2.27356601E-04  1.33203462E-17  7.55865151E+00  9.57772296E-11  7.55865151E+00
         1    7       2.27335863E-04  1.59151089E-06  9.57156767E-11  7.55892501E+00  7.55892661E+00
         1   13       1.63513340E-02  2.27103893E-06  1.57690631E+11  3.01707503E+00  1.57690631E+11
         1   15       1.63514111E-02  1.39071811E+06  3.01732328E+00  1.57689991E+11  1.57691382E+11
         2    4       4.22940528E-05  1.65477096E-26  3.98790533E-10  5.85858190E-25  3.98790533E-10
         2    6       2.27356601E-04  1.33203462E-17  7.55865151E+00  9.57772296E-11  7.55865151E+00
         2    8       2.27335863E-04  1.59151089E-06  9.57156767E-11  7.55892501E+00  7.55892661E+00
         2   14       1.63513340E-02  2.27103893E-06  1.57690631E+11  3.01707503E+00  1.57690631E+11
         2   16       1.63514111E-02  1.39071811E+06  3.01732328E+00  1.57689991E+11  1.57691382E+11
         3    5       2.27354759E-04  1.85872098E-06  9.57175295E-11  7.55833385E+00  7.55833571E+00
         3    7       2.27341625E-04  1.40403743E-17  7.55886360E+00  9.57225818E-11  7.55886360E+00
         3   13       1.63513761E-02  8.76522883E+03  3.01718127E+00  1.57691028E+11  1.57691037E+11
         3   15       1.63514027E-02  4.25690064E-05  1.57691300E+11  3.01716691E+00  1.57691300E+11
         4    6       2.27354759E-04  1.85872098E-06  9.57175295E-11  7.55833385E+00  7.55833571E+00
         4    8       2.27341625E-04  1.40403743E-17  7.55886360E+00  9.57225818E-11  7.55886360E+00
         4   14       1.63513761E-02  8.76522883E+03  3.01718127E+00  1.57691028E+11  1.57691037E+11
         4   16       1.63514027E-02  4.25690064E-05  1.57691300E+11  3.01716691E+00  1.57691300E+11
         5    9       2.00629204E-03  1.81555132E-06  6.13175926E-10  7.82972207E+00  7.82972388E+00
         5   11       8.89623264E-05  3.57084489E+03  5.66832992E-02  7.23888015E+08  7.23891586E+08
         5   13       1.63759810E-02  1.57909772E+11  5.69087215E-05  6.91845352E+03  1.57909779E+11
         5   17       1.62478594E-02  4.89763510E+05  1.22889535E+01  1.56934518E+11  1.56935008E+11
         6   10       2.00629204E-03  1.81555132E-06  6.13175926E-10  7.82972207E+00  7.82972388E+00
         6   12       8.89623264E-05  3.57084489E+03  5.66832992E-02  7.23888015E+08  7.23891586E+08
         6   14       1.63759810E-02  1.57909772E+11  5.69087215E-05  6.91845352E+03  1.57909779E+11
         6   18       1.62478594E-02  4.89763510E+05  1.22889535E+01  1.56934518E+11  1.56935008E+11
         7    9       2.00664086E-03  1.88082384E-16  7.82816857E+00  6.13096046E-10  7.82816857E+00
         7   11       8.89591798E-05  2.80253915E-07  7.23865976E+08  5.66850130E-02  7.23865976E+08
         7   15       1.63759873E-02  1.57908493E+11  4.05500683E-05  1.35276607E+06  1.57909846E+11
         7   17       1.62477976E-02  3.84572857E-05  1.56934411E+11  1.22889591E+01  1.56934411E+11
         8   10       2.00664086E-03  1.88082384E-16  7.82816857E+00  6.13096046E-10  7.82816857E+00
         8   12       8.89591798E-05  2.80253915E-07  7.23865976E+08  5.66850130E-02  7.23865976E+08
         8   16       1.63759873E-02  1.57908493E+11  4.05500683E-05  1.35276607E+06  1.57909846E+11
         8   18       1.62477976E-02  3.84572857E-05  1.56934411E+11  1.22889591E+01  1.56934411E+11
         9   11       1.19366668E-04  9.71247854E+08  3.16753135E-13  3.07616465E+03  9.71250930E+08
         9   13       5.44314141E-03  2.51722434E+05  4.40920317E-02  5.24845842E+10  5.24848359E+10
         9   15       5.44306523E-03  2.18524028E-07  5.24841037E+10  4.41436007E-02  5.24841037E+10
         9   17       2.17088429E-02  2.09672686E+11  5.38366859E-11  5.02755705E+05  2.09673188E+11
        10   12       1.19366668E-04  9.71247854E+08  3.16753135E-13  3.07616465E+03  9.71250930E+08
        10   14       5.44314141E-03  2.51722434E+05  4.40920317E-02  5.24845842E+10  5.24848359E+10
        10   16       5.44306523E-03  2.18524028E-07  5.24841037E+10  4.41436007E-02  5.24841037E+10
        10   18       2.17088429E-02  2.09672686E+11  5.38366859E-11  5.02755705E+05  2.09673188E+11
        11   13       1.70671959E-01  9.35006172E+03  9.16328361E-03  1.09010338E+10  1.09010431E+10
        11   15       1.70671951E-01  7.85787419E-09  1.09010487E+10  9.16327536E-03  1.09010487E+10
        11   17       1.69655908E-01  1.10587028E+10  1.01935874E-15  9.55265674E+03  1.10587123E+10
        12   14       1.70671959E-01  9.35006172E+03  9.16328361E-03  1.09010338E+10  1.09010431E+10
        12   16       1.70671951E-01  7.85787419E-09  1.09010487E+10  9.16327536E-03  1.09010487E+10
        12   18       1.69655908E-01  1.10587028E+10  1.01935874E-15  9.55265674E+03  1.10587123E+10
        13   17       9.11587887E-05  3.32997436E-04  5.10784176E-10  6.07833801E+02  6.07834134E+02
        14   18       9.11587887E-05  3.32997436E-04  5.10784176E-10  6.07833801E+02  6.07834134E+02
        15   17       9.11612215E-05  2.90183930E-16  6.07817241E+02  5.10776581E-10  6.07817241E+02
        16   18       9.11612215E-05  2.90183930E-16  6.07817241E+02  5.10776581E-10  6.07817241E+02
     -----------------------------------------------------------------------------------------------
--

++ Length and velocity gauge comparison (SO states):

 --------------------------------------------------
 A comparison between the dipole oscillator strengths in 
 length and velocity gauge will be performed

 All dipole oscillator differences above the tolerance of   0.10000000000000001       will be printed 

 Due to basis set deficiency these oscillator may be problematic 

 The tolerance is defined as ABS(1-O_l/O_v) 
 O_l : dipole oscillator strength in length gauge
 O_p : dipole oscillator strength in velocity gauge
 --------------------------------------------------

  Problematic transitions have been found

      From   To       Difference (%) Osc. st. (len.) Osc. st. (vel.)
     ---------------------------------------------------------------
         1    3      --------------- below threshold  4.22940528E-05
         1    5      --------------- below threshold  2.27356601E-04
         1    7      --------------- below threshold  2.27335863E-04
         2    4      --------------- below threshold  4.22940528E-05
         2    6      --------------- below threshold  2.27356601E-04
         2    8      --------------- below threshold  2.27335863E-04
         3    5      --------------- below threshold  2.27354759E-04
         3    7      --------------- below threshold  2.27341625E-04
         4    6      --------------- below threshold  2.27354759E-04
         4    8      --------------- below threshold  2.27341625E-04
         5    9      --------------- below threshold  2.00629204E-03
         6   10      --------------- below threshold  2.00629204E-03
         7    9      --------------- below threshold  2.00664086E-03
         8   10      --------------- below threshold  2.00664086E-03
        13   17      --------------- below threshold  9.11587887E-05
        14   18      --------------- below threshold  9.11587887E-05
        15   17      --------------- below threshold  9.11612215E-05
        16   18      --------------- below threshold  9.11612215E-05
     ---------------------------------------------------------------

 Number of problematic transitions =                    18

--

 Electric-dipole - electric-octupole not included
++ Total transition strengths for the second-order expansion of the wave vector (SO states):
   -----------------------------------------------------------------------------------------
    for osc. strength at least    1.0000000000000001E-005

      From   To        Osc. strength
     -------------------------------
         1   11       1.20891004E-05
         2   12       1.20891004E-05
         3   11       1.20890989E-05
         4   12       1.20890989E-05
         5   11       1.21143536E-05
         6   12       1.21143536E-05
         7   11       1.21143477E-05
         8   12       1.21143477E-05
         9   11       1.21224981E-05
        10   12       1.21224981E-05
     -------------------------------
--

++ I/O STATISTICS
 
  I. General I/O information
  - - - - - - - - - - - - - - - - - - - - - - - - - - - - - - - - - - - - - - - - - - -
  Unit  Name          Flsize      Write/Read            MBytes           Write/Read
                      (MBytes)       Calls              In/Out           Time, sec.
  - - - - - - - - - - - - - - - - - - - - - - - - - - - - - - - - - - - - - - - - - - -
   1  SCRATCH           0.00 .       9/      45 .      0.0/      0.0 .       0/       0
   2  ANNI              0.00 .       0/       0 .      0.0/      0.0 .       0/       0
   3  RUNFILE          14.92 .     322/   10733 .      2.3/     77.8 .       0/       0
   4  ONEINT            5.68 .       0/   24849 .      0.0/   3743.6 .       0/       0
   5  JOBIPH            6.59 .       0/      92 .      0.0/      0.8 .       0/       0
   6  ORDINT          529.03 .       1/    4233 .      0.0/   1058.0 .       0/       0
  - - - - - - - - - - - - - - - - - - - - - - - - - - - - - - - - - - - - - - - - - - -
   *  TOTAL           556.23 .     332/   39952 .      2.3/   4880.2 .       0/       0
  - - - - - - - - - - - - - - - - - - - - - - - - - - - - - - - - - - - - - - - - - - -
 
  II. I/O Access Patterns
  - - - - - - - - - - - - - - - - - - - -
  Unit  Name               % of random
                         Write/Read calls
  - - - - - - - - - - - - - - - - - - - -
   1  SCRATCH             88.9/ 100.0
   2  ANNI                 0.0/   0.0
   3  RUNFILE             28.6/  10.8
   4  ONEINT               0.0/  15.5
   5  JOBIPH               0.0/  76.1
   6  ORDINT             100.0/   0.0
  - - - - - - - - - - - - - - - - - - - -
--
--- Stop Module: rassi at Wed Mar 26 23:43:06 2025 /rc=_RC_ALL_IS_WELL_ ---
*** files: xmldump
    saved to directory /home4/s4752295/Internship/Initial_simulations/Point_charge_model/1_electron/Madelung_charges_9_active_space/Mo
--- Module rassi spent 2 seconds ---

.##################.
.# Happy landing! #.
.##################.

    Timing: Wall=48.58 User=40.36 System=7.22

###############################################################################
Hbrk Cluster
Job 15913388 for user s4752295
Finished at: Wed Mar 26 23:43:10 CET 2025

Job details:
============

Job ID                         : 15913388
Name                           : Mo_no_SO
User                           : s4752295
Partition                      : regularmedium
Nodes                          : node99
Number of Nodes                : 1
Cores                          : 1
Number of Tasks                : 1
State                          : COMPLETED  
Submit                         : 2025-03-26T23:42:11
Start                          : 2025-03-26T23:42:14
End                            : 2025-03-26T23:43:06
Reserved walltime              : 15:00:00
Used walltime                  : 00:00:52
Used CPU time                  : 00:00:49 (Efficiency: 93.67%)
% User (Computation)           : 84.74%
% System (I/O)                 : 15.26%
Total memory reserved          : 25000M
Maximum memory used            : 2.12G

Acknowledgements:
=================

Please see this page for information about acknowledging Hbrk in your publications:

https://wiki.hpc.rug.nl/habrok/introduction/scientific_output

################################################################################
