   This run of MOLCAS is using the pymolcas driver

                             OPE
                             OPE          NMOL  CASOP  ENMOLC A   SO
                 OPE        NMOLC        AS  OP EN  MO LC     AS  OP
                OPENM       OL CA        SO  PE NM  OL CA     SOP EN
                OP EN      MO   LC       AS  OP ENMOL  CASO   PENMOL
                OP  EN     MO   LC       AS  OP EN     MO     LC ASO
               OP   E  NMOL  C  AS       OP  EN MO     LC     AS  OP
               OP  E   NMO   LC AS        OPEN  MO     LCASOP EN   M
               O  PEN   MO  LCA  SO
            OPE   NMO   L   CAS    OP
        OPENMOL  CASOP     ENMOL   CASOPE
     OPENMOLCA   SOPENMOLCASOPEN   MOLCASOPE
    OPENMOLCAS   OP           EN   MOL    CAS
    OPENMOLCAS       OP  ENM        O     LCA
    OPENMOLCAS    OPEN  MOLCASO     P  E  NMO
    OPENMOLCAS     OP               E  N  MOL
    OPENMOLCA   SO           PENM   O  L  CAS    OPEN    MO    LCAS
    OPENMOLCA   SOP           ENM   O  L  CAS   OP  EN  MOLC  AS   O
    OPENMOLCA   SOPE           NM      O  LCA   S      OP  EN MO
    OPENMOLC                AS         O  PEN   M      OL  CA  SOPE
    OPENMO        LCASOPE  NMOL        C  ASO   P      ENMOLC     AS
    OPE     NMO      LCA  SO     P     E   NM   OL  CA SO  PE N   MO
          OPENMOLCA            SOPE   NMO        LCAS  O    P  ENMO
     OPENMOLCASOPENMOLCASOPENMOLCASOPENMOLCA
        OPENMOLCASOPENMOLCASOPENMOLCASOPE
            OPENMOLCASOPENMOLCASOPENM
               OPENMOLCASOPENMOLCA        version: o91e1abe7de707b ?
                   OPENMOLCASO
                       OPE                tag:

 OpenMolcas is free software; you can redistribute it and/or modify it
 under the terms of the GNU Lesser General Public License version 2.1.
 OpenMolcas is distributed in the hope that it will be useful, but it
 is provided "as is" and without any express or implied warranties.
 For more details see the full text of the license in the file
 LICENSE or in <http://www.gnu.org/licenses/>.

                 Copyright (C) The OpenMolcas Authors
           For the author list and the recommended citation,
                   consult the file CONTRIBUTORS.md

           *************************************************
           * pymolcas version py2.10                       *
           *   build 3068ae8b88c9345ec6cfef6fef7f1169      *
           *   (after the EMIL interpreter by V. Veryazov) *
           *************************************************

configuration info
------------------
Host name: login1 (Linux)
C Compiler ID: GNU
C flags: -std=gnu99
Fortran Compiler ID: GNU
Fortran flags: -fno-aggressive-loop-optimizations -cpp -fdefault-integer-8 -fmax-stack-var-size=1048576
Definitions: _MOLCAS_;_I8_;_LINUX_;_MKL_
Parallel: OFF (GA=OFF)


   -----------------------------------------------------------------------------------------------------------------------------------
  |
  |           Project: molybdenum_so_cf
  |    Submitted from: /home4/s4752295/Internship/Initial_simulations/Point_charge_model/1_electron/Madelung_charges_9_active_space/Mo
  |      Scratch area: /tmp/molybdenum_so_cf
  |   Save outputs to: /home4/s4752295/Internship/Initial_simulations/Point_charge_model/1_electron/Madelung_charges_9_active_space/Mo
  |            Molcas: /home4/s4752295/Internship/Molcas/recomp_try/OpenMolcas-master/build
  |
  | Scratch area is empty
  |
  |    MOLCAS_DRIVER = /home4/s4752295/Internship/Molcas/bin/pymolcas
  |    MOLCAS_NPROCS = 1
  |    MOLCAS_SOURCE = /home4/s4752295/Internship/Molcas/recomp_try/OpenMolcas-master
  | MOLCAS_STRUCTURE = 0
  |
   -----------------------------------------------------------------------------------------------------------------------------------

++ ---------   Input file   ---------

&SEWARD
AMFi

CLIG
$R

Basis Set
Mo.ANO-rcc.Roos.21s18p13d6f4g2h.10s9p9d6f4g2h.
Spherical d
Mo           -1.0658140267135469e-14    -3.5527134223784897e-15 0.008753588724385739
End of Basis

Xfield

414
-4.402421188,-1.6940000000000002,0.9780309      -0.625931
-4.402421188,-0.0,-1.9560629    -0.625931
-4.402421188,1.6940000000000002,0.9780309       -0.625931
-4.394880677000001,0.0,0.0      1.892092
2.9250976590000004,-1.6940000000000002,-0.9780309       2.515516
2.9250976590000004,0.0,1.9560629        2.515516
2.9250976590000004,1.6940000000000002,-0.9780309        2.515516
3.9192871080000002,-3.3880000000000003,0.0      0.004632
3.9192871080000002,-1.6940000000000002,-2.9340938000000003      0.004632
3.9192871080000002,-1.6940000000000002,2.9340938000000003       0.004632
3.9192871080000002,1.6940000000000002,-2.9340938000000003       0.004632
3.9192871080000002,1.6940000000000002,2.9340938000000003        0.004632
3.9192871080000002,3.3880000000000003,0.0       0.004632
4.542065429000001,-1.6940000000000002,0.9780309 -2.519484
4.542065429000001,-0.0,-1.9560629       -2.519484
4.542065429000001,1.6940000000000002,0.9780309  -2.519484
-3.2264160170000005,-0.0,-0.0   -3.142907
-5.472607426000001,-3.3880000000000003,-1.9560629       -0.625931
-5.472607426000001,0.0,3.9121247000000006       -0.625931
-5.472607426000001,3.3880000000000003,-1.9560629        -0.625931
-7.2703125,-3.3880000000000003,0.0      1.892092
-7.2703125,-1.6940000000000002,-2.9340938000000003      1.892092
-7.2703125,-1.6940000000000002,2.9340938000000003       1.892092
-7.2703125,1.6940000000000002,-2.9340938000000003       1.892092
-7.2703125,1.6940000000000002,2.9340938000000003        1.892092
-7.2703125,3.3880000000000003,0.0       1.892092
27.689062500000002,-3.3880000000000003,1.9560629        2.515516
27.689062500000002,-0.0,-3.9121247000000006     2.515516
27.689062500000002,3.3880000000000003,1.9560629 2.515516
4.002539068,-3.3880000000000003,-1.9560629      -2.519484
4.002539068,0.0,3.9121247000000006      -2.519484
4.002539068,3.3880000000000003,-1.9560629       -2.519484
-3.5556640680000005,-3.3880000000000003,-0.0    -3.142907
-3.5556640680000005,-1.6940000000000002,-2.9340938000000003     -3.142907
-3.5556640680000005,-1.6940000000000002,2.9340938000000003      -3.142907
-3.5556640680000005,1.6940000000000002,-2.9340938000000003      -3.142907
-3.5556640680000005,1.6940000000000002,2.9340938000000003       -3.142907
-3.5556640680000005,3.3880000000000003,-0.0     -3.142907
-10.47578125,-3.3880000000000003,3.9121247000000006     -0.625931
-10.47578125,3.3880000000000003,3.9121247000000006      -0.625931
-10.47578125,-5.082000000000001,0.9780309       -0.625931
-10.47578125,5.082000000000001,0.9780309        -0.625931
-10.47578125,-1.6940000000000002,-4.8901567     -0.625931
-10.47578125,1.6940000000000002,-4.8901567      -0.625931
6.608593750000001,-1.6940000000000002,-0.9780309        4.409069
6.608593750000001,1.6940000000000002,-0.9780309 4.409069
6.608593750000001,0.0,1.9560629 4.409069
-192.775,-0.0,-0.0      -5.030367
-192.775,0.0,0.0        5.039632
14.869335932,-3.3880000000000003,-3.9121247000000006    2.515516
14.869335932,3.3880000000000003,-3.9121247000000006     2.515516
14.869335932,-5.082000000000001,-0.9780309      2.515516
14.869335932,5.082000000000001,-0.9780309       2.515516
14.869335932,-1.6940000000000002,4.8901567      2.515516
14.869335932,1.6940000000000002,4.8901567       2.515516
20.942968750000002,-5.082000000000001,-2.9340938000000003       0.004632
20.942968750000002,-5.082000000000001,2.9340938000000003        0.004632
20.942968750000002,5.082000000000001,-2.9340938000000003        0.004632
20.942968750000002,5.082000000000001,2.9340938000000003 0.004632
20.942968750000002,-0.0,-5.868187600000001      0.004632
20.942968750000002,0.0,5.868187600000001        0.004632
52.885937500000004,-3.3880000000000003,3.9121247000000006       -2.519484
52.885937500000004,3.3880000000000003,3.9121247000000006        -2.519484
52.885937500000004,-5.082000000000001,0.9780309 -2.519484
52.885937500000004,5.082000000000001,0.9780309  -2.519484
52.885937500000004,-1.6940000000000002,-4.8901567       -2.519484
52.885937500000004,1.6940000000000002,-4.8901567        -2.519484
-160.4625,-5.082000000000001,-2.9340938000000003        1.892092
-160.4625,-5.082000000000001,2.9340938000000003 1.892092
-160.4625,5.082000000000001,-2.9340938000000003 1.892092
-160.4625,5.082000000000001,2.9340938000000003  1.892092
-160.4625,-0.0,-5.868187600000001       1.892092
-160.4625,0.0,5.868187600000001 1.892092
-129.525,-3.3880000000000003,1.9560629  4.409069
-129.525,-0.0,-3.9121247000000006       4.409069
-129.525,3.3880000000000003,1.9560629   4.409069
-97.9,-3.3880000000000003,-0.0  -5.030367
-97.9,-1.6940000000000002,-2.9340938000000003   -5.030367
-97.9,-1.6940000000000002,2.9340938000000003    -5.030367
-97.9,1.6940000000000002,-2.9340938000000003    -5.030367
-97.9,-3.3880000000000003,0.0   5.039632
-97.9,3.3880000000000003,-0.0   -5.030367
-97.9,1.6940000000000002,2.9340938000000003     -5.030367
-97.9,-1.6940000000000002,-2.9340938000000003   5.039632
-97.9,-1.6940000000000002,2.9340938000000003    5.039632
-97.9,1.6940000000000002,-2.9340938000000003    5.039632
-97.9,3.3880000000000003,0.0    5.039632
-97.9,1.6940000000000002,2.9340938000000003     5.039632
-51.2875,-1.6940000000000002,-0.9780309 -5.660931
-51.2875,0.0,1.9560629  -5.660931
-51.2875,1.6940000000000002,-0.9780309  -5.660931
0.9710937500000001,-6.7759989,0.0       0.004632
0.9710937500000001,-3.3880000000000003,-5.868187600000001       0.004632
0.9710937500000001,-3.3880000000000003,5.868187600000001        0.004632
0.9710937500000001,3.3880000000000003,-5.868187600000001        0.004632
0.9710937500000001,6.7759989,0.0        0.004632
0.9710937500000001,3.3880000000000003,5.868187600000001 0.004632
74.73125,-5.082000000000001,2.9340938000000003  -3.142907
74.73125,-5.082000000000001,-2.9340938000000003 -3.142907
74.73125,5.082000000000001,-2.9340938000000003  -3.142907
74.73125,5.082000000000001,2.9340938000000003   -3.142907
74.73125,-0.0,-5.868187600000001        -3.142907
74.73125,0.0,5.868187600000001  -3.142907
95.0125,-6.7759989,-1.9560629   -0.625931
95.0125,-5.082000000000001,-4.8901567   -0.625931
95.0125,-1.6940000000000002,6.846218500000001   -0.625931
95.0125,5.082000000000001,-4.8901567    -0.625931
95.0125,6.7759989,-1.9560629    -0.625931
95.0125,1.6940000000000002,6.846218500000001    -0.625931
1.3169921820000001,-6.7759989,0.0       1.892092
1.3169921820000001,-3.3880000000000003,-5.868187600000001       1.892092
1.3169921820000001,-3.3880000000000003,5.868187600000001        1.892092
1.3169921820000001,3.3880000000000003,-5.868187600000001        1.892092
1.3169921820000001,6.7759989,0.0        1.892092
1.3169921820000001,3.3880000000000003,5.868187600000001 1.892092
37.228125000000006,-3.3880000000000003,-3.9121247000000006      4.409069
37.228125000000006,3.3880000000000003,-3.9121247000000006       4.409069
37.228125000000006,-5.082000000000001,-0.9780309        4.409069
37.228125000000006,5.082000000000001,-0.9780309 4.409069
37.228125000000006,-1.6940000000000002,4.8901567        4.409069
37.228125000000006,1.6940000000000002,4.8901567 4.409069
178.64687500000002,-3.3880000000000003,1.9560629        -5.660931
178.64687500000002,-0.0,-3.9121247000000006     -5.660931
178.64687500000002,3.3880000000000003,1.9560629 -5.660931
0.37812500000000004,-6.7759989,1.9560629        2.515516
0.37812500000000004,-1.6940000000000002,-6.846218500000001      2.515516
0.37812500000000004,-5.082000000000001,4.8901567        2.515516
0.37812500000000004,1.6940000000000002,-6.846218500000001       2.515516
0.37812500000000004,6.7759989,1.9560629 2.515516
0.37812500000000004,5.082000000000001,4.8901567 2.515516
-103.60625,-6.7759989,-1.9560629        -2.519484
-103.60625,-5.082000000000001,-4.8901567        -2.519484
-103.60625,-1.6940000000000002,6.846218500000001        -2.519484
-103.60625,5.082000000000001,-4.8901567 -2.519484
-103.60625,1.6940000000000002,6.846218500000001 -2.519484
-103.60625,6.7759989,-1.9560629 -2.519484
-24.277343750000004,-6.7759989,-0.0     -3.142907
-24.277343750000004,-3.3880000000000003,-5.868187600000001      -3.142907
-24.277343750000004,-3.3880000000000003,5.868187600000001       -3.142907
-24.277343750000004,3.3880000000000003,-5.868187600000001       -3.142907
-24.277343750000004,3.3880000000000003,5.868187600000001        -3.142907
-24.277343750000004,6.7759989,-0.0      -3.142907
667.1500000000001,0.0,0.0       6.927092
355.57500000000005,-6.7759989,3.9121247000000006        -0.625931
355.57500000000005,6.7759989,3.9121247000000006 -0.625931
355.57500000000005,-0.0,-7.824250500000001      -0.625931
-5.964062500000001,-5.082000000000001,2.9340938000000003        -5.030367
-5.964062500000001,-5.082000000000001,-2.9340938000000003       -5.030367
-5.964062500000001,-5.082000000000001,2.9340938000000003        5.039632
-5.964062500000001,-5.082000000000001,-2.9340938000000003       5.039632
-5.964062500000001,5.082000000000001,-2.9340938000000003        -5.030367
-5.964062500000001,5.082000000000001,2.9340938000000003 -5.030367
-5.964062500000001,5.082000000000001,-2.9340938000000003        5.039632
-5.964062500000001,5.082000000000001,2.9340938000000003 5.039632
-5.964062500000001,-0.0,-5.868187600000001      -5.030367
-5.964062500000001,0.0,5.868187600000001        -5.030367
-5.964062500000001,-0.0,-5.868187600000001      5.039632
-5.964062500000001,0.0,5.868187600000001        5.039632
100.99375,-3.3880000000000003,-3.9121247000000006       -5.660931
100.99375,3.3880000000000003,-3.9121247000000006        -5.660931
100.99375,-5.082000000000001,-0.9780309 -5.660931
100.99375,5.082000000000001,-0.9780309  -5.660931
100.99375,-1.6940000000000002,4.8901567 -5.660931
100.99375,1.6940000000000002,4.8901567  -5.660931
330.55,-6.7759989,-3.9121247000000006   2.515516
330.55,6.7759989,-3.9121247000000006    2.515516
330.55,0.0,7.824250500000001    2.515516
-568.975,-6.7759989,3.9121247000000006  -2.519484
-568.975,6.7759989,3.9121247000000006   -2.519484
-568.975,-0.0,-7.824250500000001        -2.519484
58.91875,-3.3880000000000003,0.0        6.927092
58.91875,-1.6940000000000002,-2.9340938000000003        6.927092
58.91875,-1.6940000000000002,2.9340938000000003 6.927092
58.91875,1.6940000000000002,-2.9340938000000003 6.927092
58.91875,1.6940000000000002,2.9340938000000003  6.927092
58.91875,3.3880000000000003,0.0 6.927092
-60.775000000000006,-1.6940000000000002,0.9780309       7.550516
-60.775000000000006,0.0,-1.9560629      7.550516
-60.775000000000006,1.6940000000000002,0.9780309        7.550516
17.084375,-1.6940000000000002,-0.9780309        -7.554483
17.084375,1.6940000000000002,-0.9780309 -7.554483
17.084375,-0.0,1.9560629        -7.554483
-137.3625,-8.4699989,0.9780309  -0.625931
-137.3625,-5.082000000000001,6.846218500000001  -0.625931
-137.3625,-3.3880000000000003,-7.824250500000001        -0.625931
-137.3625,3.3880000000000003,-7.824250500000001 -0.625931
-137.3625,8.4699989,0.9780309   -0.625931
-137.3625,5.082000000000001,6.846218500000001   -0.625931
-74.18125,-6.7759989,1.9560629  4.409069
-74.18125,-5.082000000000001,4.8901567  4.409069
-74.18125,-1.6940000000000002,-6.846218500000001        4.409069
-74.18125,1.6940000000000002,-6.846218500000001 4.409069
-74.18125,5.082000000000001,4.8901567   4.409069
-74.18125,6.7759989,1.9560629   4.409069
54.071875000000006,-6.7759989,-0.0      -5.030367
54.071875000000006,-3.3880000000000003,-5.868187600000001       -5.030367
54.071875000000006,-3.3880000000000003,5.868187600000001        -5.030367
54.071875000000006,-6.7759989,0.0       5.039632
54.071875000000006,-3.3880000000000003,-5.868187600000001       5.039632
54.071875000000006,3.3880000000000003,-5.868187600000001        -5.030367
54.071875000000006,3.3880000000000003,5.868187600000001 -5.030367
54.071875000000006,6.7759989,-0.0       -5.030367
54.071875000000006,-3.3880000000000003,5.868187600000001        5.039632
54.071875000000006,3.3880000000000003,-5.868187600000001        5.039632
54.071875000000006,6.7759989,0.0        5.039632
54.071875000000006,3.3880000000000003,5.868187600000001 5.039632
198.82500000000002,-8.4699989,-0.9780309        2.515516
198.82500000000002,-5.082000000000001,-6.846218500000001        2.515516
198.82500000000002,-3.3880000000000003,7.824250500000001        2.515516
198.82500000000002,5.082000000000001,-6.846218500000001 2.515516
198.82500000000002,8.4699989,-0.9780309 2.515516
198.82500000000002,3.3880000000000003,7.824250500000001 2.515516
-25.678125,-8.4699989,-2.9340938000000003       0.004632
-25.678125,-8.4699989,2.9340938000000003        0.004632
-25.678125,-6.7759989,-5.868187600000001        0.004632
-25.678125,-6.7759989,5.868187600000001 0.004632
-25.678125,-1.6940000000000002,-8.802281400000002       0.004632
-25.678125,1.6940000000000002,-8.802281400000002        0.004632
-25.678125,-1.6940000000000002,8.802281400000002        0.004632
-25.678125,6.7759989,-5.868187600000001 0.004632
-25.678125,1.6940000000000002,8.802281400000002 0.004632
-25.678125,8.4699989,-2.9340938000000003        0.004632
-25.678125,8.4699989,2.9340938000000003 0.004632
-25.678125,6.7759989,5.868187600000001  0.004632
-157.4375,-8.4699989,0.9780309  -2.519484
-157.4375,-5.082000000000001,6.846218500000001  -2.519484
-157.4375,-3.3880000000000003,-7.824250500000001        -2.519484
-157.4375,3.3880000000000003,-7.824250500000001 -2.519484
-157.4375,8.4699989,0.9780309   -2.519484
-157.4375,5.082000000000001,6.846218500000001   -2.519484
3335.2000000000003,-0.0,-0.0    -8.177907
-127.60000000000001,-3.3880000000000003,-1.9560629      7.550516
-127.60000000000001,0.0,3.9121247000000006      7.550516
-127.60000000000001,3.3880000000000003,-1.9560629       7.550516
-663.85,-3.3880000000000003,1.9560629   -7.554483
-663.85,-0.0,-3.9121247000000006        -7.554483
-663.85,3.3880000000000003,1.9560629    -7.554483
53.79687500000001,-8.4699989,2.9340938000000003 1.892092
53.79687500000001,-8.4699989,-2.9340938000000003        1.892092
53.79687500000001,-6.7759989,-5.868187600000001 1.892092
53.79687500000001,-6.7759989,5.868187600000001  1.892092
53.79687500000001,-1.6940000000000002,-8.802281400000002        1.892092
53.79687500000001,1.6940000000000002,-8.802281400000002 1.892092
53.79687500000001,-1.6940000000000002,8.802281400000002 1.892092
53.79687500000001,6.7759989,-5.868187600000001  1.892092
53.79687500000001,1.6940000000000002,8.802281400000002  1.892092
53.79687500000001,8.4699989,-2.9340938000000003 1.892092
53.79687500000001,8.4699989,2.9340938000000003  1.892092
53.79687500000001,6.7759989,5.868187600000001   1.892092
-555.5,-6.7759989,-3.9121247000000006   4.409069
-555.5,6.7759989,-3.9121247000000006    4.409069
-555.5,0.0,7.824250500000001    4.409069
28.402343750000004,-6.7759989,1.9560629 -5.660931
28.402343750000004,-1.6940000000000002,-6.846218500000001       -5.660931
28.402343750000004,-5.082000000000001,4.8901567 -5.660931
28.402343750000004,1.6940000000000002,-6.846218500000001        -5.660931
28.402343750000004,5.082000000000001,4.8901567  -5.660931
28.402343750000004,6.7759989,1.9560629  -5.660931
-64.00625000000001,-6.7759989,-5.868187600000001        -3.142907
-64.00625000000001,-8.4699989,2.9340938000000003        -3.142907
-64.00625000000001,-8.4699989,-2.9340938000000003       -3.142907
-64.00625000000001,-6.7759989,5.868187600000001 -3.142907
-64.00625000000001,-1.6940000000000002,-8.802281400000002       -3.142907
-64.00625000000001,1.6940000000000002,-8.802281400000002        -3.142907
-64.00625000000001,-1.6940000000000002,8.802281400000002        -3.142907
-64.00625000000001,8.4699989,-2.9340938000000003        -3.142907
-64.00625000000001,6.7759989,-5.868187600000001 -3.142907
-64.00625000000001,1.6940000000000002,8.802281400000002 -3.142907
-64.00625000000001,8.4699989,2.9340938000000003 -3.142907
-64.00625000000001,6.7759989,5.868187600000001  -3.142907
71.946875,-5.082000000000001,-2.9340938000000003        6.927092
71.946875,-5.082000000000001,2.9340938000000003 6.927092
71.946875,5.082000000000001,-2.9340938000000003 6.927092
71.946875,5.082000000000001,2.9340938000000003  6.927092
71.946875,-0.0,-5.868187600000001       6.927092
71.946875,0.0,5.868187600000001 6.927092
-91.575,-3.3880000000000003,-0.0        -8.177907
-91.575,-1.6940000000000002,2.9340938000000003  -8.177907
-91.575,-1.6940000000000002,-2.9340938000000003 -8.177907
-91.575,1.6940000000000002,-2.9340938000000003  -8.177907
-91.575,3.3880000000000003,-0.0 -8.177907
-91.575,1.6940000000000002,2.9340938000000003   -8.177907
-99.996875,-3.3880000000000003,3.9121247000000006       7.550516
-99.996875,3.3880000000000003,3.9121247000000006        7.550516
-99.996875,-5.082000000000001,0.9780309 7.550516
-99.996875,5.082000000000001,0.9780309  7.550516
-99.996875,-1.6940000000000002,-4.8901567       7.550516
-99.996875,1.6940000000000002,-4.8901567        7.550516
-50.25625,-3.3880000000000003,-3.9121247000000006       -7.554483
-50.25625,3.3880000000000003,-3.9121247000000006        -7.554483
-50.25625,-5.082000000000001,-0.9780309 -7.554483
-50.25625,5.082000000000001,-0.9780309  -7.554483
-50.25625,-1.6940000000000002,4.8901567 -7.554483
-50.25625,1.6940000000000002,4.8901567  -7.554483
-550.2750000000001,0.0,9.7803123        -0.625931
-550.2750000000001,-8.4699989,-4.8901567        -0.625931
-550.2750000000001,8.4699989,-4.8901567 -0.625931
-296.725,-8.4699989,-0.9780309  4.409069
-296.725,-5.082000000000001,-6.846218500000001  4.409069
-296.725,-3.3880000000000003,7.824250500000001  4.409069
-296.725,5.082000000000001,-6.846218500000001   4.409069
-296.725,8.4699989,-0.9780309   4.409069
-296.725,3.3880000000000003,7.824250500000001   4.409069
341.4125,-6.7759989,-3.9121247000000006 -5.660931
341.4125,6.7759989,-3.9121247000000006  -5.660931
341.4125,0.0,7.824250500000001  -5.660931
645.7,-0.0,-9.7803123   2.515516
645.7,-8.4699989,4.8901567      2.515516
645.7,8.4699989,4.8901567       2.515516
-103.2625,-10.1639989,-0.0      0.004632
-103.2625,5.082000000000001,-8.802281400000002  0.004632
-103.2625,-5.082000000000001,8.802281400000002  0.004632
-103.2625,10.1639989,-0.0       0.004632
-103.2625,-5.082000000000001,-8.802281400000002 0.004632
-103.2625,5.082000000000001,8.802281400000002   0.004632
-424.32500000000005,0.0,9.7803123       -2.519484
-424.32500000000005,-8.4699989,-4.8901567       -2.519484
-424.32500000000005,8.4699989,-4.8901567        -2.519484
250.8,-6.7759989,0.0    6.927092
250.8,-3.3880000000000003,-5.868187600000001    6.927092
250.8,-3.3880000000000003,5.868187600000001     6.927092
250.8,3.3880000000000003,-5.868187600000001     6.927092
250.8,6.7759989,0.0     6.927092
250.8,3.3880000000000003,5.868187600000001      6.927092
233.06250000000003,-10.1639989,-1.9560629       -0.625931
233.06250000000003,-3.3880000000000003,9.7803123        -0.625931
233.06250000000003,-6.7759989,-7.824250500000001        -0.625931
233.06250000000003,6.7759989,-7.824250500000001 -0.625931
233.06250000000003,3.3880000000000003,9.7803123 -0.625931
233.06250000000003,10.1639989,-1.9560629        -0.625931
123.13125000000001,-10.1639989,0.0      1.892092
123.13125000000001,-5.082000000000001,-8.802281400000002        1.892092
123.13125000000001,-5.082000000000001,8.802281400000002 1.892092
123.13125000000001,5.082000000000001,-8.802281400000002 1.892092
123.13125000000001,10.1639989,0.0       1.892092
123.13125000000001,5.082000000000001,8.802281400000002  1.892092
-4.7523437500000005,-8.4699989,2.9340938000000003       -5.030367
-4.7523437500000005,-8.4699989,-2.9340938000000003      -5.030367
-4.7523437500000005,-6.7759989,-5.868187600000001       -5.030367
-4.7523437500000005,-6.7759989,5.868187600000001        -5.030367
-4.7523437500000005,-8.4699989,2.9340938000000003       5.039632
-4.7523437500000005,1.6940000000000002,-8.802281400000002       -5.030367
-4.7523437500000005,-1.6940000000000002,-8.802281400000002      -5.030367
-4.7523437500000005,-8.4699989,-2.9340938000000003      5.039632
-4.7523437500000005,-6.7759989,-5.868187600000001       5.039632
-4.7523437500000005,-1.6940000000000002,8.802281400000002       -5.030367
-4.7523437500000005,1.6940000000000002,-8.802281400000002       5.039632
-4.7523437500000005,-6.7759989,5.868187600000001        5.039632
-4.7523437500000005,-1.6940000000000002,-8.802281400000002      5.039632
-4.7523437500000005,6.7759989,-5.868187600000001        -5.030367
-4.7523437500000005,1.6940000000000002,8.802281400000002        -5.030367
-4.7523437500000005,8.4699989,-2.9340938000000003       -5.030367
-4.7523437500000005,8.4699989,2.9340938000000003        -5.030367
-4.7523437500000005,6.7759989,5.868187600000001 -5.030367
-4.7523437500000005,-1.6940000000000002,8.802281400000002       5.039632
-4.7523437500000005,6.7759989,-5.868187600000001        5.039632
-4.7523437500000005,8.4699989,-2.9340938000000003       5.039632
-4.7523437500000005,1.6940000000000002,8.802281400000002        5.039632
-4.7523437500000005,8.4699989,2.9340938000000003        5.039632
-4.7523437500000005,6.7759989,5.868187600000001 5.039632
-0.7562500000000001,-8.4699989,-0.9780309       -5.660931
-0.7562500000000001,-5.082000000000001,-6.846218500000001       -5.660931
-0.7562500000000001,-3.3880000000000003,7.824250500000001       -5.660931
-0.7562500000000001,5.082000000000001,-6.846218500000001        -5.660931
-0.7562500000000001,3.3880000000000003,7.824250500000001        -5.660931
-0.7562500000000001,8.4699989,-0.9780309        -5.660931
127.60000000000001,-1.6940000000000002,0.9780309        9.444068
127.60000000000001,0.0,-1.9560629       9.444068
127.60000000000001,1.6940000000000002,0.9780309 9.444068
56.44375,-10.1639989,1.9560629  2.515516
56.44375,-3.3880000000000003,-9.7803123 2.515516
56.44375,3.3880000000000003,-9.7803123  2.515516
56.44375,-6.7759989,7.824250500000001   2.515516
56.44375,10.1639989,1.9560629   2.515516
56.44375,6.7759989,7.824250500000001    2.515516
172.5625,-10.1639989,-1.9560629 -2.519484
172.5625,-3.3880000000000003,9.7803123  -2.519484
172.5625,-6.7759989,-7.824250500000001  -2.519484
172.5625,6.7759989,-7.824250500000001   -2.519484
172.5625,10.1639989,-1.9560629  -2.519484
172.5625,3.3880000000000003,9.7803123   -2.519484
241.5875,-10.1639989,-0.0       -3.142907
241.5875,-5.082000000000001,-8.802281400000002  -3.142907
241.5875,-5.082000000000001,8.802281400000002   -3.142907
241.5875,5.082000000000001,-8.802281400000002   -3.142907
241.5875,10.1639989,-0.0        -3.142907
241.5875,5.082000000000001,8.802281400000002    -3.142907
9.510058591,-5.082000000000001,-2.9340938000000003      -8.177907
9.510058591,-5.082000000000001,2.9340938000000003       -8.177907
9.510058591,5.082000000000001,2.9340938000000003        -8.177907
9.510058591,5.082000000000001,-2.9340938000000003       -8.177907
9.510058591,-0.0,-5.868187600000001     -8.177907
9.510058591,0.0,5.868187600000001       -8.177907
277.0625,-5.082000000000001,-4.8901567  7.550516
277.0625,-6.7759989,-1.9560629  7.550516
277.0625,-1.6940000000000002,6.846218500000001  7.550516
277.0625,5.082000000000001,-4.8901567   7.550516
277.0625,1.6940000000000002,6.846218500000001   7.550516
277.0625,6.7759989,-1.9560629   7.550516
-382.8,-5.082000000000001,4.8901567     -7.554483
-382.8,-6.7759989,1.9560629     -7.554483
-382.8,-1.6940000000000002,-6.846218500000001   -7.554483
-382.8,1.6940000000000002,-6.846218500000001    -7.554483
-382.8,6.7759989,1.9560629      -7.554483
-382.8,5.082000000000001,4.8901567      -7.554483
78.3921875,-8.4699989,6.846218500000001 -0.625931
78.3921875,-10.1639989,3.9121247000000006       -0.625931
78.3921875,-1.6940000000000002,-10.758344300000001      -0.625931
78.3921875,1.6940000000000002,-10.758344300000001       -0.625931
78.3921875,10.1639989,3.9121247000000006        -0.625931
78.3921875,8.4699989,6.846218500000001  -0.625931
-532.125,-0.0,-9.7803123        4.409069
-532.125,-8.4699989,4.8901567   4.409069
-532.125,8.4699989,4.8901567    4.409069

End of input

&SCF
Occupied
9
Iterations
   50  100
End of Input

&RASSCF
LumOrb
Symmetry
1
Spin
2
Nactel
1 0 0
CIRoot
9 9 1
inactive
9
ras2
9
End of Input

>>> COPY molybdenum_so_cf.JobIph $SLURM_SUBMIT_DIR/molybdenum_so_cf.doublet.JobIph

>>> COPY $SLURM_SUBMIT_DIR/molybdenum_so_cf.doublet.JobIph ./JOB002

&RASSI
NROFJobIph
1 All
SpinOrbit
End of Input

EOF

-- ----------------------------------

--- Start Module: seward at Wed Mar 26 12:27:13 2025 ---

()()()()()()()()()()()()()()()()()()()()()()()()()()()()()()()()()()()()()()()()()()()()()()()()()()

                                              &SEWARD

                                   only a single process is used
                       available to each process: 4.1 GB of memory, 1 thread?
                                            pid: 2749235
()()()()()()()()()()()()()()()()()()()()()()()()()()()()()()()()()()()()()()()()()()()()()()()()()()

 The speed of LIGHT in this CALCULATION =   137.03599917700001     
               SEWARD will generate:
                  Multipole Moment integrals up to order  2
                  Kinetic Energy integrals
                  Nuclear Attraction integrals (point charge)
                  One-Electron Hamiltonian integrals
                  Velocity integrals
                  Relativistic Douglas-Kroll-Hess integrals:
                    - Parametrization         : EXP
                    - DKH order of Hamiltonian: 2
                    - DKH order of Properties : 0
                         - multipole moment operators
                         - electric potential operators
                         - contact operators
                  External field from   414 point(s) added to the one-electron Hamiltonian
                  Orbital angular momentum around (-0.0000 -0.0000  0.0088 )
                  Velocity quadrupole around (-0.0000 -0.0000  0.0088 )
                  Atomic mean-field integrals
                  Two-Electron Repulsion integrals

                   Integrals are discarded if absolute value <: 0.10E-13
                   Integral cutoff threshold is set to       <: 0.10E-15

++    Symmetry information:
      ---------------------

                    Character Table for C1 

                             E  
                    a        1  x, y, xy, Rz, z, xz, Ry, yz, Rx, I
--


++    Basis set information:
      ----------------------


      Basis set label: MO.ANO-RCC.ROOS.21S18P13D6F4G2H.10S9P9D6F4G2H......

      Electronic valence basis set:
      ------------------
      Associated Effective Charge  42.000000 au
      Associated Actual Charge     42.000000 au
      Nuclear Model: Point charge

      Shell  nPrim  nBasis  Cartesian Spherical Contaminant
         s      21      10        X                  
         p      18       9        X                  
         d      13       9                 X         
         f       6       6                 X         
         g       4       4                 X         
         h       2       2                 X         
--


++    Molecular structure info:
      -------------------------

                    ************************************************ 
                    **** Cartesian Coordinates / Bohr, Angstrom **** 
                    ************************************************ 

     Center  Label                x              y              z                     x              y              z
        1      MO              -0.000000      -0.000000       0.008754             -0.000000      -0.000000       0.004632
--


++    Operator info:
      --------------


  Net charge from external field:   -39.268449999999902     
--


            Nuclear Potential Energy              0.00000000 au

                    Nuclear-External Field Potential Energy    -349.32421977 au
                    External Field Potential Energy            1459.66991035 au 


            Total Nuclear Potential Energy           -349.32421977 au


      Basis set specifications :
      Symmetry species         a  
      Basis functions          182

 Sorry, Molden does not know how to handle
 functions with angular momentum larger than g
Note: The following floating-point exceptions are signalling: IEEE_UNDERFLOW_FLAG IEEE_DENORMAL
--- Stop Module: seward at Wed Mar 26 12:27:23 2025 /rc=_RC_ALL_IS_WELL_ ---
*** files: molybdenum_so_cf.GssOrb xmldump
    saved to directory /home4/s4752295/Internship/Initial_simulations/Point_charge_model/1_electron/Madelung_charges_9_active_space/Mo
--- Module seward spent 10 seconds ---

*** symbolic link created: INPORB -> molybdenum_so_cf.GssOrb
--- Start Module: scf at Wed Mar 26 12:27:23 2025 ---

()()()()()()()()()()()()()()()()()()()()()()()()()()()()()()()()()()()()()()()()()()()()()()()()()()

                                                &SCF

                                   only a single process is used
                       available to each process: 4.1 GB of memory, 1 thread?
                                            pid: 2749250
()()()()()()()()()()()()()()()()()()()()()()()()()()()()()()()()()()()()()()()()()()()()()()()()()()

++    Input section:
      --------------

      Header of the integral files:
      
       Integrals generated by seward 4.2.0  , Wed Mar 26 12:27:13 2025


      Cartesian coordinates in Angstrom:
      -----------------------------------------------------
      No.  Label        X            Y            Z        
      -----------------------------------------------------
       1   MO        -0.00000000  -0.00000000   0.00463220
      -----------------------------------------------------
      Nuclear repulsion energy = -349.32421977
--

++    Orbital specifications:
      -----------------------

      Symmetry species               1
                                     a
      Frozen orbitals                0
      Occupied orbitals              9
      Secondary orbitals           173
      Deleted orbitals               0
      Total number of orbitals     182
      Number of basis functions    182
--

      Molecular charge                          24.000

++    Optimization specifications:
      ----------------------------

      SCF Algorithm: Conventional
      Minimized density differences are used
      Number of density matrices in core                5
      Maximum number of NDDO SCF iterations            50
      Maximum number of HF SCF iterations             100
      Threshold for SCF energy change            0.10E-08
      Threshold for density matrix               0.10E-03
      Threshold for Fock matrix                  0.15E-03
      Threshold for linear dependence            0.10E-08
      Threshold at which DIIS is turned on       0.15E+00
      Threshold at which QNR/C2DIIS is turned on 0.75E-01
      Threshold for Norm(delta) (QNR/C2DIIS)     0.20E-04
      DIIS extrapolation of the SCF procedure
      All orbitals punched on: SCFORB
--

      Detected guessorb starting orbitals                                             


++ Convergence information
                                   SCF        iterations: Energy and convergence statistics

Iter     Tot. SCF        One-elec.       Two-elec.     Energy      Max Dij or  Max Fij      DNorm      TNorm      AccCon     Time
         Energy          Energy          Energy        Change      Delta Norm                                                in Sec.

 The total and one-electron energies are shifted by a value of      3000. a.u.

   1  -877.268454132 -1149.054522470   621.110288109   0.00E+00    0.33E+00*   0.30E+01*    0.60E+01   0.35E+03   None         1.
   2  -883.262991662 -1191.554069685   657.615297795  -0.60E+01*   0.92E-02*   0.27E+00*    0.14E+01   0.36E+03   EDIIS        1.
   3  -883.281616937 -1189.723192184   655.765795019  -0.19E-01*   0.97E-03*   0.13E-01*    0.46E-01   0.36E+03   EDIIS        1.
   4  -883.281689744 -1189.845494406   655.888024434  -0.73E-04*   0.80E-04    0.85E-03*    0.24E-02   0.36E+03   c2DIIS       1.
   5  -883.281690255 -1189.838969348   655.881498865  -0.51E-06*   0.11E-04    0.80E-04     0.12E-03   0.36E+03   QNRc2DIIS    1.
   6  -883.281690258 -1189.838961043   655.881490557  -0.25E-08*   0.16E-05    0.13E-04     0.83E-05   0.36E+03   QNRc2DIIS    1.
   7  -883.281690258 -1189.838962523   655.881492037  -0.61E-10    0.34E-06    0.12E-05     0.24E-03   0.36E+03   QNRc2DIIS    1.

       Convergence after  7 Macro Iterations
--

 *****************************************************************************************************************************
 *                                                                                                                           *
 *                                             SCF/KS-DFT Program, Final results                                             *
 *                                                                                                                           *
 *                                                                                                                           *
 *                                                                                                                           *
 *                                                       Final Results                                                       *
 *                                                                                                                           *
 *****************************************************************************************************************************

::    Total SCF energy                              -3883.2816902577
      One-electron energy                           -4189.8389625234
      Two-electron energy                             655.8814920374
      Nuclear repulsion energy                       -349.3242197716
      Kinetic energy (interpolated)                  4119.5010450154
      Virial theorem                                    0.9426582608
      Total spin, S(S+1)                                0.0000000000
      Total spin, S                                     0.0000000000
      Max non-diagonal density matrix element           0.0000004962
      Max non-diagonal Fock matrix element              0.0000006038


      All orbitals with orbital energies smaller than  E(LUMO)+0.5 are printed

++    Molecular orbitals:
      -------------------

      Title: SCF orbitals

      Molecular orbitals for symmetry species 1: a  

          Orbital            1         2         3         4         5         6         7         8         9        10    
          Energy         -768.8325 -136.6423 -125.2576 -125.2576 -125.2569  -42.4546  -38.4495  -38.4495  -38.4376  -31.2835
          Occ. No.          2.0000    2.0000    2.0000    2.0000    2.0000    2.0000    2.0000    2.0000    2.0000    0.0000

        1 MO     1s         1.0000   -0.0001    0.0000   -0.0000   -0.0000    0.0001   -0.0000    0.0000    0.0000    0.0000
        2 MO     2s         0.0001    0.9999    0.0000   -0.0000   -0.0020    0.0129    0.0000   -0.0000   -0.0007    0.0000
        3 MO     3s        -0.0001   -0.0122   -0.0000    0.0000    0.0002    0.9884    0.0000   -0.0000   -0.0332    0.0000
        4 MO     4s         0.0000    0.0030    0.0000   -0.0000   -0.0001   -0.0993   -0.0000    0.0000    0.0053   -0.0000
        5 MO     5s        -0.0000   -0.0007   -0.0000    0.0000    0.0000    0.0214    0.0000   -0.0000   -0.0012    0.0000
        6 MO     6s         0.0000    0.0008    0.0000   -0.0000   -0.0000   -0.0251   -0.0000    0.0000    0.0014   -0.0000
        7 MO     7s        -0.0000   -0.0025   -0.0000    0.0000    0.0000    0.0692    0.0000   -0.0000   -0.0038    0.0000
        8 MO     8s         0.0000    0.0023    0.0000   -0.0000   -0.0000   -0.0529   -0.0000    0.0000    0.0029   -0.0000
        9 MO     9s        -0.0000   -0.0025   -0.0000    0.0000    0.0000    0.0464    0.0000   -0.0000   -0.0026    0.0000
       10 MO    10s         0.0001    0.0029    0.0000   -0.0000   -0.0000   -0.0316   -0.0000    0.0000    0.0017   -0.0000
       11 MO     2px        0.0000    0.0020   -0.0025    0.0000    0.9999    0.0003   -0.0000    0.0000    0.0145   -0.0000
       12 MO     3px       -0.0000    0.0002    0.0000   -0.0000   -0.0137    0.0340   -0.0020    0.0000    0.9842   -0.0000
       13 MO     4px        0.0000   -0.0000   -0.0000    0.0000    0.0030   -0.0024    0.0002   -0.0000   -0.1073    0.0000
       14 MO     5px       -0.0000    0.0000    0.0000   -0.0000   -0.0010    0.0007   -0.0001    0.0000    0.0343   -0.0000
       15 MO     6px        0.0000   -0.0000   -0.0000    0.0000    0.0026   -0.0016    0.0002   -0.0000   -0.0791    0.0000
       16 MO     7px       -0.0000    0.0000    0.0000   -0.0000   -0.0023    0.0012   -0.0001    0.0000    0.0632   -0.0000
       17 MO     8px        0.0000   -0.0000   -0.0000    0.0000    0.0029   -0.0011    0.0001   -0.0000   -0.0632    0.0000
       18 MO     9px       -0.0000    0.0000    0.0000   -0.0000   -0.0027    0.0007   -0.0001    0.0000    0.0464   -0.0000
       19 MO    10px        0.0000   -0.0000   -0.0000    0.0000    0.0022   -0.0002    0.0000   -0.0000   -0.0212    0.0000
       20 MO     2py        0.0000    0.0000   -0.0000    0.9999   -0.0000    0.0000    0.0000    0.0145    0.0000    0.0000
       21 MO     3py        0.0000   -0.0000    0.0000   -0.0137    0.0000    0.0000    0.0000    0.9849    0.0000    0.0001
       22 MO     4py       -0.0000    0.0000   -0.0000    0.0030   -0.0000   -0.0000   -0.0000   -0.1072   -0.0000   -0.0000
       23 MO     5py        0.0000   -0.0000    0.0000   -0.0010    0.0000    0.0000    0.0000    0.0342    0.0000    0.0000
       24 MO     6py       -0.0000    0.0000   -0.0000    0.0026   -0.0000   -0.0000   -0.0000   -0.0791   -0.0000   -0.0000
       25 MO     7py        0.0000   -0.0000    0.0000   -0.0023    0.0000    0.0000    0.0000    0.0631    0.0000    0.0000
       26 MO     8py       -0.0000    0.0000   -0.0000    0.0029   -0.0000   -0.0000   -0.0000   -0.0631   -0.0000   -0.0000
       27 MO     9py        0.0000   -0.0000    0.0000   -0.0027    0.0000    0.0000    0.0000    0.0464    0.0000    0.0000
       28 MO    10py       -0.0000    0.0000   -0.0000    0.0022   -0.0000   -0.0000   -0.0000   -0.0211   -0.0000   -0.0000
       29 MO     2pz        0.0000    0.0000    0.9999    0.0000    0.0025    0.0000    0.0145   -0.0000    0.0000   -0.0000
       30 MO     3pz       -0.0000    0.0000   -0.0137   -0.0000   -0.0000    0.0000    0.9849   -0.0000    0.0020   -0.0000
       31 MO     4pz        0.0000   -0.0000    0.0030    0.0000    0.0000   -0.0000   -0.1072    0.0000   -0.0002    0.0000
       32 MO     5pz       -0.0000    0.0000   -0.0010   -0.0000   -0.0000    0.0000    0.0342   -0.0000    0.0001   -0.0000
       33 MO     6pz        0.0000   -0.0000    0.0026    0.0000    0.0000   -0.0000   -0.0791    0.0000   -0.0002    0.0000
       34 MO     7pz       -0.0000    0.0000   -0.0023   -0.0000   -0.0000    0.0000    0.0631   -0.0000    0.0001   -0.0000
       35 MO     8pz        0.0000   -0.0000    0.0029    0.0000    0.0000   -0.0000   -0.0631    0.0000   -0.0001    0.0000
       36 MO     9pz       -0.0000    0.0000   -0.0027   -0.0000   -0.0000    0.0000    0.0464   -0.0000    0.0001   -0.0000
       37 MO    10pz        0.0000   -0.0000    0.0022    0.0000    0.0000   -0.0000   -0.0211    0.0000   -0.0000    0.0000
       38 MO     3d2-       0.0000    0.0000   -0.0000    0.0001   -0.0000    0.0000    0.0000    0.0171    0.0000   -0.0065
       39 MO     4d2-       0.0000   -0.0000    0.0000   -0.0000    0.0000   -0.0000   -0.0000   -0.0010   -0.0000    0.0007
       40 MO     5d2-      -0.0000    0.0000   -0.0000    0.0000   -0.0000    0.0000    0.0000    0.0009    0.0000   -0.0007
       41 MO     6d2-       0.0000   -0.0000    0.0000   -0.0000    0.0000   -0.0000   -0.0000   -0.0007   -0.0000    0.0006
       42 MO     7d2-      -0.0000    0.0000   -0.0000    0.0000   -0.0000    0.0000    0.0000    0.0005    0.0000   -0.0005
       43 MO     8d2-       0.0000   -0.0000    0.0000   -0.0000    0.0000   -0.0000   -0.0000   -0.0003   -0.0000    0.0005
       44 MO     9d2-      -0.0000    0.0000   -0.0000    0.0000   -0.0000   -0.0000    0.0000    0.0001    0.0000   -0.0004
       45 MO    10d2-       0.0000   -0.0000    0.0000   -0.0000    0.0000   -0.0000    0.0000    0.0000    0.0000    0.0004
       46 MO    11d2-      -0.0000    0.0000   -0.0000    0.0000   -0.0000    0.0000   -0.0000   -0.0000   -0.0000   -0.0001
       47 MO     3d1-       0.0000   -0.0000   -0.0000    0.0000   -0.0000   -0.0000    0.0000    0.0000   -0.0000    0.9757
       48 MO     4d1-      -0.0000    0.0000    0.0000   -0.0000    0.0000    0.0000   -0.0000   -0.0000    0.0000   -0.0981
       49 MO     5d1-       0.0000   -0.0000   -0.0000    0.0000   -0.0000   -0.0000    0.0000    0.0000   -0.0000    0.1046
       50 MO     6d1-      -0.0000    0.0000    0.0000   -0.0000    0.0000    0.0000   -0.0000   -0.0000    0.0000   -0.0888
       51 MO     7d1-       0.0000   -0.0000   -0.0000    0.0000   -0.0000   -0.0000    0.0000    0.0000   -0.0000    0.0774
       52 MO     8d1-      -0.0000    0.0000    0.0000   -0.0000    0.0000   -0.0000    0.0000    0.0000    0.0000   -0.0793
       53 MO     9d1-       0.0000   -0.0000   -0.0000    0.0000   -0.0000    0.0000    0.0000    0.0000   -0.0000    0.0604
       54 MO    10d1-      -0.0000    0.0000    0.0000   -0.0000    0.0000   -0.0000   -0.0000   -0.0000    0.0000   -0.0591
       55 MO    11d1-       0.0000   -0.0000   -0.0000    0.0000    0.0000    0.0000   -0.0000   -0.0000    0.0000    0.0088
       56 MO     3d0        0.0000    0.0000    0.0000    0.0000   -0.0001    0.0001    0.0000   -0.0000   -0.0100   -0.0000
       57 MO     4d0       -0.0000   -0.0000   -0.0000   -0.0000    0.0000   -0.0000   -0.0000    0.0000    0.0006    0.0000
       58 MO     5d0        0.0000    0.0000    0.0000    0.0000   -0.0000   -0.0000    0.0000   -0.0000   -0.0005   -0.0000
       59 MO     6d0       -0.0000   -0.0000   -0.0000   -0.0000    0.0000    0.0000   -0.0000    0.0000    0.0004    0.0000
       60 MO     7d0        0.0000    0.0000    0.0000    0.0000   -0.0000   -0.0000    0.0000   -0.0000   -0.0003   -0.0000
       61 MO     8d0       -0.0000   -0.0000   -0.0000   -0.0000    0.0000    0.0000   -0.0000    0.0000    0.0002    0.0000
       62 MO     9d0        0.0000    0.0000    0.0000    0.0000   -0.0000   -0.0000    0.0000   -0.0000   -0.0001   -0.0000
       63 MO    10d0       -0.0000   -0.0000   -0.0000   -0.0000    0.0000    0.0000    0.0000   -0.0000   -0.0000    0.0000
       64 MO    11d0        0.0000    0.0000    0.0000    0.0000   -0.0000   -0.0000   -0.0000    0.0000    0.0000   -0.0000
       65 MO     3d1+      -0.0000   -0.0000    0.0001    0.0000    0.0000   -0.0000    0.0171   -0.0000    0.0000    0.0000
       66 MO     4d1+       0.0000    0.0000   -0.0000   -0.0000   -0.0000    0.0000   -0.0010    0.0000   -0.0000   -0.0000
       67 MO     5d1+      -0.0000   -0.0000    0.0000    0.0000    0.0000    0.0000    0.0009   -0.0000    0.0000    0.0000
       68 MO     6d1+       0.0000    0.0000   -0.0000   -0.0000   -0.0000   -0.0000   -0.0007    0.0000   -0.0000   -0.0000
       69 MO     7d1+      -0.0000   -0.0000    0.0000    0.0000    0.0000    0.0000    0.0005   -0.0000    0.0000    0.0000
       70 MO     8d1+       0.0000    0.0000   -0.0000   -0.0000   -0.0000   -0.0000   -0.0003    0.0000   -0.0000   -0.0000
       71 MO     9d1+      -0.0000   -0.0000    0.0000    0.0000    0.0000    0.0000    0.0001   -0.0000    0.0000    0.0000
       72 MO    10d1+       0.0000    0.0000   -0.0000   -0.0000   -0.0000   -0.0000    0.0000   -0.0000    0.0000   -0.0000
       73 MO    11d1+      -0.0000   -0.0000    0.0000    0.0000    0.0000    0.0000   -0.0000    0.0000   -0.0000    0.0000
       74 MO     3d2+      -0.0000   -0.0000   -0.0000    0.0000    0.0001   -0.0002   -0.0000    0.0000    0.0174   -0.0000
       75 MO     4d2+       0.0000    0.0000    0.0000   -0.0000   -0.0000    0.0000    0.0000   -0.0000   -0.0010    0.0000
       76 MO     5d2+      -0.0000   -0.0000   -0.0000    0.0000    0.0000    0.0000   -0.0000    0.0000    0.0009   -0.0000
       77 MO     6d2+       0.0000    0.0000    0.0000   -0.0000   -0.0000   -0.0000    0.0000   -0.0000   -0.0007    0.0000
       78 MO     7d2+      -0.0000   -0.0000   -0.0000    0.0000    0.0000    0.0000   -0.0000    0.0000    0.0005   -0.0000
       79 MO     8d2+       0.0000    0.0000    0.0000   -0.0000   -0.0000   -0.0000    0.0000   -0.0000   -0.0003    0.0000
       80 MO     9d2+      -0.0000   -0.0000   -0.0000    0.0000    0.0000    0.0000   -0.0000    0.0000    0.0001   -0.0000
       81 MO    10d2+       0.0000    0.0000    0.0000   -0.0000   -0.0000   -0.0000   -0.0000   -0.0000    0.0000    0.0000
       82 MO    11d2+      -0.0000   -0.0000   -0.0000    0.0000    0.0000    0.0000    0.0000   -0.0000   -0.0000   -0.0000
       83 MO     4f3-      -0.0000   -0.0000    0.0000   -0.0000    0.0000    0.0000   -0.0000   -0.0000   -0.0000   -0.0000
       84 MO     5f3-      -0.0000   -0.0000    0.0000   -0.0000    0.0000    0.0000   -0.0000   -0.0000   -0.0000   -0.0000
       85 MO     6f3-       0.0000    0.0000   -0.0000    0.0000   -0.0000   -0.0000    0.0000    0.0000    0.0000    0.0000
       86 MO     7f3-      -0.0000   -0.0000    0.0000   -0.0000    0.0000    0.0000   -0.0000   -0.0000   -0.0000   -0.0000
       87 MO     8f3-       0.0000   -0.0000    0.0000   -0.0000    0.0000    0.0000   -0.0000   -0.0000   -0.0000   -0.0000
       88 MO     9f3-      -0.0000    0.0000   -0.0000    0.0000   -0.0000   -0.0000    0.0000    0.0001    0.0000    0.0000
       89 MO     4f2-       0.0000   -0.0000    0.0000   -0.0000    0.0000   -0.0000   -0.0000   -0.0000   -0.0000    0.0011
       90 MO     5f2-       0.0000   -0.0000    0.0000   -0.0000    0.0000   -0.0000   -0.0000   -0.0000   -0.0000    0.0013
       91 MO     6f2-      -0.0000    0.0000   -0.0000    0.0000   -0.0000    0.0000    0.0000    0.0000   -0.0000   -0.0012
       92 MO     7f2-       0.0000   -0.0000    0.0000   -0.0000    0.0000   -0.0000   -0.0000   -0.0000   -0.0000    0.0011
       93 MO     8f2-       0.0000   -0.0000    0.0000   -0.0000    0.0000   -0.0000   -0.0000   -0.0000   -0.0000    0.0007
       94 MO     9f2-       0.0000    0.0000   -0.0000    0.0000   -0.0000    0.0000    0.0000    0.0000    0.0000   -0.0027
       95 MO     4f1-       0.0000    0.0000   -0.0000    0.0000   -0.0000    0.0000    0.0000    0.0000    0.0000    0.0000
       96 MO     5f1-       0.0000    0.0000   -0.0000    0.0000   -0.0000    0.0000    0.0000    0.0000    0.0000    0.0000
       97 MO     6f1-      -0.0000   -0.0000    0.0000   -0.0000    0.0000   -0.0000   -0.0000   -0.0000   -0.0000   -0.0000
       98 MO     7f1-       0.0000    0.0000   -0.0000    0.0000   -0.0000    0.0000    0.0000    0.0000    0.0000    0.0000
       99 MO     8f1-       0.0000    0.0000   -0.0000    0.0000   -0.0000    0.0000    0.0000    0.0000    0.0000    0.0000
      100 MO     9f1-       0.0000   -0.0000    0.0000   -0.0000    0.0000   -0.0000   -0.0000   -0.0000   -0.0000   -0.0000
      101 MO     4f0        0.0000    0.0000    0.0000    0.0000    0.0000    0.0000    0.0000   -0.0000    0.0000   -0.0000
      102 MO     5f0       -0.0000   -0.0000    0.0000    0.0000    0.0000   -0.0000    0.0000   -0.0000    0.0000   -0.0000
      103 MO     6f0       -0.0000   -0.0000   -0.0000   -0.0000   -0.0000   -0.0000   -0.0000    0.0000   -0.0000    0.0000
      104 MO     7f0       -0.0000   -0.0000    0.0000    0.0000    0.0000   -0.0000    0.0000   -0.0000    0.0000   -0.0000
      105 MO     8f0        0.0000    0.0000    0.0000    0.0000    0.0000    0.0000    0.0000   -0.0000    0.0000   -0.0000
      106 MO     9f0        0.0000    0.0000   -0.0000   -0.0000   -0.0000    0.0000   -0.0000    0.0000   -0.0000    0.0000
      107 MO     4f1+       0.0000   -0.0000    0.0000    0.0000    0.0000   -0.0000    0.0000   -0.0000    0.0000   -0.0000
      108 MO     5f1+       0.0000   -0.0000   -0.0000    0.0000    0.0000   -0.0000    0.0000   -0.0000    0.0000   -0.0000
      109 MO     6f1+       0.0000    0.0000   -0.0000   -0.0000   -0.0000    0.0000   -0.0000    0.0000   -0.0000    0.0000
      110 MO     7f1+       0.0000   -0.0000   -0.0000    0.0000    0.0000   -0.0000    0.0000   -0.0000    0.0000   -0.0000
      111 MO     8f1+       0.0000   -0.0000   -0.0000    0.0000    0.0000   -0.0000    0.0000   -0.0000    0.0000   -0.0000
      112 MO     9f1+      -0.0000    0.0000    0.0000    0.0000   -0.0000    0.0000   -0.0000    0.0000   -0.0001    0.0000
      113 MO     4f2+       0.0000    0.0000   -0.0000   -0.0000   -0.0000    0.0000   -0.0000    0.0000    0.0000    0.0000
      114 MO     5f2+      -0.0000   -0.0000   -0.0000   -0.0000   -0.0000    0.0000   -0.0000    0.0000    0.0000    0.0000
      115 MO     6f2+      -0.0000   -0.0000    0.0000    0.0000   -0.0000   -0.0000    0.0000   -0.0000   -0.0000   -0.0000
      116 MO     7f2+      -0.0000   -0.0000   -0.0000   -0.0000   -0.0000   -0.0000   -0.0000    0.0000    0.0000    0.0000
      117 MO     8f2+       0.0000    0.0000   -0.0000   -0.0000   -0.0000    0.0000   -0.0000    0.0000   -0.0000    0.0000
      118 MO     9f2+       0.0000   -0.0000    0.0000    0.0000    0.0000   -0.0000    0.0001   -0.0000   -0.0000   -0.0000
      119 MO     4f3+      -0.0000    0.0000    0.0000    0.0000   -0.0000    0.0000    0.0000   -0.0000   -0.0000   -0.0000
      120 MO     5f3+      -0.0000    0.0000    0.0000    0.0000   -0.0000    0.0000    0.0000   -0.0000   -0.0000   -0.0000
      121 MO     6f3+      -0.0000   -0.0000   -0.0000   -0.0000    0.0000   -0.0000   -0.0000    0.0000    0.0000    0.0000
      122 MO     7f3+      -0.0000    0.0000    0.0000    0.0000   -0.0000    0.0000    0.0000   -0.0000   -0.0000   -0.0000
      123 MO     8f3+      -0.0000    0.0000    0.0000    0.0000   -0.0000    0.0000    0.0000   -0.0000   -0.0000   -0.0000
      124 MO     9f3+       0.0000   -0.0000   -0.0000   -0.0000    0.0000   -0.0000   -0.0000    0.0000    0.0001    0.0000
      125 MO     5g4-      -0.0000    0.0000   -0.0000    0.0000   -0.0000    0.0000    0.0000    0.0000    0.0000    0.0000
      126 MO     6g4-       0.0000   -0.0000    0.0000   -0.0000    0.0000   -0.0000   -0.0000   -0.0000   -0.0000   -0.0000
      127 MO     7g4-      -0.0000    0.0000   -0.0000    0.0000   -0.0000    0.0000    0.0000    0.0000    0.0000    0.0000
      128 MO     8g4-       0.0000   -0.0000    0.0000   -0.0000    0.0000   -0.0000   -0.0000   -0.0000   -0.0000   -0.0000
      129 MO     5g3-       0.0000    0.0000    0.0000   -0.0000    0.0000    0.0000   -0.0000   -0.0000   -0.0000   -0.0000
      130 MO     6g3-      -0.0000   -0.0000    0.0000   -0.0000    0.0000   -0.0000    0.0000    0.0000    0.0000    0.0000
      131 MO     7g3-       0.0000    0.0000    0.0000   -0.0000    0.0000    0.0000   -0.0000   -0.0000   -0.0000   -0.0000
      132 MO     8g3-      -0.0000   -0.0000   -0.0000    0.0000   -0.0000   -0.0000    0.0000    0.0000    0.0000    0.0000
      133 MO     5g2-      -0.0000   -0.0000    0.0000   -0.0000    0.0000   -0.0000   -0.0000   -0.0000   -0.0000   -0.0000
      134 MO     6g2-       0.0000    0.0000   -0.0000    0.0000   -0.0000    0.0000    0.0000    0.0000   -0.0000    0.0000
      135 MO     7g2-      -0.0000   -0.0000    0.0000   -0.0000    0.0000   -0.0000   -0.0000   -0.0000   -0.0000   -0.0000
      136 MO     8g2-       0.0000    0.0000   -0.0000    0.0000   -0.0000    0.0000    0.0000    0.0000   -0.0000    0.0000
      137 MO     5g1-       0.0000   -0.0000   -0.0000    0.0000   -0.0000    0.0000    0.0000    0.0000   -0.0000    0.0000
      138 MO     6g1-      -0.0000    0.0000   -0.0000    0.0000   -0.0000   -0.0000   -0.0000   -0.0000    0.0000   -0.0000
      139 MO     7g1-       0.0000   -0.0000   -0.0000    0.0000   -0.0000   -0.0000    0.0000    0.0000   -0.0000    0.0000
      140 MO     8g1-      -0.0000    0.0000   -0.0000    0.0000   -0.0000   -0.0000    0.0000    0.0000    0.0000   -0.0000
      141 MO     5g0        0.0000   -0.0000   -0.0000   -0.0000    0.0000   -0.0000   -0.0000    0.0000    0.0000   -0.0000
      142 MO     6g0        0.0000    0.0000    0.0000    0.0000   -0.0000    0.0000    0.0000   -0.0000   -0.0000    0.0000
      143 MO     7g0       -0.0000   -0.0000   -0.0000   -0.0000    0.0000   -0.0000   -0.0000    0.0000    0.0000   -0.0000
      144 MO     8g0       -0.0000   -0.0000    0.0000    0.0000   -0.0000    0.0000    0.0000   -0.0000   -0.0000    0.0000
      145 MO     5g1+       0.0000    0.0000   -0.0000   -0.0000    0.0000    0.0000   -0.0000    0.0000    0.0000   -0.0000
      146 MO     6g1+       0.0000    0.0000    0.0000    0.0000    0.0000   -0.0000    0.0000   -0.0000   -0.0000    0.0000
      147 MO     7g1+       0.0000    0.0000   -0.0000   -0.0000    0.0000    0.0000   -0.0000    0.0000    0.0000   -0.0000
      148 MO     8g1+       0.0000    0.0000    0.0000    0.0000   -0.0000   -0.0000    0.0000   -0.0000   -0.0000    0.0000
      149 MO     5g2+      -0.0000    0.0000    0.0000    0.0000   -0.0000    0.0000    0.0000   -0.0000   -0.0000    0.0000
      150 MO     6g2+      -0.0000   -0.0000    0.0000    0.0000    0.0000   -0.0000   -0.0000    0.0000    0.0000   -0.0000
      151 MO     7g2+       0.0000    0.0000    0.0000    0.0000   -0.0000    0.0000    0.0000   -0.0000   -0.0000    0.0000
      152 MO     8g2+       0.0000    0.0000   -0.0000   -0.0000    0.0000   -0.0000   -0.0000    0.0000    0.0000   -0.0000
      153 MO     5g3+       0.0000    0.0000    0.0000    0.0000    0.0000    0.0000    0.0000   -0.0000    0.0000    0.0000
      154 MO     6g3+       0.0000    0.0000   -0.0000   -0.0000    0.0000   -0.0000   -0.0000    0.0000   -0.0000   -0.0000
      155 MO     7g3+       0.0000    0.0000    0.0000    0.0000    0.0000    0.0000    0.0000   -0.0000    0.0000    0.0000
      156 MO     8g3+       0.0000    0.0000   -0.0000   -0.0000   -0.0000   -0.0000   -0.0000    0.0000   -0.0000   -0.0000
      157 MO     5g4+       0.0000   -0.0000    0.0000    0.0000    0.0000   -0.0000    0.0000   -0.0000    0.0000    0.0000
      158 MO     6g4+       0.0000    0.0000    0.0000    0.0000   -0.0000    0.0000   -0.0000    0.0000   -0.0000   -0.0000
      159 MO     7g4+      -0.0000   -0.0000    0.0000    0.0000    0.0000   -0.0000    0.0000   -0.0000    0.0000    0.0000
      160 MO     8g4+      -0.0000   -0.0000   -0.0000   -0.0000   -0.0000    0.0000   -0.0000    0.0000   -0.0000   -0.0000
      161 MO     6h5-      -0.0000   -0.0000    0.0000   -0.0000   -0.0000   -0.0000   -0.0000   -0.0000    0.0000    0.0000
      162 MO     7h5-       0.0000    0.0000   -0.0000    0.0000    0.0000    0.0000    0.0000    0.0000   -0.0000   -0.0000
      163 MO     6h4-       0.0000   -0.0000   -0.0000    0.0000   -0.0000   -0.0000    0.0000    0.0000    0.0000    0.0000
      164 MO     7h4-      -0.0000    0.0000    0.0000   -0.0000    0.0000    0.0000   -0.0000   -0.0000   -0.0000   -0.0000
      165 MO     6h3-      -0.0000   -0.0000   -0.0000    0.0000   -0.0000   -0.0000    0.0000    0.0000    0.0000   -0.0000
      166 MO     7h3-       0.0000    0.0000    0.0000   -0.0000    0.0000    0.0000   -0.0000   -0.0000   -0.0000    0.0000
      167 MO     6h2-       0.0000    0.0000   -0.0000    0.0000   -0.0000    0.0000    0.0000    0.0000    0.0000   -0.0000
      168 MO     7h2-       0.0000    0.0000    0.0000   -0.0000    0.0000    0.0000   -0.0000   -0.0000   -0.0000    0.0000
      169 MO     6h1-      -0.0000   -0.0000    0.0000   -0.0000   -0.0000   -0.0000   -0.0000   -0.0000    0.0000   -0.0000
      170 MO     7h1-       0.0000    0.0000   -0.0000    0.0000    0.0000    0.0000    0.0000    0.0000   -0.0000    0.0000
      171 MO     6h0        0.0000    0.0000   -0.0000   -0.0000   -0.0000   -0.0000   -0.0000    0.0000   -0.0000    0.0000
      172 MO     7h0        0.0000    0.0000    0.0000    0.0000   -0.0000    0.0000    0.0000   -0.0000    0.0000   -0.0000
      173 MO     6h1+      -0.0000   -0.0000    0.0000    0.0000   -0.0000   -0.0000    0.0000   -0.0000   -0.0000    0.0000
      174 MO     7h1+      -0.0000   -0.0000   -0.0000   -0.0000   -0.0000   -0.0000   -0.0000    0.0000    0.0000   -0.0000
      175 MO     6h2+      -0.0000   -0.0000    0.0000    0.0000    0.0000    0.0000    0.0000   -0.0000    0.0000   -0.0000
      176 MO     7h2+      -0.0000   -0.0000   -0.0000   -0.0000    0.0000   -0.0000   -0.0000    0.0000   -0.0000    0.0000
      177 MO     6h3+       0.0000    0.0000    0.0000    0.0000    0.0000    0.0000    0.0000   -0.0000    0.0000   -0.0000
      178 MO     7h3+       0.0000    0.0000   -0.0000   -0.0000    0.0000    0.0000   -0.0000    0.0000   -0.0000    0.0000
      179 MO     6h4+      -0.0000   -0.0000   -0.0000   -0.0000    0.0000    0.0000   -0.0000    0.0000    0.0000    0.0000
      180 MO     7h4+      -0.0000   -0.0000    0.0000    0.0000    0.0000   -0.0000    0.0000   -0.0000   -0.0000   -0.0000
      181 MO     6h5+      -0.0000   -0.0000    0.0000    0.0000   -0.0000   -0.0000    0.0000   -0.0000   -0.0000   -0.0000
      182 MO     7h5+      -0.0000   -0.0000    0.0000    0.0000   -0.0000   -0.0000    0.0000   -0.0000    0.0000    0.0000

          Orbital           11        12        13        14    
          Energy          -31.2835  -31.2779  -31.2779  -31.2758
          Occ. No.          0.0000    0.0000    0.0000    0.0000

        1 MO     1s        -0.0000    0.0000    0.0000    0.0000
        2 MO     2s         0.0000   -0.0000   -0.0000    0.0000
        3 MO     3s         0.0000   -0.0000   -0.0000    0.0008
        4 MO     4s         0.0000   -0.0000   -0.0000   -0.0003
        5 MO     5s        -0.0000    0.0000    0.0000    0.0001
        6 MO     6s         0.0000   -0.0000   -0.0000   -0.0001
        7 MO     7s         0.0000    0.0000    0.0000    0.0002
        8 MO     8s        -0.0000   -0.0000    0.0000   -0.0001
        9 MO     9s         0.0000   -0.0000   -0.0000    0.0001
       10 MO    10s        -0.0000    0.0000    0.0000   -0.0001
       11 MO     2px       -0.0000    0.0000    0.0000   -0.0005
       12 MO     3px       -0.0000    0.0001    0.0000   -0.0191
       13 MO     4px        0.0000   -0.0000   -0.0000    0.0037
       14 MO     5px       -0.0000    0.0000    0.0000   -0.0012
       15 MO     6px        0.0000   -0.0000   -0.0000    0.0028
       16 MO     7px       -0.0000    0.0000    0.0000   -0.0023
       17 MO     8px        0.0000   -0.0000   -0.0000    0.0022
       18 MO     9px       -0.0000    0.0000    0.0000   -0.0016
       19 MO    10px        0.0000   -0.0000   -0.0000    0.0007
       20 MO     2py        0.0000    0.0000   -0.0004   -0.0000
       21 MO     3py        0.0000    0.0000   -0.0164   -0.0000
       22 MO     4py       -0.0000   -0.0000    0.0032    0.0000
       23 MO     5py        0.0000    0.0000   -0.0010   -0.0000
       24 MO     6py       -0.0000   -0.0000    0.0024    0.0000
       25 MO     7py        0.0000    0.0000   -0.0019   -0.0000
       26 MO     8py       -0.0000   -0.0000    0.0019    0.0000
       27 MO     9py        0.0000    0.0000   -0.0014   -0.0000
       28 MO    10py       -0.0000   -0.0000    0.0006    0.0000
       29 MO     2pz       -0.0000   -0.0004   -0.0000   -0.0000
       30 MO     3pz       -0.0000   -0.0164   -0.0000   -0.0001
       31 MO     4pz        0.0000    0.0032    0.0000    0.0000
       32 MO     5pz       -0.0000   -0.0010   -0.0000   -0.0000
       33 MO     6pz        0.0000    0.0024    0.0000    0.0000
       34 MO     7pz       -0.0000   -0.0019   -0.0000   -0.0000
       35 MO     8pz        0.0000    0.0019    0.0000    0.0000
       36 MO     9pz       -0.0000   -0.0014   -0.0000   -0.0000
       37 MO    10pz        0.0000    0.0006    0.0000    0.0000
       38 MO     3d2-      -0.0000   -0.0000    0.9755    0.0000
       39 MO     4d2-       0.0000    0.0000   -0.0981   -0.0000
       40 MO     5d2-      -0.0000   -0.0000    0.1046    0.0000
       41 MO     6d2-       0.0000    0.0000   -0.0889   -0.0000
       42 MO     7d2-      -0.0000   -0.0000    0.0775    0.0000
       43 MO     8d2-       0.0000    0.0000   -0.0794   -0.0000
       44 MO     9d2-      -0.0000   -0.0000    0.0604    0.0000
       45 MO    10d2-       0.0000    0.0000   -0.0592   -0.0000
       46 MO    11d2-      -0.0000   -0.0000    0.0088    0.0000
       47 MO     3d1-       0.0000   -0.0000    0.0065   -0.0000
       48 MO     4d1-      -0.0000    0.0000   -0.0007    0.0000
       49 MO     5d1-       0.0000   -0.0000    0.0007   -0.0000
       50 MO     6d1-      -0.0000    0.0000   -0.0006    0.0000
       51 MO     7d1-       0.0000   -0.0000    0.0005   -0.0000
       52 MO     8d1-      -0.0000    0.0000   -0.0005    0.0000
       53 MO     9d1-       0.0000   -0.0000    0.0004   -0.0000
       54 MO    10d1-      -0.0000    0.0000   -0.0004    0.0000
       55 MO    11d1-       0.0000   -0.0000    0.0001   -0.0000
       56 MO     3d0        0.8450   -0.0000   -0.0000   -0.4878
       57 MO     4d0       -0.0849    0.0000    0.0000    0.0491
       58 MO     5d0        0.0905   -0.0000   -0.0000   -0.0523
       59 MO     6d0       -0.0769    0.0000    0.0000    0.0445
       60 MO     7d0        0.0670   -0.0000   -0.0000   -0.0388
       61 MO     8d0       -0.0687    0.0000    0.0000    0.0397
       62 MO     9d0        0.0523   -0.0000   -0.0000   -0.0302
       63 MO    10d0       -0.0512    0.0000    0.0000    0.0296
       64 MO    11d0        0.0077   -0.0000   -0.0000   -0.0044
       65 MO     3d1+       0.0021    0.9755    0.0000    0.0036
       66 MO     4d1+      -0.0002   -0.0981   -0.0000   -0.0004
       67 MO     5d1+       0.0002    0.1046    0.0000    0.0004
       68 MO     6d1+      -0.0002   -0.0889   -0.0000   -0.0003
       69 MO     7d1+       0.0002    0.0775    0.0000    0.0003
       70 MO     8d1+      -0.0002   -0.0794   -0.0000   -0.0003
       71 MO     9d1+       0.0001    0.0604    0.0000    0.0002
       72 MO    10d1+      -0.0001   -0.0592   -0.0000   -0.0002
       73 MO    11d1+       0.0000    0.0088    0.0000    0.0000
       74 MO     3d2+       0.4879   -0.0042   -0.0000    0.8448
       75 MO     4d2+      -0.0490    0.0004    0.0000   -0.0850
       76 MO     5d2+       0.0523   -0.0005   -0.0000    0.0906
       77 MO     6d2+      -0.0444    0.0004    0.0000   -0.0770
       78 MO     7d2+       0.0387   -0.0003   -0.0000    0.0671
       79 MO     8d2+      -0.0397    0.0003    0.0000   -0.0688
       80 MO     9d2+       0.0302   -0.0003   -0.0000    0.0523
       81 MO    10d2+      -0.0296    0.0003    0.0000   -0.0513
       82 MO    11d2+       0.0044   -0.0000   -0.0000    0.0077
       83 MO     4f3-      -0.0000   -0.0000    0.0013    0.0000
       84 MO     5f3-      -0.0000   -0.0000    0.0016    0.0000
       85 MO     6f3-       0.0000    0.0000   -0.0015   -0.0000
       86 MO     7f3-      -0.0000   -0.0000    0.0014    0.0000
       87 MO     8f3-      -0.0000   -0.0000    0.0008    0.0000
       88 MO     9f3-       0.0000    0.0000   -0.0034   -0.0000
       89 MO     4f2-       0.0000   -0.0000    0.0000   -0.0000
       90 MO     5f2-       0.0000   -0.0000    0.0000   -0.0000
       91 MO     6f2-      -0.0000    0.0000   -0.0000    0.0000
       92 MO     7f2-       0.0000   -0.0000    0.0000   -0.0000
       93 MO     8f2-       0.0000   -0.0000    0.0000   -0.0000
       94 MO     9f2-      -0.0000    0.0000   -0.0000    0.0000
       95 MO     4f1-       0.0000    0.0000   -0.0003   -0.0000
       96 MO     5f1-       0.0000    0.0000   -0.0004   -0.0000
       97 MO     6f1-      -0.0000   -0.0000    0.0004    0.0000
       98 MO     7f1-       0.0000    0.0000   -0.0004   -0.0000
       99 MO     8f1-       0.0000    0.0000   -0.0002   -0.0000
      100 MO     9f1-      -0.0000   -0.0000    0.0009    0.0000
      101 MO     4f0       -0.0000   -0.0008   -0.0000   -0.0000
      102 MO     5f0       -0.0000   -0.0010   -0.0000   -0.0000
      103 MO     6f0        0.0000    0.0010    0.0000    0.0000
      104 MO     7f0       -0.0000   -0.0009   -0.0000   -0.0000
      105 MO     8f0       -0.0000   -0.0005   -0.0000   -0.0000
      106 MO     9f0        0.0000    0.0021    0.0000    0.0000
      107 MO     4f1+       0.0009    0.0000    0.0000   -0.0009
      108 MO     5f1+       0.0010    0.0000    0.0000   -0.0010
      109 MO     6f1+      -0.0010   -0.0000   -0.0000    0.0010
      110 MO     7f1+       0.0009    0.0000    0.0000   -0.0009
      111 MO     8f1+       0.0005    0.0000    0.0000   -0.0006
      112 MO     9f1+      -0.0022   -0.0000   -0.0000    0.0023
      113 MO     4f2+       0.0000    0.0011    0.0000    0.0000
      114 MO     5f2+       0.0000    0.0013    0.0000    0.0000
      115 MO     6f2+      -0.0000   -0.0013   -0.0000   -0.0000
      116 MO     7f2+       0.0000    0.0011    0.0000    0.0000
      117 MO     8f2+       0.0000    0.0007    0.0000    0.0000
      118 MO     9f2+      -0.0000   -0.0027   -0.0000   -0.0000
      119 MO     4f3+       0.0007   -0.0000   -0.0000    0.0012
      120 MO     5f3+       0.0008   -0.0000   -0.0000    0.0014
      121 MO     6f3+      -0.0008    0.0000    0.0000   -0.0013
      122 MO     7f3+       0.0007   -0.0000   -0.0000    0.0012
      123 MO     8f3+       0.0004   -0.0000   -0.0000    0.0007
      124 MO     9f3+      -0.0017    0.0000    0.0000   -0.0029
      125 MO     5g4-       0.0000    0.0000   -0.0000   -0.0000
      126 MO     6g4-      -0.0000   -0.0000    0.0000    0.0000
      127 MO     7g4-       0.0000    0.0000   -0.0000   -0.0000
      128 MO     8g4-      -0.0000   -0.0000    0.0001    0.0000
      129 MO     5g3-      -0.0000    0.0000   -0.0000    0.0000
      130 MO     6g3-       0.0000   -0.0000    0.0000   -0.0000
      131 MO     7g3-      -0.0000    0.0000   -0.0000    0.0000
      132 MO     8g3-       0.0000   -0.0000    0.0000   -0.0000
      133 MO     5g2-      -0.0000   -0.0000    0.0000   -0.0000
      134 MO     6g2-       0.0000    0.0000   -0.0000   -0.0000
      135 MO     7g2-      -0.0000   -0.0000    0.0000    0.0000
      136 MO     8g2-       0.0000    0.0000   -0.0000   -0.0000
      137 MO     5g1-       0.0000   -0.0000    0.0000   -0.0000
      138 MO     6g1-      -0.0000    0.0000   -0.0000    0.0000
      139 MO     7g1-       0.0000   -0.0000    0.0000   -0.0000
      140 MO     8g1-      -0.0000    0.0000   -0.0000    0.0000
      141 MO     5g0        0.0000    0.0000    0.0000   -0.0000
      142 MO     6g0       -0.0000   -0.0000   -0.0000    0.0000
      143 MO     7g0        0.0000    0.0000    0.0000   -0.0000
      144 MO     8g0       -0.0000   -0.0000   -0.0000    0.0000
      145 MO     5g1+       0.0000    0.0000    0.0000    0.0000
      146 MO     6g1+      -0.0000   -0.0000   -0.0000   -0.0000
      147 MO     7g1+       0.0000    0.0000    0.0000    0.0000
      148 MO     8g1+      -0.0000   -0.0000   -0.0000   -0.0000
      149 MO     5g2+      -0.0000    0.0000    0.0000    0.0000
      150 MO     6g2+       0.0000   -0.0000   -0.0000   -0.0000
      151 MO     7g2+      -0.0000    0.0000    0.0000    0.0000
      152 MO     8g2+       0.0000   -0.0000   -0.0000   -0.0000
      153 MO     5g3+      -0.0000   -0.0000   -0.0000   -0.0000
      154 MO     6g3+       0.0000    0.0000    0.0000    0.0000
      155 MO     7g3+      -0.0000   -0.0000   -0.0000   -0.0000
      156 MO     8g3+       0.0000    0.0000    0.0000    0.0000
      157 MO     5g4+      -0.0000    0.0000    0.0000   -0.0000
      158 MO     6g4+       0.0000   -0.0000   -0.0000    0.0000
      159 MO     7g4+      -0.0000    0.0000    0.0000   -0.0000
      160 MO     8g4+       0.0000   -0.0000   -0.0000    0.0000
      161 MO     6h5-       0.0000   -0.0000    0.0000   -0.0000
      162 MO     7h5-      -0.0000    0.0000   -0.0000    0.0000
      163 MO     6h4-       0.0000    0.0000   -0.0000   -0.0000
      164 MO     7h4-      -0.0000   -0.0000    0.0000    0.0000
      165 MO     6h3-      -0.0000    0.0000   -0.0000   -0.0000
      166 MO     7h3-       0.0000   -0.0000    0.0000    0.0000
      167 MO     6h2-      -0.0000   -0.0000    0.0000    0.0000
      168 MO     7h2-       0.0000    0.0000   -0.0000   -0.0000
      169 MO     6h1-      -0.0000   -0.0000    0.0000   -0.0000
      170 MO     7h1-       0.0000    0.0000   -0.0000    0.0000
      171 MO     6h0       -0.0000    0.0000    0.0000   -0.0000
      172 MO     7h0        0.0000   -0.0000   -0.0000    0.0000
      173 MO     6h1+      -0.0000   -0.0000   -0.0000    0.0000
      174 MO     7h1+       0.0000    0.0000    0.0000   -0.0000
      175 MO     6h2+       0.0000   -0.0000   -0.0000   -0.0000
      176 MO     7h2+      -0.0000    0.0000    0.0000   -0.0000
      177 MO     6h3+       0.0000    0.0000    0.0000   -0.0000
      178 MO     7h3+      -0.0000   -0.0000   -0.0000    0.0000
      179 MO     6h4+      -0.0000    0.0000    0.0000    0.0000
      180 MO     7h4+       0.0000   -0.0000   -0.0000   -0.0000
      181 MO     6h5+       0.0000    0.0000    0.0000    0.0000
      182 MO     7h5+      -0.0000   -0.0000   -0.0000   -0.0000
--


++    Molecular charges:
      ------------------

      Mulliken charges per centre and basis function type
      ---------------------------------------------------

                MO    
      1s       2.0000
      2s       2.0000
      2px      2.0000
      2pz      2.0000
      2py      2.0000
      3s       1.9565
      3px      1.9400
      3pz      1.9404
      3py      1.9404
      4s       0.0198
      3d2+     0.0006
      3d1+     0.0006
      3d0      0.0002
      3d1-     0.0000
      3d2-     0.0006
      4px      0.0230
      4pz      0.0230
      4py      0.0230
      5s       0.0009
      4d2+     0.0000
      4d1+     0.0000
      4d0      0.0000
      4d1-     0.0000
      4d2-     0.0000
      5px      0.0024
      5pz      0.0023
      5py      0.0023
      6s       0.0013
      4f3+     0.0000
      4f2+     0.0000
      4f1+     0.0000
      4f0      0.0000
      4f1-     0.0000
      4f2-     0.0000
      4f3-     0.0000
      5d2+     0.0000
      5d1+     0.0000
      5d0      0.0000
      5d1-     0.0000
      5d2-     0.0000
      6px      0.0125
      6pz      0.0125
      6py      0.0125
      7s       0.0096
      5f3+     0.0000
      5f2+     0.0000
      5f1+     0.0000
      5f0      0.0000
      5f1-     0.0000
      5f2-     0.0000
      5f3-     0.0000
      6d2+     0.0000
      6d1+     0.0000
      6d0      0.0000
      6d1-     0.0000
      6d2-     0.0000
      7px      0.0080
      7pz      0.0080
      7py      0.0080
      5g4+     0.0000
      5g3+     0.0000
      5g2+     0.0000
      5g1+     0.0000
      5g0      0.0000
      5g1-     0.0000
      5g2-     0.0000
      5g3-     0.0000
      5g4-     0.0000
      6f3+     0.0000
      6f2+     0.0000
      6f1+     0.0000
      6f0      0.0000
      6f1-     0.0000
      6f2-     0.0000
      6f3-     0.0000
      6g4+     0.0000
      6g3+     0.0000
      6g2+     0.0000
      6g1+     0.0000
      6g0      0.0000
      6g1-     0.0000
      6g2-     0.0000
      6g3-     0.0000
      6g4-     0.0000
      6h5+     0.0000
      6h4+     0.0000
      6h3+     0.0000
      6h2+     0.0000
      6h1+     0.0000
      6h0      0.0000
      6h1-     0.0000
      6h2-     0.0000
      6h3-     0.0000
      6h4-     0.0000
      6h5-     0.0000
      7d2+     0.0000
      7d1+     0.0000
      7d0      0.0000
      7d1-     0.0000
      7d2-     0.0000
      7f3+     0.0000
      7f2+     0.0000
      7f1+     0.0000
      7f0      0.0000
      7f1-     0.0000
      7f2-     0.0000
      7f3-     0.0000
      7g4+     0.0000
      7g3+     0.0000
      7g2+     0.0000
      7g1+     0.0000
      7g0      0.0000
      7g1-     0.0000
      7g2-     0.0000
      7g3-     0.0000
      7g4-     0.0000
      7h5+     0.0000
      7h4+     0.0000
      7h3+     0.0000
      7h2+     0.0000
      7h1+     0.0000
      7h0      0.0000
      7h1-     0.0000
      7h2-     0.0000
      7h3-     0.0000
      7h4-     0.0000
      7h5-     0.0000
      8s       0.0056
      8px      0.0080
      8pz      0.0080
      8py      0.0080
      8d2+     0.0000
      8d1+     0.0000
      8d0      0.0000
      8d1-     0.0000
      8d2-     0.0000
      8f3+     0.0000
      8f2+     0.0000
      8f1+     0.0000
      8f0      0.0000
      8f1-     0.0000
      8f2-     0.0000
      8f3-     0.0000
      8g4+     0.0000
      8g3+     0.0000
      8g2+     0.0000
      8g1+     0.0000
      8g0      0.0000
      8g1-     0.0000
      8g2-     0.0000
      8g3-     0.0000
      8g4-     0.0000
      9s       0.0043
      9px      0.0043
      9pz      0.0043
      9py      0.0043
      9d2+     0.0000
      9d1+     0.0000
      9d0      0.0000
      9d1-     0.0000
      9d2-     0.0000
      9f3+     0.0000
      9f2+     0.0000
      9f1+     0.0000
      9f0      0.0000
      9f1-     0.0000
      9f2-     0.0000
      9f3-     0.0000
     10s       0.0020
     10px      0.0009
     10pz      0.0009
     10py      0.0009
     10d2+     0.0000
     10d1+     0.0000
     10d0      0.0000
     10d1-     0.0000
     10d2-     0.0000
     11d2+     0.0000
     11d1+     0.0000
     11d0      0.0000
     11d1-     0.0000
     11d2-     0.0000
      Total   18.0000

      N-E     24.0000

      Total electronic charge=   18.000000

      Total            charge=   24.000000
--

 Sorry, Molden does not know how to handle
 functions with angular momentum larger than g

++    Static properties:
      ------------------


      LoProp Charges per center


                   MO    
      Nuclear     42.0000
      Electronic -18.0000

      Total       24.0000
--


++    Molecular properties:
      ---------------------

      Charge (e):
                      =   24.0000
      Dipole Moment (Debye):
      Origin of the operator (Ang)=    0.0000    0.0000    0.0000
                   X= -1.0035E-01               Y= -1.8859E-13               Z=  5.3390E-01           Total=  5.4325E-01
      Center of Charge (Ang)
                     X=   -0.00087049               Y=   -0.00000000               Z=    0.00463148
      Quadrupole Moment (Debye*Ang):
      Origin of the operator (Ang)=   -0.0000   -0.0000    0.0046
                  XX= -6.7786E-01              XY= -3.3847E-17              XZ=  1.3294E-06              YY= -6.7830E-01
                  YZ=  7.9899E-16              ZZ= -6.7830E-01
      In traceless form (Debye*Ang)
                  XX=  4.3920E-04              XY= -5.0771E-17              XZ=  1.9941E-06              YY= -2.1958E-04
                  YZ=  1.1985E-15              ZZ= -2.1962E-04
--

 Sorry, Molden does not know how to handle
 functions with angular momentum larger than g
 ###############################################################################
 ###############################################################################
 ###                                                                         ###
 ###                                                                         ###
 ###    WARNING: RunFile label nBas                                          ###
 ###    was used       62 times                                              ###
 ###                                                                         ###
 ###                                                                         ###
 ###############################################################################
[...]
     9             0.0078247433        0.2129221111           1717.3326         2.1
    10             0.0078247433        0.2129221111           1717.3326         2.1
    11            15.8438547402      431.1332509609        3477324.1785         0.6
    12            15.8438547402      431.1332509609        3477324.1785         0.6
    13            17.2861271161      470.3794816546        3793866.3765         1.2
    14            17.2861271161      470.3794816546        3793866.3765         1.2
    15            17.2861386709      470.3797960767        3793868.9125         1.2
    16            17.2861386709      470.3797960767        3793868.9125         1.2
    17            17.3828317318      473.0109483022        3815090.5864         1.2
    18            17.3828317318      473.0109483022        3815090.5864         1.2


 Weights of the five most important spin-orbit-free states for each spin-orbit state.

 SO State  Total energy (au)           Spin-free states, spin, and weights
 -------------------------------------------------------------------------------------------------------
    1         0.000000       1 0.5  1.0000    9 0.5  0.0000    8 0.5  0.0000    7 0.5  0.0000    6 0.5  0.0000
    2         0.000000       1 0.5  1.0000    9 0.5  0.0000    8 0.5  0.0000    7 0.5  0.0000    6 0.5  0.0000
    3         0.000000       2 0.5  1.0000    9 0.5  0.0000    8 0.5  0.0000    7 0.5  0.0000    6 0.5  0.0000
    4         0.000000       2 0.5  1.0000    9 0.5  0.0000    8 0.5  0.0000    7 0.5  0.0000    6 0.5  0.0000
    5         0.005746       3 0.5  1.0000    9 0.5  0.0000    8 0.5  0.0000    7 0.5  0.0000    6 0.5  0.0000
    6         0.005746       3 0.5  1.0000    9 0.5  0.0000    8 0.5  0.0000    7 0.5  0.0000    6 0.5  0.0000
    7         0.005748       4 0.5  1.0000    9 0.5  0.0000    8 0.5  0.0000    7 0.5  0.0000    6 0.5  0.0000
    8         0.005748       4 0.5  1.0000    9 0.5  0.0000    8 0.5  0.0000    7 0.5  0.0000    6 0.5  0.0000
    9         0.007825       5 0.5  1.0000    9 0.5  0.0000    8 0.5  0.0000    7 0.5  0.0000    6 0.5  0.0000
   10         0.007825       5 0.5  1.0000    9 0.5  0.0000    8 0.5  0.0000    7 0.5  0.0000    6 0.5  0.0000
   11        15.843855       6 0.5  1.0000    9 0.5  0.0000    8 0.5  0.0000    7 0.5  0.0000    5 0.5  0.0000
   12        15.843855       6 0.5  1.0000    9 0.5  0.0000    8 0.5  0.0000    7 0.5  0.0000    5 0.5  0.0000
   13        17.286127       7 0.5  1.0000    9 0.5  0.0000    8 0.5  0.0000    6 0.5  0.0000    5 0.5  0.0000
   14        17.286127       7 0.5  1.0000    9 0.5  0.0000    8 0.5  0.0000    6 0.5  0.0000    5 0.5  0.0000
   15        17.286139       8 0.5  1.0000    9 0.5  0.0000    7 0.5  0.0000    6 0.5  0.0000    5 0.5  0.0000
   16        17.286139       8 0.5  1.0000    9 0.5  0.0000    7 0.5  0.0000    6 0.5  0.0000    5 0.5  0.0000
   17        17.382832       9 0.5  1.0000    8 0.5  0.0000    7 0.5  0.0000    6 0.5  0.0000    5 0.5  0.0000
   18        17.382832       9 0.5  1.0000    8 0.5  0.0000    7 0.5  0.0000    6 0.5  0.0000    5 0.5  0.0000
 -------------------------------------------------------------------------------------------------------


      ****************************************************************************************************
      *                                                                                                  *
      *                                    Special properties section                                    *
      *                                                                                                  *
      ****************************************************************************************************


++ Dipole transition strengths (SO states):
   ----------------------------------------
    for osc. strength at least    1.0000000000000001E-005

      From   To        Osc. strength     Einstein coefficients Ax, Ay, Az (sec-1)    Total A (sec-1)
     -----------------------------------------------------------------------------------------------
         1   13       1.67317574E-02  1.64085653E-06  1.60637278E+11  2.98890802E-01  1.60637278E+11
         1   15       1.67325824E-02  7.85221820E+06  2.98918798E-01  1.60637562E+11  1.60645414E+11
         2   14       1.67317574E-02  1.64085653E-06  1.60637278E+11  2.98890802E-01  1.60637278E+11
         2   16       1.67325824E-02  7.85221820E+06  2.98918798E-01  1.60637562E+11  1.60645414E+11
         3   13       1.67314911E-02  9.68807383E+05  2.98899416E-01  1.60633745E+11  1.60634713E+11
         3   15       1.67327344E-02  1.41582620E-05  1.60646865E+11  2.98899639E-01  1.60646865E+11
         4   14       1.67314911E-02  9.68807383E+05  2.98899416E-01  1.60633745E+11  1.60634713E+11
         4   16       1.67327344E-02  1.41582620E-05  1.60646865E+11  2.98899639E-01  1.60646865E+11
         5   11       6.99014625E-04  7.11356044E+04  1.03411041E-03  5.63373971E+09  5.63381085E+09
         5   13       1.73630296E-02  1.66586978E+11  6.73114880E-07  1.72201187E+05  1.66587150E+11
         5   17       1.56855486E-02  1.39869716E+06  2.79389511E-02  1.52180486E+11  1.52181885E+11
         6   12       6.99014625E-04  7.11356044E+04  1.03411041E-03  5.63373971E+09  5.63381085E+09
         6   14       1.73630296E-02  1.66586978E+11  6.73114880E-07  1.72201187E+05  1.66587150E+11
         6   18       1.56855486E-02  1.39869716E+06  2.79389511E-02  1.52180486E+11  1.52181885E+11
         7   11       6.98858899E-04  1.28223894E-08  5.63255486E+09  1.03432841E-03  5.63255486E+09
         7   15       1.73625820E-02  1.66576845E+11  3.96229306E-07  6.20919729E+06  1.66583055E+11
         7   17       1.56849573E-02  2.44168326E-07  1.52176126E+11  2.79397622E-02  1.52176126E+11
         8   12       6.98858899E-04  1.28223894E-08  5.63255486E+09  1.03432841E-03  5.63255486E+09
         8   16       1.73625820E-02  1.66576845E+11  3.96229306E-07  6.20919729E+06  1.66583055E+11
         8   18       1.56849573E-02  2.44168326E-07  1.52176126E+11  2.79397622E-02  1.52176126E+11
         9   11       9.59876157E-04  7.73417180E+09  4.24900035E-13  6.04529854E+04  7.73423225E+09
         9   13       5.39804631E-03  7.98311516E+05  1.42543752E-05  5.17775413E+10  5.17783397E+10
         9   15       5.39688057E-03  7.50591132E-10  5.17672270E+10  1.42035337E-05  5.17672270E+10
         9   17       2.21552850E-02  2.14898842E+11  6.75745713E-11  1.29485528E+06  2.14900137E+11
        10   12       9.59876157E-04  7.73417180E+09  4.24900035E-13  6.04529854E+04  7.73423225E+09
        10   14       5.39804631E-03  7.98311516E+05  1.42543752E-05  5.17775413E+10  5.17783397E+10
        10   16       5.39688057E-03  7.50591132E-10  5.17672270E+10  1.42035337E-05  5.17672270E+10
        10   18       2.21552850E-02  2.14898842E+11  6.75745713E-11  1.29485528E+06  2.14900137E+11
        11   13       1.83229088E-01  2.13711389E+04  3.36588226E-06  1.22460945E+10  1.22461159E+10
        11   15       1.83228581E-01  2.27609660E-13  1.22462782E+10  3.36600820E-06  1.22462782E+10
        11   17       1.74860201E-01  1.33064990E+10  5.00591623E-12  2.43957615E+04  1.33065234E+10
        12   14       1.83229088E-01  2.13711389E+04  3.36588226E-06  1.22460945E+10  1.22461159E+10
        12   16       1.83228581E-01  2.27609660E-13  1.22462782E+10  3.36600820E-06  1.22462782E+10
        12   18       1.74860201E-01  1.33064990E+10  5.00591623E-12  2.43957615E+04  1.33065234E+10
        13   17       4.81693604E-04  5.48915902E-01  3.97962944E-11  1.44734816E+05  1.44735365E+05
        14   18       4.81693604E-04  5.48915902E-01  3.97962944E-11  1.44734816E+05  1.44735365E+05
        15   17       4.81788569E-04  1.27900123E-19  1.44729307E+05  3.97684067E-11  1.44729307E+05
        16   18       4.81788569E-04  1.27900123E-19  1.44729307E+05  3.97684067E-11  1.44729307E+05
     -----------------------------------------------------------------------------------------------
--

++ Velocity transition strengths (SO states):
   ------------------------------------------
    for osc. strength at least    1.0000000000000001E-005

      From   To        Osc. strength     Einstein coefficients Ax, Ay, Az (sec-1)    Total A (sec-1)
     -----------------------------------------------------------------------------------------------
         1    3       3.61017729E-05  1.36744326E-22  2.27349764E-07  8.17624604E-25  2.27349764E-07
         1    5       3.60416590E-04  3.59908875E-16  3.82374838E+02  3.22734903E-10  3.82374838E+02
         1    7       3.60289877E-04  1.95911754E-04  3.22972324E-10  3.82405651E+02  3.82405847E+02
         1   13       1.59643031E-02  1.52149999E-06  1.53269681E+11  2.85181851E-01  1.53269681E+11
         1   15       1.59650670E-02  7.39523312E+06  2.85209143E-01  1.53269824E+11  1.53277219E+11
         2    4       3.61017729E-05  1.36744326E-22  2.27349764E-07  8.17624604E-25  2.27349764E-07
         2    6       3.60416590E-04  3.59908875E-16  3.82374838E+02  3.22734903E-10  3.82374838E+02
         2    8       3.60289877E-04  1.95911754E-04  3.22972324E-10  3.82405651E+02  3.82405847E+02
         2   14       1.59643031E-02  1.52149999E-06  1.53269681E+11  2.85181851E-01  1.53269681E+11
         2   16       1.59650670E-02  7.39523312E+06  2.85209143E-01  1.53269824E+11  1.53277219E+11
         3    5       3.60365453E-04  3.20164733E-04  3.22874800E-10  3.82261357E+02  3.82261677E+02
         3    7       3.60372628E-04  9.64419076E-17  3.82434754E+02  3.22871801E-10  3.82434754E+02
         3   13       1.59640567E-02  8.98517121E+05  2.85190111E-01  1.53266409E+11  1.53267308E+11
         3   15       1.59652395E-02  1.33354856E-05  1.53278868E+11  2.85190407E-01  1.53278868E+11
         4    6       3.60365453E-04  3.20164733E-04  3.22874800E-10  3.82261357E+02  3.82261677E+02
         4    8       3.60372628E-04  9.64419076E-17  3.82434754E+02  3.22871801E-10  3.82434754E+02
         4   14       1.59640567E-02  8.98517121E+05  2.85190111E-01  1.53266409E+11  1.53267308E+11
         4   16       1.59652395E-02  1.33354856E-05  1.53278868E+11  2.85190407E-01  1.53278868E+11
         5    9       3.07901455E-03  3.04196433E-04  7.84865427E-11  4.27372721E+02  4.27373025E+02
         5   11       6.71523383E-04  6.81583663E+04  9.93479487E-04  5.41219181E+09  5.41225996E+09
         5   13       1.64992646E-02  1.58300256E+11  6.49852073E-07  1.72838747E+05  1.58300429E+11
         5   17       1.49781310E-02  1.32630975E+06  2.66790978E-02  1.45317667E+11  1.45318994E+11
         6   10       3.07901455E-03  3.04196433E-04  7.84865427E-11  4.27372721E+02  4.27373025E+02
         6   12       6.71523383E-04  6.81583663E+04  9.93479487E-04  5.41219181E+09  5.41225996E+09
         6   14       1.64992646E-02  1.58300256E+11  6.49852073E-07  1.72838747E+05  1.58300429E+11
         6   18       1.49781310E-02  1.32630975E+06  2.66790978E-02  1.45317667E+11  1.45318994E+11
         7    9       3.08047389E-03  6.41628425E-17  4.27064152E+02  7.84568079E-11  4.27064152E+02
         7   11       6.71387180E-04  1.22560440E-08  5.41116137E+09  9.93668814E-04  5.41116137E+09
         7   15       1.64989037E-02  1.58291170E+11  3.85629113E-07  5.98454485E+06  1.58297155E+11
         7   17       1.49775982E-02  2.32025512E-07  1.45313804E+11  2.66798294E-02  1.45313804E+11
         8   10       3.08047389E-03  6.41628425E-17  4.27064152E+02  7.84568079E-11  4.27064152E+02
         8   12       6.71387180E-04  1.22560440E-08  5.41116137E+09  9.93668814E-04  5.41116137E+09
         8   16       1.64989037E-02  1.58291170E+11  3.85629113E-07  5.98454485E+06  1.58297155E+11
         8   18       1.49775982E-02  2.32025512E-07  1.45313804E+11  2.66798294E-02  1.45313804E+11
         9   11       9.19180175E-04  7.40629086E+09  7.87662457E-13  5.79928192E+04  7.40634886E+09
         9   13       5.16502752E-03  7.57959334E+05  1.36380322E-05  4.95426256E+10  4.95433836E+10
         9   15       5.16388696E-03  7.10295144E-10  4.95325095E+10  1.35906171E-05  4.95325095E+10
         9   17       2.10316230E-02  2.04000398E+11  6.27022978E-11  1.23663241E+06  2.04001634E+11
        10   12       9.19180175E-04  7.40629086E+09  7.87662457E-13  5.79928192E+04  7.40634886E+09
        10   14       5.16502752E-03  7.57959334E+05  1.36380322E-05  4.95426256E+10  4.95433836E+10
        10   16       5.16388696E-03  7.10295144E-10  4.95325095E+10  1.35906171E-05  4.95325095E+10
        10   18       2.10316230E-02  2.04000398E+11  6.27022978E-11  1.23663241E+06  2.04001634E+11
        11   13       1.69958041E-01  1.98113002E+04  3.12213121E-06  1.13591651E+10  1.13591849E+10
        11   15       1.69957611E-01  1.18261049E-13  1.13593383E+10  3.12212532E-06  1.13593383E+10
        11   17       1.62005399E-01  1.23283181E+10  4.10304550E-12  2.26169436E+04  1.23283407E+10
        12   14       1.69958041E-01  1.98113002E+04  3.12213121E-06  1.13591651E+10  1.13591849E+10
        12   16       1.69957611E-01  1.18261049E-13  1.13593383E+10  3.12212532E-06  1.13593383E+10
        12   18       1.62005399E-01  1.23283181E+10  4.10304550E-12  2.26169436E+04  1.23283407E+10
        13   17       8.42917155E-04  6.42963887E-01  6.96259733E-11  2.53273108E+05  2.53273751E+05
        14   18       8.42917155E-04  6.42963887E-01  6.96259733E-11  2.53273108E+05  2.53273751E+05
        15   17       8.43059844E-04  9.36892296E-16  2.53256094E+05  6.96916502E-11  2.53256094E+05
        16   18       8.43059844E-04  9.36892296E-16  2.53256094E+05  6.96916502E-11  2.53256094E+05
     -----------------------------------------------------------------------------------------------
--

++ Length and velocity gauge comparison (SO states):

 --------------------------------------------------
 A comparison between the dipole oscillator strengths in 
 length and velocity gauge will be performed

 All dipole oscillator differences above the tolerance of   0.10000000000000001       will be printed 

 Due to basis set deficiency these oscillator may be problematic 

 The tolerance is defined as ABS(1-O_l/O_v) 
 O_l : dipole oscillator strength in length gauge
 O_p : dipole oscillator strength in velocity gauge
 --------------------------------------------------

  Problematic transitions have been found

      From   To       Difference (%) Osc. st. (len.) Osc. st. (vel.)
     ---------------------------------------------------------------
         1    3      --------------- below threshold  3.61017729E-05
         1    5      --------------- below threshold  3.60416590E-04
         1    7      --------------- below threshold  3.60289877E-04
         2    4      --------------- below threshold  3.61017729E-05
         2    6      --------------- below threshold  3.60416590E-04
         2    8      --------------- below threshold  3.60289877E-04
         3    5      --------------- below threshold  3.60365453E-04
         3    7      --------------- below threshold  3.60372628E-04
         4    6      --------------- below threshold  3.60365453E-04
         4    8      --------------- below threshold  3.60372628E-04
         5    9      --------------- below threshold  3.07901455E-03
         6   10      --------------- below threshold  3.07901455E-03
         7    9      --------------- below threshold  3.08047389E-03
         8   10      --------------- below threshold  3.08047389E-03
        13   17            42.853980  4.81693604E-04  8.42917155E-04
        14   18            42.853980  4.81693604E-04  8.42917155E-04
        15   17            42.852388  4.81788569E-04  8.43059844E-04
        16   18            42.852388  4.81788569E-04  8.43059844E-04
     ---------------------------------------------------------------

 Number of problematic transitions =                    18

--

 Electric-dipole - electric-octupole not included
++ Total transition strengths for the second-order expansion of the wave vector (SO states):
   -----------------------------------------------------------------------------------------
    for osc. strength at least    1.0000000000000001E-005

      From   To        Osc. strength
     -------------------------------
         1   11       1.11881549E-05
         2   12       1.11881549E-05
         3   11       1.11881124E-05
         4   12       1.11881124E-05
         5   11       1.15145933E-05
         6   12       1.15145933E-05
         7   11       1.15144293E-05
         8   12       1.15144293E-05
         9   11       1.16215781E-05
        10   12       1.16215781E-05
     -------------------------------
--

++ I/O STATISTICS
 
  I. General I/O information
  - - - - - - - - - - - - - - - - - - - - - - - - - - - - - - - - - - - - - - - - - - -
  Unit  Name          Flsize      Write/Read            MBytes           Write/Read
                      (MBytes)       Calls              In/Out           Time, sec.
  - - - - - - - - - - - - - - - - - - - - - - - - - - - - - - - - - - - - - - - - - - -
   1  SCRATCH           0.00 .       9/      45 .      0.0/      0.0 .       0/       0
   2  ANNI              0.00 .       0/       0 .      0.0/      0.0 .       0/       0
   3  RUNFILE          14.92 .     322/   10733 .      2.3/     77.8 .       0/       0
   4  ONEINT            5.68 .       0/   24849 .      0.0/   3743.6 .       0/       0
   5  JOBIPH            6.59 .       0/      92 .      0.0/      0.8 .       0/       0
   6  ORDINT          529.03 .       1/    4233 .      0.0/   1058.0 .       0/       0
  - - - - - - - - - - - - - - - - - - - - - - - - - - - - - - - - - - - - - - - - - - -
   *  TOTAL           556.23 .     332/   39952 .      2.3/   4880.2 .       0/       0
  - - - - - - - - - - - - - - - - - - - - - - - - - - - - - - - - - - - - - - - - - - -
 
  II. I/O Access Patterns
  - - - - - - - - - - - - - - - - - - - -
  Unit  Name               % of random
                         Write/Read calls
  - - - - - - - - - - - - - - - - - - - -
   1  SCRATCH             88.9/ 100.0
   2  ANNI                 0.0/   0.0
   3  RUNFILE             28.6/  10.8
   4  ONEINT               0.0/  15.5
   5  JOBIPH               0.0/  76.1
   6  ORDINT             100.0/   0.0
  - - - - - - - - - - - - - - - - - - - -
--
--- Stop Module: rassi at Wed Mar 26 12:28:10 2025 /rc=_RC_ALL_IS_WELL_ ---
*** files: xmldump
    saved to directory /home4/s4752295/Internship/Initial_simulations/Point_charge_model/1_electron/Madelung_charges_9_active_space/Mo
--- Module rassi spent 3 seconds ---

.##################.
.# Happy landing! #.
.##################.

    Timing: Wall=57.26 User=45.97 System=10.25

###############################################################################
Hbrk Cluster
Job 15905818 for user s4752295
Finished at: Wed Mar 26 12:28:14 CET 2025

Job details:
============

Job ID                         : 15905818
Name                           : Mo_no_SO
User                           : s4752295
Partition                      : regularmedium
Nodes                          : node84
Number of Nodes                : 1
Cores                          : 1
Number of Tasks                : 1
State                          : COMPLETED  
Submit                         : 2025-03-26T12:26:52
Start                          : 2025-03-26T12:27:08
End                            : 2025-03-26T12:28:10
Reserved walltime              : 15:00:00
Used walltime                  : 00:01:02
Used CPU time                  : 00:00:58 (Efficiency: 92.85%)
% User (Computation)           : 81.73%
% System (I/O)                 : 18.27%
Total memory reserved          : 25000M
Maximum memory used            : 2.12G

Acknowledgements:
=================

Please see this page for information about acknowledging Hbrk in your publications:

https://wiki.hpc.rug.nl/habrok/introduction/scientific_output

################################################################################
