   This run of MOLCAS is using the pymolcas driver

                             OPE
                             OPE          NMOL  CASOP  ENMOLC A   SO
                 OPE        NMOLC        AS  OP EN  MO LC     AS  OP
                OPENM       OL CA        SO  PE NM  OL CA     SOP EN
                OP EN      MO   LC       AS  OP ENMOL  CASO   PENMOL
                OP  EN     MO   LC       AS  OP EN     MO     LC ASO
               OP   E  NMOL  C  AS       OP  EN MO     LC     AS  OP
               OP  E   NMO   LC AS        OPEN  MO     LCASOP EN   M
               O  PEN   MO  LCA  SO
            OPE   NMO   L   CAS    OP
        OPENMOL  CASOP     ENMOL   CASOPE
     OPENMOLCA   SOPENMOLCASOPEN   MOLCASOPE
    OPENMOLCAS   OP           EN   MOL    CAS
    OPENMOLCAS       OP  ENM        O     LCA
    OPENMOLCAS    OPEN  MOLCASO     P  E  NMO
    OPENMOLCAS     OP               E  N  MOL
    OPENMOLCA   SO           PENM   O  L  CAS    OPEN    MO    LCAS
    OPENMOLCA   SOP           ENM   O  L  CAS   OP  EN  MOLC  AS   O
    OPENMOLCA   SOPE           NM      O  LCA   S      OP  EN MO
    OPENMOLC                AS         O  PEN   M      OL  CA  SOPE
    OPENMO        LCASOPE  NMOL        C  ASO   P      ENMOLC     AS
    OPE     NMO      LCA  SO     P     E   NM   OL  CA SO  PE N   MO
          OPENMOLCA            SOPE   NMO        LCAS  O    P  ENMO
     OPENMOLCASOPENMOLCASOPENMOLCASOPENMOLCA
        OPENMOLCASOPENMOLCASOPENMOLCASOPE
            OPENMOLCASOPENMOLCASOPENM
               OPENMOLCASOPENMOLCA        version: o91e1abe7de707b ?
                   OPENMOLCASO
                       OPE                tag:

 OpenMolcas is free software; you can redistribute it and/or modify it
 under the terms of the GNU Lesser General Public License version 2.1.
 OpenMolcas is distributed in the hope that it will be useful, but it
 is provided "as is" and without any express or implied warranties.
 For more details see the full text of the license in the file
 LICENSE or in <http://www.gnu.org/licenses/>.

                 Copyright (C) The OpenMolcas Authors
           For the author list and the recommended citation,
                   consult the file CONTRIBUTORS.md

           *************************************************
           * pymolcas version py2.10                       *
           *   build 3068ae8b88c9345ec6cfef6fef7f1169      *
           *   (after the EMIL interpreter by V. Veryazov) *
           *************************************************

configuration info
------------------
Host name: login1 (Linux)
C Compiler ID: GNU
C flags: -std=gnu99
Fortran Compiler ID: GNU
Fortran flags: -fno-aggressive-loop-optimizations -cpp -fdefault-integer-8 -fmax-stack-var-size=1048576
Definitions: _MOLCAS_;_I8_;_LINUX_;_MKL_
Parallel: OFF (GA=OFF)


   -----------------------------------------------------------------------------------------------------------------------------------
  |
  |           Project: molybdenum_so_cf
  |    Submitted from: /home4/s4752295/Internship/Initial_simulations/Point_charge_model/1_electron/Madelung_charges_9_active_space/Mo
  |      Scratch area: /tmp/molybdenum_so_cf
  |   Save outputs to: /home4/s4752295/Internship/Initial_simulations/Point_charge_model/1_electron/Madelung_charges_9_active_space/Mo
  |            Molcas: /home4/s4752295/Internship/Molcas/recomp_try/OpenMolcas-master/build
  |
  | Scratch area is empty
  |
  |    MOLCAS_DRIVER = /home4/s4752295/Internship/Molcas/bin/pymolcas
  |    MOLCAS_NPROCS = 1
  |    MOLCAS_SOURCE = /home4/s4752295/Internship/Molcas/recomp_try/OpenMolcas-master
  | MOLCAS_STRUCTURE = 0
  |
   -----------------------------------------------------------------------------------------------------------------------------------

++ ---------   Input file   ---------

&SEWARD
AMFi

CLIG
$R

Basis Set
Mo.ANO-rcc.Roos.21s18p13d6f4g2h.10s9p9d6f4g2h.
Spherical d
Mo           -1.0658140267135469e-14    -3.5527134223784897e-15 0.008753588724385739
End of Basis

Xfield

414
-5.202861404,-2.0020000000000002,1.1558547000000001     -0.625931
-5.202861404,-0.0,-2.3117107    -0.625931
-5.202861404,2.0020000000000002,1.1558547000000001      -0.625931
-5.193949891,0.0,0.0    1.892092
3.4569335970000004,-2.0020000000000002,-1.1558547000000001      2.515516
3.4569335970000004,0.0,2.3117107        2.515516
3.4569335970000004,2.0020000000000002,-1.1558547000000001       2.515516
4.631884764,-4.0040000000000004,0.0     0.004632
4.631884764,-2.0020000000000002,-3.4675654000000002     0.004632
4.631884764,-2.0020000000000002,3.4675654000000002      0.004632
4.631884764,2.0020000000000002,-3.4675654000000002      0.004632
4.631884764,2.0020000000000002,3.4675654000000002       0.004632
4.631884764,4.0040000000000004,0.0      0.004632
5.367895507000001,-2.0020000000000002,1.1558547000000001        -2.519484
5.367895507000001,-0.0,-2.3117107       -2.519484
5.367895507000001,2.0020000000000002,1.1558547000000001 -2.519484
-3.8130371110000003,-0.0,-0.0   -3.142907
-6.467626958,-4.0040000000000004,-2.3117107     -0.625931
-6.467626958,0.0,4.623420100000001      -0.625931
-6.467626958,4.0040000000000004,-2.3117107      -0.625931
-8.5921875,-4.0040000000000004,0.0      1.892092
-8.5921875,-2.0020000000000002,-3.4675654000000002      1.892092
-8.5921875,-2.0020000000000002,3.4675654000000002       1.892092
-8.5921875,2.0020000000000002,-3.4675654000000002       1.892092
-8.5921875,2.0020000000000002,3.4675654000000002        1.892092
-8.5921875,4.0040000000000004,0.0       1.892092
32.7234375,-4.0040000000000004,2.3117107        2.515516
32.7234375,-0.0,-4.623420100000001      2.515516
32.7234375,4.0040000000000004,2.3117107 2.515516
4.730273444,-4.0040000000000004,-2.3117107      -2.519484
4.730273444,0.0,4.623420100000001       -2.519484
4.730273444,4.0040000000000004,-2.3117107       -2.519484
-4.2021484440000005,-4.0040000000000004,-0.0    -3.142907
-4.2021484440000005,-2.0020000000000002,-3.4675654000000002     -3.142907
-4.2021484440000005,-2.0020000000000002,3.4675654000000002      -3.142907
-4.2021484440000005,2.0020000000000002,-3.4675654000000002      -3.142907
-4.2021484440000005,2.0020000000000002,3.4675654000000002       -3.142907
-4.2021484440000005,4.0040000000000004,-0.0     -3.142907
-12.38046875,-4.0040000000000004,4.623420100000001      -0.625931
-12.38046875,4.0040000000000004,4.623420100000001       -0.625931
-12.38046875,-6.006,1.1558547000000001  -0.625931
-12.38046875,6.006,1.1558547000000001   -0.625931
-12.38046875,-2.0020000000000002,-5.779276100000001     -0.625931
-12.38046875,2.0020000000000002,-5.779276100000001      -0.625931
7.81015625,-2.0020000000000002,-1.1558547000000001      4.409069
7.81015625,2.0020000000000002,-1.1558547000000001       4.409069
7.81015625,0.0,2.3117107        4.409069
-227.82500000000002,-0.0,-0.0   -5.030367
-227.82500000000002,0.0,0.0     5.039632
17.572851556,-4.0040000000000004,-4.623420100000001     2.515516
17.572851556,4.0040000000000004,-4.623420100000001      2.515516
17.572851556,-6.006,-1.1558547000000001 2.515516
17.572851556,6.006,-1.1558547000000001  2.515516
17.572851556,-2.0020000000000002,5.779276100000001      2.515516
17.572851556,2.0020000000000002,5.779276100000001       2.515516
24.75078125,-6.006,-3.4675654000000002  0.004632
24.75078125,-6.006,3.4675654000000002   0.004632
24.75078125,6.006,-3.4675654000000002   0.004632
24.75078125,6.006,3.4675654000000002    0.004632
24.75078125,-0.0,-6.9351308000000005    0.004632
24.75078125,0.0,6.9351308000000005      0.004632
62.501562500000006,-4.0040000000000004,4.623420100000001        -2.519484
62.501562500000006,4.0040000000000004,4.623420100000001 -2.519484
62.501562500000006,-6.006,1.1558547000000001    -2.519484
62.501562500000006,6.006,1.1558547000000001     -2.519484
62.501562500000006,-2.0020000000000002,-5.779276100000001       -2.519484
62.501562500000006,2.0020000000000002,-5.779276100000001        -2.519484
-189.63750000000002,-6.006,-3.4675654000000002  1.892092
-189.63750000000002,-6.006,3.4675654000000002   1.892092
-189.63750000000002,6.006,-3.4675654000000002   1.892092
-189.63750000000002,6.006,3.4675654000000002    1.892092
-189.63750000000002,-0.0,-6.9351308000000005    1.892092
-189.63750000000002,0.0,6.9351308000000005      1.892092
-153.07500000000002,-4.0040000000000004,2.3117107       4.409069
-153.07500000000002,-0.0,-4.623420100000001     4.409069
-153.07500000000002,4.0040000000000004,2.3117107        4.409069
-115.7,-4.0040000000000004,-0.0 -5.030367
-115.7,-2.0020000000000002,-3.4675654000000002  -5.030367
-115.7,-2.0020000000000002,3.4675654000000002   -5.030367
-115.7,2.0020000000000002,-3.4675654000000002   -5.030367
-115.7,-4.0040000000000004,0.0  5.039632
-115.7,4.0040000000000004,-0.0  -5.030367
-115.7,2.0020000000000002,3.4675654000000002    -5.030367
-115.7,-2.0020000000000002,-3.4675654000000002  5.039632
-115.7,-2.0020000000000002,3.4675654000000002   5.039632
-115.7,2.0020000000000002,-3.4675654000000002   5.039632
-115.7,4.0040000000000004,0.0   5.039632
-115.7,2.0020000000000002,3.4675654000000002    5.039632
-60.612500000000004,-2.0020000000000002,-1.1558547000000001     -5.660931
-60.612500000000004,0.0,2.3117107       -5.660931
-60.612500000000004,2.0020000000000002,-1.1558547000000001      -5.660931
1.14765625,-8.0079987,0.0       0.004632
1.14765625,-4.0040000000000004,-6.9351308000000005      0.004632
1.14765625,-4.0040000000000004,6.9351308000000005       0.004632
1.14765625,4.0040000000000004,-6.9351308000000005       0.004632
1.14765625,8.0079987,0.0        0.004632
1.14765625,4.0040000000000004,6.9351308000000005        0.004632
88.31875000000001,-6.006,3.4675654000000002     -3.142907
88.31875000000001,-6.006,-3.4675654000000002    -3.142907
88.31875000000001,6.006,-3.4675654000000002     -3.142907
88.31875000000001,6.006,3.4675654000000002      -3.142907
88.31875000000001,-0.0,-6.9351308000000005      -3.142907
88.31875000000001,0.0,6.9351308000000005        -3.142907
112.28750000000001,-8.0079987,-2.3117107        -0.625931
112.28750000000001,-6.006,-5.779276100000001    -0.625931
112.28750000000001,-2.0020000000000002,8.0909855        -0.625931
112.28750000000001,6.006,-5.779276100000001     -0.625931
112.28750000000001,8.0079987,-2.3117107 -0.625931
112.28750000000001,2.0020000000000002,8.0909855 -0.625931
1.556445306,-8.0079987,0.0      1.892092
1.556445306,-4.0040000000000004,-6.9351308000000005     1.892092
1.556445306,-4.0040000000000004,6.9351308000000005      1.892092
1.556445306,4.0040000000000004,-6.9351308000000005      1.892092
1.556445306,8.0079987,0.0       1.892092
1.556445306,4.0040000000000004,6.9351308000000005       1.892092
43.996875,-4.0040000000000004,-4.623420100000001        4.409069
43.996875,4.0040000000000004,-4.623420100000001 4.409069
43.996875,-6.006,-1.1558547000000001    4.409069
43.996875,6.006,-1.1558547000000001     4.409069
43.996875,-2.0020000000000002,5.779276100000001 4.409069
43.996875,2.0020000000000002,5.779276100000001  4.409069
211.128125,-4.0040000000000004,2.3117107        -5.660931
211.128125,-0.0,-4.623420100000001      -5.660931
211.128125,4.0040000000000004,2.3117107 -5.660931
0.446875,-8.0079987,2.3117107   2.515516
0.446875,-2.0020000000000002,-8.0909855 2.515516
0.446875,-6.006,5.779276100000001       2.515516
0.446875,2.0020000000000002,-8.0909855  2.515516
0.446875,8.0079987,2.3117107    2.515516
0.446875,6.006,5.779276100000001        2.515516
-122.44375000000001,-8.0079987,-2.3117107       -2.519484
-122.44375000000001,-6.006,-5.779276100000001   -2.519484
-122.44375000000001,-2.0020000000000002,8.0909855       -2.519484
-122.44375000000001,6.006,-5.779276100000001    -2.519484
-122.44375000000001,2.0020000000000002,8.0909855        -2.519484
-122.44375000000001,8.0079987,-2.3117107        -2.519484
-28.69140625,-8.0079987,-0.0    -3.142907
-28.69140625,-4.0040000000000004,-6.9351308000000005    -3.142907
-28.69140625,-4.0040000000000004,6.9351308000000005     -3.142907
-28.69140625,4.0040000000000004,-6.9351308000000005     -3.142907
-28.69140625,4.0040000000000004,6.9351308000000005      -3.142907
-28.69140625,8.0079987,-0.0     -3.142907
788.45,0.0,0.0  6.927092
420.225,-8.0079987,4.623420100000001    -0.625931
420.225,8.0079987,4.623420100000001     -0.625931
420.225,-0.0,-9.2468415 -0.625931
-7.0484375,-6.006,3.4675654000000002    -5.030367
-7.0484375,-6.006,-3.4675654000000002   -5.030367
-7.0484375,-6.006,3.4675654000000002    5.039632
-7.0484375,-6.006,-3.4675654000000002   5.039632
-7.0484375,6.006,-3.4675654000000002    -5.030367
-7.0484375,6.006,3.4675654000000002     -5.030367
-7.0484375,6.006,-3.4675654000000002    5.039632
-7.0484375,6.006,3.4675654000000002     5.039632
-7.0484375,-0.0,-6.9351308000000005     -5.030367
-7.0484375,0.0,6.9351308000000005       -5.030367
-7.0484375,-0.0,-6.9351308000000005     5.039632
-7.0484375,0.0,6.9351308000000005       5.039632
119.35625,-4.0040000000000004,-4.623420100000001        -5.660931
119.35625,4.0040000000000004,-4.623420100000001 -5.660931
119.35625,-6.006,-1.1558547000000001    -5.660931
119.35625,6.006,-1.1558547000000001     -5.660931
119.35625,-2.0020000000000002,5.779276100000001 -5.660931
119.35625,2.0020000000000002,5.779276100000001  -5.660931
390.65000000000003,-8.0079987,-4.623420100000001        2.515516
390.65000000000003,8.0079987,-4.623420100000001 2.515516
390.65000000000003,0.0,9.2468415        2.515516
-672.4250000000001,-8.0079987,4.623420100000001 -2.519484
-672.4250000000001,8.0079987,4.623420100000001  -2.519484
-672.4250000000001,-0.0,-9.2468415      -2.519484
69.63125000000001,-4.0040000000000004,0.0       6.927092
69.63125000000001,-2.0020000000000002,-3.4675654000000002       6.927092
69.63125000000001,-2.0020000000000002,3.4675654000000002        6.927092
69.63125000000001,2.0020000000000002,-3.4675654000000002        6.927092
69.63125000000001,2.0020000000000002,3.4675654000000002 6.927092
69.63125000000001,4.0040000000000004,0.0        6.927092
-71.825,-2.0020000000000002,1.1558547000000001  7.550516
-71.825,0.0,-2.3117107  7.550516
-71.825,2.0020000000000002,1.1558547000000001   7.550516
20.190625,-2.0020000000000002,-1.1558547000000001       -7.554483
20.190625,2.0020000000000002,-1.1558547000000001        -7.554483
20.190625,-0.0,2.3117107        -7.554483
-162.3375,-10.0099987,1.1558547000000001        -0.625931
-162.3375,-6.006,8.0909855      -0.625931
-162.3375,-4.0040000000000004,-9.2468415        -0.625931
-162.3375,4.0040000000000004,-9.2468415 -0.625931
-162.3375,10.0099987,1.1558547000000001 -0.625931
-162.3375,6.006,8.0909855       -0.625931
-87.66875,-8.0079987,2.3117107  4.409069
-87.66875,-6.006,5.779276100000001      4.409069
-87.66875,-2.0020000000000002,-8.0909855        4.409069
-87.66875,2.0020000000000002,-8.0909855 4.409069
-87.66875,6.006,5.779276100000001       4.409069
-87.66875,8.0079987,2.3117107   4.409069
63.903125,-8.0079987,-0.0       -5.030367
63.903125,-4.0040000000000004,-6.9351308000000005       -5.030367
63.903125,-4.0040000000000004,6.9351308000000005        -5.030367
63.903125,-8.0079987,0.0        5.039632
63.903125,-4.0040000000000004,-6.9351308000000005       5.039632
63.903125,4.0040000000000004,-6.9351308000000005        -5.030367
63.903125,4.0040000000000004,6.9351308000000005 -5.030367
63.903125,8.0079987,-0.0        -5.030367
63.903125,-4.0040000000000004,6.9351308000000005        5.039632
63.903125,4.0040000000000004,-6.9351308000000005        5.039632
63.903125,8.0079987,0.0 5.039632
63.903125,4.0040000000000004,6.9351308000000005 5.039632
234.975,-10.0099987,-1.1558547000000001 2.515516
234.975,-6.006,-8.0909855       2.515516
234.975,-4.0040000000000004,9.2468415   2.515516
234.975,6.006,-8.0909855        2.515516
234.975,10.0099987,-1.1558547000000001  2.515516
234.975,4.0040000000000004,9.2468415    2.515516
-30.346875,-10.0099987,-3.4675654000000002      0.004632
-30.346875,-10.0099987,3.4675654000000002       0.004632
-30.346875,-8.0079987,-6.9351308000000005       0.004632
-30.346875,-8.0079987,6.9351308000000005        0.004632
-30.346875,-2.0020000000000002,-10.402696200000001      0.004632
-30.346875,2.0020000000000002,-10.402696200000001       0.004632
-30.346875,-2.0020000000000002,10.402696200000001       0.004632
-30.346875,8.0079987,-6.9351308000000005        0.004632
-30.346875,2.0020000000000002,10.402696200000001        0.004632
-30.346875,10.0099987,-3.4675654000000002       0.004632
-30.346875,10.0099987,3.4675654000000002        0.004632
-30.346875,8.0079987,6.9351308000000005 0.004632
-186.0625,-10.0099987,1.1558547000000001        -2.519484
-186.0625,-6.006,8.0909855      -2.519484
-186.0625,-4.0040000000000004,-9.2468415        -2.519484
-186.0625,4.0040000000000004,-9.2468415 -2.519484
-186.0625,10.0099987,1.1558547000000001 -2.519484
-186.0625,6.006,8.0909855       -2.519484
3941.6,-0.0,-0.0        -8.177907
-150.8,-4.0040000000000004,-2.3117107   7.550516
-150.8,0.0,4.623420100000001    7.550516
-150.8,4.0040000000000004,-2.3117107    7.550516
-784.5500000000001,-4.0040000000000004,2.3117107        -7.554483
-784.5500000000001,-0.0,-4.623420100000001      -7.554483
-784.5500000000001,4.0040000000000004,2.3117107 -7.554483
63.578125,-10.0099987,3.4675654000000002        1.892092
63.578125,-10.0099987,-3.4675654000000002       1.892092
63.578125,-8.0079987,-6.9351308000000005        1.892092
63.578125,-8.0079987,6.9351308000000005 1.892092
63.578125,-2.0020000000000002,-10.402696200000001       1.892092
63.578125,2.0020000000000002,-10.402696200000001        1.892092
63.578125,-2.0020000000000002,10.402696200000001        1.892092
63.578125,8.0079987,-6.9351308000000005 1.892092
63.578125,2.0020000000000002,10.402696200000001 1.892092
63.578125,10.0099987,-3.4675654000000002        1.892092
63.578125,10.0099987,3.4675654000000002 1.892092
63.578125,8.0079987,6.9351308000000005  1.892092
-656.5,-8.0079987,-4.623420100000001    4.409069
-656.5,8.0079987,-4.623420100000001     4.409069
-656.5,0.0,9.2468415    4.409069
33.56640625,-8.0079987,2.3117107        -5.660931
33.56640625,-2.0020000000000002,-8.0909855      -5.660931
33.56640625,-6.006,5.779276100000001    -5.660931
33.56640625,2.0020000000000002,-8.0909855       -5.660931
33.56640625,6.006,5.779276100000001     -5.660931
33.56640625,8.0079987,2.3117107 -5.660931
-75.64375,-8.0079987,-6.9351308000000005        -3.142907
-75.64375,-10.0099987,3.4675654000000002        -3.142907
-75.64375,-10.0099987,-3.4675654000000002       -3.142907
-75.64375,-8.0079987,6.9351308000000005 -3.142907
-75.64375,-2.0020000000000002,-10.402696200000001       -3.142907
-75.64375,2.0020000000000002,-10.402696200000001        -3.142907
-75.64375,-2.0020000000000002,10.402696200000001        -3.142907
-75.64375,10.0099987,-3.4675654000000002        -3.142907
-75.64375,8.0079987,-6.9351308000000005 -3.142907
-75.64375,2.0020000000000002,10.402696200000001 -3.142907
-75.64375,10.0099987,3.4675654000000002 -3.142907
-75.64375,8.0079987,6.9351308000000005  -3.142907
85.028125,-6.006,-3.4675654000000002    6.927092
85.028125,-6.006,3.4675654000000002     6.927092
85.028125,6.006,-3.4675654000000002     6.927092
85.028125,6.006,3.4675654000000002      6.927092
85.028125,-0.0,-6.9351308000000005      6.927092
85.028125,0.0,6.9351308000000005        6.927092
-108.22500000000001,-4.0040000000000004,-0.0    -8.177907
-108.22500000000001,-2.0020000000000002,3.4675654000000002      -8.177907
-108.22500000000001,-2.0020000000000002,-3.4675654000000002     -8.177907
-108.22500000000001,2.0020000000000002,-3.4675654000000002      -8.177907
-108.22500000000001,4.0040000000000004,-0.0     -8.177907
-108.22500000000001,2.0020000000000002,3.4675654000000002       -8.177907
-118.17812500000001,-4.0040000000000004,4.623420100000001       7.550516
-118.17812500000001,4.0040000000000004,4.623420100000001        7.550516
-118.17812500000001,-6.006,1.1558547000000001   7.550516
-118.17812500000001,6.006,1.1558547000000001    7.550516
-118.17812500000001,-2.0020000000000002,-5.779276100000001      7.550516
-118.17812500000001,2.0020000000000002,-5.779276100000001       7.550516
-59.393750000000004,-4.0040000000000004,-4.623420100000001      -7.554483
-59.393750000000004,4.0040000000000004,-4.623420100000001       -7.554483
-59.393750000000004,-6.006,-1.1558547000000001  -7.554483
-59.393750000000004,6.006,-1.1558547000000001   -7.554483
-59.393750000000004,-2.0020000000000002,5.779276100000001       -7.554483
-59.393750000000004,2.0020000000000002,5.779276100000001        -7.554483
-650.325,0.0,11.5585509 -0.625931
-650.325,-10.0099987,-5.779276100000001 -0.625931
-650.325,10.0099987,-5.779276100000001  -0.625931
-350.675,-10.0099987,-1.1558547000000001        4.409069
-350.675,-6.006,-8.0909855      4.409069
-350.675,-4.0040000000000004,9.2468415  4.409069
-350.675,6.006,-8.0909855       4.409069
-350.675,10.0099987,-1.1558547000000001 4.409069
-350.675,4.0040000000000004,9.2468415   4.409069
403.4875,-8.0079987,-4.623420100000001  -5.660931
403.4875,8.0079987,-4.623420100000001   -5.660931
403.4875,0.0,9.2468415  -5.660931
763.1,-0.0,-11.5585509  2.515516
763.1,-10.0099987,5.779276100000001     2.515516
763.1,10.0099987,5.779276100000001      2.515516
-122.03750000000001,-12.0119987,-0.0    0.004632
-122.03750000000001,6.006,-10.402696200000001   0.004632
-122.03750000000001,-6.006,10.402696200000001   0.004632
-122.03750000000001,12.0119987,-0.0     0.004632
-122.03750000000001,-6.006,-10.402696200000001  0.004632
-122.03750000000001,6.006,10.402696200000001    0.004632
-501.475,0.0,11.5585509 -2.519484
-501.475,-10.0099987,-5.779276100000001 -2.519484
-501.475,10.0099987,-5.779276100000001  -2.519484
296.40000000000003,-8.0079987,0.0       6.927092
296.40000000000003,-4.0040000000000004,-6.9351308000000005      6.927092
296.40000000000003,-4.0040000000000004,6.9351308000000005       6.927092
296.40000000000003,4.0040000000000004,-6.9351308000000005       6.927092
296.40000000000003,8.0079987,0.0        6.927092
296.40000000000003,4.0040000000000004,6.9351308000000005        6.927092
275.4375,-12.0119987,-2.3117107 -0.625931
275.4375,-4.0040000000000004,11.5585509 -0.625931
275.4375,-8.0079987,-9.2468415  -0.625931
275.4375,8.0079987,-9.2468415   -0.625931
275.4375,4.0040000000000004,11.5585509  -0.625931
275.4375,12.0119987,-2.3117107  -0.625931
145.51875,-12.0119987,0.0       1.892092
145.51875,-6.006,-10.402696200000001    1.892092
145.51875,-6.006,10.402696200000001     1.892092
145.51875,6.006,-10.402696200000001     1.892092
145.51875,12.0119987,0.0        1.892092
145.51875,6.006,10.402696200000001      1.892092
-5.61640625,-10.0099987,3.4675654000000002      -5.030367
-5.61640625,-10.0099987,-3.4675654000000002     -5.030367
-5.61640625,-8.0079987,-6.9351308000000005      -5.030367
-5.61640625,-8.0079987,6.9351308000000005       -5.030367
-5.61640625,-10.0099987,3.4675654000000002      5.039632
-5.61640625,2.0020000000000002,-10.402696200000001      -5.030367
-5.61640625,-2.0020000000000002,-10.402696200000001     -5.030367
-5.61640625,-10.0099987,-3.4675654000000002     5.039632
-5.61640625,-8.0079987,-6.9351308000000005      5.039632
-5.61640625,-2.0020000000000002,10.402696200000001      -5.030367
-5.61640625,2.0020000000000002,-10.402696200000001      5.039632
-5.61640625,-8.0079987,6.9351308000000005       5.039632
-5.61640625,-2.0020000000000002,-10.402696200000001     5.039632
-5.61640625,8.0079987,-6.9351308000000005       -5.030367
-5.61640625,2.0020000000000002,10.402696200000001       -5.030367
-5.61640625,10.0099987,-3.4675654000000002      -5.030367
-5.61640625,10.0099987,3.4675654000000002       -5.030367
-5.61640625,8.0079987,6.9351308000000005        -5.030367
-5.61640625,-2.0020000000000002,10.402696200000001      5.039632
-5.61640625,8.0079987,-6.9351308000000005       5.039632
-5.61640625,10.0099987,-3.4675654000000002      5.039632
-5.61640625,2.0020000000000002,10.402696200000001       5.039632
-5.61640625,10.0099987,3.4675654000000002       5.039632
-5.61640625,8.0079987,6.9351308000000005        5.039632
-0.89375,-10.0099987,-1.1558547000000001        -5.660931
-0.89375,-6.006,-8.0909855      -5.660931
-0.89375,-4.0040000000000004,9.2468415  -5.660931
-0.89375,6.006,-8.0909855       -5.660931
-0.89375,4.0040000000000004,9.2468415   -5.660931
-0.89375,10.0099987,-1.1558547000000001 -5.660931
150.8,-2.0020000000000002,1.1558547000000001    9.444068
150.8,0.0,-2.3117107    9.444068
150.8,2.0020000000000002,1.1558547000000001     9.444068
66.70625,-12.0119987,2.3117107  2.515516
66.70625,-4.0040000000000004,-11.5585509        2.515516
66.70625,4.0040000000000004,-11.5585509 2.515516
66.70625,-8.0079987,9.2468415   2.515516
66.70625,12.0119987,2.3117107   2.515516
66.70625,8.0079987,9.2468415    2.515516
203.9375,-12.0119987,-2.3117107 -2.519484
203.9375,-4.0040000000000004,11.5585509 -2.519484
203.9375,-8.0079987,-9.2468415  -2.519484
203.9375,8.0079987,-9.2468415   -2.519484
203.9375,12.0119987,-2.3117107  -2.519484
203.9375,4.0040000000000004,11.5585509  -2.519484
285.5125,-12.0119987,-0.0       -3.142907
285.5125,-6.006,-10.402696200000001     -3.142907
285.5125,-6.006,10.402696200000001      -3.142907
285.5125,6.006,-10.402696200000001      -3.142907
285.5125,12.0119987,-0.0        -3.142907
285.5125,6.006,10.402696200000001       -3.142907
11.239160153,-6.006,-3.4675654000000002 -8.177907
11.239160153,-6.006,3.4675654000000002  -8.177907
11.239160153,6.006,3.4675654000000002   -8.177907
11.239160153,6.006,-3.4675654000000002  -8.177907
11.239160153,-0.0,-6.9351308000000005   -8.177907
11.239160153,0.0,6.9351308000000005     -8.177907
327.4375,-6.006,-5.779276100000001      7.550516
327.4375,-8.0079987,-2.3117107  7.550516
327.4375,-2.0020000000000002,8.0909855  7.550516
327.4375,6.006,-5.779276100000001       7.550516
327.4375,2.0020000000000002,8.0909855   7.550516
327.4375,8.0079987,-2.3117107   7.550516
-452.40000000000003,-6.006,5.779276100000001    -7.554483
-452.40000000000003,-8.0079987,2.3117107        -7.554483
-452.40000000000003,-2.0020000000000002,-8.0909855      -7.554483
-452.40000000000003,2.0020000000000002,-8.0909855       -7.554483
-452.40000000000003,8.0079987,2.3117107 -7.554483
-452.40000000000003,6.006,5.779276100000001     -7.554483
92.6453125,-10.0099987,8.0909855        -0.625931
92.6453125,-12.0119987,4.623420100000001        -0.625931
92.6453125,-2.0020000000000002,-12.7144069      -0.625931
92.6453125,2.0020000000000002,-12.7144069       -0.625931
92.6453125,12.0119987,4.623420100000001 -0.625931
92.6453125,10.0099987,8.0909855 -0.625931
-628.875,-0.0,-11.5585509       4.409069
-628.875,-10.0099987,5.779276100000001  4.409069
-628.875,10.0099987,5.779276100000001   4.409069

End of input

&SCF
Occupied
9
Iterations
   50  100
End of Input

&RASSCF
LumOrb
Symmetry
1
Spin
2
Nactel
1 0 0
CIRoot
9 9 1
inactive
9
ras2
9
End of Input

>>> COPY molybdenum_so_cf.JobIph $SLURM_SUBMIT_DIR/molybdenum_so_cf.doublet.JobIph

>>> COPY $SLURM_SUBMIT_DIR/molybdenum_so_cf.doublet.JobIph ./JOB002

&RASSI
NROFJobIph
1 All
SpinOrbit
End of Input

EOF

-- ----------------------------------

--- Start Module: seward at Wed Mar 26 15:43:55 2025 ---

()()()()()()()()()()()()()()()()()()()()()()()()()()()()()()()()()()()()()()()()()()()()()()()()()()

                                              &SEWARD

                                   only a single process is used
                       available to each process: 4.1 GB of memory, 1 thread?
                                            pid: 2176066
()()()()()()()()()()()()()()()()()()()()()()()()()()()()()()()()()()()()()()()()()()()()()()()()()()

 The speed of LIGHT in this CALCULATION =   137.03599917700001     
               SEWARD will generate:
                  Multipole Moment integrals up to order  2
                  Kinetic Energy integrals
                  Nuclear Attraction integrals (point charge)
                  One-Electron Hamiltonian integrals
                  Velocity integrals
                  Relativistic Douglas-Kroll-Hess integrals:
                    - Parametrization         : EXP
                    - DKH order of Hamiltonian: 2
                    - DKH order of Properties : 0
                         - multipole moment operators
                         - electric potential operators
                         - contact operators
                  External field from   414 point(s) added to the one-electron Hamiltonian
                  Orbital angular momentum around (-0.0000 -0.0000  0.0088 )
                  Velocity quadrupole around (-0.0000 -0.0000  0.0088 )
                  Atomic mean-field integrals
                  Two-Electron Repulsion integrals

                   Integrals are discarded if absolute value <: 0.10E-13
                   Integral cutoff threshold is set to       <: 0.10E-15

++    Symmetry information:
      ---------------------

                    Character Table for C1 

                             E  
                    a        1  x, y, xy, Rz, z, xz, Ry, yz, Rx, I
--


++    Basis set information:
      ----------------------


      Basis set label: MO.ANO-RCC.ROOS.21S18P13D6F4G2H.10S9P9D6F4G2H......

      Electronic valence basis set:
      ------------------
      Associated Effective Charge  42.000000 au
      Associated Actual Charge     42.000000 au
      Nuclear Model: Point charge

      Shell  nPrim  nBasis  Cartesian Spherical Contaminant
         s      21      10        X                  
         p      18       9        X                  
         d      13       9                 X         
         f       6       6                 X         
         g       4       4                 X         
         h       2       2                 X         
--


++    Molecular structure info:
      -------------------------

                    ************************************************ 
                    **** Cartesian Coordinates / Bohr, Angstrom **** 
                    ************************************************ 

     Center  Label                x              y              z                     x              y              z
        1      MO              -0.000000      -0.000000       0.008754             -0.000000      -0.000000       0.004632
--


++    Operator info:
      --------------


  Net charge from external field:   -39.268449999999902     
--


            Nuclear Potential Energy              0.00000000 au

                    Nuclear-External Field Potential Energy    -295.58206399 au
                    External Field Potential Energy            1235.10530876 au 


            Total Nuclear Potential Energy           -295.58206399 au


      Basis set specifications :
      Symmetry species         a  
      Basis functions          182

 Sorry, Molden does not know how to handle
 functions with angular momentum larger than g
Note: The following floating-point exceptions are signalling: IEEE_UNDERFLOW_FLAG IEEE_DENORMAL
--- Stop Module: seward at Wed Mar 26 15:44:07 2025 /rc=_RC_ALL_IS_WELL_ ---
*** files: molybdenum_so_cf.GssOrb xmldump
    saved to directory /home4/s4752295/Internship/Initial_simulations/Point_charge_model/1_electron/Madelung_charges_9_active_space/Mo
--- Module seward spent 12 seconds ---

*** symbolic link created: INPORB -> molybdenum_so_cf.GssOrb
--- Start Module: scf at Wed Mar 26 15:44:07 2025 ---

()()()()()()()()()()()()()()()()()()()()()()()()()()()()()()()()()()()()()()()()()()()()()()()()()()

                                                &SCF

                                   only a single process is used
                       available to each process: 4.1 GB of memory, 1 thread?
                                            pid: 2176142
()()()()()()()()()()()()()()()()()()()()()()()()()()()()()()()()()()()()()()()()()()()()()()()()()()

++    Input section:
      --------------

      Header of the integral files:
      
       Integrals generated by seward 4.2.0  , Wed Mar 26 15:43:55 2025


      Cartesian coordinates in Angstrom:
      -----------------------------------------------------
      No.  Label        X            Y            Z        
      -----------------------------------------------------
       1   MO        -0.00000000  -0.00000000   0.00463220
      -----------------------------------------------------
      Nuclear repulsion energy = -295.58206399
--

++    Orbital specifications:
      -----------------------

      Symmetry species               1
                                     a
      Frozen orbitals                0
      Occupied orbitals              9
      Secondary orbitals           173
      Deleted orbitals               0
      Total number of orbitals     182
      Number of basis functions    182
--

      Molecular charge                          24.000

++    Optimization specifications:
      ----------------------------

      SCF Algorithm: Conventional
      Minimized density differences are used
      Number of density matrices in core                5
      Maximum number of NDDO SCF iterations            50
      Maximum number of HF SCF iterations             100
      Threshold for SCF energy change            0.10E-08
      Threshold for density matrix               0.10E-03
      Threshold for Fock matrix                  0.15E-03
      Threshold for linear dependence            0.10E-08
      Threshold at which DIIS is turned on       0.15E+00
      Threshold at which QNR/C2DIIS is turned on 0.75E-01
      Threshold for Norm(delta) (QNR/C2DIIS)     0.20E-04
      DIIS extrapolation of the SCF procedure
      All orbitals punched on: SCFORB
--

      Detected guessorb starting orbitals                                             


++ Convergence information
                                   SCF        iterations: Energy and convergence statistics

Iter     Tot. SCF        One-elec.       Two-elec.     Energy      Max Dij or  Max Fij      DNorm      TNorm      AccCon     Time
         Energy          Energy          Energy        Change      Delta Norm                                                in Sec.

 The total and one-electron energies are shifted by a value of      3000. a.u.

   1  -846.558650817 -1172.086874932   621.110288109   0.00E+00    0.33E+00*   0.30E+01*    0.60E+01   0.35E+03   None         1.
   2  -852.545002617 -1214.579804049   657.616865426  -0.60E+01*   0.92E-02*   0.27E+00*    0.14E+01   0.36E+03   EDIIS        1.
   3  -852.563421664 -1212.750241364   655.768883694  -0.18E-01*   0.77E-03*   0.13E-01*    0.45E-01   0.36E+03   EDIIS        1.
   4  -852.563489046 -1212.872252814   655.890827763  -0.67E-04*   0.60E-04    0.80E-03*    0.18E-02   0.36E+03   c2DIIS       1.
   5  -852.563489414 -1212.865756586   655.884331166  -0.37E-06*   0.84E-05    0.59E-04     0.12E-03   0.36E+03   QNRc2DIIS    1.
   6  -852.563489415 -1212.865759461   655.884334040  -0.14E-08*   0.12E-05    0.94E-05     0.53E-05   0.36E+03   QNRc2DIIS    1.
   7  -852.563489415 -1212.865760687   655.884335265  -0.35E-10    0.16E-06    0.60E-06     0.24E-02   0.36E+03   QNRc2DIIS    1.

       Convergence after  7 Macro Iterations
--

 *****************************************************************************************************************************
 *                                                                                                                           *
 *                                             SCF/KS-DFT Program, Final results                                             *
 *                                                                                                                           *
 *                                                                                                                           *
 *                                                                                                                           *
 *                                                       Final Results                                                       *
 *                                                                                                                           *
 *****************************************************************************************************************************

::    Total SCF energy                              -3852.5634894151
      One-electron energy                           -4212.8657606868
      Two-electron energy                             655.8843352655
      Nuclear repulsion energy                       -295.5820639938
      Kinetic energy (interpolated)                  4119.5298776645
      Virial theorem                                    0.9351949382
      Total spin, S(S+1)                                0.0000000000
      Total spin, S                                     0.0000000000
      Max non-diagonal density matrix element           0.0000002340
      Max non-diagonal Fock matrix element              0.0000002388


      All orbitals with orbital energies smaller than  E(LUMO)+0.5 are printed

++    Molecular orbitals:
      -------------------

      Title: SCF orbitals

      Molecular orbitals for symmetry species 1: a  

          Orbital            1         2         3         4         5         6         7         8         9        10    
          Energy         -770.1113 -137.9215 -126.5367 -126.5367 -126.5363  -43.7318  -39.7271  -39.7271  -39.7202  -32.5617
          Occ. No.          2.0000    2.0000    2.0000    2.0000    2.0000    2.0000    2.0000    2.0000    2.0000    0.0000

        1 MO     1s         1.0000   -0.0001    0.0000   -0.0000   -0.0000    0.0001   -0.0000    0.0000    0.0000    0.0000
        2 MO     2s         0.0001    0.9999    0.0000   -0.0000   -0.0014    0.0129    0.0000   -0.0000   -0.0005   -0.0000
        3 MO     3s        -0.0001   -0.0122   -0.0000    0.0000    0.0002    0.9887    0.0000   -0.0000   -0.0238   -0.0000
        4 MO     4s         0.0000    0.0030    0.0000   -0.0000   -0.0000   -0.0994   -0.0000    0.0000    0.0038   -0.0000
        5 MO     5s        -0.0000   -0.0007   -0.0000    0.0000    0.0000    0.0214    0.0000   -0.0000   -0.0008    0.0000
        6 MO     6s         0.0000    0.0008    0.0000   -0.0000   -0.0000   -0.0251   -0.0000    0.0000    0.0010   -0.0000
        7 MO     7s        -0.0000   -0.0025   -0.0000    0.0000    0.0000    0.0692    0.0000   -0.0000   -0.0027    0.0000
        8 MO     8s         0.0000    0.0023    0.0000   -0.0000   -0.0000   -0.0530   -0.0000    0.0000    0.0021   -0.0000
        9 MO     9s        -0.0000   -0.0025   -0.0000    0.0000    0.0000    0.0464    0.0000   -0.0000   -0.0019    0.0000
       10 MO    10s         0.0001    0.0029    0.0000   -0.0000   -0.0000   -0.0316   -0.0000    0.0000    0.0012    0.0000
       11 MO     2px        0.0000    0.0014   -0.0022    0.0000    0.9999    0.0002   -0.0000    0.0000    0.0145    0.0000
       12 MO     3px       -0.0000    0.0001    0.0000   -0.0000   -0.0137    0.0244   -0.0017    0.0000    0.9846    0.0000
       13 MO     4px        0.0000   -0.0000   -0.0000    0.0000    0.0030   -0.0017    0.0002   -0.0000   -0.1073   -0.0000
       14 MO     5px       -0.0000    0.0000    0.0000   -0.0000   -0.0010    0.0005   -0.0001    0.0000    0.0343    0.0000
       15 MO     6px        0.0000   -0.0000   -0.0000    0.0000    0.0026   -0.0011    0.0001   -0.0000   -0.0792   -0.0000
       16 MO     7px       -0.0000    0.0000    0.0000   -0.0000   -0.0023    0.0008   -0.0001    0.0000    0.0632    0.0000
       17 MO     8px        0.0000   -0.0000   -0.0000    0.0000    0.0029   -0.0008    0.0001   -0.0000   -0.0632   -0.0000
       18 MO     9px       -0.0000    0.0000    0.0000   -0.0000   -0.0027    0.0005   -0.0001    0.0000    0.0464    0.0000
       19 MO    10px        0.0000   -0.0000   -0.0000    0.0000    0.0022   -0.0002    0.0000   -0.0000   -0.0212   -0.0000
       20 MO     2py        0.0000    0.0000    0.0000    0.9999   -0.0000    0.0000    0.0000    0.0145    0.0000    0.0000
       21 MO     3py        0.0000   -0.0000   -0.0000   -0.0137    0.0000    0.0000    0.0000    0.9850    0.0000    0.0001
       22 MO     4py       -0.0000    0.0000    0.0000    0.0030   -0.0000   -0.0000   -0.0000   -0.1072   -0.0000   -0.0000
       23 MO     5py        0.0000   -0.0000   -0.0000   -0.0010    0.0000    0.0000    0.0000    0.0342    0.0000    0.0000
       24 MO     6py       -0.0000    0.0000    0.0000    0.0026   -0.0000   -0.0000   -0.0000   -0.0791   -0.0000   -0.0000
       25 MO     7py        0.0000   -0.0000   -0.0000   -0.0023    0.0000    0.0000    0.0000    0.0631    0.0000    0.0000
       26 MO     8py       -0.0000    0.0000    0.0000    0.0029   -0.0000   -0.0000   -0.0000   -0.0632   -0.0000   -0.0000
       27 MO     9py        0.0000   -0.0000   -0.0000   -0.0027    0.0000    0.0000    0.0000    0.0464    0.0000    0.0000
       28 MO    10py       -0.0000    0.0000    0.0000    0.0022   -0.0000   -0.0000   -0.0000   -0.0211   -0.0000   -0.0000
       29 MO     2pz        0.0000    0.0000    0.9999   -0.0000    0.0022    0.0000    0.0145   -0.0000    0.0000    0.0000
       30 MO     3pz       -0.0000    0.0000   -0.0137    0.0000   -0.0000    0.0000    0.9850   -0.0000    0.0017    0.0000
       31 MO     4pz        0.0000   -0.0000    0.0030   -0.0000    0.0000   -0.0000   -0.1072    0.0000   -0.0002   -0.0000
       32 MO     5pz       -0.0000    0.0000   -0.0010    0.0000   -0.0000    0.0000    0.0342   -0.0000    0.0001    0.0000
       33 MO     6pz        0.0000   -0.0000    0.0026   -0.0000    0.0000   -0.0000   -0.0791    0.0000   -0.0001   -0.0000
       34 MO     7pz       -0.0000    0.0000   -0.0023    0.0000   -0.0000    0.0000    0.0631   -0.0000    0.0001    0.0000
       35 MO     8pz        0.0000   -0.0000    0.0029   -0.0000    0.0000   -0.0000   -0.0632    0.0000   -0.0001   -0.0000
       36 MO     9pz       -0.0000    0.0000   -0.0027    0.0000   -0.0000    0.0000    0.0464   -0.0000    0.0001    0.0000
       37 MO    10pz        0.0000   -0.0000    0.0022   -0.0000    0.0000   -0.0000   -0.0211    0.0000   -0.0000   -0.0000
       38 MO     3d2-       0.0000    0.0000    0.0000    0.0001   -0.0000    0.0000    0.0000    0.0123    0.0000   -0.0050
       39 MO     4d2-       0.0000   -0.0000   -0.0000   -0.0000    0.0000   -0.0000   -0.0000   -0.0007   -0.0000    0.0005
       40 MO     5d2-      -0.0000    0.0000    0.0000    0.0000   -0.0000    0.0000    0.0000    0.0007    0.0000   -0.0005
       41 MO     6d2-       0.0000   -0.0000   -0.0000   -0.0000    0.0000   -0.0000   -0.0000   -0.0005   -0.0000    0.0005
       42 MO     7d2-      -0.0000    0.0000    0.0000    0.0000   -0.0000    0.0000    0.0000    0.0003    0.0000   -0.0004
       43 MO     8d2-       0.0000   -0.0000   -0.0000   -0.0000    0.0000   -0.0000   -0.0000   -0.0002   -0.0000    0.0004
       44 MO     9d2-      -0.0000    0.0000    0.0000    0.0000   -0.0000    0.0000    0.0000    0.0001    0.0000   -0.0003
       45 MO    10d2-       0.0000   -0.0000   -0.0000   -0.0000    0.0000   -0.0000    0.0000    0.0000    0.0000    0.0003
       46 MO    11d2-      -0.0000    0.0000    0.0000    0.0000   -0.0000    0.0000   -0.0000   -0.0000   -0.0000   -0.0000
       47 MO     3d1-       0.0000   -0.0000    0.0000    0.0000   -0.0000   -0.0000    0.0000    0.0000   -0.0000    0.9757
       48 MO     4d1-      -0.0000    0.0000   -0.0000   -0.0000    0.0000    0.0000   -0.0000   -0.0000    0.0000   -0.0981
       49 MO     5d1-       0.0000   -0.0000    0.0000    0.0000   -0.0000   -0.0000    0.0000    0.0000   -0.0000    0.1046
       50 MO     6d1-      -0.0000    0.0000   -0.0000   -0.0000    0.0000    0.0000   -0.0000   -0.0000    0.0000   -0.0889
       51 MO     7d1-       0.0000   -0.0000    0.0000    0.0000   -0.0000   -0.0000    0.0000    0.0000   -0.0000    0.0774
       52 MO     8d1-      -0.0000    0.0000   -0.0000   -0.0000    0.0000    0.0000    0.0000    0.0000    0.0000   -0.0793
       53 MO     9d1-       0.0000   -0.0000    0.0000    0.0000   -0.0000    0.0000    0.0000    0.0000   -0.0000    0.0604
       54 MO    10d1-      -0.0000    0.0000   -0.0000   -0.0000    0.0000   -0.0000    0.0000    0.0000    0.0000   -0.0591
       55 MO    11d1-       0.0000   -0.0000    0.0000    0.0000    0.0000    0.0000   -0.0000   -0.0000    0.0000    0.0088
       56 MO     3d0        0.0000    0.0000    0.0000   -0.0000   -0.0001    0.0001    0.0000   -0.0000   -0.0072   -0.0000
       57 MO     4d0       -0.0000   -0.0000   -0.0000    0.0000    0.0000   -0.0000   -0.0000    0.0000    0.0004    0.0000
       58 MO     5d0        0.0000    0.0000    0.0000   -0.0000   -0.0000   -0.0000    0.0000   -0.0000   -0.0004   -0.0000
       59 MO     6d0       -0.0000   -0.0000   -0.0000    0.0000    0.0000    0.0000   -0.0000    0.0000    0.0003    0.0000
       60 MO     7d0        0.0000    0.0000    0.0000   -0.0000   -0.0000   -0.0000    0.0000   -0.0000   -0.0002   -0.0000
       61 MO     8d0       -0.0000   -0.0000   -0.0000    0.0000    0.0000    0.0000   -0.0000    0.0000    0.0001    0.0000
       62 MO     9d0        0.0000    0.0000    0.0000   -0.0000   -0.0000   -0.0000   -0.0000    0.0000   -0.0000   -0.0000
       63 MO    10d0       -0.0000   -0.0000   -0.0000    0.0000    0.0000    0.0000    0.0000   -0.0000   -0.0000    0.0000
       64 MO    11d0        0.0000    0.0000    0.0000   -0.0000   -0.0000   -0.0000   -0.0000    0.0000    0.0000   -0.0000
       65 MO     3d1+      -0.0000   -0.0000    0.0001   -0.0000    0.0000   -0.0000    0.0123   -0.0000    0.0000   -0.0000
       66 MO     4d1+       0.0000    0.0000   -0.0000    0.0000   -0.0000    0.0000   -0.0007    0.0000   -0.0000    0.0000
       67 MO     5d1+      -0.0000   -0.0000    0.0000   -0.0000    0.0000    0.0000    0.0007   -0.0000    0.0000   -0.0000
       68 MO     6d1+       0.0000    0.0000   -0.0000    0.0000   -0.0000   -0.0000   -0.0005    0.0000   -0.0000    0.0000
       69 MO     7d1+      -0.0000   -0.0000    0.0000   -0.0000    0.0000    0.0000    0.0003   -0.0000    0.0000   -0.0000
       70 MO     8d1+       0.0000    0.0000   -0.0000    0.0000   -0.0000   -0.0000   -0.0002    0.0000   -0.0000    0.0000
       71 MO     9d1+      -0.0000   -0.0000    0.0000   -0.0000    0.0000    0.0000    0.0001   -0.0000    0.0000   -0.0000
       72 MO    10d1+       0.0000    0.0000   -0.0000    0.0000   -0.0000   -0.0000    0.0000   -0.0000    0.0000    0.0000
       73 MO    11d1+      -0.0000   -0.0000    0.0000   -0.0000    0.0000    0.0000   -0.0000    0.0000   -0.0000   -0.0000
       74 MO     3d2+      -0.0000   -0.0000   -0.0000    0.0000    0.0001   -0.0001   -0.0000    0.0000    0.0124   -0.0000
       75 MO     4d2+       0.0000    0.0000    0.0000   -0.0000   -0.0000    0.0000    0.0000   -0.0000   -0.0007    0.0000
       76 MO     5d2+      -0.0000   -0.0000   -0.0000    0.0000    0.0000    0.0000   -0.0000    0.0000    0.0007   -0.0000
       77 MO     6d2+       0.0000    0.0000    0.0000   -0.0000   -0.0000   -0.0000    0.0000   -0.0000   -0.0005    0.0000
       78 MO     7d2+      -0.0000   -0.0000   -0.0000    0.0000    0.0000    0.0000   -0.0000    0.0000    0.0003   -0.0000
       79 MO     8d2+       0.0000    0.0000    0.0000   -0.0000   -0.0000   -0.0000    0.0000   -0.0000   -0.0002    0.0000
       80 MO     9d2+      -0.0000   -0.0000   -0.0000    0.0000    0.0000    0.0000   -0.0000    0.0000    0.0001   -0.0000
       81 MO    10d2+       0.0000    0.0000    0.0000   -0.0000   -0.0000   -0.0000   -0.0000   -0.0000    0.0000    0.0000
       82 MO    11d2+      -0.0000   -0.0000   -0.0000    0.0000    0.0000    0.0000    0.0000   -0.0000   -0.0000   -0.0000
       83 MO     4f3-      -0.0000   -0.0000   -0.0000   -0.0000    0.0000    0.0000   -0.0000   -0.0000   -0.0000   -0.0000
       84 MO     5f3-      -0.0000   -0.0000   -0.0000   -0.0000    0.0000    0.0000   -0.0000   -0.0000   -0.0000   -0.0000
       85 MO     6f3-       0.0000    0.0000    0.0000    0.0000   -0.0000   -0.0000    0.0000    0.0000    0.0000    0.0000
       86 MO     7f3-      -0.0000   -0.0000   -0.0000   -0.0000    0.0000    0.0000   -0.0000   -0.0000   -0.0000   -0.0000
       87 MO     8f3-       0.0000   -0.0000   -0.0000   -0.0000    0.0000    0.0000   -0.0000   -0.0000   -0.0000   -0.0000
       88 MO     9f3-      -0.0000    0.0000    0.0000    0.0000   -0.0000   -0.0000    0.0000    0.0001    0.0000    0.0000
       89 MO     4f2-       0.0000   -0.0000   -0.0000   -0.0000    0.0000   -0.0000   -0.0000   -0.0000   -0.0000    0.0008
       90 MO     5f2-       0.0000   -0.0000   -0.0000   -0.0000    0.0000   -0.0000   -0.0000   -0.0000    0.0000    0.0009
       91 MO     6f2-      -0.0000    0.0000    0.0000    0.0000   -0.0000    0.0000    0.0000    0.0000   -0.0000   -0.0009
       92 MO     7f2-       0.0000   -0.0000   -0.0000   -0.0000    0.0000   -0.0000   -0.0000   -0.0000    0.0000    0.0008
       93 MO     8f2-       0.0000   -0.0000   -0.0000   -0.0000    0.0000   -0.0000   -0.0000   -0.0000   -0.0000    0.0005
       94 MO     9f2-       0.0000    0.0000    0.0000    0.0000   -0.0000    0.0000    0.0000    0.0000    0.0000   -0.0020
       95 MO     4f1-       0.0000    0.0000    0.0000    0.0000   -0.0000    0.0000    0.0000    0.0000    0.0000    0.0000
       96 MO     5f1-       0.0000    0.0000    0.0000    0.0000   -0.0000    0.0000    0.0000    0.0000    0.0000    0.0000
       97 MO     6f1-      -0.0000   -0.0000   -0.0000   -0.0000    0.0000   -0.0000   -0.0000   -0.0000   -0.0000   -0.0000
       98 MO     7f1-       0.0000    0.0000    0.0000    0.0000   -0.0000    0.0000    0.0000    0.0000    0.0000    0.0000
       99 MO     8f1-       0.0000    0.0000    0.0000    0.0000   -0.0000    0.0000    0.0000    0.0000    0.0000    0.0000
      100 MO     9f1-       0.0000   -0.0000   -0.0000   -0.0000    0.0000   -0.0000   -0.0000   -0.0000   -0.0000   -0.0000
      101 MO     4f0        0.0000    0.0000    0.0000   -0.0000    0.0000    0.0000    0.0000   -0.0000    0.0000    0.0000
      102 MO     5f0       -0.0000   -0.0000    0.0000   -0.0000    0.0000   -0.0000    0.0000   -0.0000    0.0000    0.0000
      103 MO     6f0       -0.0000   -0.0000   -0.0000    0.0000   -0.0000   -0.0000   -0.0000    0.0000   -0.0000   -0.0000
      104 MO     7f0       -0.0000   -0.0000    0.0000   -0.0000    0.0000   -0.0000    0.0000   -0.0000    0.0000    0.0000
      105 MO     8f0        0.0000    0.0000    0.0000   -0.0000    0.0000    0.0000    0.0000   -0.0000    0.0000    0.0000
      106 MO     9f0        0.0000   -0.0000   -0.0000    0.0000   -0.0000   -0.0000   -0.0000    0.0000   -0.0000   -0.0000
      107 MO     4f1+       0.0000   -0.0000   -0.0000    0.0000    0.0000   -0.0000    0.0000   -0.0000    0.0000   -0.0000
      108 MO     5f1+       0.0000    0.0000   -0.0000    0.0000    0.0000   -0.0000    0.0000   -0.0000    0.0000   -0.0000
      109 MO     6f1+       0.0000    0.0000    0.0000   -0.0000   -0.0000    0.0000   -0.0000    0.0000   -0.0000    0.0000
      110 MO     7f1+       0.0000    0.0000    0.0000    0.0000    0.0000   -0.0000    0.0000   -0.0000    0.0000   -0.0000
      111 MO     8f1+       0.0000   -0.0000   -0.0000    0.0000    0.0000   -0.0000    0.0000   -0.0000    0.0000   -0.0000
      112 MO     9f1+      -0.0000    0.0000    0.0000   -0.0000   -0.0000    0.0000   -0.0000    0.0000   -0.0000    0.0000
      113 MO     4f2+       0.0000    0.0000   -0.0000    0.0000   -0.0000    0.0000   -0.0000    0.0000    0.0000   -0.0000
      114 MO     5f2+      -0.0000   -0.0000   -0.0000    0.0000   -0.0000   -0.0000   -0.0000    0.0000    0.0000   -0.0000
      115 MO     6f2+      -0.0000   -0.0000    0.0000   -0.0000    0.0000   -0.0000    0.0000   -0.0000   -0.0000    0.0000
      116 MO     7f2+      -0.0000   -0.0000   -0.0000    0.0000   -0.0000   -0.0000   -0.0000    0.0000    0.0000   -0.0000
      117 MO     8f2+       0.0000    0.0000   -0.0000    0.0000   -0.0000    0.0000   -0.0000    0.0000   -0.0000   -0.0000
      118 MO     9f2+       0.0000   -0.0000    0.0000   -0.0000    0.0000   -0.0000    0.0000   -0.0000    0.0000    0.0000
      119 MO     4f3+      -0.0000    0.0000    0.0000   -0.0000   -0.0000    0.0000    0.0000   -0.0000   -0.0000   -0.0000
      120 MO     5f3+      -0.0000   -0.0000    0.0000   -0.0000   -0.0000    0.0000    0.0000   -0.0000   -0.0000   -0.0000
      121 MO     6f3+      -0.0000   -0.0000   -0.0000    0.0000    0.0000   -0.0000   -0.0000    0.0000    0.0000    0.0000
      122 MO     7f3+      -0.0000   -0.0000    0.0000   -0.0000   -0.0000    0.0000    0.0000   -0.0000   -0.0000   -0.0000
      123 MO     8f3+      -0.0000    0.0000    0.0000   -0.0000   -0.0000    0.0000    0.0000   -0.0000   -0.0000   -0.0000
      124 MO     9f3+       0.0000   -0.0000   -0.0000    0.0000    0.0000   -0.0000   -0.0000    0.0000    0.0001    0.0000
      125 MO     5g4-      -0.0000    0.0000    0.0000    0.0000   -0.0000    0.0000    0.0000    0.0000    0.0000    0.0000
      126 MO     6g4-       0.0000   -0.0000   -0.0000   -0.0000    0.0000   -0.0000   -0.0000   -0.0000   -0.0000   -0.0000
      127 MO     7g4-      -0.0000    0.0000    0.0000    0.0000   -0.0000    0.0000    0.0000    0.0000    0.0000    0.0000
      128 MO     8g4-       0.0000   -0.0000   -0.0000   -0.0000    0.0000   -0.0000   -0.0000   -0.0000   -0.0000   -0.0000
      129 MO     5g3-       0.0000    0.0000   -0.0000   -0.0000    0.0000    0.0000   -0.0000   -0.0000   -0.0000   -0.0000
      130 MO     6g3-      -0.0000   -0.0000    0.0000    0.0000    0.0000   -0.0000    0.0000    0.0000    0.0000    0.0000
      131 MO     7g3-       0.0000    0.0000    0.0000    0.0000   -0.0000    0.0000    0.0000    0.0000   -0.0000   -0.0000
      132 MO     8g3-      -0.0000   -0.0000    0.0000    0.0000   -0.0000   -0.0000    0.0000    0.0000    0.0000    0.0000
      133 MO     5g2-      -0.0000   -0.0000   -0.0000   -0.0000    0.0000   -0.0000   -0.0000   -0.0000   -0.0000   -0.0000
      134 MO     6g2-       0.0000    0.0000    0.0000    0.0000   -0.0000    0.0000    0.0000    0.0000   -0.0000    0.0000
      135 MO     7g2-      -0.0000   -0.0000   -0.0000   -0.0000    0.0000   -0.0000   -0.0000   -0.0000    0.0000   -0.0000
      136 MO     8g2-       0.0000    0.0000    0.0000    0.0000   -0.0000    0.0000    0.0000    0.0000   -0.0000    0.0000
      137 MO     5g1-       0.0000   -0.0000    0.0000    0.0000   -0.0000    0.0000    0.0000    0.0000   -0.0000    0.0000
      138 MO     6g1-      -0.0000    0.0000    0.0000    0.0000   -0.0000   -0.0000   -0.0000   -0.0000    0.0000   -0.0000
      139 MO     7g1-       0.0000   -0.0000    0.0000    0.0000    0.0000    0.0000    0.0000    0.0000   -0.0000    0.0000
      140 MO     8g1-      -0.0000    0.0000   -0.0000   -0.0000   -0.0000   -0.0000   -0.0000   -0.0000    0.0000   -0.0000
      141 MO     5g0       -0.0000   -0.0000   -0.0000    0.0000    0.0000   -0.0000   -0.0000    0.0000    0.0000   -0.0000
      142 MO     6g0       -0.0000   -0.0000    0.0000   -0.0000   -0.0000    0.0000    0.0000   -0.0000   -0.0000    0.0000
      143 MO     7g0       -0.0000   -0.0000    0.0000   -0.0000    0.0000   -0.0000    0.0000   -0.0000    0.0000   -0.0000
      144 MO     8g0       -0.0000   -0.0000    0.0000   -0.0000   -0.0000   -0.0000    0.0000   -0.0000   -0.0000    0.0000
      145 MO     5g1+       0.0000    0.0000   -0.0000    0.0000    0.0000    0.0000   -0.0000    0.0000    0.0000   -0.0000
      146 MO     6g1+       0.0000    0.0000    0.0000   -0.0000    0.0000   -0.0000    0.0000   -0.0000   -0.0000    0.0000
      147 MO     7g1+       0.0000    0.0000   -0.0000    0.0000    0.0000    0.0000   -0.0000    0.0000    0.0000   -0.0000
      148 MO     8g1+       0.0000    0.0000    0.0000   -0.0000   -0.0000   -0.0000    0.0000   -0.0000   -0.0000    0.0000
      149 MO     5g2+       0.0000    0.0000    0.0000   -0.0000   -0.0000    0.0000    0.0000   -0.0000   -0.0000    0.0000
      150 MO     6g2+       0.0000    0.0000   -0.0000    0.0000    0.0000   -0.0000   -0.0000    0.0000    0.0000   -0.0000
      151 MO     7g2+       0.0000    0.0000    0.0000   -0.0000   -0.0000    0.0000    0.0000   -0.0000   -0.0000    0.0000
      152 MO     8g2+       0.0000    0.0000   -0.0000    0.0000    0.0000    0.0000   -0.0000    0.0000    0.0000   -0.0000
      153 MO     5g3+       0.0000    0.0000    0.0000   -0.0000    0.0000    0.0000    0.0000   -0.0000    0.0000    0.0000
      154 MO     6g3+       0.0000    0.0000   -0.0000    0.0000   -0.0000   -0.0000   -0.0000    0.0000   -0.0000   -0.0000
      155 MO     7g3+       0.0000    0.0000    0.0000   -0.0000    0.0000    0.0000    0.0000   -0.0000    0.0000    0.0000
      156 MO     8g3+       0.0000    0.0000   -0.0000    0.0000   -0.0000   -0.0000   -0.0000    0.0000   -0.0000   -0.0000
      157 MO     5g4+      -0.0000   -0.0000    0.0000   -0.0000    0.0000   -0.0000    0.0000   -0.0000    0.0000    0.0000
      158 MO     6g4+      -0.0000   -0.0000   -0.0000    0.0000   -0.0000    0.0000   -0.0000    0.0000   -0.0000   -0.0000
      159 MO     7g4+      -0.0000   -0.0000    0.0000    0.0000    0.0000   -0.0000    0.0000   -0.0000    0.0000    0.0000
      160 MO     8g4+      -0.0000   -0.0000   -0.0000    0.0000   -0.0000   -0.0000   -0.0000    0.0000   -0.0000   -0.0000
      161 MO     6h5-      -0.0000   -0.0000   -0.0000   -0.0000   -0.0000   -0.0000   -0.0000   -0.0000    0.0000    0.0000
      162 MO     7h5-       0.0000    0.0000    0.0000    0.0000    0.0000    0.0000    0.0000    0.0000   -0.0000   -0.0000
      163 MO     6h4-      -0.0000    0.0000    0.0000    0.0000   -0.0000   -0.0000    0.0000    0.0000    0.0000    0.0000
      164 MO     7h4-      -0.0000    0.0000   -0.0000   -0.0000    0.0000    0.0000   -0.0000   -0.0000   -0.0000   -0.0000
      165 MO     6h3-      -0.0000   -0.0000    0.0000    0.0000   -0.0000   -0.0000    0.0000    0.0000    0.0000   -0.0000
      166 MO     7h3-       0.0000    0.0000   -0.0000   -0.0000    0.0000    0.0000   -0.0000   -0.0000   -0.0000    0.0000
      167 MO     6h2-       0.0000    0.0000    0.0000    0.0000   -0.0000    0.0000    0.0000    0.0000    0.0000   -0.0000
      168 MO     7h2-       0.0000    0.0000   -0.0000   -0.0000    0.0000   -0.0000   -0.0000   -0.0000   -0.0000    0.0000
      169 MO     6h1-      -0.0000   -0.0000   -0.0000   -0.0000   -0.0000   -0.0000   -0.0000   -0.0000    0.0000   -0.0000
      170 MO     7h1-       0.0000    0.0000    0.0000    0.0000    0.0000    0.0000    0.0000    0.0000   -0.0000    0.0000
      171 MO     6h0        0.0000    0.0000   -0.0000    0.0000   -0.0000   -0.0000   -0.0000    0.0000   -0.0000    0.0000
      172 MO     7h0        0.0000    0.0000    0.0000   -0.0000    0.0000    0.0000    0.0000   -0.0000    0.0000   -0.0000
      173 MO     6h1+      -0.0000   -0.0000    0.0000   -0.0000   -0.0000    0.0000    0.0000   -0.0000   -0.0000    0.0000
      174 MO     7h1+      -0.0000   -0.0000   -0.0000    0.0000    0.0000   -0.0000   -0.0000    0.0000    0.0000   -0.0000
      175 MO     6h2+      -0.0000   -0.0000    0.0000   -0.0000    0.0000    0.0000    0.0000   -0.0000    0.0000   -0.0000
      176 MO     7h2+      -0.0000   -0.0000   -0.0000    0.0000   -0.0000   -0.0000   -0.0000    0.0000   -0.0000    0.0000
      177 MO     6h3+       0.0000    0.0000    0.0000   -0.0000    0.0000   -0.0000    0.0000   -0.0000    0.0000   -0.0000
      178 MO     7h3+       0.0000    0.0000   -0.0000    0.0000   -0.0000    0.0000   -0.0000    0.0000   -0.0000    0.0000
      179 MO     6h4+      -0.0000   -0.0000   -0.0000    0.0000    0.0000    0.0000   -0.0000    0.0000    0.0000    0.0000
      180 MO     7h4+      -0.0000   -0.0000    0.0000   -0.0000   -0.0000   -0.0000    0.0000   -0.0000   -0.0000   -0.0000
      181 MO     6h5+      -0.0000   -0.0000    0.0000   -0.0000   -0.0000    0.0000    0.0000   -0.0000   -0.0000   -0.0000
      182 MO     7h5+      -0.0000   -0.0000    0.0000   -0.0000    0.0000   -0.0000    0.0000    0.0000    0.0000    0.0000

          Orbital           11        12        13        14    
          Energy          -32.5617  -32.5583  -32.5583  -32.5572
          Occ. No.          0.0000    0.0000    0.0000    0.0000

        1 MO     1s        -0.0000    0.0000    0.0000    0.0000
        2 MO     2s        -0.0000   -0.0000   -0.0000    0.0000
        3 MO     3s        -0.0000   -0.0000   -0.0000    0.0005
        4 MO     4s         0.0000   -0.0000   -0.0000   -0.0001
        5 MO     5s        -0.0000    0.0000    0.0000    0.0000
        6 MO     6s         0.0000   -0.0000   -0.0000   -0.0000
        7 MO     7s        -0.0000    0.0000    0.0000    0.0001
        8 MO     8s         0.0000   -0.0000   -0.0000   -0.0001
        9 MO     9s        -0.0000   -0.0000   -0.0000    0.0001
       10 MO    10s         0.0000    0.0000    0.0000   -0.0000
       11 MO     2px       -0.0000    0.0000    0.0000   -0.0003
       12 MO     3px       -0.0000    0.0000    0.0000   -0.0137
       13 MO     4px        0.0000   -0.0000   -0.0000    0.0027
       14 MO     5px       -0.0000    0.0000    0.0000   -0.0009
       15 MO     6px        0.0000   -0.0000   -0.0000    0.0020
       16 MO     7px       -0.0000    0.0000    0.0000   -0.0016
       17 MO     8px        0.0000   -0.0000   -0.0000    0.0016
       18 MO     9px       -0.0000    0.0000    0.0000   -0.0012
       19 MO    10px        0.0000   -0.0000   -0.0000    0.0005
       20 MO     2py        0.0000    0.0000   -0.0003   -0.0000
       21 MO     3py        0.0000    0.0000   -0.0117    0.0000
       22 MO     4py       -0.0000   -0.0000    0.0023   -0.0000
       23 MO     5py        0.0000    0.0000   -0.0007    0.0000
       24 MO     6py       -0.0000   -0.0000    0.0017   -0.0000
       25 MO     7py        0.0000    0.0000   -0.0014    0.0000
       26 MO     8py       -0.0000   -0.0000    0.0014   -0.0000
       27 MO     9py        0.0000    0.0000   -0.0010    0.0000
       28 MO    10py       -0.0000   -0.0000    0.0004   -0.0000
       29 MO     2pz       -0.0000   -0.0003   -0.0000   -0.0000
       30 MO     3pz       -0.0000   -0.0117   -0.0000   -0.0000
       31 MO     4pz        0.0000    0.0023    0.0000    0.0000
       32 MO     5pz       -0.0000   -0.0007   -0.0000   -0.0000
       33 MO     6pz        0.0000    0.0017    0.0000    0.0000
       34 MO     7pz       -0.0000   -0.0014   -0.0000   -0.0000
       35 MO     8pz        0.0000    0.0014    0.0000    0.0000
       36 MO     9pz       -0.0000   -0.0010   -0.0000   -0.0000
       37 MO    10pz        0.0000    0.0004    0.0000    0.0000
       38 MO     3d2-      -0.0000   -0.0000    0.9756   -0.0000
       39 MO     4d2-       0.0000    0.0000   -0.0981    0.0000
       40 MO     5d2-      -0.0000   -0.0000    0.1046   -0.0000
       41 MO     6d2-       0.0000    0.0000   -0.0889    0.0000
       42 MO     7d2-      -0.0000   -0.0000    0.0775   -0.0000
       43 MO     8d2-       0.0000    0.0000   -0.0794    0.0000
       44 MO     9d2-      -0.0000   -0.0000    0.0604   -0.0000
       45 MO    10d2-       0.0000    0.0000   -0.0592    0.0000
       46 MO    11d2-      -0.0000   -0.0000    0.0088   -0.0000
       47 MO     3d1-       0.0000   -0.0000    0.0050    0.0000
       48 MO     4d1-      -0.0000    0.0000   -0.0005   -0.0000
       49 MO     5d1-       0.0000   -0.0000    0.0005    0.0000
       50 MO     6d1-      -0.0000    0.0000   -0.0005   -0.0000
       51 MO     7d1-       0.0000   -0.0000    0.0004    0.0000
       52 MO     8d1-      -0.0000    0.0000   -0.0004   -0.0000
       53 MO     9d1-       0.0000   -0.0000    0.0003    0.0000
       54 MO    10d1-      -0.0000    0.0000   -0.0003   -0.0000
       55 MO    11d1-       0.0000   -0.0000    0.0000    0.0000
       56 MO     3d0        0.8450    0.0005    0.0000   -0.4878
       57 MO     4d0       -0.0849   -0.0000   -0.0000    0.0491
       58 MO     5d0        0.0906    0.0001    0.0000   -0.0523
       59 MO     6d0       -0.0770   -0.0000   -0.0000    0.0445
       60 MO     7d0        0.0671    0.0000    0.0000   -0.0387
       61 MO     8d0       -0.0687   -0.0000   -0.0000    0.0397
       62 MO     9d0        0.0523    0.0000    0.0000   -0.0302
       63 MO    10d0       -0.0512   -0.0000   -0.0000    0.0296
       64 MO    11d0        0.0077    0.0000    0.0000   -0.0044
       65 MO     3d1+       0.0013    0.9756    0.0000    0.0032
       66 MO     4d1+      -0.0001   -0.0981   -0.0000   -0.0003
       67 MO     5d1+       0.0001    0.1046    0.0000    0.0003
       68 MO     6d1+      -0.0001   -0.0889   -0.0000   -0.0003
       69 MO     7d1+       0.0001    0.0775    0.0000    0.0003
       70 MO     8d1+      -0.0001   -0.0794   -0.0000   -0.0003
       71 MO     9d1+       0.0001    0.0604    0.0000    0.0002
       72 MO    10d1+      -0.0001   -0.0592   -0.0000   -0.0002
       73 MO    11d1+       0.0000    0.0088    0.0000    0.0000
       74 MO     3d2+       0.4879   -0.0034   -0.0000    0.8449
       75 MO     4d2+      -0.0490    0.0003    0.0000   -0.0850
       76 MO     5d2+       0.0523   -0.0004   -0.0000    0.0906
       77 MO     6d2+      -0.0444    0.0003    0.0000   -0.0770
       78 MO     7d2+       0.0387   -0.0003   -0.0000    0.0671
       79 MO     8d2+      -0.0397    0.0003    0.0000   -0.0688
       80 MO     9d2+       0.0302   -0.0002   -0.0000    0.0523
       81 MO    10d2+      -0.0296    0.0002    0.0000   -0.0513
       82 MO    11d2+       0.0044   -0.0000   -0.0000    0.0077
       83 MO     4f3-      -0.0000   -0.0000    0.0010   -0.0000
       84 MO     5f3-      -0.0000   -0.0000    0.0011   -0.0000
       85 MO     6f3-       0.0000    0.0000   -0.0011    0.0000
       86 MO     7f3-      -0.0000   -0.0000    0.0010   -0.0000
       87 MO     8f3-      -0.0000   -0.0000    0.0006   -0.0000
       88 MO     9f3-       0.0000    0.0000   -0.0024    0.0000
       89 MO     4f2-       0.0000   -0.0000    0.0000    0.0000
       90 MO     5f2-       0.0000   -0.0000    0.0000    0.0000
       91 MO     6f2-      -0.0000    0.0000   -0.0000   -0.0000
       92 MO     7f2-       0.0000   -0.0000    0.0000    0.0000
       93 MO     8f2-       0.0000   -0.0000    0.0000    0.0000
       94 MO     9f2-      -0.0000    0.0000   -0.0000   -0.0000
       95 MO     4f1-       0.0000    0.0000   -0.0002    0.0000
       96 MO     5f1-       0.0000    0.0000   -0.0003    0.0000
       97 MO     6f1-      -0.0000   -0.0000    0.0003   -0.0000
       98 MO     7f1-       0.0000    0.0000   -0.0003    0.0000
       99 MO     8f1-       0.0000    0.0000   -0.0002    0.0000
      100 MO     9f1-      -0.0000   -0.0000    0.0006   -0.0000
      101 MO     4f0       -0.0000   -0.0006   -0.0000   -0.0000
      102 MO     5f0       -0.0000   -0.0007   -0.0000   -0.0000
      103 MO     6f0        0.0000    0.0007    0.0000    0.0000
      104 MO     7f0       -0.0000   -0.0006   -0.0000   -0.0000
      105 MO     8f0       -0.0000   -0.0004   -0.0000   -0.0000
      106 MO     9f0        0.0000    0.0015    0.0000    0.0000
      107 MO     4f1+       0.0006    0.0000    0.0000   -0.0006
      108 MO     5f1+       0.0007    0.0000    0.0000   -0.0007
      109 MO     6f1+      -0.0007   -0.0000   -0.0000    0.0007
      110 MO     7f1+       0.0006    0.0000    0.0000   -0.0007
      111 MO     8f1+       0.0004    0.0000    0.0000   -0.0004
      112 MO     9f1+      -0.0015   -0.0000   -0.0000    0.0016
      113 MO     4f2+       0.0000    0.0008    0.0000    0.0000
      114 MO     5f2+       0.0000    0.0009    0.0000    0.0000
      115 MO     6f2+      -0.0000   -0.0009   -0.0000   -0.0000
      116 MO     7f2+       0.0000    0.0008    0.0000    0.0000
      117 MO     8f2+       0.0000    0.0005    0.0000    0.0000
      118 MO     9f2+      -0.0000   -0.0020   -0.0000   -0.0000
      119 MO     4f3+       0.0005   -0.0000   -0.0000    0.0008
      120 MO     5f3+       0.0006   -0.0000   -0.0000    0.0010
      121 MO     6f3+      -0.0005    0.0000    0.0000   -0.0010
      122 MO     7f3+       0.0005   -0.0000   -0.0000    0.0009
      123 MO     8f3+       0.0003   -0.0000   -0.0000    0.0005
      124 MO     9f3+      -0.0012    0.0000    0.0000   -0.0021
      125 MO     5g4-       0.0000    0.0000   -0.0000    0.0000
      126 MO     6g4-      -0.0000   -0.0000    0.0000   -0.0000
      127 MO     7g4-       0.0000    0.0000   -0.0000    0.0000
      128 MO     8g4-      -0.0000   -0.0000    0.0000   -0.0000
      129 MO     5g3-      -0.0000    0.0000   -0.0000    0.0000
      130 MO     6g3-       0.0000   -0.0000    0.0000   -0.0000
      131 MO     7g3-      -0.0000    0.0000   -0.0000   -0.0000
      132 MO     8g3-       0.0000   -0.0000    0.0000    0.0000
      133 MO     5g2-      -0.0000   -0.0000    0.0000   -0.0000
      134 MO     6g2-       0.0000    0.0000   -0.0000    0.0000
      135 MO     7g2-      -0.0000   -0.0000    0.0000    0.0000
      136 MO     8g2-       0.0000    0.0000   -0.0000    0.0000
      137 MO     5g1-       0.0000   -0.0000    0.0000   -0.0000
      138 MO     6g1-      -0.0000    0.0000   -0.0000   -0.0000
      139 MO     7g1-       0.0000   -0.0000    0.0000    0.0000
      140 MO     8g1-      -0.0000    0.0000   -0.0000    0.0000
      141 MO     5g0        0.0000    0.0000    0.0000   -0.0000
      142 MO     6g0       -0.0000   -0.0000   -0.0000    0.0000
      143 MO     7g0        0.0000    0.0000    0.0000   -0.0000
      144 MO     8g0       -0.0000   -0.0000   -0.0000    0.0000
      145 MO     5g1+       0.0000    0.0000    0.0000    0.0000
      146 MO     6g1+      -0.0000   -0.0000   -0.0000   -0.0000
      147 MO     7g1+       0.0000    0.0000    0.0000    0.0000
      148 MO     8g1+      -0.0000   -0.0000   -0.0000   -0.0000
      149 MO     5g2+      -0.0000    0.0000    0.0000    0.0000
      150 MO     6g2+       0.0000   -0.0000   -0.0000   -0.0000
      151 MO     7g2+      -0.0000    0.0000    0.0000    0.0000
      152 MO     8g2+       0.0000   -0.0000   -0.0000   -0.0000
      153 MO     5g3+      -0.0000   -0.0000   -0.0000   -0.0000
      154 MO     6g3+       0.0000    0.0000    0.0000    0.0000
      155 MO     7g3+      -0.0000   -0.0000   -0.0000   -0.0000
      156 MO     8g3+       0.0000    0.0000    0.0000    0.0000
      157 MO     5g4+      -0.0000    0.0000    0.0000   -0.0000
      158 MO     6g4+       0.0000   -0.0000   -0.0000    0.0000
      159 MO     7g4+      -0.0000    0.0000    0.0000   -0.0000
      160 MO     8g4+       0.0000   -0.0000   -0.0000    0.0000
      161 MO     6h5-       0.0000   -0.0000    0.0000   -0.0000
      162 MO     7h5-      -0.0000    0.0000   -0.0000    0.0000
      163 MO     6h4-       0.0000    0.0000   -0.0000   -0.0000
      164 MO     7h4-      -0.0000   -0.0000    0.0000    0.0000
      165 MO     6h3-      -0.0000    0.0000   -0.0000   -0.0000
      166 MO     7h3-       0.0000   -0.0000    0.0000    0.0000
      167 MO     6h2-      -0.0000   -0.0000    0.0000   -0.0000
      168 MO     7h2-       0.0000    0.0000   -0.0000    0.0000
      169 MO     6h1-      -0.0000   -0.0000    0.0000   -0.0000
      170 MO     7h1-       0.0000    0.0000   -0.0000    0.0000
      171 MO     6h0       -0.0000    0.0000    0.0000   -0.0000
      172 MO     7h0        0.0000   -0.0000   -0.0000    0.0000
      173 MO     6h1+      -0.0000   -0.0000   -0.0000    0.0000
      174 MO     7h1+       0.0000    0.0000    0.0000   -0.0000
      175 MO     6h2+       0.0000   -0.0000   -0.0000   -0.0000
      176 MO     7h2+      -0.0000    0.0000    0.0000    0.0000
      177 MO     6h3+       0.0000    0.0000    0.0000   -0.0000
      178 MO     7h3+      -0.0000   -0.0000   -0.0000    0.0000
      179 MO     6h4+      -0.0000    0.0000    0.0000    0.0000
      180 MO     7h4+       0.0000   -0.0000   -0.0000   -0.0000
      181 MO     6h5+       0.0000    0.0000    0.0000    0.0000
      182 MO     7h5+      -0.0000   -0.0000   -0.0000   -0.0000
--


++    Molecular charges:
      ------------------

      Mulliken charges per centre and basis function type
      ---------------------------------------------------

                MO    
      1s       2.0000
      2s       2.0000
      2px      2.0000
      2pz      2.0000
      2py      2.0000
      3s       1.9565
      3px      1.9405
      3pz      1.9407
      3py      1.9407
      4s       0.0198
      3d2+     0.0003
      3d1+     0.0003
      3d0      0.0001
      3d1-     0.0000
      3d2-     0.0003
      4px      0.0230
      4pz      0.0230
      4py      0.0230
      5s       0.0009
      4d2+     0.0000
      4d1+     0.0000
      4d0      0.0000
      4d1-     0.0000
      4d2-     0.0000
      5px      0.0024
      5pz      0.0023
      5py      0.0023
      6s       0.0013
      4f3+     0.0000
      4f2+     0.0000
      4f1+     0.0000
      4f0      0.0000
      4f1-     0.0000
      4f2-     0.0000
      4f3-     0.0000
      5d2+     0.0000
      5d1+     0.0000
      5d0      0.0000
      5d1-     0.0000
      5d2-     0.0000
      6px      0.0125
      6pz      0.0125
      6py      0.0125
      7s       0.0096
      5f3+     0.0000
      5f2+     0.0000
      5f1+     0.0000
      5f0      0.0000
      5f1-     0.0000
      5f2-     0.0000
      5f3-     0.0000
      6d2+     0.0000
      6d1+     0.0000
      6d0      0.0000
      6d1-     0.0000
      6d2-     0.0000
      7px      0.0080
      7pz      0.0080
      7py      0.0080
      5g4+     0.0000
      5g3+     0.0000
      5g2+     0.0000
      5g1+     0.0000
      5g0      0.0000
      5g1-     0.0000
      5g2-     0.0000
      5g3-     0.0000
      5g4-     0.0000
      6f3+     0.0000
      6f2+     0.0000
      6f1+     0.0000
      6f0      0.0000
      6f1-     0.0000
      6f2-     0.0000
      6f3-     0.0000
      6g4+     0.0000
      6g3+     0.0000
      6g2+     0.0000
      6g1+     0.0000
      6g0      0.0000
      6g1-     0.0000
      6g2-     0.0000
      6g3-     0.0000
      6g4-     0.0000
      6h5+     0.0000
      6h4+     0.0000
      6h3+     0.0000
      6h2+     0.0000
      6h1+     0.0000
      6h0      0.0000
      6h1-     0.0000
      6h2-     0.0000
      6h3-     0.0000
      6h4-     0.0000
      6h5-     0.0000
      7d2+     0.0000
      7d1+     0.0000
      7d0      0.0000
      7d1-     0.0000
      7d2-     0.0000
      7f3+     0.0000
      7f2+     0.0000
      7f1+     0.0000
      7f0      0.0000
      7f1-     0.0000
      7f2-     0.0000
      7f3-     0.0000
      7g4+     0.0000
      7g3+     0.0000
      7g2+     0.0000
      7g1+     0.0000
      7g0      0.0000
      7g1-     0.0000
      7g2-     0.0000
      7g3-     0.0000
      7g4-     0.0000
      7h5+     0.0000
      7h4+     0.0000
      7h3+     0.0000
      7h2+     0.0000
      7h1+     0.0000
      7h0      0.0000
      7h1-     0.0000
      7h2-     0.0000
      7h3-     0.0000
      7h4-     0.0000
      7h5-     0.0000
      8s       0.0056
      8px      0.0080
      8pz      0.0080
      8py      0.0080
      8d2+     0.0000
      8d1+     0.0000
      8d0      0.0000
      8d1-     0.0000
      8d2-     0.0000
      8f3+     0.0000
      8f2+     0.0000
      8f1+     0.0000
      8f0      0.0000
      8f1-     0.0000
      8f2-     0.0000
      8f3-     0.0000
      8g4+     0.0000
      8g3+     0.0000
      8g2+     0.0000
      8g1+     0.0000
      8g0      0.0000
      8g1-     0.0000
      8g2-     0.0000
      8g3-     0.0000
      8g4-     0.0000
      9s       0.0043
      9px      0.0043
      9pz      0.0043
      9py      0.0043
      9d2+     0.0000
      9d1+     0.0000
      9d0      0.0000
      9d1-     0.0000
      9d2-     0.0000
      9f3+     0.0000
      9f2+     0.0000
      9f1+     0.0000
      9f0      0.0000
      9f1-     0.0000
      9f2-     0.0000
      9f3-     0.0000
     10s       0.0020
     10px      0.0009
     10pz      0.0009
     10py      0.0009
     10d2+     0.0000
     10d1+     0.0000
     10d0      0.0000
     10d1-     0.0000
     10d2-     0.0000
     11d2+     0.0000
     11d1+     0.0000
     11d0      0.0000
     11d1-     0.0000
     11d2-     0.0000
      Total   18.0000

      N-E     24.0000

      Total electronic charge=   18.000000

      Total            charge=   24.000000
--

 Sorry, Molden does not know how to handle
 functions with angular momentum larger than g

++    Static properties:
      ------------------


      LoProp Charges per center


                   MO    
      Nuclear     42.0000
      Electronic -18.0000

      Total       24.0000
--


++    Molecular properties:
      ---------------------

      Charge (e):
                      =   24.0000
      Dipole Moment (Debye):
      Origin of the operator (Ang)=    0.0000    0.0000    0.0000
                   X= -7.1860E-02               Y= -1.8854E-13               Z=  5.3394E-01           Total=  5.3875E-01
      Center of Charge (Ang)
                     X=   -0.00062337               Y=   -0.00000000               Z=    0.00463176
      Quadrupole Moment (Debye*Ang):
      Origin of the operator (Ang)=   -0.0000   -0.0000    0.0046
                  XX= -6.7794E-01              XY= -4.2026E-17              XZ=  6.8892E-07              YY= -6.7822E-01
                  YZ=  8.7059E-16              ZZ= -6.7822E-01
      In traceless form (Debye*Ang)
                  XX=  2.7591E-04              XY= -6.3039E-17              XZ=  1.0334E-06              YY= -1.3794E-04
                  YZ=  1.3059E-15              ZZ= -1.3796E-04
--

 Sorry, Molden does not know how to handle
 functions with angular momentum larger than g
 ###############################################################################
 ###############################################################################
 ###                                                                         ###
 ###                                                                         ###
 ###    WARNING: RunFile label nBas                                          ###
 ###    was used       62 times                                              ###
 ###                                                                         ###
 ###                                                                         ###
 ###############################################################################
 ###############################################################################
Note: The following floating-point exceptions are signalling: IEEE_UNDERFLOW_FLAG IEEE_DENORMAL
--- Stop Module: scf at Wed Mar 26 15:44:18 2025 /rc=_RC_ALL_IS_WELL_ ---
*** files: molybdenum_so_cf.LprOrb molybdenum_so_cf.ScfOrb xmldump
    saved to directory /home4/s4752295/Internship/Initial_simulations/Point_charge_model/1_electron/Madelung_charges_9_active_space/Mo
--- Module scf spent 10 seconds ---

*** symbolic link created: INPORB -> molybdenum_so_cf.ScfOrb
--- Start Module: rasscf at Wed Mar 26 15:44:18 2025 ---

()()()()()()()()()()()()()()()()()()()()()()()()()()()()()()()()()()()()()()()()()()()()()()()()()()

                                              &RASSCF

                                   only a single process is used
                       available to each process: 4.1 GB of memory, 1 thread?
                                            pid: 2176149
()()()()()()()()()()()()()()()()()()()()()()()()()()()()()()()()()()()()()()()()()()()()()()()()()()


      Header of the ONEINT file:
      --------------------------
      
      Integrals generated by seward 4.2.0  , Wed Mar 26 15:43:55 2025
[...]
     9             0.0045640356        0.1241937369           1001.6900         2.1
    10             0.0045640356        0.1241937369           1001.6900         2.1
    11            15.8821746000      432.1759874658        3485734.4156         0.5
    12            15.8821746000      432.1759874658        3485734.4156         0.5
    13            17.3068049992      470.9421555163        3798404.6473         1.2
    14            17.3068049992      470.9421555163        3798404.6473         1.2
    15            17.3068088793      470.9422610995        3798405.4989         1.2
    16            17.3068088793      470.9422610995        3798405.4989         1.2
    17            17.3612866598      472.4246770268        3810361.9896         1.2
    18            17.3612866598      472.4246770268        3810361.9896         1.2


 Weights of the five most important spin-orbit-free states for each spin-orbit state.

 SO State  Total energy (au)           Spin-free states, spin, and weights
 -------------------------------------------------------------------------------------------------------
    1         0.000000       1 0.5  1.0000    9 0.5  0.0000    8 0.5  0.0000    7 0.5  0.0000    6 0.5  0.0000
    2         0.000000       1 0.5  1.0000    9 0.5  0.0000    8 0.5  0.0000    7 0.5  0.0000    6 0.5  0.0000
    3         0.000000       2 0.5  1.0000    9 0.5  0.0000    8 0.5  0.0000    7 0.5  0.0000    6 0.5  0.0000
    4         0.000000       2 0.5  1.0000    9 0.5  0.0000    8 0.5  0.0000    7 0.5  0.0000    6 0.5  0.0000
    5         0.003372       3 0.5  1.0000    9 0.5  0.0000    8 0.5  0.0000    7 0.5  0.0000    6 0.5  0.0000
    6         0.003372       3 0.5  1.0000    9 0.5  0.0000    8 0.5  0.0000    7 0.5  0.0000    6 0.5  0.0000
    7         0.003373       4 0.5  1.0000    9 0.5  0.0000    8 0.5  0.0000    7 0.5  0.0000    6 0.5  0.0000
    8         0.003373       4 0.5  1.0000    9 0.5  0.0000    8 0.5  0.0000    7 0.5  0.0000    6 0.5  0.0000
    9         0.004564       5 0.5  1.0000    9 0.5  0.0000    8 0.5  0.0000    7 0.5  0.0000    6 0.5  0.0000
   10         0.004564       5 0.5  1.0000    9 0.5  0.0000    8 0.5  0.0000    7 0.5  0.0000    6 0.5  0.0000
   11        15.882175       6 0.5  1.0000    9 0.5  0.0000    8 0.5  0.0000    7 0.5  0.0000    5 0.5  0.0000
   12        15.882175       6 0.5  1.0000    9 0.5  0.0000    8 0.5  0.0000    7 0.5  0.0000    5 0.5  0.0000
   13        17.306805       7 0.5  1.0000    9 0.5  0.0000    8 0.5  0.0000    6 0.5  0.0000    5 0.5  0.0000
   14        17.306805       7 0.5  1.0000    9 0.5  0.0000    8 0.5  0.0000    6 0.5  0.0000    5 0.5  0.0000
   15        17.306809       8 0.5  1.0000    9 0.5  0.0000    7 0.5  0.0000    6 0.5  0.0000    5 0.5  0.0000
   16        17.306809       8 0.5  1.0000    9 0.5  0.0000    7 0.5  0.0000    6 0.5  0.0000    5 0.5  0.0000
   17        17.361287       9 0.5  1.0000    8 0.5  0.0000    7 0.5  0.0000    6 0.5  0.0000    5 0.5  0.0000
   18        17.361287       9 0.5  1.0000    8 0.5  0.0000    7 0.5  0.0000    6 0.5  0.0000    5 0.5  0.0000
 -------------------------------------------------------------------------------------------------------


      ****************************************************************************************************
      *                                                                                                  *
      *                                    Special properties section                                    *
      *                                                                                                  *
      ****************************************************************************************************


++ Dipole transition strengths (SO states):
   ----------------------------------------
    for osc. strength at least    1.0000000000000001E-005

      From   To        Osc. strength     Einstein coefficients Ax, Ay, Az (sec-1)    Total A (sec-1)
     -----------------------------------------------------------------------------------------------
         1   13       1.69524397E-02  1.66394992E-07  1.63145606E+11  2.65338323E-01  1.63145606E+11
         1   15       1.69528218E-02  4.56355862E+06  2.65363193E-01  1.63144794E+11  1.63149357E+11
         2   14       1.69524397E-02  1.66394992E-07  1.63145606E+11  2.65338323E-01  1.63145606E+11
         2   16       1.69528218E-02  4.56355862E+06  2.65363193E-01  1.63144794E+11  1.63149357E+11
         3   13       1.69523168E-02  3.25364185E+05  2.65349362E-01  1.63144096E+11  1.63144421E+11
         3   15       1.69529655E-02  5.33896474E-06  1.63150737E+11  2.65346939E-01  1.63150737E+11
         4   14       1.69523168E-02  3.25364185E+05  2.65349362E-01  1.63144096E+11  1.63144421E+11
         4   16       1.69529655E-02  5.33896474E-06  1.63150737E+11  2.65346939E-01  1.63150737E+11
         5   11       3.90187155E-04  2.99770666E+04  1.16010077E-03  3.16092151E+09  3.16095149E+09
         5   13       1.72348485E-02  1.65798759E+11  9.99116676E-07  4.16579156E+04  1.65798801E+11
         5   17       1.64145424E-02  1.04407338E+06  5.83258201E-02  1.58902376E+11  1.58903420E+11
         6   12       3.90187155E-04  2.99770666E+04  1.16010077E-03  3.16092151E+09  3.16095149E+09
         6   14       1.72348485E-02  1.65798759E+11  9.99116676E-07  4.16579156E+04  1.65798801E+11
         6   18       1.64145424E-02  1.04407338E+06  5.83258201E-02  1.58902376E+11  1.58903420E+11
         7   11       3.90137613E-04  7.83410317E-09  3.16054995E+09  1.16023842E-03  3.16054995E+09
         7   15       1.72347238E-02  1.65793638E+11  7.99630140E-07  4.02795659E+06  1.65797666E+11
         7   17       1.64142522E-02  2.52385199E-07  1.58900601E+11  5.83263830E-02  1.58900601E+11
         8   12       3.90137613E-04  7.83410317E-09  3.16054995E+09  1.16023842E-03  3.16054995E+09
         8   16       1.72347238E-02  1.65793638E+11  7.99630140E-07  4.02795659E+06  1.65797666E+11
         8   18       1.64142522E-02  2.52385199E-07  1.58900601E+11  5.83263830E-02  1.58900601E+11
         9   11       5.29545159E-04  4.28923718E+09  2.02265553E-10  2.57367873E+04  4.28926291E+09
         9   13       5.57049567E-03  5.71728243E+05  1.46643355E-03  5.35800720E+10  5.35806437E+10
         9   15       5.56977827E-03  5.21049409E-10  5.35737673E+10  1.46466134E-03  5.35737673E+10
         9   17       2.24265028E-02  2.17072273E+11  1.00363891E-08  1.01046381E+06  2.17073283E+11
        10   12       5.29545159E-04  4.28923718E+09  2.02265553E-10  2.57367873E+04  4.28926291E+09
        10   14       5.57049567E-03  5.71728243E+05  1.46643355E-03  5.35800720E+10  5.35806437E+10
        10   16       5.56977827E-03  5.21049409E-10  5.35737673E+10  1.46466134E-03  5.35737673E+10
        10   18       2.24265028E-02  2.17072273E+11  1.00363891E-08  1.01046381E+06  2.17073283E+11
        11   13       1.83784927E-01  1.71038079E+04  3.27826632E-04  1.19845867E+10  1.19846038E+10
        11   15       1.83784774E-01  4.63607979E-10  1.19846590E+10  3.27830049E-04  1.19846590E+10
        11   17       1.79162893E-01  1.25938629E+10  1.06038938E-14  1.84731489E+04  1.25938813E+10
        12   14       1.83784927E-01  1.71038079E+04  3.27826632E-04  1.19845867E+10  1.19846038E+10
        12   16       1.83784774E-01  4.63607979E-10  1.19846590E+10  3.27830049E-04  1.19846590E+10
        12   18       1.79162893E-01  1.25938629E+10  1.06038938E-14  1.84731489E+04  1.25938813E+10
        13   17       1.48281606E-04  4.36605975E-02  3.86898524E-10  1.41415166E+04  1.41415603E+04
        14   18       1.48281606E-04  4.36605975E-02  3.86898524E-10  1.41415166E+04  1.41415603E+04
        15   17       1.48297434E-04  1.18080664E-15  1.41410554E+04  3.86744652E-10  1.41410554E+04
        16   18       1.48297434E-04  1.18080664E-15  1.41410554E+04  3.86744652E-10  1.41410554E+04
     -----------------------------------------------------------------------------------------------
--

++ Velocity transition strengths (SO states):
   ------------------------------------------
    for osc. strength at least    1.0000000000000001E-005

      From   To        Osc. strength     Einstein coefficients Ax, Ay, Az (sec-1)    Total A (sec-1)
     -----------------------------------------------------------------------------------------------
         1    3       3.81234045E-05  4.22266235E-23  3.29050906E-08  2.26344629E-21  3.29050906E-08
         1    5       3.13587135E-04  2.86314948E-16  1.14575581E+02  3.37276061E-10  1.14575581E+02
         1    7       3.13515041E-04  4.65258384E-05  3.37355314E-10  1.14582763E+02  1.14582810E+02
         1   13       1.61755866E-02  1.55379834E-07  1.55669928E+11  2.53179960E-01  1.55669928E+11
         1   15       1.61759435E-02  4.32412018E+06  2.53203776E-01  1.55669108E+11  1.55673432E+11
         2    4       3.81234045E-05  4.22266235E-23  3.29050906E-08  2.26344629E-21  3.29050906E-08
         2    6       3.13587135E-04  2.86314948E-16  1.14575581E+02  3.37276061E-10  1.14575581E+02
         2    8       3.13515041E-04  4.65258384E-05  3.37355314E-10  1.14582763E+02  1.14582810E+02
         2   14       1.61755866E-02  1.55379834E-07  1.55669928E+11  2.53179960E-01  1.55669928E+11
         2   16       1.61759435E-02  4.32412018E+06  2.53203776E-01  1.55669108E+11  1.55673432E+11
         3    5       3.13563018E-04  6.44629229E-05  3.37313487E-10  1.14555568E+02  1.14555633E+02
         3    7       3.13555840E-04  1.51270683E-16  1.14586583E+02  3.37355755E-10  1.14586583E+02
         3   13       1.61754729E-02  3.04509183E+05  2.53190599E-01  1.55668526E+11  1.55668830E+11
         3   15       1.61760900E-02  5.06126451E-06  1.55674839E+11  2.53188036E-01  1.55674839E+11
         4    6       3.13563018E-04  6.44629229E-05  3.37313487E-10  1.14555568E+02  1.14555633E+02
         4    8       3.13555840E-04  1.51270683E-16  1.14586583E+02  3.37355755E-10  1.14586583E+02
         4   14       1.61754729E-02  3.04509183E+05  2.53190599E-01  1.55668526E+11  1.55668830E+11
         4   16       1.61760900E-02  5.06126451E-06  1.55674839E+11  2.53188036E-01  1.55674839E+11
         5    9       2.71400637E-03  6.23258263E-05  4.54697572E-11  1.23869603E+02  1.23869665E+02
         5   11       3.74729080E-04  2.87495090E+04  1.11415904E-03  3.03570564E+09  3.03573439E+09
         5   13       1.64140542E-02  1.57903289E+11  9.61359310E-07  4.14683008E+04  1.57903330E+11
         5   17       1.56666709E-02  9.92989084E+05  5.56687700E-02  1.51663072E+11  1.51664065E+11
         6   10       2.71400637E-03  6.23258263E-05  4.54697572E-11  1.23869603E+02  1.23869665E+02
         6   12       3.74729080E-04  2.87495090E+04  1.11415904E-03  3.03570564E+09  3.03573439E+09
         6   14       1.64140542E-02  1.57903289E+11  9.61359310E-07  4.14683008E+04  1.57903330E+11
         6   18       1.56666709E-02  9.92989084E+05  5.56687700E-02  1.51663072E+11  1.51664065E+11
         7    9       2.71494022E-03  2.01712733E-17  1.23809570E+02  4.54496225E-11  1.23809570E+02
         7   11       3.74685682E-04  7.49315328E-09  3.03538262E+09  1.11427569E-03  3.03538262E+09
         7   15       1.64139578E-02  1.57898600E+11  7.71132750E-07  3.86432524E+06  1.57902464E+11
         7   17       1.56664063E-02  2.39870031E-07  1.51661495E+11  5.56692679E-02  1.51661495E+11
         8   10       2.71494022E-03  2.01712733E-17  1.23809570E+02  4.54496225E-11  1.23809570E+02
         8   12       3.74685682E-04  7.49315328E-09  3.03538262E+09  1.11427569E-03  3.03538262E+09
         8   16       1.64139578E-02  1.57898600E+11  7.71132750E-07  3.86432524E+06  1.57902464E+11
         8   18       1.56664063E-02  2.39870031E-07  1.51661495E+11  5.56692679E-02  1.51661495E+11
         9   11       5.07581222E-04  4.11134682E+09  1.93701559E-10  2.46916031E+04  4.11137151E+09
         9   13       5.32156586E-03  5.44111886E+05  1.40092087E-03  5.11859091E+10  5.11864532E+10
         9   15       5.32087149E-03  5.07617336E-10  5.11797972E+10  1.39922289E-03  5.11797972E+10
         9   17       2.13501547E-02  2.06654719E+11  9.56855703E-09  9.64879706E+05  2.06655684E+11
        10   12       5.07581222E-04  4.11134682E+09  1.93701559E-10  2.46916031E+04  4.11137151E+09
        10   14       5.32156586E-03  5.44111886E+05  1.40092087E-03  5.11859091E+10  5.11864532E+10
        10   16       5.32087149E-03  5.07617336E-10  5.11797972E+10  1.39922289E-03  5.11797972E+10
        10   18       2.13501547E-02  2.06654719E+11  9.56855703E-09  9.64879706E+05  2.06655684E+11
        11   13       1.70282897E-01  1.58418817E+04  3.03745087E-04  1.11041600E+10  1.11041758E+10
        11   15       1.70282768E-01  4.29478722E-10  1.11042279E+10  3.03744170E-04  1.11042279E+10
        11   17       1.65894851E-01  1.16612555E+10  8.54036618E-15  1.71112137E+04  1.16612726E+10
        12   14       1.70282897E-01  1.58418817E+04  3.03745087E-04  1.11041600E+10  1.11041758E+10
        12   16       1.70282768E-01  4.29478722E-10  1.11042279E+10  3.03744170E-04  1.11042279E+10
        12   18       1.65894851E-01  1.16612555E+10  8.54036618E-15  1.71112137E+04  1.16612726E+10
        13   17       3.68204930E-04  6.01676756E-02  9.60602102E-10  3.51156258E+04  3.51156860E+04
        14   18       3.68204930E-04  6.01676756E-02  9.60602102E-10  3.51156258E+04  3.51156860E+04
        15   17       3.68238237E-04  2.17524865E-15  3.51138603E+04  9.60634083E-10  3.51138603E+04
        16   18       3.68238237E-04  2.17524865E-15  3.51138603E+04  9.60634083E-10  3.51138603E+04
     -----------------------------------------------------------------------------------------------
--

++ Length and velocity gauge comparison (SO states):

 --------------------------------------------------
 A comparison between the dipole oscillator strengths in 
 length and velocity gauge will be performed

 All dipole oscillator differences above the tolerance of   0.10000000000000001       will be printed 

 Due to basis set deficiency these oscillator may be problematic 

 The tolerance is defined as ABS(1-O_l/O_v) 
 O_l : dipole oscillator strength in length gauge
 O_p : dipole oscillator strength in velocity gauge
 --------------------------------------------------

  Problematic transitions have been found

      From   To       Difference (%) Osc. st. (len.) Osc. st. (vel.)
     ---------------------------------------------------------------
         1    3      --------------- below threshold  3.81234045E-05
         1    5      --------------- below threshold  3.13587135E-04
         1    7      --------------- below threshold  3.13515041E-04
         2    4      --------------- below threshold  3.81234045E-05
         2    6      --------------- below threshold  3.13587135E-04
         2    8      --------------- below threshold  3.13515041E-04
         3    5      --------------- below threshold  3.13563018E-04
         3    7      --------------- below threshold  3.13555840E-04
         4    6      --------------- below threshold  3.13563018E-04
         4    8      --------------- below threshold  3.13555840E-04
         5    9      --------------- below threshold  2.71400637E-03
         6   10      --------------- below threshold  2.71400637E-03
         7    9      --------------- below threshold  2.71494022E-03
         8   10      --------------- below threshold  2.71494022E-03
        13   17            59.728511  1.48281606E-04  3.68204930E-04
        14   18            59.728511  1.48281606E-04  3.68204930E-04
        15   17            59.727856  1.48297434E-04  3.68238237E-04
        16   18            59.727856  1.48297434E-04  3.68238237E-04
     ---------------------------------------------------------------

 Number of problematic transitions =                    18

--

 Electric-dipole - electric-octupole not included
++ Total transition strengths for the second-order expansion of the wave vector (SO states):
   -----------------------------------------------------------------------------------------
    for osc. strength at least    1.0000000000000001E-005

      From   To        Osc. strength
     -------------------------------
         1   11       1.16601820E-05
         2   12       1.16601820E-05
         3   11       1.16601665E-05
         4   12       1.16601665E-05
         5   11       1.18222264E-05
         6   12       1.18222264E-05
         7   11       1.18221677E-05
         8   12       1.18221677E-05
         9   11       1.18750755E-05
        10   12       1.18750755E-05
     -------------------------------
--

++ I/O STATISTICS
 
  I. General I/O information
  - - - - - - - - - - - - - - - - - - - - - - - - - - - - - - - - - - - - - - - - - - -
  Unit  Name          Flsize      Write/Read            MBytes           Write/Read
                      (MBytes)       Calls              In/Out           Time, sec.
  - - - - - - - - - - - - - - - - - - - - - - - - - - - - - - - - - - - - - - - - - - -
   1  SCRATCH           0.00 .       9/      45 .      0.0/      0.0 .       0/       0
   2  ANNI              0.00 .       0/       0 .      0.0/      0.0 .       0/       0
   3  RUNFILE          14.92 .     322/   10733 .      2.3/     77.8 .       0/       0
   4  ONEINT            5.68 .       0/   24849 .      0.0/   3743.6 .       0/       0
   5  JOBIPH            6.59 .       0/      92 .      0.0/      0.8 .       0/       0
   6  ORDINT          529.03 .       1/    4233 .      0.0/   1058.0 .       0/       0
  - - - - - - - - - - - - - - - - - - - - - - - - - - - - - - - - - - - - - - - - - - -
   *  TOTAL           556.23 .     332/   39952 .      2.3/   4880.2 .       0/       0
  - - - - - - - - - - - - - - - - - - - - - - - - - - - - - - - - - - - - - - - - - - -
 
  II. I/O Access Patterns
  - - - - - - - - - - - - - - - - - - - -
  Unit  Name               % of random
                         Write/Read calls
  - - - - - - - - - - - - - - - - - - - -
   1  SCRATCH             88.9/ 100.0
   2  ANNI                 0.0/   0.0
   3  RUNFILE             28.6/  10.8
   4  ONEINT               0.0/  15.5
   5  JOBIPH               0.0/  76.1
   6  ORDINT             100.0/   0.0
  - - - - - - - - - - - - - - - - - - - -
--
--- Stop Module: rassi at Wed Mar 26 15:45:03 2025 /rc=_RC_ALL_IS_WELL_ ---
*** files: xmldump
    saved to directory /home4/s4752295/Internship/Initial_simulations/Point_charge_model/1_electron/Madelung_charges_9_active_space/Mo
--- Module rassi spent 3 seconds ---

.##################.
.# Happy landing! #.
.##################.

    Timing: Wall=67.21 User=52.78 System=11.90

###############################################################################
Hbrk Cluster
Job 15909315 for user s4752295
Finished at: Wed Mar 26 15:45:07 CET 2025

Job details:
============

Job ID                         : 15909315
Name                           : Mo_no_SO
User                           : s4752295
Partition                      : regularmedium
Nodes                          : node72
Number of Nodes                : 1
Cores                          : 1
Number of Tasks                : 1
State                          : COMPLETED  
Submit                         : 2025-03-26T15:42:13
Start                          : 2025-03-26T15:43:50
End                            : 2025-03-26T15:45:03
Reserved walltime              : 15:00:00
Used walltime                  : 00:01:13
Used CPU time                  : 00:01:06 (Efficiency: 90.56%)
% User (Computation)           : 81.60%
% System (I/O)                 : 18.40%
Total memory reserved          : 25000M
Maximum memory used            : 2.12G

Acknowledgements:
=================

Please see this page for information about acknowledging Hbrk in your publications:

https://wiki.hpc.rug.nl/habrok/introduction/scientific_output

################################################################################
