   This run of MOLCAS is using the pymolcas driver

                             OPE
                             OPE          NMOL  CASOP  ENMOLC A   SO
                 OPE        NMOLC        AS  OP EN  MO LC     AS  OP
                OPENM       OL CA        SO  PE NM  OL CA     SOP EN
                OP EN      MO   LC       AS  OP ENMOL  CASO   PENMOL
                OP  EN     MO   LC       AS  OP EN     MO     LC ASO
               OP   E  NMOL  C  AS       OP  EN MO     LC     AS  OP
               OP  E   NMO   LC AS        OPEN  MO     LCASOP EN   M
               O  PEN   MO  LCA  SO
            OPE   NMO   L   CAS    OP
        OPENMOL  CASOP     ENMOL   CASOPE
     OPENMOLCA   SOPENMOLCASOPEN   MOLCASOPE
    OPENMOLCAS   OP           EN   MOL    CAS
    OPENMOLCAS       OP  ENM        O     LCA
    OPENMOLCAS    OPEN  MOLCASO     P  E  NMO
    OPENMOLCAS     OP               E  N  MOL
    OPENMOLCA   SO           PENM   O  L  CAS    OPEN    MO    LCAS
    OPENMOLCA   SOP           ENM   O  L  CAS   OP  EN  MOLC  AS   O
    OPENMOLCA   SOPE           NM      O  LCA   S      OP  EN MO
    OPENMOLC                AS         O  PEN   M      OL  CA  SOPE
    OPENMO        LCASOPE  NMOL        C  ASO   P      ENMOLC     AS
    OPE     NMO      LCA  SO     P     E   NM   OL  CA SO  PE N   MO
          OPENMOLCA            SOPE   NMO        LCAS  O    P  ENMO
     OPENMOLCASOPENMOLCASOPENMOLCASOPENMOLCA
        OPENMOLCASOPENMOLCASOPENMOLCASOPE
            OPENMOLCASOPENMOLCASOPENM
               OPENMOLCASOPENMOLCA        version: o91e1abe7de707b ?
                   OPENMOLCASO
                       OPE                tag:

 OpenMolcas is free software; you can redistribute it and/or modify it
 under the terms of the GNU Lesser General Public License version 2.1.
 OpenMolcas is distributed in the hope that it will be useful, but it
 is provided "as is" and without any express or implied warranties.
 For more details see the full text of the license in the file
 LICENSE or in <http://www.gnu.org/licenses/>.

                 Copyright (C) The OpenMolcas Authors
           For the author list and the recommended citation,
                   consult the file CONTRIBUTORS.md

           *************************************************
           * pymolcas version py2.10                       *
           *   build 3068ae8b88c9345ec6cfef6fef7f1169      *
           *   (after the EMIL interpreter by V. Veryazov) *
           *************************************************

configuration info
------------------
Host name: login1 (Linux)
C Compiler ID: GNU
C flags: -std=gnu99
Fortran Compiler ID: GNU
Fortran flags: -fno-aggressive-loop-optimizations -cpp -fdefault-integer-8 -fmax-stack-var-size=1048576
Definitions: _MOLCAS_;_I8_;_LINUX_;_MKL_
Parallel: OFF (GA=OFF)


   -----------------------------------------------------------------------------------------------------------------------------------
  |
  |           Project: molybdenum_so_cf
  |    Submitted from: /home4/s4752295/Internship/Initial_simulations/Point_charge_model/1_electron/Madelung_charges_9_active_space/Mo
  |      Scratch area: /tmp/molybdenum_so_cf
  |   Save outputs to: /home4/s4752295/Internship/Initial_simulations/Point_charge_model/1_electron/Madelung_charges_9_active_space/Mo
  |            Molcas: /home4/s4752295/Internship/Molcas/recomp_try/OpenMolcas-master/build
  |
  | Scratch area is empty
  |
  |    MOLCAS_DRIVER = /home4/s4752295/Internship/Molcas/bin/pymolcas
  |    MOLCAS_NPROCS = 1
  |    MOLCAS_SOURCE = /home4/s4752295/Internship/Molcas/recomp_try/OpenMolcas-master
  | MOLCAS_STRUCTURE = 0
  |
   -----------------------------------------------------------------------------------------------------------------------------------

++ ---------   Input file   ---------

&SEWARD
AMFi

CLIG
$R

Basis Set
Mo.ANO-rcc.Roos.21s18p13d6f4g2h.10s9p9d6f4g2h.
Spherical d
Mo           -1.0658140267135469e-14    -3.5527134223784897e-15 0.008753588724385739
End of Basis

Xfield

414
-3.201760864,-1.2320000000000002,0.7112952      -0.625931
-3.201760864,-0.0,-1.4225912    -0.625931
-3.201760864,1.2320000000000002,0.7112952       -0.625931
-3.1962768560000003,0.0,0.0     1.892092
2.1273437520000003,-1.2320000000000002,-0.7112952       2.515516
2.1273437520000003,0.0,1.4225912        2.515516
2.1273437520000003,1.2320000000000002,-0.7112952        2.515516
2.850390624,-2.4640000000000004,0.0     0.004632
2.850390624,-1.2320000000000002,-2.1338864      0.004632
2.850390624,-1.2320000000000002,2.1338864       0.004632
2.850390624,1.2320000000000002,-2.1338864       0.004632
2.850390624,1.2320000000000002,2.1338864        0.004632
2.850390624,2.4640000000000004,0.0      0.004632
3.3033203120000003,-1.2320000000000002,0.7112952        -2.519484
3.3033203120000003,-0.0,-1.4225912      -2.519484
3.3033203120000003,1.2320000000000002,0.7112952 -2.519484
-2.3464843760000003,-0.0,-0.0   -3.142907
-3.9800781280000006,-2.4640000000000004,-1.4225912      -0.625931
-3.9800781280000006,0.0,2.8451816       -0.625931
-3.9800781280000006,2.4640000000000004,-1.4225912       -0.625931
-5.2875000000000005,-2.4640000000000004,0.0     1.892092
-5.2875000000000005,-1.2320000000000002,-2.1338864      1.892092
-5.2875000000000005,-1.2320000000000002,2.1338864       1.892092
-5.2875000000000005,1.2320000000000002,-2.1338864       1.892092
-5.2875000000000005,1.2320000000000002,2.1338864        1.892092
-5.2875000000000005,2.4640000000000004,0.0      1.892092
20.137500000000003,-2.4640000000000004,1.4225912        2.515516
20.137500000000003,-0.0,-2.8451816      2.515516
20.137500000000003,2.4640000000000004,1.4225912 2.515516
2.910937504,-2.4640000000000004,-1.4225912      -2.519484
2.910937504,0.0,2.8451816       -2.519484
2.910937504,2.4640000000000004,-1.4225912       -2.519484
-2.5859375040000003,-2.4640000000000004,-0.0    -3.142907
-2.5859375040000003,-1.2320000000000002,-2.1338864      -3.142907
-2.5859375040000003,-1.2320000000000002,2.1338864       -3.142907
-2.5859375040000003,1.2320000000000002,-2.1338864       -3.142907
-2.5859375040000003,1.2320000000000002,2.1338864        -3.142907
-2.5859375040000003,2.4640000000000004,-0.0     -3.142907
-7.61875,-2.4640000000000004,2.8451816  -0.625931
-7.61875,2.4640000000000004,2.8451816   -0.625931
-7.61875,-3.696,0.7112952       -0.625931
-7.61875,3.696,0.7112952        -0.625931
-7.61875,-1.2320000000000002,-3.5564776000000005        -0.625931
-7.61875,1.2320000000000002,-3.5564776000000005 -0.625931
4.80625,-1.2320000000000002,-0.7112952  4.409069
4.80625,1.2320000000000002,-0.7112952   4.409069
4.80625,0.0,1.4225912   4.409069
-140.20000000000002,-0.0,-0.0   -5.030367
-140.20000000000002,0.0,0.0     5.039632
10.814062496,-2.4640000000000004,-2.8451816     2.515516
10.814062496,2.4640000000000004,-2.8451816      2.515516
10.814062496,-3.696,-0.7112952  2.515516
10.814062496,3.696,-0.7112952   2.515516
10.814062496,-1.2320000000000002,3.5564776000000005     2.515516
10.814062496,1.2320000000000002,3.5564776000000005      2.515516
15.231250000000001,-3.696,-2.1338864    0.004632
15.231250000000001,-3.696,2.1338864     0.004632
15.231250000000001,3.696,-2.1338864     0.004632
15.231250000000001,3.696,2.1338864      0.004632
15.231250000000001,-0.0,-4.2677728      0.004632
15.231250000000001,0.0,4.2677728        0.004632
38.462500000000006,-2.4640000000000004,2.8451816        -2.519484
38.462500000000006,2.4640000000000004,2.8451816 -2.519484
38.462500000000006,-3.696,0.7112952     -2.519484
38.462500000000006,3.696,0.7112952      -2.519484
38.462500000000006,-1.2320000000000002,-3.5564776000000005      -2.519484
38.462500000000006,1.2320000000000002,-3.5564776000000005       -2.519484
-116.7,-3.696,-2.1338864        1.892092
-116.7,-3.696,2.1338864 1.892092
-116.7,3.696,-2.1338864 1.892092
-116.7,3.696,2.1338864  1.892092
-116.7,-0.0,-4.2677728  1.892092
-116.7,0.0,4.2677728    1.892092
-94.2,-2.4640000000000004,1.4225912     4.409069
-94.2,-0.0,-2.8451816   4.409069
-94.2,2.4640000000000004,1.4225912      4.409069
-71.2,-2.4640000000000004,-0.0  -5.030367
-71.2,-1.2320000000000002,-2.1338864    -5.030367
-71.2,-1.2320000000000002,2.1338864     -5.030367
-71.2,1.2320000000000002,-2.1338864     -5.030367
-71.2,-2.4640000000000004,0.0   5.039632
-71.2,2.4640000000000004,-0.0   -5.030367
-71.2,1.2320000000000002,2.1338864      -5.030367
-71.2,-1.2320000000000002,-2.1338864    5.039632
-71.2,-1.2320000000000002,2.1338864     5.039632
-71.2,1.2320000000000002,-2.1338864     5.039632
-71.2,2.4640000000000004,0.0    5.039632
-71.2,1.2320000000000002,2.1338864      5.039632
-37.300000000000004,-1.2320000000000002,-0.7112952      -5.660931
-37.300000000000004,0.0,1.4225912       -5.660931
-37.300000000000004,1.2320000000000002,-0.7112952       -5.660931
0.70625,-4.9279992,0.0  0.004632
0.70625,-2.4640000000000004,-4.2677728  0.004632
0.70625,-2.4640000000000004,4.2677728   0.004632
0.70625,2.4640000000000004,-4.2677728   0.004632
0.70625,4.9279992,0.0   0.004632
0.70625,2.4640000000000004,4.2677728    0.004632
54.35,-3.696,2.1338864  -3.142907
54.35,-3.696,-2.1338864 -3.142907
54.35,3.696,-2.1338864  -3.142907
54.35,3.696,2.1338864   -3.142907
54.35,-0.0,-4.2677728   -3.142907
54.35,0.0,4.2677728     -3.142907
69.10000000000001,-4.9279992,-1.4225912 -0.625931
69.10000000000001,-3.696,-3.5564776000000005    -0.625931
69.10000000000001,-1.2320000000000002,4.979068000000001 -0.625931
69.10000000000001,3.696,-3.5564776000000005     -0.625931
69.10000000000001,4.9279992,-1.4225912  -0.625931
69.10000000000001,1.2320000000000002,4.979068000000001  -0.625931
0.9578124960000001,-4.9279992,0.0       1.892092
0.9578124960000001,-2.4640000000000004,-4.2677728       1.892092
0.9578124960000001,-2.4640000000000004,4.2677728        1.892092
0.9578124960000001,2.4640000000000004,-4.2677728        1.892092
0.9578124960000001,4.9279992,0.0        1.892092
0.9578124960000001,2.4640000000000004,4.2677728 1.892092
27.075000000000003,-2.4640000000000004,-2.8451816       4.409069
27.075000000000003,2.4640000000000004,-2.8451816        4.409069
27.075000000000003,-3.696,-0.7112952    4.409069
27.075000000000003,3.696,-0.7112952     4.409069
27.075000000000003,-1.2320000000000002,3.5564776000000005       4.409069
27.075000000000003,1.2320000000000002,3.5564776000000005        4.409069
129.925,-2.4640000000000004,1.4225912   -5.660931
129.925,-0.0,-2.8451816 -5.660931
129.925,2.4640000000000004,1.4225912    -5.660931
0.275,-4.9279992,1.4225912      2.515516
0.275,-1.2320000000000002,-4.979068000000001    2.515516
0.275,-3.696,3.5564776000000005 2.515516
0.275,1.2320000000000002,-4.979068000000001     2.515516
0.275,4.9279992,1.4225912       2.515516
0.275,3.696,3.5564776000000005  2.515516
-75.35000000000001,-4.9279992,-1.4225912        -2.519484
-75.35000000000001,-3.696,-3.5564776000000005   -2.519484
-75.35000000000001,-1.2320000000000002,4.979068000000001        -2.519484
-75.35000000000001,3.696,-3.5564776000000005    -2.519484
-75.35000000000001,1.2320000000000002,4.979068000000001 -2.519484
-75.35000000000001,4.9279992,-1.4225912 -2.519484
-17.65625,-4.9279992,-0.0       -3.142907
-17.65625,-2.4640000000000004,-4.2677728        -3.142907
-17.65625,-2.4640000000000004,4.2677728 -3.142907
-17.65625,2.4640000000000004,-4.2677728 -3.142907
-17.65625,2.4640000000000004,4.2677728  -3.142907
-17.65625,4.9279992,-0.0        -3.142907
485.20000000000005,0.0,0.0      6.927092
258.6,-4.9279992,2.8451816      -0.625931
258.6,4.9279992,2.8451816       -0.625931
258.6,-0.0,-5.690364000000001   -0.625931
-4.3375,-3.696,2.1338864        -5.030367
-4.3375,-3.696,-2.1338864       -5.030367
-4.3375,-3.696,2.1338864        5.039632
-4.3375,-3.696,-2.1338864       5.039632
-4.3375,3.696,-2.1338864        -5.030367
-4.3375,3.696,2.1338864 -5.030367
-4.3375,3.696,-2.1338864        5.039632
-4.3375,3.696,2.1338864 5.039632
-4.3375,-0.0,-4.2677728 -5.030367
-4.3375,0.0,4.2677728   -5.030367
-4.3375,-0.0,-4.2677728 5.039632
-4.3375,0.0,4.2677728   5.039632
73.45,-2.4640000000000004,-2.8451816    -5.660931
73.45,2.4640000000000004,-2.8451816     -5.660931
73.45,-3.696,-0.7112952 -5.660931
73.45,3.696,-0.7112952  -5.660931
73.45,-1.2320000000000002,3.5564776000000005    -5.660931
73.45,1.2320000000000002,3.5564776000000005     -5.660931
240.4,-4.9279992,-2.8451816     2.515516
240.4,4.9279992,-2.8451816      2.515516
240.4,0.0,5.690364000000001     2.515516
-413.8,-4.9279992,2.8451816     -2.519484
-413.8,4.9279992,2.8451816      -2.519484
-413.8,-0.0,-5.690364000000001  -2.519484
42.85,-2.4640000000000004,0.0   6.927092
42.85,-1.2320000000000002,-2.1338864    6.927092
42.85,-1.2320000000000002,2.1338864     6.927092
42.85,1.2320000000000002,-2.1338864     6.927092
42.85,1.2320000000000002,2.1338864      6.927092
42.85,2.4640000000000004,0.0    6.927092
-44.2,-1.2320000000000002,0.7112952     7.550516
-44.2,0.0,-1.4225912    7.550516
-44.2,1.2320000000000002,0.7112952      7.550516
12.425,-1.2320000000000002,-0.7112952   -7.554483
12.425,1.2320000000000002,-0.7112952    -7.554483
12.425,-0.0,1.4225912   -7.554483
-99.9,-6.159999200000001,0.7112952      -0.625931
-99.9,-3.696,4.979068000000001  -0.625931
-99.9,-2.4640000000000004,-5.690364000000001    -0.625931
-99.9,2.4640000000000004,-5.690364000000001     -0.625931
-99.9,6.159999200000001,0.7112952       -0.625931
-99.9,3.696,4.979068000000001   -0.625931
-53.95,-4.9279992,1.4225912     4.409069
-53.95,-3.696,3.5564776000000005        4.409069
-53.95,-1.2320000000000002,-4.979068000000001   4.409069
-53.95,1.2320000000000002,-4.979068000000001    4.409069
-53.95,3.696,3.5564776000000005 4.409069
-53.95,4.9279992,1.4225912      4.409069
39.325,-4.9279992,-0.0  -5.030367
39.325,-2.4640000000000004,-4.2677728   -5.030367
39.325,-2.4640000000000004,4.2677728    -5.030367
39.325,-4.9279992,0.0   5.039632
39.325,-2.4640000000000004,-4.2677728   5.039632
39.325,2.4640000000000004,-4.2677728    -5.030367
39.325,2.4640000000000004,4.2677728     -5.030367
39.325,4.9279992,-0.0   -5.030367
39.325,-2.4640000000000004,4.2677728    5.039632
39.325,2.4640000000000004,-4.2677728    5.039632
39.325,4.9279992,0.0    5.039632
39.325,2.4640000000000004,4.2677728     5.039632
144.6,-6.159999200000001,-0.7112952     2.515516
144.6,-3.696,-4.979068000000001 2.515516
144.6,-2.4640000000000004,5.690364000000001     2.515516
144.6,3.696,-4.979068000000001  2.515516
144.6,6.159999200000001,-0.7112952      2.515516
144.6,2.4640000000000004,5.690364000000001      2.515516
-18.675,-6.159999200000001,-2.1338864   0.004632
-18.675,-6.159999200000001,2.1338864    0.004632
-18.675,-4.9279992,-4.2677728   0.004632
-18.675,-4.9279992,4.2677728    0.004632
-18.675,-1.2320000000000002,-6.401659200000001  0.004632
-18.675,1.2320000000000002,-6.401659200000001   0.004632
-18.675,-1.2320000000000002,6.401659200000001   0.004632
-18.675,4.9279992,-4.2677728    0.004632
-18.675,1.2320000000000002,6.401659200000001    0.004632
-18.675,6.159999200000001,-2.1338864    0.004632
-18.675,6.159999200000001,2.1338864     0.004632
-18.675,4.9279992,4.2677728     0.004632
-114.5,-6.159999200000001,0.7112952     -2.519484
-114.5,-3.696,4.979068000000001 -2.519484
-114.5,-2.4640000000000004,-5.690364000000001   -2.519484
-114.5,2.4640000000000004,-5.690364000000001    -2.519484
-114.5,6.159999200000001,0.7112952      -2.519484
-114.5,3.696,4.979068000000001  -2.519484
2425.6,-0.0,-0.0        -8.177907
-92.80000000000001,-2.4640000000000004,-1.4225912       7.550516
-92.80000000000001,0.0,2.8451816        7.550516
-92.80000000000001,2.4640000000000004,-1.4225912        7.550516
-482.8,-2.4640000000000004,1.4225912    -7.554483
-482.8,-0.0,-2.8451816  -7.554483
-482.8,2.4640000000000004,1.4225912     -7.554483
39.125,-6.159999200000001,2.1338864     1.892092
39.125,-6.159999200000001,-2.1338864    1.892092
39.125,-4.9279992,-4.2677728    1.892092
39.125,-4.9279992,4.2677728     1.892092
39.125,-1.2320000000000002,-6.401659200000001   1.892092
39.125,1.2320000000000002,-6.401659200000001    1.892092
39.125,-1.2320000000000002,6.401659200000001    1.892092
39.125,4.9279992,-4.2677728     1.892092
39.125,1.2320000000000002,6.401659200000001     1.892092
39.125,6.159999200000001,-2.1338864     1.892092
39.125,6.159999200000001,2.1338864      1.892092
39.125,4.9279992,4.2677728      1.892092
-404.0,-4.9279992,-2.8451816    4.409069
-404.0,4.9279992,-2.8451816     4.409069
-404.0,0.0,5.690364000000001    4.409069
20.65625,-4.9279992,1.4225912   -5.660931
20.65625,-1.2320000000000002,-4.979068000000001 -5.660931
20.65625,-3.696,3.5564776000000005      -5.660931
20.65625,1.2320000000000002,-4.979068000000001  -5.660931
20.65625,3.696,3.5564776000000005       -5.660931
20.65625,4.9279992,1.4225912    -5.660931
-46.550000000000004,-4.9279992,-4.2677728       -3.142907
-46.550000000000004,-6.159999200000001,2.1338864        -3.142907
-46.550000000000004,-6.159999200000001,-2.1338864       -3.142907
-46.550000000000004,-4.9279992,4.2677728        -3.142907
-46.550000000000004,-1.2320000000000002,-6.401659200000001      -3.142907
-46.550000000000004,1.2320000000000002,-6.401659200000001       -3.142907
-46.550000000000004,-1.2320000000000002,6.401659200000001       -3.142907
-46.550000000000004,6.159999200000001,-2.1338864        -3.142907
-46.550000000000004,4.9279992,-4.2677728        -3.142907
-46.550000000000004,1.2320000000000002,6.401659200000001        -3.142907
-46.550000000000004,6.159999200000001,2.1338864 -3.142907
-46.550000000000004,4.9279992,4.2677728 -3.142907
52.325,-3.696,-2.1338864        6.927092
52.325,-3.696,2.1338864 6.927092
52.325,3.696,-2.1338864 6.927092
52.325,3.696,2.1338864  6.927092
52.325,-0.0,-4.2677728  6.927092
52.325,0.0,4.2677728    6.927092
-66.60000000000001,-2.4640000000000004,-0.0     -8.177907
-66.60000000000001,-1.2320000000000002,2.1338864        -8.177907
-66.60000000000001,-1.2320000000000002,-2.1338864       -8.177907
-66.60000000000001,1.2320000000000002,-2.1338864        -8.177907
-66.60000000000001,2.4640000000000004,-0.0      -8.177907
-66.60000000000001,1.2320000000000002,2.1338864 -8.177907
-72.72500000000001,-2.4640000000000004,2.8451816        7.550516
-72.72500000000001,2.4640000000000004,2.8451816 7.550516
-72.72500000000001,-3.696,0.7112952     7.550516
-72.72500000000001,3.696,0.7112952      7.550516
-72.72500000000001,-1.2320000000000002,-3.5564776000000005      7.550516
-72.72500000000001,1.2320000000000002,-3.5564776000000005       7.550516
-36.550000000000004,-2.4640000000000004,-2.8451816      -7.554483
-36.550000000000004,2.4640000000000004,-2.8451816       -7.554483
-36.550000000000004,-3.696,-0.7112952   -7.554483
-36.550000000000004,3.696,-0.7112952    -7.554483
-36.550000000000004,-1.2320000000000002,3.5564776000000005      -7.554483
-36.550000000000004,1.2320000000000002,3.5564776000000005       -7.554483
-400.20000000000005,0.0,7.1129544       -0.625931
-400.20000000000005,-6.159999200000001,-3.5564776000000005      -0.625931
-400.20000000000005,6.159999200000001,-3.5564776000000005       -0.625931
-215.8,-6.159999200000001,-0.7112952    4.409069
-215.8,-3.696,-4.979068000000001        4.409069
-215.8,-2.4640000000000004,5.690364000000001    4.409069
-215.8,3.696,-4.979068000000001 4.409069
-215.8,6.159999200000001,-0.7112952     4.409069
-215.8,2.4640000000000004,5.690364000000001     4.409069
248.3,-4.9279992,-2.8451816     -5.660931
248.3,4.9279992,-2.8451816      -5.660931
248.3,0.0,5.690364000000001     -5.660931
469.6,-0.0,-7.1129544   2.515516
469.6,-6.159999200000001,3.5564776000000005     2.515516
469.6,6.159999200000001,3.5564776000000005      2.515516
-75.10000000000001,-7.3919992,-0.0      0.004632
-75.10000000000001,3.696,-6.401659200000001     0.004632
-75.10000000000001,-3.696,6.401659200000001     0.004632
-75.10000000000001,7.3919992,-0.0       0.004632
-75.10000000000001,-3.696,-6.401659200000001    0.004632
-75.10000000000001,3.696,6.401659200000001      0.004632
-308.6,0.0,7.1129544    -2.519484
-308.6,-6.159999200000001,-3.5564776000000005   -2.519484
-308.6,6.159999200000001,-3.5564776000000005    -2.519484
182.4,-4.9279992,0.0    6.927092
182.4,-2.4640000000000004,-4.2677728    6.927092
182.4,-2.4640000000000004,4.2677728     6.927092
182.4,2.4640000000000004,-4.2677728     6.927092
182.4,4.9279992,0.0     6.927092
182.4,2.4640000000000004,4.2677728      6.927092
169.5,-7.3919992,-1.4225912     -0.625931
169.5,-2.4640000000000004,7.1129544     -0.625931
169.5,-4.9279992,-5.690364000000001     -0.625931
169.5,4.9279992,-5.690364000000001      -0.625931
169.5,2.4640000000000004,7.1129544      -0.625931
169.5,7.3919992,-1.4225912      -0.625931
89.55000000000001,-7.3919992,0.0        1.892092
89.55000000000001,-3.696,-6.401659200000001     1.892092
89.55000000000001,-3.696,6.401659200000001      1.892092
89.55000000000001,3.696,-6.401659200000001      1.892092
89.55000000000001,7.3919992,0.0 1.892092
89.55000000000001,3.696,6.401659200000001       1.892092
-3.4562500000000003,-6.159999200000001,2.1338864        -5.030367
-3.4562500000000003,-6.159999200000001,-2.1338864       -5.030367
-3.4562500000000003,-4.9279992,-4.2677728       -5.030367
-3.4562500000000003,-4.9279992,4.2677728        -5.030367
-3.4562500000000003,-6.159999200000001,2.1338864        5.039632
-3.4562500000000003,1.2320000000000002,-6.401659200000001       -5.030367
-3.4562500000000003,-1.2320000000000002,-6.401659200000001      -5.030367
-3.4562500000000003,-6.159999200000001,-2.1338864       5.039632
-3.4562500000000003,-4.9279992,-4.2677728       5.039632
-3.4562500000000003,-1.2320000000000002,6.401659200000001       -5.030367
-3.4562500000000003,1.2320000000000002,-6.401659200000001       5.039632
-3.4562500000000003,-4.9279992,4.2677728        5.039632
-3.4562500000000003,-1.2320000000000002,-6.401659200000001      5.039632
-3.4562500000000003,4.9279992,-4.2677728        -5.030367
-3.4562500000000003,1.2320000000000002,6.401659200000001        -5.030367
-3.4562500000000003,6.159999200000001,-2.1338864        -5.030367
-3.4562500000000003,6.159999200000001,2.1338864 -5.030367
-3.4562500000000003,4.9279992,4.2677728 -5.030367
-3.4562500000000003,-1.2320000000000002,6.401659200000001       5.039632
-3.4562500000000003,4.9279992,-4.2677728        5.039632
-3.4562500000000003,6.159999200000001,-2.1338864        5.039632
-3.4562500000000003,1.2320000000000002,6.401659200000001        5.039632
-3.4562500000000003,6.159999200000001,2.1338864 5.039632
-3.4562500000000003,4.9279992,4.2677728 5.039632
-0.55,-6.159999200000001,-0.7112952     -5.660931
-0.55,-3.696,-4.979068000000001 -5.660931
-0.55,-2.4640000000000004,5.690364000000001     -5.660931
-0.55,3.696,-4.979068000000001  -5.660931
-0.55,2.4640000000000004,5.690364000000001      -5.660931
-0.55,6.159999200000001,-0.7112952      -5.660931
92.80000000000001,-1.2320000000000002,0.7112952 9.444068
92.80000000000001,0.0,-1.4225912        9.444068
92.80000000000001,1.2320000000000002,0.7112952  9.444068
41.050000000000004,-7.3919992,1.4225912 2.515516
41.050000000000004,-2.4640000000000004,-7.1129544       2.515516
41.050000000000004,2.4640000000000004,-7.1129544        2.515516
41.050000000000004,-4.9279992,5.690364000000001 2.515516
41.050000000000004,7.3919992,1.4225912  2.515516
41.050000000000004,4.9279992,5.690364000000001  2.515516
125.5,-7.3919992,-1.4225912     -2.519484
125.5,-2.4640000000000004,7.1129544     -2.519484
125.5,-4.9279992,-5.690364000000001     -2.519484
125.5,4.9279992,-5.690364000000001      -2.519484
125.5,7.3919992,-1.4225912      -2.519484
125.5,2.4640000000000004,7.1129544      -2.519484
175.70000000000002,-7.3919992,-0.0      -3.142907
175.70000000000002,-3.696,-6.401659200000001    -3.142907
175.70000000000002,-3.696,6.401659200000001     -3.142907
175.70000000000002,3.696,-6.401659200000001     -3.142907
175.70000000000002,7.3919992,-0.0       -3.142907
175.70000000000002,3.696,6.401659200000001      -3.142907
6.916406248,-3.696,-2.1338864   -8.177907
6.916406248,-3.696,2.1338864    -8.177907
6.916406248,3.696,2.1338864     -8.177907
6.916406248,3.696,-2.1338864    -8.177907
6.916406248,-0.0,-4.2677728     -8.177907
6.916406248,0.0,4.2677728       -8.177907
201.5,-3.696,-3.5564776000000005        7.550516
201.5,-4.9279992,-1.4225912     7.550516
201.5,-1.2320000000000002,4.979068000000001     7.550516
201.5,3.696,-3.5564776000000005 7.550516
201.5,1.2320000000000002,4.979068000000001      7.550516
201.5,4.9279992,-1.4225912      7.550516
-278.40000000000003,-3.696,3.5564776000000005   -7.554483
-278.40000000000003,-4.9279992,1.4225912        -7.554483
-278.40000000000003,-1.2320000000000002,-4.979068000000001      -7.554483
-278.40000000000003,1.2320000000000002,-4.979068000000001       -7.554483
-278.40000000000003,4.9279992,1.4225912 -7.554483
-278.40000000000003,3.696,3.5564776000000005    -7.554483
57.0125,-6.159999200000001,4.979068000000001    -0.625931
57.0125,-7.3919992,2.8451816    -0.625931
57.0125,-1.2320000000000002,-7.8242504  -0.625931
57.0125,1.2320000000000002,-7.8242504   -0.625931
57.0125,7.3919992,2.8451816     -0.625931
57.0125,6.159999200000001,4.979068000000001     -0.625931
-387.0,-0.0,-7.1129544  4.409069
-387.0,-6.159999200000001,3.5564776000000005    4.409069
-387.0,6.159999200000001,3.5564776000000005     4.409069

End of input

&SCF
Occupied
9
Iterations
   50  100
End of Input

&RASSCF
LumOrb
Symmetry
1
Spin
2
Nactel
1 0 0
CIRoot
9 9 1
inactive
9
ras2
9
End of Input

>>> COPY molybdenum_so_cf.JobIph $SLURM_SUBMIT_DIR/molybdenum_so_cf.doublet.JobIph

>>> COPY $SLURM_SUBMIT_DIR/molybdenum_so_cf.doublet.JobIph ./JOB002

&RASSI
NROFJobIph
1 All
SpinOrbit
End of Input

EOF

-- ----------------------------------

--- Start Module: seward at Wed Mar 26 12:09:08 2025 ---

()()()()()()()()()()()()()()()()()()()()()()()()()()()()()()()()()()()()()()()()()()()()()()()()()()

                                              &SEWARD

                                   only a single process is used
                       available to each process: 4.1 GB of memory, 1 thread?
                                            pid: 4151050
()()()()()()()()()()()()()()()()()()()()()()()()()()()()()()()()()()()()()()()()()()()()()()()()()()

 The speed of LIGHT in this CALCULATION =   137.03599917700001     
               SEWARD will generate:
                  Multipole Moment integrals up to order  2
                  Kinetic Energy integrals
                  Nuclear Attraction integrals (point charge)
                  One-Electron Hamiltonian integrals
                  Velocity integrals
                  Relativistic Douglas-Kroll-Hess integrals:
                    - Parametrization         : EXP
                    - DKH order of Hamiltonian: 2
                    - DKH order of Properties : 0
                         - multipole moment operators
                         - electric potential operators
                         - contact operators
                  External field from   414 point(s) added to the one-electron Hamiltonian
                  Orbital angular momentum around (-0.0000 -0.0000  0.0088 )
                  Velocity quadrupole around (-0.0000 -0.0000  0.0088 )
                  Atomic mean-field integrals
                  Two-Electron Repulsion integrals

                   Integrals are discarded if absolute value <: 0.10E-13
                   Integral cutoff threshold is set to       <: 0.10E-15

++    Symmetry information:
      ---------------------

                    Character Table for C1 

                             E  
                    a        1  x, y, xy, Rz, z, xz, Ry, yz, Rx, I
--


++    Basis set information:
      ----------------------


      Basis set label: MO.ANO-RCC.ROOS.21S18P13D6F4G2H.10S9P9D6F4G2H......

      Electronic valence basis set:
      ------------------
      Associated Effective Charge  42.000000 au
      Associated Actual Charge     42.000000 au
      Nuclear Model: Point charge

      Shell  nPrim  nBasis  Cartesian Spherical Contaminant
         s      21      10        X                  
         p      18       9        X                  
         d      13       9                 X         
         f       6       6                 X         
         g       4       4                 X         
         h       2       2                 X         
--


++    Molecular structure info:
      -------------------------

                    ************************************************ 
                    **** Cartesian Coordinates / Bohr, Angstrom **** 
                    ************************************************ 

     Center  Label                x              y              z                     x              y              z
        1      MO              -0.000000      -0.000000       0.008754             -0.000000      -0.000000       0.004632
--


++    Operator info:
      --------------


  Net charge from external field:   -39.268449999999902     
--


            Nuclear Potential Energy              0.00000000 au

                    Nuclear-External Field Potential Energy    -480.32063975 au
                    External Field Potential Energy            2007.04612673 au 


            Total Nuclear Potential Energy           -480.32063975 au


      Basis set specifications :
      Symmetry species         a  
      Basis functions          182

 Sorry, Molden does not know how to handle
 functions with angular momentum larger than g
Note: The following floating-point exceptions are signalling: IEEE_UNDERFLOW_FLAG IEEE_DENORMAL
--- Stop Module: seward at Wed Mar 26 12:09:18 2025 /rc=_RC_ALL_IS_WELL_ ---
*** files: molybdenum_so_cf.GssOrb xmldump
    saved to directory /home4/s4752295/Internship/Initial_simulations/Point_charge_model/1_electron/Madelung_charges_9_active_space/Mo
--- Module seward spent 9 seconds ---

*** symbolic link created: INPORB -> molybdenum_so_cf.GssOrb
--- Start Module: scf at Wed Mar 26 12:09:18 2025 ---

()()()()()()()()()()()()()()()()()()()()()()()()()()()()()()()()()()()()()()()()()()()()()()()()()()

                                                &SCF

                                   only a single process is used
                       available to each process: 4.1 GB of memory, 1 thread?
                                            pid: 4151054
()()()()()()()()()()()()()()()()()()()()()()()()()()()()()()()()()()()()()()()()()()()()()()()()()()

++    Input section:
      --------------

      Header of the integral files:
      
       Integrals generated by seward 4.2.0  , Wed Mar 26 12:09:08 2025


      Cartesian coordinates in Angstrom:
      -----------------------------------------------------
      No.  Label        X            Y            Z        
      -----------------------------------------------------
       1   MO        -0.00000000  -0.00000000   0.00463220
      -----------------------------------------------------
      Nuclear repulsion energy = -480.32063975
--

++    Orbital specifications:
      -----------------------

      Symmetry species               1
                                     a
      Frozen orbitals                0
      Occupied orbitals              9
      Secondary orbitals           173
      Deleted orbitals               0
      Total number of orbitals     182
      Number of basis functions    182
--

      Molecular charge                          24.000

++    Optimization specifications:
      ----------------------------

      SCF Algorithm: Conventional
      Minimized density differences are used
      Number of density matrices in core                5
      Maximum number of NDDO SCF iterations            50
      Maximum number of HF SCF iterations             100
      Threshold for SCF energy change            0.10E-08
      Threshold for density matrix               0.10E-03
      Threshold for Fock matrix                  0.15E-03
      Threshold for linear dependence            0.10E-08
      Threshold at which DIIS is turned on       0.15E+00
      Threshold at which QNR/C2DIIS is turned on 0.75E-01
      Threshold for Norm(delta) (QNR/C2DIIS)     0.20E-04
      DIIS extrapolation of the SCF procedure
      All orbitals punched on: SCFORB
--

      Detected guessorb starting orbitals                                             


++ Convergence information
                                   SCF        iterations: Energy and convergence statistics

Iter     Tot. SCF        One-elec.       Two-elec.     Energy      Max Dij or  Max Fij      DNorm      TNorm      AccCon     Time
         Energy          Energy          Energy        Change      Delta Norm                                                in Sec.

 The total and one-electron energies are shifted by a value of      3000. a.u.

   1  -952.123551315 -1092.913199679   621.110288109   0.00E+00    0.32E+00*   0.30E+01*    0.60E+01   0.35E+03   None         1.
   2  -958.161342473 -1135.447699670   657.606996942  -0.60E+01*   0.10E-01*   0.27E+00*    0.14E+01   0.36E+03   EDIIS        1.
   3  -958.181051860 -1133.609894369   655.749482254  -0.20E-01*   0.19E-02*   0.13E-01*    0.52E-01   0.36E+03   EDIIS        1.
   4  -958.181153027 -1133.733727203   655.873213921  -0.10E-03*   0.14E-03*   0.16E-02*    0.38E-02   0.36E+03   c2DIIS       1.
   5  -958.181154287 -1133.727043365   655.866528823  -0.13E-05*   0.19E-04    0.13E-03     0.15E-03   0.36E+03   QNRc2DIIS    1.
   6  -958.181154294 -1133.726983665   655.866469116  -0.71E-08*   0.31E-05    0.21E-04     0.24E-04   0.36E+03   QNRc2DIIS    1.
   7  -958.181154295 -1133.726985887   655.866471338  -0.24E-09    0.12E-05    0.37E-05     0.27E-04   0.36E+03   QNRc2DIIS    1.

       Convergence after  7 Macro Iterations
--

 *****************************************************************************************************************************
 *                                                                                                                           *
 *                                             SCF/KS-DFT Program, Final results                                             *
 *                                                                                                                           *
 *                                                                                                                           *
 *                                                                                                                           *
 *                                                       Final Results                                                       *
 *                                                                                                                           *
 *****************************************************************************************************************************

::    Total SCF energy                              -3958.1811542947
      One-electron energy                           -4133.7269858872
      Two-electron energy                             655.8664713379
      Nuclear repulsion energy                       -480.3206397454
      Kinetic energy (interpolated)                  4119.3486858090
      Virial theorem                                    0.9608754821
      Total spin, S(S+1)                                0.0000000000
      Total spin, S                                     0.0000000000
      Max non-diagonal density matrix element           0.0000016940
      Max non-diagonal Fock matrix element              0.0000023663


      All orbitals with orbital energies smaller than  E(LUMO)+0.5 are printed

++    Molecular orbitals:
      -------------------

      Title: SCF orbitals

      Molecular orbitals for symmetry species 1: a  

          Orbital            1         2         3         4         5         6         7         8         9        10    
          Energy         -765.7178 -133.5252 -122.1411 -122.1411 -122.1391  -39.3481  -35.3398  -35.3398  -35.3051  -28.1708
          Occ. No.          2.0000    2.0000    2.0000    2.0000    2.0000    2.0000    2.0000    2.0000    2.0000    0.0000

        1 MO     1s         1.0000   -0.0001    0.0000    0.0000   -0.0000    0.0001   -0.0000    0.0000    0.0000    0.0000
        2 MO     2s         0.0001    0.9999    0.0000    0.0000   -0.0037    0.0129    0.0000   -0.0000   -0.0013   -0.0000
        3 MO     3s        -0.0001   -0.0122   -0.0000   -0.0000    0.0005    0.9870    0.0001   -0.0000   -0.0624   -0.0000
        4 MO     4s         0.0000    0.0030    0.0000    0.0000   -0.0001   -0.0990   -0.0000    0.0000    0.0100    0.0000
        5 MO     5s        -0.0000   -0.0007   -0.0000   -0.0000    0.0000    0.0213    0.0000   -0.0000   -0.0022   -0.0000
        6 MO     6s         0.0000    0.0008    0.0000    0.0000   -0.0000   -0.0250   -0.0000    0.0000    0.0026    0.0000
        7 MO     7s        -0.0000   -0.0025   -0.0000   -0.0000    0.0001    0.0689    0.0000   -0.0000   -0.0072   -0.0000
        8 MO     8s         0.0000    0.0023    0.0000    0.0000   -0.0001   -0.0528   -0.0000    0.0000    0.0055    0.0000
        9 MO     9s        -0.0000   -0.0025   -0.0000   -0.0000    0.0001    0.0462    0.0000   -0.0000   -0.0049   -0.0000
       10 MO    10s         0.0001    0.0029    0.0000    0.0000   -0.0001   -0.0315   -0.0000    0.0000    0.0033    0.0000
       11 MO     2px        0.0000    0.0037   -0.0035   -0.0000    0.9999    0.0005   -0.0000    0.0000    0.0145    0.0000
       12 MO     3px       -0.0000    0.0003    0.0000    0.0000   -0.0137    0.0639   -0.0025    0.0000    0.9822    0.0000
       13 MO     4px        0.0000   -0.0001   -0.0000   -0.0000    0.0030   -0.0045    0.0003   -0.0000   -0.1071   -0.0000
       14 MO     5px       -0.0000    0.0000    0.0000    0.0000   -0.0010    0.0014   -0.0001    0.0000    0.0342    0.0000
       15 MO     6px        0.0000   -0.0001   -0.0000   -0.0000    0.0026   -0.0030    0.0002   -0.0000   -0.0791   -0.0000
       16 MO     7px       -0.0000    0.0001    0.0000    0.0000   -0.0024    0.0022   -0.0002    0.0000    0.0631    0.0000
       17 MO     8px        0.0000   -0.0001   -0.0000   -0.0000    0.0029   -0.0020    0.0002   -0.0000   -0.0632   -0.0000
       18 MO     9px       -0.0000    0.0001    0.0000    0.0000   -0.0027    0.0012   -0.0001    0.0000    0.0465    0.0000
       19 MO    10px        0.0000   -0.0001   -0.0000   -0.0000    0.0022   -0.0004    0.0001   -0.0000   -0.0212   -0.0000
       20 MO     2py        0.0000    0.0000   -0.0000    0.9999   -0.0000    0.0000    0.0000    0.0145    0.0000    0.0000
       21 MO     3py        0.0000   -0.0000    0.0000   -0.0136    0.0000    0.0000    0.0000    0.9846    0.0000    0.0003
       22 MO     4py       -0.0000    0.0000   -0.0000    0.0030   -0.0000   -0.0000   -0.0000   -0.1070   -0.0000   -0.0001
       23 MO     5py        0.0000   -0.0000    0.0000   -0.0010    0.0000    0.0000    0.0000    0.0342    0.0000    0.0000
       24 MO     6py       -0.0000    0.0000   -0.0000    0.0026   -0.0000   -0.0000   -0.0000   -0.0789   -0.0000   -0.0000
       25 MO     7py        0.0000   -0.0000    0.0000   -0.0023    0.0000    0.0000    0.0000    0.0630    0.0000    0.0000
       26 MO     8py       -0.0000    0.0000   -0.0000    0.0029   -0.0000   -0.0000   -0.0000   -0.0630   -0.0000   -0.0000
       27 MO     9py        0.0000   -0.0000    0.0000   -0.0027    0.0000    0.0000    0.0000    0.0463    0.0000    0.0000
       28 MO    10py       -0.0000    0.0000   -0.0000    0.0022   -0.0000   -0.0000   -0.0000   -0.0211   -0.0000   -0.0000
       29 MO     2pz        0.0000    0.0000    0.9999    0.0000    0.0035    0.0000    0.0145   -0.0000    0.0000    0.0000
       30 MO     3pz       -0.0000    0.0000   -0.0136   -0.0000   -0.0000    0.0001    0.9846   -0.0000    0.0025    0.0000
       31 MO     4pz        0.0000   -0.0000    0.0030    0.0000    0.0000   -0.0000   -0.1070    0.0000   -0.0003   -0.0000
       32 MO     5pz       -0.0000    0.0000   -0.0010   -0.0000   -0.0000    0.0000    0.0342   -0.0000    0.0001    0.0000
       33 MO     6pz        0.0000   -0.0000    0.0026    0.0000    0.0000   -0.0000   -0.0789    0.0000   -0.0002   -0.0000
       34 MO     7pz       -0.0000    0.0000   -0.0023   -0.0000   -0.0000    0.0000    0.0630   -0.0000    0.0002    0.0000
       35 MO     8pz        0.0000   -0.0000    0.0029    0.0000    0.0000   -0.0000   -0.0630    0.0000   -0.0002   -0.0000
       36 MO     9pz       -0.0000    0.0000   -0.0027   -0.0000   -0.0000    0.0000    0.0463   -0.0000    0.0001    0.0000
       37 MO    10pz        0.0000   -0.0000    0.0022    0.0000    0.0000   -0.0000   -0.0211    0.0000   -0.0001   -0.0000
       38 MO     3d2-       0.0000    0.0000   -0.0000    0.0003   -0.0000    0.0000    0.0000    0.0322    0.0000   -0.0105
       39 MO     4d2-       0.0000   -0.0000    0.0000   -0.0000    0.0000   -0.0000   -0.0000   -0.0018   -0.0000    0.0011
       40 MO     5d2-      -0.0000    0.0000   -0.0000    0.0001   -0.0000    0.0000    0.0000    0.0017    0.0000   -0.0011
       41 MO     6d2-      -0.0000   -0.0000    0.0000   -0.0001    0.0000   -0.0000   -0.0000   -0.0013   -0.0000    0.0010
       42 MO     7d2-      -0.0000    0.0000   -0.0000    0.0001   -0.0000    0.0000    0.0000    0.0009    0.0000   -0.0008
       43 MO     8d2-       0.0000   -0.0000    0.0000   -0.0001    0.0000   -0.0000   -0.0000   -0.0006   -0.0000    0.0009
       44 MO     9d2-      -0.0000    0.0000   -0.0000    0.0001   -0.0000   -0.0000    0.0000    0.0002    0.0000   -0.0006
       45 MO    10d2-       0.0000   -0.0000    0.0000   -0.0001    0.0000   -0.0000    0.0000    0.0000    0.0000    0.0006
       46 MO    11d2-      -0.0000    0.0000   -0.0000    0.0000   -0.0000    0.0000   -0.0000   -0.0001   -0.0000   -0.0001
       47 MO     3d1-       0.0000   -0.0000   -0.0000    0.0000   -0.0000   -0.0000    0.0000    0.0000   -0.0000    0.9757
       48 MO     4d1-      -0.0000    0.0000    0.0000   -0.0000    0.0000    0.0000   -0.0000   -0.0000    0.0000   -0.0979
       49 MO     5d1-       0.0000   -0.0000   -0.0000    0.0000   -0.0000   -0.0000    0.0000    0.0000   -0.0000    0.1044
       50 MO     6d1-      -0.0000    0.0000    0.0000   -0.0000    0.0000    0.0000   -0.0000   -0.0000    0.0000   -0.0887
       51 MO     7d1-       0.0000   -0.0000   -0.0000    0.0000   -0.0000   -0.0000    0.0000    0.0000   -0.0000    0.0773
       52 MO     8d1-      -0.0000    0.0000    0.0000   -0.0000    0.0000   -0.0000    0.0000    0.0000    0.0000   -0.0792
       53 MO     9d1-       0.0000   -0.0000   -0.0000    0.0000   -0.0000    0.0000    0.0000    0.0000   -0.0000    0.0603
       54 MO    10d1-      -0.0000    0.0000    0.0000   -0.0000    0.0000   -0.0000   -0.0000   -0.0000    0.0000   -0.0590
       55 MO    11d1-       0.0000   -0.0000   -0.0000    0.0000    0.0000    0.0000   -0.0000   -0.0000    0.0000    0.0088
       56 MO     3d0        0.0000    0.0000    0.0000    0.0000   -0.0002    0.0001    0.0001   -0.0000   -0.0191   -0.0000
       57 MO     4d0       -0.0000   -0.0000   -0.0000   -0.0000    0.0000    0.0000   -0.0000    0.0000    0.0011    0.0000
       58 MO     5d0        0.0000    0.0000    0.0000    0.0000   -0.0000    0.0000    0.0000   -0.0000   -0.0010   -0.0000
       59 MO     6d0       -0.0000   -0.0000   -0.0000   -0.0000    0.0000    0.0000   -0.0000    0.0000    0.0007    0.0000
       60 MO     7d0        0.0000    0.0000    0.0000    0.0000   -0.0000   -0.0000    0.0000   -0.0000   -0.0005   -0.0000
       61 MO     8d0       -0.0000   -0.0000   -0.0000   -0.0000    0.0000    0.0000   -0.0000    0.0000    0.0003    0.0000
       62 MO     9d0        0.0000    0.0000    0.0000    0.0000   -0.0000   -0.0000    0.0000    0.0000   -0.0001   -0.0000
       63 MO    10d0       -0.0000   -0.0000   -0.0000   -0.0000    0.0000    0.0000    0.0000   -0.0000   -0.0000    0.0000
       64 MO    11d0        0.0000    0.0000    0.0000    0.0000   -0.0000    0.0000   -0.0000    0.0000    0.0000   -0.0000
       65 MO     3d1+      -0.0000   -0.0000    0.0003    0.0000    0.0000   -0.0000    0.0322   -0.0000    0.0001   -0.0000
       66 MO     4d1+       0.0000    0.0000   -0.0000   -0.0000   -0.0000    0.0000   -0.0018    0.0000   -0.0000    0.0000
       67 MO     5d1+      -0.0000   -0.0000    0.0001    0.0000    0.0000    0.0000    0.0017   -0.0000    0.0000   -0.0000
       68 MO     6d1+       0.0000    0.0000   -0.0001   -0.0000   -0.0000   -0.0000   -0.0013    0.0000   -0.0000    0.0000
       69 MO     7d1+      -0.0000   -0.0000    0.0001    0.0000    0.0000    0.0000    0.0009   -0.0000    0.0000   -0.0000
       70 MO     8d1+       0.0000    0.0000   -0.0001   -0.0000   -0.0000   -0.0000   -0.0006    0.0000   -0.0000    0.0000
       71 MO     9d1+      -0.0000   -0.0000    0.0001    0.0000    0.0000    0.0000    0.0002   -0.0000    0.0000   -0.0000
       72 MO    10d1+       0.0000    0.0000   -0.0001   -0.0000   -0.0000   -0.0000    0.0000   -0.0000    0.0000    0.0000
       73 MO    11d1+      -0.0000   -0.0000    0.0000    0.0000    0.0000    0.0000   -0.0001    0.0000   -0.0000   -0.0000
       74 MO     3d2+      -0.0000   -0.0000   -0.0000   -0.0000    0.0003   -0.0001   -0.0001    0.0000    0.0331   -0.0000
       75 MO     4d2+       0.0000    0.0000    0.0000    0.0000   -0.0000   -0.0000    0.0000   -0.0000   -0.0018    0.0000
       76 MO     5d2+      -0.0000   -0.0000   -0.0000   -0.0000    0.0001   -0.0000   -0.0000    0.0000    0.0018   -0.0000
       77 MO     6d2+       0.0000    0.0000    0.0000    0.0000   -0.0001   -0.0000    0.0000   -0.0000   -0.0013    0.0000
       78 MO     7d2+      -0.0000   -0.0000   -0.0000   -0.0000    0.0001    0.0000   -0.0000    0.0000    0.0009   -0.0000
       79 MO     8d2+       0.0000    0.0000    0.0000    0.0000   -0.0001   -0.0000    0.0000   -0.0000   -0.0006    0.0000
       80 MO     9d2+      -0.0000   -0.0000   -0.0000   -0.0000    0.0001    0.0000   -0.0000    0.0000    0.0002   -0.0000
       81 MO    10d2+       0.0000    0.0000    0.0000    0.0000   -0.0001   -0.0000   -0.0000   -0.0000    0.0000    0.0000
       82 MO    11d2+      -0.0000   -0.0000   -0.0000   -0.0000    0.0000   -0.0000    0.0000   -0.0000   -0.0000   -0.0000
       83 MO     4f3-      -0.0000   -0.0000    0.0000   -0.0000    0.0000    0.0000   -0.0000   -0.0000   -0.0000   -0.0000
       84 MO     5f3-      -0.0000   -0.0000    0.0000   -0.0000    0.0000    0.0000   -0.0000   -0.0001   -0.0000   -0.0000
       85 MO     6f3-       0.0000    0.0000   -0.0000    0.0000   -0.0000   -0.0000    0.0000    0.0001    0.0000    0.0000
       86 MO     7f3-      -0.0000   -0.0000    0.0000   -0.0000    0.0000    0.0000   -0.0000   -0.0001   -0.0000   -0.0000
       87 MO     8f3-       0.0000   -0.0000    0.0000   -0.0000    0.0000    0.0000   -0.0000   -0.0000   -0.0000   -0.0000
       88 MO     9f3-      -0.0000    0.0000   -0.0000    0.0000   -0.0000   -0.0000    0.0000    0.0001    0.0000    0.0001
       89 MO     4f2-       0.0000   -0.0000    0.0000   -0.0000    0.0000   -0.0000   -0.0000   -0.0000   -0.0000    0.0020
       90 MO     5f2-       0.0000   -0.0000    0.0000   -0.0000    0.0000   -0.0000   -0.0000   -0.0000   -0.0000    0.0023
       91 MO     6f2-      -0.0000    0.0000   -0.0000    0.0000   -0.0000    0.0000    0.0000    0.0000    0.0000   -0.0023
       92 MO     7f2-       0.0000   -0.0000    0.0000   -0.0000    0.0000   -0.0000   -0.0000   -0.0000   -0.0000    0.0021
       93 MO     8f2-       0.0000   -0.0000    0.0000   -0.0000    0.0000   -0.0000   -0.0000   -0.0000   -0.0000    0.0013
       94 MO     9f2-       0.0000    0.0000   -0.0000    0.0000   -0.0000    0.0000    0.0000    0.0000    0.0000   -0.0051
       95 MO     4f1-       0.0000    0.0000   -0.0000    0.0000   -0.0000    0.0000    0.0000    0.0000    0.0000    0.0000
       96 MO     5f1-       0.0000    0.0000   -0.0000    0.0000   -0.0000    0.0000    0.0000    0.0000    0.0000    0.0000
       97 MO     6f1-      -0.0000   -0.0000    0.0000   -0.0000    0.0000   -0.0000   -0.0000   -0.0000   -0.0000   -0.0000
       98 MO     7f1-       0.0000    0.0000   -0.0000    0.0000   -0.0000    0.0000    0.0000    0.0000    0.0000    0.0000
       99 MO     8f1-       0.0000    0.0000   -0.0000    0.0000   -0.0000    0.0000    0.0000    0.0000    0.0000    0.0000
      100 MO     9f1-       0.0000   -0.0000    0.0000   -0.0000    0.0000   -0.0000   -0.0000   -0.0000   -0.0000   -0.0000
      101 MO     4f0       -0.0000   -0.0000    0.0000    0.0000    0.0000    0.0000    0.0000   -0.0000    0.0000    0.0000
      102 MO     5f0        0.0000    0.0000    0.0000    0.0000    0.0000    0.0000    0.0000   -0.0000    0.0000    0.0000
      103 MO     6f0       -0.0000   -0.0000   -0.0000   -0.0000   -0.0000   -0.0000   -0.0000    0.0000   -0.0000   -0.0000
      104 MO     7f0       -0.0000   -0.0000    0.0000    0.0000    0.0000   -0.0000    0.0000   -0.0000    0.0000    0.0000
      105 MO     8f0        0.0000    0.0000    0.0000    0.0000    0.0000    0.0000    0.0000   -0.0000    0.0000    0.0000
      106 MO     9f0        0.0000    0.0000   -0.0000   -0.0000   -0.0000   -0.0000   -0.0001    0.0000   -0.0000   -0.0000
      107 MO     4f1+       0.0000   -0.0000    0.0000    0.0000    0.0000   -0.0000    0.0000   -0.0000    0.0000   -0.0000
      108 MO     5f1+      -0.0000   -0.0000    0.0000    0.0000    0.0000   -0.0000    0.0000   -0.0000    0.0001   -0.0000
      109 MO     6f1+      -0.0000    0.0000   -0.0000   -0.0000   -0.0000    0.0000   -0.0000    0.0000   -0.0001    0.0000
      110 MO     7f1+       0.0000   -0.0000    0.0000    0.0000    0.0000   -0.0000    0.0000   -0.0000    0.0001   -0.0000
      111 MO     8f1+       0.0000   -0.0000    0.0000    0.0000    0.0000   -0.0000    0.0000   -0.0000    0.0000   -0.0000
      112 MO     9f1+      -0.0000    0.0000    0.0000   -0.0000   -0.0000    0.0000   -0.0000    0.0000   -0.0001    0.0000
      113 MO     4f2+      -0.0000   -0.0000   -0.0000   -0.0000    0.0000    0.0000   -0.0000    0.0000    0.0000   -0.0000
      114 MO     5f2+       0.0000    0.0000   -0.0000   -0.0000    0.0000    0.0000   -0.0000    0.0000    0.0000   -0.0000
      115 MO     6f2+       0.0000   -0.0000    0.0000    0.0000   -0.0000   -0.0000    0.0000   -0.0000   -0.0000    0.0000
      116 MO     7f2+      -0.0000   -0.0000   -0.0000   -0.0000    0.0000   -0.0000   -0.0000    0.0000    0.0000   -0.0000
      117 MO     8f2+       0.0000    0.0000   -0.0000   -0.0000   -0.0000    0.0000   -0.0000    0.0000    0.0000   -0.0000
      118 MO     9f2+       0.0000   -0.0000    0.0000    0.0000    0.0000   -0.0000    0.0001   -0.0000   -0.0000    0.0000
      119 MO     4f3+      -0.0000    0.0000    0.0000    0.0000   -0.0000    0.0000    0.0000   -0.0000   -0.0001   -0.0000
      120 MO     5f3+       0.0000    0.0000    0.0000    0.0000   -0.0000    0.0000    0.0000   -0.0000   -0.0001   -0.0000
      121 MO     6f3+       0.0000   -0.0000   -0.0000   -0.0000    0.0000   -0.0000   -0.0000    0.0000    0.0001    0.0000
      122 MO     7f3+      -0.0000    0.0000    0.0000    0.0000   -0.0000    0.0000    0.0000   -0.0000   -0.0001   -0.0000
      123 MO     8f3+      -0.0000    0.0000    0.0000    0.0000   -0.0000    0.0000    0.0000   -0.0000   -0.0000   -0.0000
      124 MO     9f3+       0.0000   -0.0000   -0.0000   -0.0000    0.0000   -0.0000   -0.0000    0.0000    0.0002    0.0000
      125 MO     5g4-      -0.0000    0.0000   -0.0000    0.0000   -0.0000    0.0000    0.0000    0.0000    0.0000    0.0000
      126 MO     6g4-       0.0000   -0.0000    0.0000   -0.0000    0.0000   -0.0000   -0.0000   -0.0000   -0.0000   -0.0000
      127 MO     7g4-      -0.0000    0.0000   -0.0000    0.0000   -0.0000    0.0000    0.0000    0.0000    0.0000    0.0000
      128 MO     8g4-       0.0000   -0.0000    0.0000   -0.0000    0.0000   -0.0000   -0.0000   -0.0000   -0.0000   -0.0000
      129 MO     5g3-       0.0000    0.0000    0.0000   -0.0000    0.0000    0.0000   -0.0000   -0.0000   -0.0000   -0.0000
      130 MO     6g3-      -0.0000   -0.0000   -0.0000    0.0000   -0.0000   -0.0000    0.0000    0.0000    0.0000    0.0001
      131 MO     7g3-       0.0000    0.0000    0.0000   -0.0000    0.0000    0.0000   -0.0000   -0.0000   -0.0000   -0.0001
      132 MO     8g3-      -0.0000   -0.0000   -0.0000    0.0000   -0.0000   -0.0000    0.0000    0.0000    0.0000    0.0001
      133 MO     5g2-      -0.0000   -0.0000    0.0000   -0.0000    0.0000   -0.0000   -0.0000   -0.0000   -0.0000   -0.0000
      134 MO     6g2-       0.0000    0.0000   -0.0000    0.0000   -0.0000    0.0000    0.0000    0.0000    0.0000    0.0000
      135 MO     7g2-      -0.0000   -0.0000    0.0000   -0.0000    0.0000   -0.0000   -0.0000   -0.0000   -0.0000   -0.0000
      136 MO     8g2-       0.0000    0.0000   -0.0000    0.0000   -0.0000    0.0000    0.0000    0.0000    0.0000    0.0000
      137 MO     5g1-       0.0000   -0.0000   -0.0000    0.0000   -0.0000    0.0000    0.0000    0.0000   -0.0000    0.0000
      138 MO     6g1-      -0.0000    0.0000    0.0000   -0.0000    0.0000   -0.0000   -0.0000   -0.0000   -0.0000   -0.0000
      139 MO     7g1-       0.0000   -0.0000   -0.0000    0.0000   -0.0000   -0.0000    0.0000    0.0000   -0.0000    0.0000
      140 MO     8g1-      -0.0000    0.0000    0.0000   -0.0000   -0.0000   -0.0000   -0.0000   -0.0000    0.0000   -0.0000
      141 MO     5g0        0.0000    0.0000   -0.0000   -0.0000    0.0000   -0.0000   -0.0000    0.0000    0.0000   -0.0000
      142 MO     6g0        0.0000    0.0000    0.0000    0.0000   -0.0000    0.0000    0.0000   -0.0000   -0.0000    0.0000
      143 MO     7g0        0.0000    0.0000   -0.0000   -0.0000    0.0000   -0.0000   -0.0000    0.0000    0.0000   -0.0000
      144 MO     8g0       -0.0000    0.0000    0.0000    0.0000   -0.0000    0.0000    0.0000   -0.0000   -0.0000    0.0000
      145 MO     5g1+      -0.0000   -0.0000   -0.0000   -0.0000    0.0000    0.0000   -0.0000    0.0000    0.0000   -0.0000
      146 MO     6g1+      -0.0000   -0.0000    0.0000    0.0000   -0.0000   -0.0000    0.0000   -0.0000   -0.0000    0.0000
      147 MO     7g1+      -0.0000    0.0000   -0.0000   -0.0000    0.0000    0.0000   -0.0000    0.0000    0.0000   -0.0000
      148 MO     8g1+       0.0000    0.0000    0.0000    0.0000   -0.0000   -0.0000    0.0000   -0.0000   -0.0000    0.0000
      149 MO     5g2+      -0.0000   -0.0000    0.0000    0.0000   -0.0000    0.0000    0.0000   -0.0000   -0.0000    0.0000
      150 MO     6g2+      -0.0000   -0.0000   -0.0000   -0.0000    0.0000   -0.0000   -0.0000    0.0000    0.0000   -0.0000
      151 MO     7g2+      -0.0000   -0.0000    0.0000    0.0000   -0.0000    0.0000    0.0000   -0.0000   -0.0000    0.0000
      152 MO     8g2+       0.0000   -0.0000   -0.0000   -0.0000    0.0000   -0.0000   -0.0000    0.0000    0.0000   -0.0000
      153 MO     5g3+      -0.0000   -0.0000    0.0000    0.0000    0.0000    0.0000    0.0000   -0.0000    0.0000    0.0000
      154 MO     6g3+      -0.0000   -0.0000   -0.0000   -0.0000   -0.0000   -0.0000   -0.0000    0.0000   -0.0000   -0.0000
      155 MO     7g3+      -0.0000    0.0000    0.0000    0.0000    0.0000    0.0000    0.0000   -0.0000    0.0000    0.0000
      156 MO     8g3+       0.0000    0.0000   -0.0000   -0.0000   -0.0000   -0.0000   -0.0000    0.0000   -0.0000   -0.0000
      157 MO     5g4+       0.0000    0.0000    0.0000    0.0000    0.0000   -0.0000    0.0000   -0.0000    0.0000    0.0000
      158 MO     6g4+       0.0000    0.0000   -0.0000   -0.0000   -0.0000    0.0000   -0.0000    0.0000   -0.0000   -0.0000
      159 MO     7g4+       0.0000    0.0000    0.0000    0.0000    0.0000   -0.0000    0.0000   -0.0000    0.0000    0.0000
      160 MO     8g4+      -0.0000    0.0000   -0.0000   -0.0000   -0.0000    0.0000   -0.0000    0.0000   -0.0000   -0.0000
      161 MO     6h5-      -0.0000   -0.0000    0.0000   -0.0000   -0.0000   -0.0000   -0.0000   -0.0000    0.0000    0.0000
      162 MO     7h5-       0.0000    0.0000   -0.0000    0.0000    0.0000    0.0000    0.0000    0.0000   -0.0000   -0.0000
      163 MO     6h4-      -0.0000    0.0000   -0.0000    0.0000   -0.0000   -0.0000    0.0000    0.0000    0.0000    0.0000
      164 MO     7h4-      -0.0000   -0.0000    0.0000   -0.0000    0.0000   -0.0000   -0.0000   -0.0000   -0.0000   -0.0000
      165 MO     6h3-      -0.0000   -0.0000   -0.0000    0.0000   -0.0000   -0.0000    0.0000    0.0000    0.0000   -0.0000
      166 MO     7h3-       0.0000    0.0000    0.0000   -0.0000    0.0000    0.0000   -0.0000   -0.0000   -0.0000    0.0000
      167 MO     6h2-      -0.0000    0.0000   -0.0000    0.0000   -0.0000    0.0000    0.0000    0.0000    0.0000   -0.0000
      168 MO     7h2-       0.0000   -0.0000    0.0000   -0.0000    0.0000    0.0000   -0.0000   -0.0000   -0.0000    0.0000
      169 MO     6h1-      -0.0000   -0.0000    0.0000   -0.0000   -0.0000   -0.0000   -0.0000   -0.0000    0.0000   -0.0000
      170 MO     7h1-       0.0000    0.0000   -0.0000    0.0000    0.0000    0.0000    0.0000    0.0000    0.0000    0.0000
      171 MO     6h0        0.0000    0.0000   -0.0000   -0.0000   -0.0000   -0.0000   -0.0000    0.0000   -0.0000    0.0000
      172 MO     7h0        0.0000    0.0000    0.0000    0.0000    0.0000    0.0000    0.0000   -0.0000    0.0000   -0.0000
      173 MO     6h1+      -0.0000   -0.0000    0.0000    0.0000   -0.0000   -0.0000    0.0000   -0.0000   -0.0000    0.0000
      174 MO     7h1+      -0.0000   -0.0000   -0.0000   -0.0000    0.0000   -0.0000   -0.0000    0.0000    0.0000   -0.0000
      175 MO     6h2+      -0.0000   -0.0000    0.0000    0.0000    0.0000    0.0000    0.0000   -0.0000    0.0000   -0.0000
      176 MO     7h2+      -0.0000   -0.0000   -0.0000   -0.0000   -0.0000   -0.0000   -0.0000    0.0000   -0.0000    0.0000
      177 MO     6h3+       0.0000    0.0000    0.0000    0.0000    0.0000    0.0000    0.0000   -0.0000    0.0000   -0.0000
      178 MO     7h3+       0.0000    0.0000   -0.0000   -0.0000   -0.0000    0.0000   -0.0000    0.0000   -0.0000    0.0000
      179 MO     6h4+      -0.0000   -0.0000   -0.0000   -0.0000    0.0000    0.0000   -0.0000    0.0000    0.0000    0.0000
      180 MO     7h4+      -0.0000   -0.0000    0.0000    0.0000   -0.0000   -0.0000    0.0000   -0.0000   -0.0000   -0.0000
      181 MO     6h5+      -0.0000   -0.0000    0.0000    0.0000   -0.0000   -0.0000    0.0000   -0.0000   -0.0000   -0.0000
      182 MO     7h5+      -0.0000   -0.0000   -0.0000   -0.0000    0.0000   -0.0000   -0.0000    0.0000    0.0000    0.0000

          Orbital           11        12        13        14    
          Energy          -28.1708  -28.1550  -28.1550  -28.1489
          Occ. No.          0.0000    0.0000    0.0000    0.0000

        1 MO     1s        -0.0000    0.0000    0.0000   -0.0000
        2 MO     2s         0.0000   -0.0000   -0.0000    0.0001
        3 MO     3s         0.0000   -0.0000   -0.0000    0.0024
        4 MO     4s        -0.0000   -0.0000    0.0000   -0.0007
        5 MO     5s         0.0000    0.0000    0.0000    0.0002
        6 MO     6s        -0.0000   -0.0000   -0.0000   -0.0002
        7 MO     7s         0.0000    0.0000   -0.0000    0.0005
        8 MO     8s        -0.0000   -0.0000    0.0000   -0.0004
        9 MO     9s         0.0000   -0.0000   -0.0000    0.0003
       10 MO    10s        -0.0000    0.0000    0.0000   -0.0002
       11 MO     2px       -0.0000    0.0000    0.0000   -0.0009
       12 MO     3px       -0.0000    0.0001    0.0000   -0.0364
       13 MO     4px        0.0000   -0.0000   -0.0000    0.0071
       14 MO     5px       -0.0000    0.0000    0.0000   -0.0023
       15 MO     6px        0.0000   -0.0000   -0.0000    0.0054
       16 MO     7px       -0.0000    0.0000    0.0000   -0.0043
       17 MO     8px        0.0000   -0.0000   -0.0000    0.0043
       18 MO     9px       -0.0000    0.0000    0.0000   -0.0031
       19 MO    10px        0.0000   -0.0000   -0.0000    0.0012
       20 MO     2py        0.0000    0.0000   -0.0008   -0.0000
       21 MO     3py        0.0000    0.0000   -0.0308   -0.0000
       22 MO     4py       -0.0000   -0.0000    0.0060    0.0000
       23 MO     5py        0.0000    0.0000   -0.0019   -0.0000
       24 MO     6py       -0.0000   -0.0000    0.0045    0.0000
       25 MO     7py        0.0000    0.0000   -0.0036   -0.0000
       26 MO     8py       -0.0000   -0.0000    0.0036    0.0000
       27 MO     9py        0.0000    0.0000   -0.0026   -0.0000
       28 MO    10py       -0.0000   -0.0000    0.0011    0.0000
       29 MO     2pz       -0.0000   -0.0008   -0.0000   -0.0000
       30 MO     3pz       -0.0002   -0.0308   -0.0000   -0.0001
       31 MO     4pz        0.0000    0.0060    0.0000    0.0000
       32 MO     5pz       -0.0000   -0.0019   -0.0000   -0.0000
       33 MO     6pz        0.0000    0.0045    0.0000    0.0000
       34 MO     7pz       -0.0000   -0.0036   -0.0000   -0.0000
       35 MO     8pz        0.0000    0.0036    0.0000    0.0000
       36 MO     9pz       -0.0000   -0.0026   -0.0000   -0.0000
       37 MO    10pz        0.0000    0.0011    0.0000    0.0000
       38 MO     3d2-      -0.0000   -0.0000    0.9751    0.0000
       39 MO     4d2-       0.0000    0.0000   -0.0981   -0.0000
       40 MO     5d2-      -0.0000   -0.0000    0.1046    0.0000
       41 MO     6d2-       0.0000    0.0000   -0.0889   -0.0000
       42 MO     7d2-      -0.0000   -0.0000    0.0775    0.0000
       43 MO     8d2-       0.0000    0.0000   -0.0794   -0.0000
       44 MO     9d2-      -0.0000   -0.0000    0.0604    0.0000
       45 MO    10d2-       0.0000    0.0000   -0.0592   -0.0000
       46 MO    11d2-      -0.0000   -0.0000    0.0089    0.0000
       47 MO     3d1-       0.0000   -0.0000    0.0105   -0.0000
       48 MO     4d1-      -0.0000    0.0000   -0.0011    0.0000
       49 MO     5d1-       0.0000   -0.0000    0.0011   -0.0000
       50 MO     6d1-      -0.0000    0.0000   -0.0010    0.0000
       51 MO     7d1-       0.0000   -0.0000    0.0008   -0.0000
       52 MO     8d1-      -0.0000    0.0000   -0.0009    0.0000
       53 MO     9d1-       0.0000   -0.0000    0.0007   -0.0000
       54 MO    10d1-      -0.0000    0.0000   -0.0006    0.0000
       55 MO    11d1-       0.0000   -0.0000    0.0001   -0.0000
       56 MO     3d0        0.8450   -0.0018   -0.0000   -0.4875
       57 MO     4d0       -0.0848    0.0002    0.0000    0.0491
       58 MO     5d0        0.0904   -0.0002   -0.0000   -0.0523
       59 MO     6d0       -0.0768    0.0002    0.0000    0.0445
       60 MO     7d0        0.0669   -0.0001   -0.0000   -0.0388
       61 MO     8d0       -0.0686    0.0001    0.0000    0.0397
       62 MO     9d0        0.0522   -0.0001   -0.0000   -0.0303
       63 MO    10d0       -0.0511    0.0001    0.0000    0.0297
       64 MO    11d0        0.0077   -0.0000   -0.0000   -0.0044
       65 MO     3d1+       0.0048    0.9751    0.0000    0.0047
       66 MO     4d1+      -0.0005   -0.0981   -0.0000   -0.0005
       67 MO     5d1+       0.0005    0.1046    0.0000    0.0005
       68 MO     6d1+      -0.0004   -0.0889   -0.0000   -0.0004
       69 MO     7d1+       0.0004    0.0775    0.0000    0.0004
       70 MO     8d1+      -0.0004   -0.0794   -0.0000   -0.0004
       71 MO     9d1+       0.0003    0.0604    0.0000    0.0003
       72 MO    10d1+      -0.0003   -0.0592   -0.0000   -0.0003
       73 MO    11d1+       0.0000    0.0089    0.0000    0.0000
       74 MO     3d2+       0.4879   -0.0064   -0.0000    0.8442
       75 MO     4d2+      -0.0490    0.0007    0.0000   -0.0850
       76 MO     5d2+       0.0522   -0.0007   -0.0000    0.0906
       77 MO     6d2+      -0.0444    0.0006    0.0000   -0.0770
       78 MO     7d2+       0.0387   -0.0005   -0.0000    0.0671
       79 MO     8d2+      -0.0396    0.0005    0.0000   -0.0688
       80 MO     9d2+       0.0301   -0.0004   -0.0000    0.0524
       81 MO    10d2+      -0.0295    0.0004    0.0000   -0.0513
       82 MO    11d2+       0.0044   -0.0001   -0.0000    0.0077
       83 MO     4f3-      -0.0000   -0.0000    0.0025    0.0000
       84 MO     5f3-      -0.0000   -0.0000    0.0029    0.0000
       85 MO     6f3-       0.0000    0.0000   -0.0029   -0.0000
       86 MO     7f3-      -0.0000   -0.0000    0.0026    0.0000
       87 MO     8f3-      -0.0000   -0.0000    0.0016    0.0000
       88 MO     9f3-       0.0000    0.0000   -0.0064   -0.0000
       89 MO     4f2-       0.0000   -0.0000    0.0000   -0.0000
       90 MO     5f2-       0.0000   -0.0000    0.0000   -0.0000
       91 MO     6f2-      -0.0000    0.0000   -0.0000    0.0000
       92 MO     7f2-       0.0000   -0.0000    0.0000   -0.0000
       93 MO     8f2-       0.0000   -0.0000    0.0000   -0.0000
       94 MO     9f2-      -0.0000    0.0000   -0.0001    0.0000
       95 MO     4f1-       0.0000    0.0000   -0.0007   -0.0000
       96 MO     5f1-       0.0000    0.0000   -0.0008   -0.0000
       97 MO     6f1-      -0.0000   -0.0000    0.0008    0.0000
       98 MO     7f1-       0.0000    0.0000   -0.0007   -0.0000
       99 MO     8f1-       0.0000    0.0000   -0.0004   -0.0000
      100 MO     9f1-      -0.0000   -0.0000    0.0016    0.0000
      101 MO     4f0       -0.0000   -0.0016   -0.0000   -0.0000
      102 MO     5f0       -0.0000   -0.0019   -0.0000   -0.0000
      103 MO     6f0        0.0000    0.0018    0.0000    0.0000
      104 MO     7f0       -0.0000   -0.0016   -0.0000   -0.0000
      105 MO     8f0       -0.0000   -0.0010   -0.0000   -0.0000
      106 MO     9f0        0.0000    0.0040    0.0000    0.0000
      107 MO     4f1+       0.0016    0.0000    0.0000   -0.0017
      108 MO     5f1+       0.0019    0.0000    0.0000   -0.0020
      109 MO     6f1+      -0.0018   -0.0000   -0.0000    0.0020
      110 MO     7f1+       0.0016    0.0000    0.0000   -0.0018
      111 MO     8f1+       0.0010    0.0000    0.0000   -0.0011
      112 MO     9f1+      -0.0040   -0.0000   -0.0000    0.0043
      113 MO     4f2+       0.0000    0.0021    0.0000    0.0000
      114 MO     5f2+       0.0000    0.0024    0.0000    0.0000
      115 MO     6f2+      -0.0000   -0.0024   -0.0000   -0.0000
      116 MO     7f2+       0.0000    0.0021    0.0000    0.0000
      117 MO     8f2+       0.0000    0.0013    0.0000    0.0000
      118 MO     9f2+      -0.0000   -0.0052   -0.0000   -0.0000
      119 MO     4f3+       0.0012   -0.0000   -0.0000    0.0022
      120 MO     5f3+       0.0014   -0.0000   -0.0000    0.0026
      121 MO     6f3+      -0.0014    0.0000    0.0000   -0.0025
      122 MO     7f3+       0.0013   -0.0000   -0.0000    0.0023
      123 MO     8f3+       0.0008   -0.0000   -0.0000    0.0014
      124 MO     9f3+      -0.0031    0.0000    0.0000   -0.0055
      125 MO     5g4-       0.0000    0.0000   -0.0001   -0.0000
      126 MO     6g4-      -0.0000   -0.0000    0.0001    0.0000
      127 MO     7g4-       0.0000    0.0000   -0.0001   -0.0000
      128 MO     8g4-      -0.0000   -0.0000    0.0001    0.0000
      129 MO     5g3-      -0.0000    0.0000   -0.0000    0.0000
      130 MO     6g3-       0.0000   -0.0000    0.0000   -0.0000
      131 MO     7g3-      -0.0000    0.0000   -0.0000   -0.0000
      132 MO     8g3-       0.0000   -0.0000    0.0000   -0.0000
      133 MO     5g2-      -0.0000   -0.0000    0.0000   -0.0000
      134 MO     6g2-       0.0000    0.0000   -0.0000    0.0000
      135 MO     7g2-      -0.0000   -0.0000    0.0000    0.0000
      136 MO     8g2-       0.0000    0.0000   -0.0000   -0.0000
      137 MO     5g1-       0.0000   -0.0000    0.0000   -0.0000
      138 MO     6g1-      -0.0000    0.0000   -0.0000    0.0000
      139 MO     7g1-       0.0000   -0.0000    0.0000   -0.0000
      140 MO     8g1-      -0.0000    0.0000   -0.0000    0.0000
      141 MO     5g0        0.0000    0.0000   -0.0000   -0.0000
      142 MO     6g0       -0.0000   -0.0000   -0.0000    0.0000
      143 MO     7g0        0.0000    0.0000    0.0000   -0.0001
      144 MO     8g0       -0.0000   -0.0000   -0.0000    0.0001
      145 MO     5g1+       0.0000    0.0001    0.0000    0.0000
      146 MO     6g1+      -0.0000   -0.0001   -0.0000   -0.0000
      147 MO     7g1+       0.0000    0.0001    0.0000    0.0000
      148 MO     8g1+      -0.0000   -0.0001   -0.0000   -0.0000
      149 MO     5g2+      -0.0000    0.0000    0.0000    0.0000
      150 MO     6g2+       0.0000   -0.0000   -0.0000   -0.0001
      151 MO     7g2+      -0.0000    0.0000    0.0000    0.0001
      152 MO     8g2+       0.0000   -0.0000   -0.0000   -0.0001
      153 MO     5g3+      -0.0000   -0.0000   -0.0000   -0.0000
      154 MO     6g3+       0.0000    0.0001    0.0000    0.0000
      155 MO     7g3+      -0.0000   -0.0001   -0.0000   -0.0000
      156 MO     8g3+       0.0000    0.0001    0.0000    0.0000
      157 MO     5g4+      -0.0000    0.0000    0.0000   -0.0001
      158 MO     6g4+       0.0000   -0.0000   -0.0000    0.0001
      159 MO     7g4+      -0.0000    0.0000    0.0000   -0.0001
      160 MO     8g4+       0.0001   -0.0000   -0.0000    0.0001
      161 MO     6h5-       0.0000   -0.0000    0.0000   -0.0000
      162 MO     7h5-      -0.0000    0.0000   -0.0000    0.0000
      163 MO     6h4-       0.0000    0.0000   -0.0000   -0.0000
      164 MO     7h4-      -0.0000   -0.0000    0.0000    0.0000
      165 MO     6h3-      -0.0000    0.0000   -0.0000   -0.0000
      166 MO     7h3-       0.0000   -0.0000    0.0000    0.0000
      167 MO     6h2-      -0.0000   -0.0000    0.0000    0.0000
      168 MO     7h2-       0.0000    0.0000   -0.0000    0.0000
      169 MO     6h1-      -0.0000   -0.0000    0.0000   -0.0000
      170 MO     7h1-       0.0000    0.0000   -0.0000    0.0000
      171 MO     6h0       -0.0000    0.0000    0.0000   -0.0000
      172 MO     7h0        0.0000   -0.0000   -0.0000    0.0000
      173 MO     6h1+      -0.0000   -0.0000   -0.0000    0.0000
      174 MO     7h1+       0.0000    0.0000    0.0000   -0.0000
      175 MO     6h2+       0.0000   -0.0000   -0.0000    0.0000
      176 MO     7h2+      -0.0000    0.0000    0.0000   -0.0000
      177 MO     6h3+       0.0000    0.0000    0.0000   -0.0000
      178 MO     7h3+      -0.0000   -0.0000   -0.0000    0.0000
      179 MO     6h4+      -0.0000    0.0000    0.0000    0.0000
      180 MO     7h4+       0.0000   -0.0000   -0.0000   -0.0000
      181 MO     6h5+       0.0000    0.0000    0.0000    0.0000
      182 MO     7h5+      -0.0000   -0.0000   -0.0000   -0.0000
--


++    Molecular charges:
      ------------------

      Mulliken charges per centre and basis function type
      ---------------------------------------------------

                MO    
      1s       2.0000
      2s       2.0000
      2px      2.0000
      2pz      2.0000
      2py      2.0000
      3s       1.9564
      3px      1.9379
      3pz      1.9391
      3py      1.9391
      4s       0.0198
      3d2+     0.0022
      3d1+     0.0021
      3d0      0.0007
      3d1-     0.0000
      3d2-     0.0021
      4px      0.0230
      4pz      0.0229
      4py      0.0229
      5s       0.0009
      4d2+     0.0000
      4d1+     0.0000
      4d0      0.0000
      4d1-     0.0000
      4d2-     0.0000
      5px      0.0023
      5pz      0.0023
      5py      0.0023
      6s       0.0013
      4f3+     0.0000
      4f2+     0.0000
      4f1+     0.0000
      4f0      0.0000
      4f1-     0.0000
      4f2-     0.0000
      4f3-     0.0000
      5d2+     0.0000
      5d1+     0.0000
      5d0      0.0000
      5d1-     0.0000
      5d2-     0.0000
      6px      0.0125
      6pz      0.0125
      6py      0.0125
      7s       0.0096
      5f3+     0.0000
      5f2+     0.0000
      5f1+     0.0000
      5f0      0.0000
      5f1-     0.0000
      5f2-     0.0000
      5f3-     0.0000
      6d2+     0.0000
      6d1+     0.0000
      6d0      0.0000
      6d1-     0.0000
      6d2-     0.0000
      7px      0.0080
      7pz      0.0079
      7py      0.0079
      5g4+     0.0000
      5g3+     0.0000
      5g2+     0.0000
      5g1+     0.0000
      5g0      0.0000
      5g1-     0.0000
      5g2-     0.0000
      5g3-     0.0000
      5g4-     0.0000
      6f3+     0.0000
      6f2+     0.0000
      6f1+     0.0000
      6f0      0.0000
      6f1-     0.0000
      6f2-     0.0000
      6f3-     0.0000
      6g4+     0.0000
      6g3+     0.0000
      6g2+     0.0000
      6g1+     0.0000
      6g0      0.0000
      6g1-     0.0000
      6g2-     0.0000
      6g3-     0.0000
      6g4-     0.0000
      6h5+     0.0000
      6h4+     0.0000
      6h3+     0.0000
      6h2+     0.0000
      6h1+     0.0000
      6h0      0.0000
      6h1-     0.0000
      6h2-     0.0000
      6h3-     0.0000
      6h4-     0.0000
      6h5-     0.0000
      7d2+     0.0000
      7d1+     0.0000
      7d0      0.0000
      7d1-     0.0000
      7d2-     0.0000
      7f3+     0.0000
      7f2+     0.0000
      7f1+     0.0000
      7f0      0.0000
      7f1-     0.0000
      7f2-     0.0000
      7f3-     0.0000
      7g4+     0.0000
      7g3+     0.0000
      7g2+     0.0000
      7g1+     0.0000
      7g0      0.0000
      7g1-     0.0000
      7g2-     0.0000
      7g3-     0.0000
      7g4-     0.0000
      7h5+     0.0000
      7h4+     0.0000
      7h3+     0.0000
      7h2+     0.0000
      7h1+     0.0000
      7h0      0.0000
      7h1-     0.0000
      7h2-     0.0000
      7h3-     0.0000
      7h4-     0.0000
      7h5-     0.0000
      8s       0.0056
      8px      0.0080
      8pz      0.0080
      8py      0.0080
      8d2+     0.0000
      8d1+     0.0000
      8d0      0.0000
      8d1-     0.0000
      8d2-     0.0000
      8f3+     0.0000
      8f2+     0.0000
      8f1+     0.0000
      8f0      0.0000
      8f1-     0.0000
      8f2-     0.0000
      8f3-     0.0000
      8g4+     0.0000
      8g3+     0.0000
      8g2+     0.0000
      8g1+     0.0000
      8g0      0.0000
      8g1-     0.0000
      8g2-     0.0000
      8g3-     0.0000
      8g4-     0.0000
      9s       0.0043
      9px      0.0043
      9pz      0.0043
      9py      0.0043
      9d2+     0.0000
      9d1+     0.0000
      9d0      0.0000
      9d1-     0.0000
      9d2-     0.0000
      9f3+     0.0000
      9f2+     0.0000
      9f1+     0.0000
      9f0      0.0000
      9f1-     0.0000
      9f2-     0.0000
      9f3-     0.0000
     10s       0.0020
     10px      0.0009
     10pz      0.0009
     10py      0.0009
     10d2+     0.0000
     10d1+     0.0000
     10d0      0.0000
     10d1-     0.0000
     10d2-     0.0000
     11d2+     0.0000
     11d1+     0.0000
     11d0      0.0000
     11d1-     0.0000
     11d2-     0.0000
      Total   18.0000

      N-E     24.0000

      Total electronic charge=   18.000000

      Total            charge=   24.000000
--

 Sorry, Molden does not know how to handle
 functions with angular momentum larger than g

++    Static properties:
      ------------------


      LoProp Charges per center


                   MO    
      Nuclear     42.0000
      Electronic -18.0000

      Total       24.0000
--


++    Molecular properties:
      ---------------------

      Charge (e):
                      =   24.0000
      Dipole Moment (Debye):
      Origin of the operator (Ang)=    0.0000    0.0000    0.0000
                   X= -1.8957E-01               Y= -1.8879E-13               Z=  5.3377E-01           Total=  5.6643E-01
      Center of Charge (Ang)
                     X=   -0.00164448               Y=   -0.00000000               Z=    0.00463033
      Quadrupole Moment (Debye*Ang):
      Origin of the operator (Ang)=   -0.0000   -0.0000    0.0046
                  XX= -6.7759E-01              XY=  2.1112E-17              XZ=  4.6248E-06              YY= -6.7863E-01
                  YZ=  8.3362E-16              ZZ= -6.7863E-01
      In traceless form (Debye*Ang)
                  XX=  1.0387E-03              XY=  3.1668E-17              XZ=  6.9371E-06              YY= -5.1927E-04
                  YZ=  1.2504E-15              ZZ= -5.1941E-04
--

 Sorry, Molden does not know how to handle
 functions with angular momentum larger than g
 ###############################################################################
 ###############################################################################
 ###                                                                         ###
 ###                                                                         ###
 ###    WARNING: RunFile label nBas                                          ###
 ###    was used       62 times                                              ###
 ###                                                                         ###
 ###                                                                         ###
 ###############################################################################
 ###############################################################################
Note: The following floating-point exceptions are signalling: IEEE_UNDERFLOW_FLAG IEEE_DENORMAL
--- Stop Module: scf at Wed Mar 26 12:09:25 2025 /rc=_RC_ALL_IS_WELL_ ---
*** files: molybdenum_so_cf.LprOrb molybdenum_so_cf.ScfOrb xmldump
    saved to directory /home4/s4752295/Internship/Initial_simulations/Point_charge_model/1_electron/Madelung_charges_9_active_space/Mo
--- Module scf spent 7 seconds ---

*** symbolic link created: INPORB -> molybdenum_so_cf.ScfOrb
--- Start Module: rasscf at Wed Mar 26 12:09:25 2025 ---

()()()()()()()()()()()()()()()()()()()()()()()()()()()()()()()()()()()()()()()()()()()()()()()()()()

                                              &RASSCF

                                   only a single process is used
                       available to each process: 4.1 GB of memory, 1 thread?
                                            pid: 4151058
()()()()()()()()()()()()()()()()()()()()()()()()()()()()()()()()()()()()()()()()()()()()()()()()()()


      Header of the ONEINT file:
      --------------------------
      
      Integrals generated by seward 4.2.0  , Wed Mar 26 12:09:08 2025


      OrdInt status: non-squared


      Cartesian coordinates in Angstrom:
      -----------------------------------------------------
      No.  Label        X            Y            Z        
      -----------------------------------------------------
       1   MO        -0.00000000  -0.00000000   0.00463220
      -----------------------------------------------------
      Nuclear repulsion energy = -480.32063975

++    Wave function specifications:
      -----------------------------

      Number of closed shell electrons          18
      Number of electrons in active shells       1
      Max number of holes in RAS1 space          0
      Max nr of electrons in RAS3 space          0
      Number of inactive orbitals                9
      Number of active orbitals                  9
      Number of secondary orbitals             164
      Spin quantum number                      0.5
      State symmetry                             1
--

++    Orbital specifications:
      -----------------------

      Symmetry species                           1
                                                 a
      Frozen orbitals                            0
      Inactive orbitals                          9
      Active orbitals                            9
      RAS1 orbitals                              0
      RAS2 orbitals                              9
[...]
     8             0.0160206731        0.4359447231           3516.1313         2.1
     9             0.0222382743        0.6051342726           4880.7371         2.1
    10             0.0222382743        0.6051342726           4880.7371         2.1
    11            15.6640653808      426.2409332607        3437864.9751         0.6
    12            15.6640653808      426.2409332607        3437864.9751         0.6
    13            17.1867091892      467.6741820459        3772046.6637         1.3
    14            17.1867091892      467.6741820459        3772046.6637         1.3
    15            17.1868113026      467.6769606909        3772069.0749         1.3
    16            17.1868113026      467.6769606909        3772069.0749         1.3
    17            17.4551568227      474.9790142864        3830964.1090         1.2
    18            17.4551568227      474.9790142864        3830964.1090         1.2


 Weights of the five most important spin-orbit-free states for each spin-orbit state.

 SO State  Total energy (au)           Spin-free states, spin, and weights
 -------------------------------------------------------------------------------------------------------
    1         0.000000       1 0.5  1.0000    9 0.5  0.0000    8 0.5  0.0000    7 0.5  0.0000    6 0.5  0.0000
    2         0.000000       1 0.5  1.0000    9 0.5  0.0000    8 0.5  0.0000    7 0.5  0.0000    6 0.5  0.0000
    3         0.000003       2 0.5  1.0000    9 0.5  0.0000    8 0.5  0.0000    7 0.5  0.0000    6 0.5  0.0000
    4         0.000003       2 0.5  1.0000    9 0.5  0.0000    8 0.5  0.0000    7 0.5  0.0000    6 0.5  0.0000
    5         0.016013       3 0.5  1.0000    9 0.5  0.0000    8 0.5  0.0000    7 0.5  0.0000    6 0.5  0.0000
    6         0.016013       3 0.5  1.0000    9 0.5  0.0000    8 0.5  0.0000    7 0.5  0.0000    6 0.5  0.0000
    7         0.016021       4 0.5  1.0000    9 0.5  0.0000    8 0.5  0.0000    7 0.5  0.0000    6 0.5  0.0000
    8         0.016021       4 0.5  1.0000    9 0.5  0.0000    8 0.5  0.0000    7 0.5  0.0000    6 0.5  0.0000
    9         0.022238       5 0.5  1.0000    9 0.5  0.0000    8 0.5  0.0000    7 0.5  0.0000    6 0.5  0.0000
   10         0.022238       5 0.5  1.0000    9 0.5  0.0000    8 0.5  0.0000    7 0.5  0.0000    6 0.5  0.0000
   11        15.664065       6 0.5  1.0000    9 0.5  0.0000    8 0.5  0.0000    7 0.5  0.0000    5 0.5  0.0000
   12        15.664065       6 0.5  1.0000    9 0.5  0.0000    8 0.5  0.0000    7 0.5  0.0000    5 0.5  0.0000
   13        17.186709       7 0.5  1.0000    9 0.5  0.0000    8 0.5  0.0000    6 0.5  0.0000    5 0.5  0.0000
   14        17.186709       7 0.5  1.0000    9 0.5  0.0000    8 0.5  0.0000    6 0.5  0.0000    5 0.5  0.0000
   15        17.186811       8 0.5  1.0000    9 0.5  0.0000    7 0.5  0.0000    6 0.5  0.0000    5 0.5  0.0000
   16        17.186811       8 0.5  1.0000    9 0.5  0.0000    7 0.5  0.0000    6 0.5  0.0000    5 0.5  0.0000
   17        17.455157       9 0.5  1.0000    8 0.5  0.0000    7 0.5  0.0000    6 0.5  0.0000    5 0.5  0.0000
   18        17.455157       9 0.5  1.0000    8 0.5  0.0000    7 0.5  0.0000    6 0.5  0.0000    5 0.5  0.0000
 -------------------------------------------------------------------------------------------------------


      ****************************************************************************************************
      *                                                                                                  *
      *                                    Special properties section                                    *
      *                                                                                                  *
      ****************************************************************************************************


++ Dipole transition strengths (SO states):
   ----------------------------------------
    for osc. strength at least    1.0000000000000001E-005

      From   To        Osc. strength     Einstein coefficients Ax, Ay, Az (sec-1)    Total A (sec-1)
     -----------------------------------------------------------------------------------------------
         1   13       1.56818916E-02  9.22270711E-07  1.48830958E+11  1.90112490E-02  1.48830958E+11
         1   15       1.56863849E-02  2.61819796E+07  1.90161622E-02  1.48849189E+11  1.48875371E+11
         2   14       1.56818916E-02  9.22270711E-07  1.48830958E+11  1.90112490E-02  1.48830958E+11
         2   16       1.56863849E-02  2.61819796E+07  1.90161622E-02  1.48849189E+11  1.48875371E+11
         3   13       1.56813417E-02  7.24960677E+06  1.90124501E-02  1.48818439E+11  1.48825688E+11
         3   15       1.56849550E-02  3.47725894E-06  1.48861749E+11  1.90147870E-02  1.48861749E+11
         4   14       1.56813417E-02  7.24960677E+06  1.90124501E-02  1.48818439E+11  1.48825688E+11
         4   16       1.56849550E-02  3.47725894E-06  1.48861749E+11  1.90147870E-02  1.48861749E+11
         5   11       1.76293095E-03  3.10319592E+05  4.31500933E-06  1.38693315E+10  1.38696419E+10
         5   13       1.81723899E-02  1.72145540E+11  3.07653162E-09  5.71769705E+05  1.72146112E+11
         5   17       1.23455813E-02  2.37110908E+06  3.75482484E-05  1.20632045E+11  1.20634416E+11
         6   12       1.76293095E-03  3.10319592E+05  4.31500933E-06  1.38693315E+10  1.38696419E+10
         6   14       1.81723899E-02  1.72145540E+11  3.07653162E-09  5.71769705E+05  1.72146112E+11
         6   18       1.23455813E-02  2.37110908E+06  3.75482484E-05  1.20632045E+11  1.20634416E+11
         7   11       1.76162043E-03  1.06148917E-10  1.38593183E+10  4.31883231E-06  1.38593183E+10
         7   15       1.81683292E-02  1.72098097E+11  7.32410461E-11  1.14453690E+07  1.72109543E+11
         7   17       1.23428907E-02  8.25930379E-10  1.20608022E+11  3.75581833E-05  1.20608022E+11
         8   12       1.76162043E-03  1.06148917E-10  1.38593183E+10  4.31883231E-06  1.38593183E+10
         8   16       1.81683292E-02  1.72098097E+11  7.32410461E-11  1.14453690E+07  1.72109543E+11
         8   18       1.23428907E-02  8.25930379E-10  1.20608022E+11  3.75581833E-05  1.20608022E+11
         9   11       2.56657438E-03  2.01758951E+10  2.23891479E-13  2.49934857E+05  2.01761450E+10
         9   13       4.55277568E-03  1.55613524E+06  3.17457761E-08  4.30953872E+10  4.30969433E+10
         9   15       4.55157413E-03  8.95098084E-14  4.30860820E+10  3.01815331E-08  4.30860820E+10
         9   17       2.16941243E-02  2.11830222E+11  1.40663571E-12  1.84319248E+06  2.11832066E+11
        10   12       2.56657438E-03  2.01758951E+10  2.23891479E-13  2.49934857E+05  2.01761450E+10
        10   14       4.55277568E-03  1.55613524E+06  3.17457761E-08  4.30953872E+10  4.30969433E+10
        10   16       4.55157413E-03  8.95098084E-14  4.30860820E+10  3.01815331E-08  4.30860820E+10
        10   18       2.16941243E-02  2.11830222E+11  1.40663571E-12  1.84319248E+06  2.11832066E+11
        11   13       1.81931631E-01  3.14893124E+04  9.74541034E-09  1.35523066E+10  1.35523381E+10
        11   15       1.81926922E-01  1.88745263E-14  1.35538051E+10  9.74828065E-09  1.35538051E+10
        11   17       1.59925574E-01  1.64839636E+10  2.88016455E-16  4.41383278E+04  1.64840078E+10
        12   14       1.81931631E-01  3.14893124E+04  9.74541034E-09  1.35523066E+10  1.35523381E+10
        12   16       1.81926922E-01  1.88745263E-14  1.35538051E+10  9.74828065E-09  1.35538051E+10
        12   18       1.59925574E-01  1.64839636E+10  2.88016455E-16  4.41383278E+04  1.64840078E+10
        13   17       3.67166305E-03  4.81533355E+01  6.11510677E-12  8.50136950E+06  8.50141766E+06
        14   18       3.67166305E-03  4.81533355E+01  6.11510677E-12  8.50136950E+06  8.50141766E+06
        15   17       3.67430927E-03  7.76635832E-17  8.50107370E+06  6.10244871E-12  8.50107370E+06
        16   18       3.67430927E-03  7.76635832E-17  8.50107370E+06  6.10244871E-12  8.50107370E+06
     -----------------------------------------------------------------------------------------------
--

++ Velocity transition strengths (SO states):
   ------------------------------------------
    for osc. strength at least    1.0000000000000001E-005

      From   To        Osc. strength     Einstein coefficients Ax, Ay, Az (sec-1)    Total A (sec-1)
     -----------------------------------------------------------------------------------------------
         1    3       3.23173392E-05  5.47869531E-22  9.01957394E-06  5.28404273E-21  9.01957394E-06
         1    5       4.72733083E-04  7.64966236E-16  3.89478082E+03  5.49861547E-10  3.89478082E+03
         1    7       4.72353723E-04  2.22784393E-03  5.50430597E-10  3.89528730E+03  3.89528953E+03
         1   13       1.49608978E-02  8.26220914E-07  1.41988770E+11  1.81372099E-02  1.41988770E+11
         1   15       1.49649804E-02  2.39938942E+07  1.81418375E-02  1.42005211E+11  1.42029204E+11
         2    4       3.23173392E-05  5.47869531E-22  9.01957394E-06  5.28404273E-21  9.01957394E-06
         2    6       4.72733083E-04  7.64966236E-16  3.89478082E+03  5.49861547E-10  3.89478082E+03
         2    8       4.72353723E-04  2.22784393E-03  5.50430597E-10  3.89528730E+03  3.89528953E+03
         2   14       1.49608978E-02  8.26220914E-07  1.41988770E+11  1.81372099E-02  1.41988770E+11
         2   16       1.49649804E-02  2.39938942E+07  1.81418375E-02  1.42005211E+11  1.42029204E+11
         3    5       4.72550756E-04  8.00863186E-03  5.49995874E-10  3.89183764E+03  3.89184564E+03
         3    7       4.72646172E-04  5.94346060E-16  3.89626726E+03  5.50125898E-10  3.89626726E+03
         3   13       1.49603872E-02  6.49387671E+06  1.81382776E-02  1.41977382E+11  1.41983876E+11
         3   15       1.49638488E-02  3.18798741E-06  1.42018415E+11  1.81403875E-02  1.42018415E+11
         4    6       4.72550756E-04  8.00863186E-03  5.49995874E-10  3.89183764E+03  3.89184564E+03
         4    8       4.72646172E-04  5.94346060E-16  3.89626726E+03  5.50125898E-10  3.89626726E+03
         4   14       1.49603872E-02  6.49387671E+06  1.81382776E-02  1.41977382E+11  1.41983876E+11
         4   16       1.49638488E-02  3.18798741E-06  1.42018415E+11  1.81403875E-02  1.42018415E+11
         5    9       3.90453488E-03  6.80331407E-03  1.50446871E-12  4.86148512E+03  4.86149193E+03
         5   11       1.69563470E-03  2.95944769E+05  4.15056142E-06  1.33399473E+10  1.33402433E+10
         5   13       1.70748524E-02  1.61749122E+11  3.06699727E-09  6.36506967E+05  1.61749758E+11
         5   17       1.18403087E-02  2.21693581E+06  3.60161188E-05  1.15695348E+11  1.15697565E+11
         6   10       3.90453488E-03  6.80331407E-03  1.50446871E-12  4.86148512E+03  4.86149193E+03
         6   12       1.69563470E-03  2.95944769E+05  4.15056142E-06  1.33399473E+10  1.33402433E+10
         6   14       1.70748524E-02  1.61749122E+11  3.06699727E-09  6.36506967E+05  1.61749758E+11
         6   18       1.18403087E-02  2.21693581E+06  3.60161188E-05  1.15695348E+11  1.15697565E+11
         7    9       3.90796568E-03  5.85313717E-19  4.85408481E+03  1.51044846E-12  4.85408481E+03
         7   11       1.69449037E-03  9.75161746E-11  1.33312276E+10  4.15363409E-06  1.33312276E+10
         7   15       1.70715162E-02  1.61708584E+11  9.24095906E-11  1.13535904E+07  1.61719937E+11
         7   17       1.18379260E-02  7.82932026E-10  1.15674183E+11  3.60257961E-05  1.15674183E+11
         8   10       3.90796568E-03  5.85313717E-19  4.85408481E+03  1.51044846E-12  4.85408481E+03
         8   12       1.69449037E-03  9.75161746E-11  1.33312276E+10  4.15363409E-06  1.33312276E+10
         8   16       1.70715162E-02  1.61708584E+11  9.24095906E-11  1.13535904E+07  1.61719937E+11
         8   18       1.18379260E-02  7.82932026E-10  1.15674183E+11  3.60257961E-05  1.15674183E+11
         9   11       2.44578421E-03  1.92264264E+10  1.03308374E-13  2.39608135E+05  1.92266660E+10
         9   13       4.39909486E-03  1.46059364E+06  3.06960540E-08  4.16408724E+10  4.16423330E+10
         9   15       4.39775553E-03  1.61815160E-13  4.16301501E+10  2.91922947E-08  4.16301501E+10
         9   17       2.02513550E-02  1.97743087E+11  1.65795898E-12  1.75863645E+06  1.97744846E+11
        10   12       2.44578421E-03  1.92264264E+10  1.03308374E-13  2.39608135E+05  1.92266660E+10
        10   14       4.39909486E-03  1.46059364E+06  3.06960540E-08  4.16408724E+10  4.16423330E+10
        10   16       4.39775553E-03  1.61815160E-13  4.16301501E+10  2.91922947E-08  4.16301501E+10
        10   18       2.02513550E-02  1.97743087E+11  1.65795898E-12  1.75863645E+06  1.97744846E+11
        11   13       1.69607245E-01  2.93038099E+04  9.08311804E-09  1.26342922E+10  1.26343215E+10
        11   15       1.69603166E-01  2.84070531E-14  1.26357123E+10  9.08497653E-09  1.26357123E+10
        11   17       1.48621151E-01  1.53188392E+10  1.11110935E-19  4.11084804E+04  1.53188803E+10
        12   14       1.69607245E-01  2.93038099E+04  9.08311804E-09  1.26342922E+10  1.26343215E+10
        12   16       1.69603166E-01  2.84070531E-14  1.26357123E+10  9.08497653E-09  1.26357123E+10
        12   18       1.48621151E-01  1.53188392E+10  1.11110935E-19  4.11084804E+04  1.53188803E+10
        13   17       4.62850438E-03  4.84620046E+01  7.69235322E-12  1.07168896E+07  1.07169381E+07
        14   18       4.62850438E-03  4.84620046E+01  7.69235322E-12  1.07168896E+07  1.07169381E+07
        15   17       4.63145939E-03  3.74272960E-16  1.07156234E+07  7.69004419E-12  1.07156234E+07
        16   18       4.63145939E-03  3.74272960E-16  1.07156234E+07  7.69004419E-12  1.07156234E+07
     -----------------------------------------------------------------------------------------------
--

++ Length and velocity gauge comparison (SO states):

 --------------------------------------------------
 A comparison between the dipole oscillator strengths in 
 length and velocity gauge will be performed

 All dipole oscillator differences above the tolerance of   0.10000000000000001       will be printed 

 Due to basis set deficiency these oscillator may be problematic 

 The tolerance is defined as ABS(1-O_l/O_v) 
 O_l : dipole oscillator strength in length gauge
 O_p : dipole oscillator strength in velocity gauge
 --------------------------------------------------

  Problematic transitions have been found

      From   To       Difference (%) Osc. st. (len.) Osc. st. (vel.)
     ---------------------------------------------------------------
         1    3      --------------- below threshold  3.23173392E-05
         1    5      --------------- below threshold  4.72733083E-04
         1    7      --------------- below threshold  4.72353723E-04
         2    4      --------------- below threshold  3.23173392E-05
         2    6      --------------- below threshold  4.72733083E-04
         2    8      --------------- below threshold  4.72353723E-04
         3    5      --------------- below threshold  4.72550756E-04
         3    7      --------------- below threshold  4.72646172E-04
         4    6      --------------- below threshold  4.72550756E-04
         4    8      --------------- below threshold  4.72646172E-04
         5    9      --------------- below threshold  3.90453488E-03
         6   10      --------------- below threshold  3.90453488E-03
         7    9      --------------- below threshold  3.90796568E-03
         8   10      --------------- below threshold  3.90796568E-03
        13   17            20.672797  3.67166305E-03  4.62850438E-03
        14   18            20.672797  3.67166305E-03  4.62850438E-03
        15   17            20.666275  3.67430927E-03  4.63145939E-03
        16   18            20.666275  3.67430927E-03  4.63145939E-03
     ---------------------------------------------------------------

 Number of problematic transitions =                    18

--

 Electric-dipole - electric-octupole not included
++ Total transition strengths for the second-order expansion of the wave vector (SO states):
   -----------------------------------------------------------------------------------------
    for osc. strength at least    1.0000000000000001E-005

      From   To        Osc. strength
     -------------------------------
         5   11       1.03549778E-05
         6   12       1.03549778E-05
         7   11       1.03538391E-05
         8   12       1.03538391E-05
         9   11       1.06848727E-05
        10   12       1.06848727E-05
     -------------------------------
--

++ I/O STATISTICS
 
  I. General I/O information
  - - - - - - - - - - - - - - - - - - - - - - - - - - - - - - - - - - - - - - - - - - -
  Unit  Name          Flsize      Write/Read            MBytes           Write/Read
                      (MBytes)       Calls              In/Out           Time, sec.
  - - - - - - - - - - - - - - - - - - - - - - - - - - - - - - - - - - - - - - - - - - -
   1  SCRATCH           0.00 .       9/      45 .      0.0/      0.0 .       0/       0
   2  ANNI              0.00 .       0/       0 .      0.0/      0.0 .       0/       0
   3  RUNFILE          14.92 .     322/   10733 .      2.3/     77.8 .       0/       0
   4  ONEINT            5.68 .       0/   24849 .      0.0/   3743.6 .       0/       0
   5  JOBIPH            6.59 .       0/      92 .      0.0/      0.8 .       0/       0
   6  ORDINT          529.03 .       1/    4233 .      0.0/   1058.0 .       0/       0
  - - - - - - - - - - - - - - - - - - - - - - - - - - - - - - - - - - - - - - - - - - -
   *  TOTAL           556.23 .     332/   39952 .      2.3/   4880.2 .       0/       0
  - - - - - - - - - - - - - - - - - - - - - - - - - - - - - - - - - - - - - - - - - - -
 
  II. I/O Access Patterns
  - - - - - - - - - - - - - - - - - - - -
  Unit  Name               % of random
                         Write/Read calls
  - - - - - - - - - - - - - - - - - - - -
   1  SCRATCH             88.9/ 100.0
   2  ANNI                 0.0/   0.0
   3  RUNFILE             28.6/  10.8
   4  ONEINT               0.0/  15.5
   5  JOBIPH               0.0/  76.1
   6  ORDINT             100.0/   0.0
  - - - - - - - - - - - - - - - - - - - -
--
--- Stop Module: rassi at Wed Mar 26 12:10:03 2025 /rc=_RC_ALL_IS_WELL_ ---
*** files: xmldump
    saved to directory /home4/s4752295/Internship/Initial_simulations/Point_charge_model/1_electron/Madelung_charges_9_active_space/Mo
--- Module rassi spent 2 seconds ---

.##################.
.# Happy landing! #.
.##################.

    Timing: Wall=55.43 User=46.21 System=8.26

###############################################################################
Hbrk Cluster
Job 15905661 for user s4752295
Finished at: Wed Mar 26 12:10:08 CET 2025

Job details:
============

Job ID                         : 15905661
Name                           : Mo_no_SO
User                           : s4752295
Partition                      : regularmedium
Nodes                          : node101
Number of Nodes                : 1
Cores                          : 1
Number of Tasks                : 1
State                          : COMPLETED  
Submit                         : 2025-03-26T12:07:07
Start                          : 2025-03-26T12:09:04
End                            : 2025-03-26T12:10:03
Reserved walltime              : 15:00:00
Used walltime                  : 00:00:59
Used CPU time                  : 00:00:56 (Efficiency: 94.31%)
% User (Computation)           : 84.80%
% System (I/O)                 : 15.19%
Total memory reserved          : 25000M
Maximum memory used            : 52.71M

Acknowledgements:
=================

Please see this page for information about acknowledging Hbrk in your publications:

https://wiki.hpc.rug.nl/habrok/introduction/scientific_output

################################################################################
