   This run of MOLCAS is using the pymolcas driver

                             OPE
                             OPE          NMOL  CASOP  ENMOLC A   SO
                 OPE        NMOLC        AS  OP EN  MO LC     AS  OP
                OPENM       OL CA        SO  PE NM  OL CA     SOP EN
                OP EN      MO   LC       AS  OP ENMOL  CASO   PENMOL
                OP  EN     MO   LC       AS  OP EN     MO     LC ASO
               OP   E  NMOL  C  AS       OP  EN MO     LC     AS  OP
               OP  E   NMO   LC AS        OPEN  MO     LCASOP EN   M
               O  PEN   MO  LCA  SO
            OPE   NMO   L   CAS    OP
        OPENMOL  CASOP     ENMOL   CASOPE
     OPENMOLCA   SOPENMOLCASOPEN   MOLCASOPE
    OPENMOLCAS   OP           EN   MOL    CAS
    OPENMOLCAS       OP  ENM        O     LCA
    OPENMOLCAS    OPEN  MOLCASO     P  E  NMO
    OPENMOLCAS     OP               E  N  MOL
    OPENMOLCA   SO           PENM   O  L  CAS    OPEN    MO    LCAS
    OPENMOLCA   SOP           ENM   O  L  CAS   OP  EN  MOLC  AS   O
    OPENMOLCA   SOPE           NM      O  LCA   S      OP  EN MO
    OPENMOLC                AS         O  PEN   M      OL  CA  SOPE
    OPENMO        LCASOPE  NMOL        C  ASO   P      ENMOLC     AS
    OPE     NMO      LCA  SO     P     E   NM   OL  CA SO  PE N   MO
          OPENMOLCA            SOPE   NMO        LCAS  O    P  ENMO
     OPENMOLCASOPENMOLCASOPENMOLCASOPENMOLCA
        OPENMOLCASOPENMOLCASOPENMOLCASOPE
            OPENMOLCASOPENMOLCASOPENM
               OPENMOLCASOPENMOLCA        version: o91e1abe7de707b ?
                   OPENMOLCASO
                       OPE                tag:

 OpenMolcas is free software; you can redistribute it and/or modify it
 under the terms of the GNU Lesser General Public License version 2.1.
 OpenMolcas is distributed in the hope that it will be useful, but it
 is provided "as is" and without any express or implied warranties.
 For more details see the full text of the license in the file
 LICENSE or in <http://www.gnu.org/licenses/>.

                 Copyright (C) The OpenMolcas Authors
           For the author list and the recommended citation,
                   consult the file CONTRIBUTORS.md

           *************************************************
           * pymolcas version py2.10                       *
           *   build 3068ae8b88c9345ec6cfef6fef7f1169      *
           *   (after the EMIL interpreter by V. Veryazov) *
           *************************************************

configuration info
------------------
Host name: login1 (Linux)
C Compiler ID: GNU
C flags: -std=gnu99
Fortran Compiler ID: GNU
Fortran flags: -fno-aggressive-loop-optimizations -cpp -fdefault-integer-8 -fmax-stack-var-size=1048576
Definitions: _MOLCAS_;_I8_;_LINUX_;_MKL_
Parallel: OFF (GA=OFF)


   -----------------------------------------------------------------------------------------------------------------------------------
  |
  |           Project: niobium_so_cf
  |    Submitted from: /home4/s4752295/Internship/Initial_simulations/Point_charge_model/1_electron/Madelung_charges_9_active_space/Nb
  |      Scratch area: /tmp/niobium_so_cf
  |   Save outputs to: /home4/s4752295/Internship/Initial_simulations/Point_charge_model/1_electron/Madelung_charges_9_active_space/Nb
  |            Molcas: /home4/s4752295/Internship/Molcas/recomp_try/OpenMolcas-master/build
  |
  | Scratch area is empty
  |
  |    MOLCAS_DRIVER = /home4/s4752295/Internship/Molcas/bin/pymolcas
  |    MOLCAS_NPROCS = 1
  |    MOLCAS_SOURCE = /home4/s4752295/Internship/Molcas/recomp_try/OpenMolcas-master
  | MOLCAS_STRUCTURE = 0
  |
   -----------------------------------------------------------------------------------------------------------------------------------

++ ---------   Input file   ---------

&SEWARD
AMFi

CLIG
$R

Basis Set
Nb.ANO-rcc.Roos.21s18p13d6f4g2h.10s9p8d5f4g2h.
Spherical d
Nb            -1.0658140267135469e-14   -3.5527134223784897e-15 0.008753588724385739
End of Basis

Xfield

414
-3.601980972,-1.3860000000000001,0.8002071000000001     -0.625931
-3.601980972,-0.0,-1.6004151    -0.625931
-3.601980972,1.3860000000000001,0.8002071000000001      -0.625931
-3.595811463,0.0,0.0    1.892092
2.3932617210000005,-1.3860000000000001,-0.8002071000000001      2.515516
2.3932617210000005,0.0,1.6004151        2.515516
2.3932617210000005,1.3860000000000001,-0.8002071000000001       2.515516
3.206689452,-2.7720000000000002,0.0     0.004632
3.206689452,-1.3860000000000001,-2.4006222000000004     0.004632
3.206689452,-1.3860000000000001,2.4006222000000004      0.004632
3.206689452,1.3860000000000001,-2.4006222000000004      0.004632
3.206689452,1.3860000000000001,2.4006222000000004       0.004632
3.206689452,2.7720000000000002,0.0      0.004632
3.7162353510000004,-1.3860000000000001,0.8002071000000001       -2.519484
3.7162353510000004,-0.0,-1.6004151      -2.519484
3.7162353510000004,1.3860000000000001,0.8002071000000001        -2.519484
-2.639794923,-0.0,-0.0  -3.142907
-4.477587894,-2.7720000000000002,-1.6004151     -0.625931
-4.477587894,0.0,3.2008293      -0.625931
-4.477587894,2.7720000000000002,-1.6004151      -0.625931
-5.9484375,-2.7720000000000002,0.0      1.892092
-5.9484375,-1.3860000000000001,-2.4006222000000004      1.892092
-5.9484375,-1.3860000000000001,2.4006222000000004       1.892092
-5.9484375,1.3860000000000001,-2.4006222000000004       1.892092
-5.9484375,1.3860000000000001,2.4006222000000004        1.892092
-5.9484375,2.7720000000000002,0.0       1.892092
22.6546875,-2.7720000000000002,1.6004151        2.515516
22.6546875,-0.0,-3.2008293      2.515516
22.6546875,2.7720000000000002,1.6004151 2.515516
3.274804692,-2.7720000000000002,-1.6004151      -2.519484
3.274804692,0.0,3.2008293       -2.519484
3.274804692,2.7720000000000002,-1.6004151       -2.519484
-2.909179692,-2.7720000000000002,-0.0   -3.142907
-2.909179692,-1.3860000000000001,-2.4006222000000004    -3.142907
-2.909179692,-1.3860000000000001,2.4006222000000004     -3.142907
-2.909179692,1.3860000000000001,-2.4006222000000004     -3.142907
-2.909179692,1.3860000000000001,2.4006222000000004      -3.142907
-2.909179692,2.7720000000000002,-0.0    -3.142907
-8.571093750000001,-2.7720000000000002,3.2008293        -0.625931
-8.571093750000001,2.7720000000000002,3.2008293 -0.625931
-8.571093750000001,-4.158,0.8002071000000001    -0.625931
-8.571093750000001,4.158,0.8002071000000001     -0.625931
-8.571093750000001,-1.3860000000000001,-4.0010373       -0.625931
-8.571093750000001,1.3860000000000001,-4.0010373        -0.625931
5.40703125,-1.3860000000000001,-0.8002071000000001      4.409069
5.40703125,1.3860000000000001,-0.8002071000000001       4.409069
5.40703125,0.0,1.6004151        4.409069
-157.725,-0.0,-0.0      -5.030367
-157.725,0.0,0.0        5.039632
12.165820308,-2.7720000000000002,-3.2008293     2.515516
12.165820308,2.7720000000000002,-3.2008293      2.515516
12.165820308,-4.158,-0.8002071000000001 2.515516
12.165820308,4.158,-0.8002071000000001  2.515516
12.165820308,-1.3860000000000001,4.0010373      2.515516
12.165820308,1.3860000000000001,4.0010373       2.515516
17.13515625,-4.158,-2.4006222000000004  0.004632
17.13515625,-4.158,2.4006222000000004   0.004632
17.13515625,4.158,-2.4006222000000004   0.004632
17.13515625,4.158,2.4006222000000004    0.004632
17.13515625,-0.0,-4.801244400000001     0.004632
17.13515625,0.0,4.801244400000001       0.004632
43.2703125,-2.7720000000000002,3.2008293        -2.519484
43.2703125,2.7720000000000002,3.2008293 -2.519484
43.2703125,-4.158,0.8002071000000001    -2.519484
43.2703125,4.158,0.8002071000000001     -2.519484
43.2703125,-1.3860000000000001,-4.0010373       -2.519484
43.2703125,1.3860000000000001,-4.0010373        -2.519484
-131.2875,-4.158,-2.4006222000000004    1.892092
-131.2875,-4.158,2.4006222000000004     1.892092
-131.2875,4.158,-2.4006222000000004     1.892092
-131.2875,4.158,2.4006222000000004      1.892092
-131.2875,-0.0,-4.801244400000001       1.892092
-131.2875,0.0,4.801244400000001 1.892092
-105.97500000000001,-2.7720000000000002,1.6004151       4.409069
-105.97500000000001,-0.0,-3.2008293     4.409069
-105.97500000000001,2.7720000000000002,1.6004151        4.409069
-80.10000000000001,-2.7720000000000002,-0.0     -5.030367
-80.10000000000001,-1.3860000000000001,-2.4006222000000004      -5.030367
-80.10000000000001,-1.3860000000000001,2.4006222000000004       -5.030367
-80.10000000000001,1.3860000000000001,-2.4006222000000004       -5.030367
-80.10000000000001,-2.7720000000000002,0.0      5.039632
-80.10000000000001,2.7720000000000002,-0.0      -5.030367
-80.10000000000001,1.3860000000000001,2.4006222000000004        -5.030367
-80.10000000000001,-1.3860000000000001,-2.4006222000000004      5.039632
-80.10000000000001,-1.3860000000000001,2.4006222000000004       5.039632
-80.10000000000001,1.3860000000000001,-2.4006222000000004       5.039632
-80.10000000000001,2.7720000000000002,0.0       5.039632
-80.10000000000001,1.3860000000000001,2.4006222000000004        5.039632
-41.9625,-1.3860000000000001,-0.8002071000000001        -5.660931
-41.9625,0.0,1.6004151  -5.660931
-41.9625,1.3860000000000001,-0.8002071000000001 -5.660931
0.79453125,-5.5439991,0.0       0.004632
0.79453125,-2.7720000000000002,-4.801244400000001       0.004632
0.79453125,-2.7720000000000002,4.801244400000001        0.004632
0.79453125,2.7720000000000002,-4.801244400000001        0.004632
0.79453125,5.5439991,0.0        0.004632
0.79453125,2.7720000000000002,4.801244400000001 0.004632
61.143750000000004,-4.158,2.4006222000000004    -3.142907
61.143750000000004,-4.158,-2.4006222000000004   -3.142907
61.143750000000004,4.158,-2.4006222000000004    -3.142907
61.143750000000004,4.158,2.4006222000000004     -3.142907
61.143750000000004,-0.0,-4.801244400000001      -3.142907
61.143750000000004,0.0,4.801244400000001        -3.142907
77.7375,-5.5439991,-1.6004151   -0.625931
77.7375,-4.158,-4.0010373       -0.625931
77.7375,-1.3860000000000001,5.6014515000000005  -0.625931
77.7375,4.158,-4.0010373        -0.625931
77.7375,5.5439991,-1.6004151    -0.625931
77.7375,1.3860000000000001,5.6014515000000005   -0.625931
1.0775390580000002,-5.5439991,0.0       1.892092
1.0775390580000002,-2.7720000000000002,-4.801244400000001       1.892092
1.0775390580000002,-2.7720000000000002,4.801244400000001        1.892092
1.0775390580000002,2.7720000000000002,-4.801244400000001        1.892092
1.0775390580000002,5.5439991,0.0        1.892092
1.0775390580000002,2.7720000000000002,4.801244400000001 1.892092
30.459375,-2.7720000000000002,-3.2008293        4.409069
30.459375,2.7720000000000002,-3.2008293 4.409069
30.459375,-4.158,-0.8002071000000001    4.409069
30.459375,4.158,-0.8002071000000001     4.409069
30.459375,-1.3860000000000001,4.0010373 4.409069
30.459375,1.3860000000000001,4.0010373  4.409069
146.165625,-2.7720000000000002,1.6004151        -5.660931
146.165625,-0.0,-3.2008293      -5.660931
146.165625,2.7720000000000002,1.6004151 -5.660931
0.309375,-5.5439991,1.6004151   2.515516
0.309375,-1.3860000000000001,-5.6014515000000005        2.515516
0.309375,-4.158,4.0010373       2.515516
0.309375,1.3860000000000001,-5.6014515000000005 2.515516
0.309375,5.5439991,1.6004151    2.515516
0.309375,4.158,4.0010373        2.515516
-84.76875,-5.5439991,-1.6004151 -2.519484
-84.76875,-4.158,-4.0010373     -2.519484
-84.76875,-1.3860000000000001,5.6014515000000005        -2.519484
-84.76875,4.158,-4.0010373      -2.519484
-84.76875,1.3860000000000001,5.6014515000000005 -2.519484
-84.76875,5.5439991,-1.6004151  -2.519484
-19.86328125,-5.5439991,-0.0    -3.142907
-19.86328125,-2.7720000000000002,-4.801244400000001     -3.142907
-19.86328125,-2.7720000000000002,4.801244400000001      -3.142907
-19.86328125,2.7720000000000002,-4.801244400000001      -3.142907
-19.86328125,2.7720000000000002,4.801244400000001       -3.142907
-19.86328125,5.5439991,-0.0     -3.142907
545.85,0.0,0.0  6.927092
290.925,-5.5439991,3.2008293    -0.625931
290.925,5.5439991,3.2008293     -0.625931
290.925,-0.0,-6.4016595 -0.625931
-4.8796875,-4.158,2.4006222000000004    -5.030367
-4.8796875,-4.158,-2.4006222000000004   -5.030367
-4.8796875,-4.158,2.4006222000000004    5.039632
-4.8796875,-4.158,-2.4006222000000004   5.039632
-4.8796875,4.158,-2.4006222000000004    -5.030367
-4.8796875,4.158,2.4006222000000004     -5.030367
-4.8796875,4.158,-2.4006222000000004    5.039632
-4.8796875,4.158,2.4006222000000004     5.039632
-4.8796875,-0.0,-4.801244400000001      -5.030367
-4.8796875,0.0,4.801244400000001        -5.030367
-4.8796875,-0.0,-4.801244400000001      5.039632
-4.8796875,0.0,4.801244400000001        5.039632
82.63125000000001,-2.7720000000000002,-3.2008293        -5.660931
82.63125000000001,2.7720000000000002,-3.2008293 -5.660931
82.63125000000001,-4.158,-0.8002071000000001    -5.660931
82.63125000000001,4.158,-0.8002071000000001     -5.660931
82.63125000000001,-1.3860000000000001,4.0010373 -5.660931
82.63125000000001,1.3860000000000001,4.0010373  -5.660931
270.45,-5.5439991,-3.2008293    2.515516
270.45,5.5439991,-3.2008293     2.515516
270.45,0.0,6.4016595    2.515516
-465.52500000000003,-5.5439991,3.2008293        -2.519484
-465.52500000000003,5.5439991,3.2008293 -2.519484
-465.52500000000003,-0.0,-6.4016595     -2.519484
48.206250000000004,-2.7720000000000002,0.0      6.927092
48.206250000000004,-1.3860000000000001,-2.4006222000000004      6.927092
48.206250000000004,-1.3860000000000001,2.4006222000000004       6.927092
48.206250000000004,1.3860000000000001,-2.4006222000000004       6.927092
48.206250000000004,1.3860000000000001,2.4006222000000004        6.927092
48.206250000000004,2.7720000000000002,0.0       6.927092
-49.725,-1.3860000000000001,0.8002071000000001  7.550516
-49.725,0.0,-1.6004151  7.550516
-49.725,1.3860000000000001,0.8002071000000001   7.550516
13.978125,-1.3860000000000001,-0.8002071000000001       -7.554483
13.978125,1.3860000000000001,-0.8002071000000001        -7.554483
13.978125,-0.0,1.6004151        -7.554483
-112.3875,-6.9299991,0.8002071000000001 -0.625931
-112.3875,-4.158,5.6014515000000005     -0.625931
-112.3875,-2.7720000000000002,-6.4016595        -0.625931
-112.3875,2.7720000000000002,-6.4016595 -0.625931
-112.3875,6.9299991,0.8002071000000001  -0.625931
-112.3875,4.158,5.6014515000000005      -0.625931
-60.69375,-5.5439991,1.6004151  4.409069
-60.69375,-4.158,4.0010373      4.409069
-60.69375,-1.3860000000000001,-5.6014515000000005       4.409069
-60.69375,1.3860000000000001,-5.6014515000000005        4.409069
-60.69375,4.158,4.0010373       4.409069
-60.69375,5.5439991,1.6004151   4.409069
44.240625,-5.5439991,-0.0       -5.030367
44.240625,-2.7720000000000002,-4.801244400000001        -5.030367
44.240625,-2.7720000000000002,4.801244400000001 -5.030367
44.240625,-5.5439991,0.0        5.039632
44.240625,-2.7720000000000002,-4.801244400000001        5.039632
44.240625,2.7720000000000002,-4.801244400000001 -5.030367
44.240625,2.7720000000000002,4.801244400000001  -5.030367
44.240625,5.5439991,-0.0        -5.030367
44.240625,-2.7720000000000002,4.801244400000001 5.039632
44.240625,2.7720000000000002,-4.801244400000001 5.039632
44.240625,5.5439991,0.0 5.039632
44.240625,2.7720000000000002,4.801244400000001  5.039632
162.675,-6.9299991,-0.8002071000000001  2.515516
162.675,-4.158,-5.6014515000000005      2.515516
162.675,-2.7720000000000002,6.4016595   2.515516
162.675,4.158,-5.6014515000000005       2.515516
162.675,6.9299991,-0.8002071000000001   2.515516
162.675,2.7720000000000002,6.4016595    2.515516
-21.009375000000002,-6.9299991,-2.4006222000000004      0.004632
-21.009375000000002,-6.9299991,2.4006222000000004       0.004632
-21.009375000000002,-5.5439991,-4.801244400000001       0.004632
-21.009375000000002,-5.5439991,4.801244400000001        0.004632
-21.009375000000002,-1.3860000000000001,-7.201866600000001      0.004632
-21.009375000000002,1.3860000000000001,-7.201866600000001       0.004632
-21.009375000000002,-1.3860000000000001,7.201866600000001       0.004632
-21.009375000000002,5.5439991,-4.801244400000001        0.004632
-21.009375000000002,1.3860000000000001,7.201866600000001        0.004632
-21.009375000000002,6.9299991,-2.4006222000000004       0.004632
-21.009375000000002,6.9299991,2.4006222000000004        0.004632
-21.009375000000002,5.5439991,4.801244400000001 0.004632
-128.8125,-6.9299991,0.8002071000000001 -2.519484
-128.8125,-4.158,5.6014515000000005     -2.519484
-128.8125,-2.7720000000000002,-6.4016595        -2.519484
-128.8125,2.7720000000000002,-6.4016595 -2.519484
-128.8125,6.9299991,0.8002071000000001  -2.519484
-128.8125,4.158,5.6014515000000005      -2.519484
2728.8,-0.0,-0.0        -8.177907
-104.4,-2.7720000000000002,-1.6004151   7.550516
-104.4,0.0,3.2008293    7.550516
-104.4,2.7720000000000002,-1.6004151    7.550516
-543.15,-2.7720000000000002,1.6004151   -7.554483
-543.15,-0.0,-3.2008293 -7.554483
-543.15,2.7720000000000002,1.6004151    -7.554483
44.015625,-6.9299991,2.4006222000000004 1.892092
44.015625,-6.9299991,-2.4006222000000004        1.892092
44.015625,-5.5439991,-4.801244400000001 1.892092
44.015625,-5.5439991,4.801244400000001  1.892092
44.015625,-1.3860000000000001,-7.201866600000001        1.892092
44.015625,1.3860000000000001,-7.201866600000001 1.892092
44.015625,-1.3860000000000001,7.201866600000001 1.892092
44.015625,5.5439991,-4.801244400000001  1.892092
44.015625,1.3860000000000001,7.201866600000001  1.892092
44.015625,6.9299991,-2.4006222000000004 1.892092
44.015625,6.9299991,2.4006222000000004  1.892092
44.015625,5.5439991,4.801244400000001   1.892092
-454.5,-5.5439991,-3.2008293    4.409069
-454.5,5.5439991,-3.2008293     4.409069
-454.5,0.0,6.4016595    4.409069
23.23828125,-5.5439991,1.6004151        -5.660931
23.23828125,-1.3860000000000001,-5.6014515000000005     -5.660931
23.23828125,-4.158,4.0010373    -5.660931
23.23828125,1.3860000000000001,-5.6014515000000005      -5.660931
23.23828125,4.158,4.0010373     -5.660931
23.23828125,5.5439991,1.6004151 -5.660931
-52.36875,-5.5439991,-4.801244400000001 -3.142907
-52.36875,-6.9299991,2.4006222000000004 -3.142907
-52.36875,-6.9299991,-2.4006222000000004        -3.142907
-52.36875,-5.5439991,4.801244400000001  -3.142907
-52.36875,-1.3860000000000001,-7.201866600000001        -3.142907
-52.36875,1.3860000000000001,-7.201866600000001 -3.142907
-52.36875,-1.3860000000000001,7.201866600000001 -3.142907
-52.36875,6.9299991,-2.4006222000000004 -3.142907
-52.36875,5.5439991,-4.801244400000001  -3.142907
-52.36875,1.3860000000000001,7.201866600000001  -3.142907
-52.36875,6.9299991,2.4006222000000004  -3.142907
-52.36875,5.5439991,4.801244400000001   -3.142907
58.865625,-4.158,-2.4006222000000004    6.927092
58.865625,-4.158,2.4006222000000004     6.927092
58.865625,4.158,-2.4006222000000004     6.927092
58.865625,4.158,2.4006222000000004      6.927092
58.865625,-0.0,-4.801244400000001       6.927092
58.865625,0.0,4.801244400000001 6.927092
-74.925,-2.7720000000000002,-0.0        -8.177907
-74.925,-1.3860000000000001,2.4006222000000004  -8.177907
-74.925,-1.3860000000000001,-2.4006222000000004 -8.177907
-74.925,1.3860000000000001,-2.4006222000000004  -8.177907
-74.925,2.7720000000000002,-0.0 -8.177907
-74.925,1.3860000000000001,2.4006222000000004   -8.177907
-81.815625,-2.7720000000000002,3.2008293        7.550516
-81.815625,2.7720000000000002,3.2008293 7.550516
-81.815625,-4.158,0.8002071000000001    7.550516
-81.815625,4.158,0.8002071000000001     7.550516
-81.815625,-1.3860000000000001,-4.0010373       7.550516
-81.815625,1.3860000000000001,-4.0010373        7.550516
-41.11875,-2.7720000000000002,-3.2008293        -7.554483
-41.11875,2.7720000000000002,-3.2008293 -7.554483
-41.11875,-4.158,-0.8002071000000001    -7.554483
-41.11875,4.158,-0.8002071000000001     -7.554483
-41.11875,-1.3860000000000001,4.0010373 -7.554483
-41.11875,1.3860000000000001,4.0010373  -7.554483
-450.225,0.0,8.0020737  -0.625931
-450.225,-6.9299991,-4.0010373  -0.625931
-450.225,6.9299991,-4.0010373   -0.625931
-242.775,-6.9299991,-0.8002071000000001 4.409069
-242.775,-4.158,-5.6014515000000005     4.409069
-242.775,-2.7720000000000002,6.4016595  4.409069
-242.775,4.158,-5.6014515000000005      4.409069
-242.775,6.9299991,-0.8002071000000001  4.409069
-242.775,2.7720000000000002,6.4016595   4.409069
279.33750000000003,-5.5439991,-3.2008293        -5.660931
279.33750000000003,5.5439991,-3.2008293 -5.660931
279.33750000000003,0.0,6.4016595        -5.660931
528.3000000000001,-0.0,-8.0020737       2.515516
528.3000000000001,-6.9299991,4.0010373  2.515516
528.3000000000001,6.9299991,4.0010373   2.515516
-84.4875,-8.315999099999999,-0.0        0.004632
-84.4875,4.158,-7.201866600000001       0.004632
-84.4875,-4.158,7.201866600000001       0.004632
-84.4875,8.315999099999999,-0.0 0.004632
-84.4875,-4.158,-7.201866600000001      0.004632
-84.4875,4.158,7.201866600000001        0.004632
-347.175,0.0,8.0020737  -2.519484
-347.175,-6.9299991,-4.0010373  -2.519484
-347.175,6.9299991,-4.0010373   -2.519484
205.20000000000002,-5.5439991,0.0       6.927092
205.20000000000002,-2.7720000000000002,-4.801244400000001       6.927092
205.20000000000002,-2.7720000000000002,4.801244400000001        6.927092
205.20000000000002,2.7720000000000002,-4.801244400000001        6.927092
205.20000000000002,5.5439991,0.0        6.927092
205.20000000000002,2.7720000000000002,4.801244400000001 6.927092
190.6875,-8.315999099999999,-1.6004151  -0.625931
190.6875,-2.7720000000000002,8.0020737  -0.625931
190.6875,-5.5439991,-6.4016595  -0.625931
190.6875,5.5439991,-6.4016595   -0.625931
190.6875,2.7720000000000002,8.0020737   -0.625931
190.6875,8.315999099999999,-1.6004151   -0.625931
100.74375,-8.315999099999999,0.0        1.892092
100.74375,-4.158,-7.201866600000001     1.892092
100.74375,-4.158,7.201866600000001      1.892092
100.74375,4.158,-7.201866600000001      1.892092
100.74375,8.315999099999999,0.0 1.892092
100.74375,4.158,7.201866600000001       1.892092
-3.88828125,-6.9299991,2.4006222000000004       -5.030367
-3.88828125,-6.9299991,-2.4006222000000004      -5.030367
-3.88828125,-5.5439991,-4.801244400000001       -5.030367
-3.88828125,-5.5439991,4.801244400000001        -5.030367
-3.88828125,-6.9299991,2.4006222000000004       5.039632
-3.88828125,1.3860000000000001,-7.201866600000001       -5.030367
-3.88828125,-1.3860000000000001,-7.201866600000001      -5.030367
-3.88828125,-6.9299991,-2.4006222000000004      5.039632
-3.88828125,-5.5439991,-4.801244400000001       5.039632
-3.88828125,-1.3860000000000001,7.201866600000001       -5.030367
-3.88828125,1.3860000000000001,-7.201866600000001       5.039632
-3.88828125,-5.5439991,4.801244400000001        5.039632
-3.88828125,-1.3860000000000001,-7.201866600000001      5.039632
-3.88828125,5.5439991,-4.801244400000001        -5.030367
-3.88828125,1.3860000000000001,7.201866600000001        -5.030367
-3.88828125,6.9299991,-2.4006222000000004       -5.030367
-3.88828125,6.9299991,2.4006222000000004        -5.030367
-3.88828125,5.5439991,4.801244400000001 -5.030367
-3.88828125,-1.3860000000000001,7.201866600000001       5.039632
-3.88828125,5.5439991,-4.801244400000001        5.039632
-3.88828125,6.9299991,-2.4006222000000004       5.039632
-3.88828125,1.3860000000000001,7.201866600000001        5.039632
-3.88828125,6.9299991,2.4006222000000004        5.039632
-3.88828125,5.5439991,4.801244400000001 5.039632
-0.61875,-6.9299991,-0.8002071000000001 -5.660931
-0.61875,-4.158,-5.6014515000000005     -5.660931
-0.61875,-2.7720000000000002,6.4016595  -5.660931
-0.61875,4.158,-5.6014515000000005      -5.660931
-0.61875,2.7720000000000002,6.4016595   -5.660931
-0.61875,6.9299991,-0.8002071000000001  -5.660931
104.4,-1.3860000000000001,0.8002071000000001    9.444068
104.4,0.0,-1.6004151    9.444068
104.4,1.3860000000000001,0.8002071000000001     9.444068
46.18125,-8.315999099999999,1.6004151   2.515516
46.18125,-2.7720000000000002,-8.0020737 2.515516
46.18125,2.7720000000000002,-8.0020737  2.515516
46.18125,-5.5439991,6.4016595   2.515516
46.18125,8.315999099999999,1.6004151    2.515516
46.18125,5.5439991,6.4016595    2.515516
141.1875,-8.315999099999999,-1.6004151  -2.519484
141.1875,-2.7720000000000002,8.0020737  -2.519484
141.1875,-5.5439991,-6.4016595  -2.519484
141.1875,5.5439991,-6.4016595   -2.519484
141.1875,8.315999099999999,-1.6004151   -2.519484
141.1875,2.7720000000000002,8.0020737   -2.519484
197.6625,-8.315999099999999,-0.0        -3.142907
197.6625,-4.158,-7.201866600000001      -3.142907
197.6625,-4.158,7.201866600000001       -3.142907
197.6625,4.158,-7.201866600000001       -3.142907
197.6625,8.315999099999999,-0.0 -3.142907
197.6625,4.158,7.201866600000001        -3.142907
7.780957029,-4.158,-2.4006222000000004  -8.177907
7.780957029,-4.158,2.4006222000000004   -8.177907
7.780957029,4.158,2.4006222000000004    -8.177907
7.780957029,4.158,-2.4006222000000004   -8.177907
7.780957029,-0.0,-4.801244400000001     -8.177907
7.780957029,0.0,4.801244400000001       -8.177907
226.6875,-4.158,-4.0010373      7.550516
226.6875,-5.5439991,-1.6004151  7.550516
226.6875,-1.3860000000000001,5.6014515000000005 7.550516
226.6875,4.158,-4.0010373       7.550516
226.6875,1.3860000000000001,5.6014515000000005  7.550516
226.6875,5.5439991,-1.6004151   7.550516
-313.2,-4.158,4.0010373 -7.554483
-313.2,-5.5439991,1.6004151     -7.554483
-313.2,-1.3860000000000001,-5.6014515000000005  -7.554483
-313.2,1.3860000000000001,-5.6014515000000005   -7.554483
-313.2,5.5439991,1.6004151      -7.554483
-313.2,4.158,4.0010373  -7.554483
64.13906250000001,-6.9299991,5.6014515000000005 -0.625931
64.13906250000001,-8.315999099999999,3.2008293  -0.625931
64.13906250000001,-1.3860000000000001,-8.8022817        -0.625931
64.13906250000001,1.3860000000000001,-8.8022817 -0.625931
64.13906250000001,8.315999099999999,3.2008293   -0.625931
64.13906250000001,6.9299991,5.6014515000000005  -0.625931
-435.375,-0.0,-8.0020737        4.409069
-435.375,-6.9299991,4.0010373   4.409069
-435.375,6.9299991,4.0010373    4.409069

End of input

&SCF
Occupied
9
Iterations
   50  100
End of Input

&RASSCF
LumOrb
Symmetry
1
Spin
2
Nactel
1 0 0
CIRoot
9 9 1
inactive
9
ras2
9
End of Input

>>> COPY niobium_so_cf.JobIph $SLURM_SUBMIT_DIR/niobium_so_cf.doublet.JobIph

>>> COPY $SLURM_SUBMIT_DIR/niobium_so_cf.doublet.JobIph ./JOB002

&RASSI
NROFJobIph
1 All
SpinOrbit
End of Input

EOF

-- ----------------------------------

--- Start Module: seward at Wed Mar 26 12:21:11 2025 ---

()()()()()()()()()()()()()()()()()()()()()()()()()()()()()()()()()()()()()()()()()()()()()()()()()()

                                              &SEWARD

                                   only a single process is used
                       available to each process: 4.1 GB of memory, 1 thread?
                                            pid: 4152704
()()()()()()()()()()()()()()()()()()()()()()()()()()()()()()()()()()()()()()()()()()()()()()()()()()

 The speed of LIGHT in this CALCULATION =   137.03599917700001     
               SEWARD will generate:
                  Multipole Moment integrals up to order  2
                  Kinetic Energy integrals
                  Nuclear Attraction integrals (point charge)
                  One-Electron Hamiltonian integrals
                  Velocity integrals
                  Relativistic Douglas-Kroll-Hess integrals:
                    - Parametrization         : EXP
                    - DKH order of Hamiltonian: 2
                    - DKH order of Properties : 0
                         - multipole moment operators
                         - electric potential operators
                         - contact operators
                  External field from   414 point(s) added to the one-electron Hamiltonian
                  Orbital angular momentum around (-0.0000 -0.0000  0.0088 )
                  Velocity quadrupole around (-0.0000 -0.0000  0.0088 )
                  Atomic mean-field integrals
                  Two-Electron Repulsion integrals

                   Integrals are discarded if absolute value <: 0.10E-13
                   Integral cutoff threshold is set to       <: 0.10E-15

++    Symmetry information:
      ---------------------

                    Character Table for C1 

                             E  
                    a        1  x, y, xy, Rz, z, xz, Ry, yz, Rx, I
--


++    Basis set information:
      ----------------------


      Basis set label: NB.ANO-RCC.ROOS.21S18P13D6F4G2H.10S9P8D5F4G2H......

      Electronic valence basis set:
      ------------------
      Associated Effective Charge  41.000000 au
      Associated Actual Charge     41.000000 au
      Nuclear Model: Point charge

      Shell  nPrim  nBasis  Cartesian Spherical Contaminant
         s      21      10        X                  
         p      18       9        X                  
         d      13       8                 X         
         f       6       5                 X         
         g       4       4                 X         
         h       2       2                 X         
--


++    Molecular structure info:
      -------------------------

                    ************************************************ 
                    **** Cartesian Coordinates / Bohr, Angstrom **** 
                    ************************************************ 

     Center  Label                x              y              z                     x              y              z
        1      NB              -0.000000      -0.000000       0.008754             -0.000000      -0.000000       0.004632
--


++    Operator info:
      --------------


  Net charge from external field:   -39.268449999999902     
--


            Nuclear Potential Energy              0.00000000 au

                    Nuclear-External Field Potential Energy    -416.78622639 au
                    External Field Potential Energy            1784.04100154 au 


            Total Nuclear Potential Energy           -416.78622639 au


      Basis set specifications :
      Symmetry species         a  
      Basis functions          170

 Sorry, Molden does not know how to handle
 functions with angular momentum larger than g
Note: The following floating-point exceptions are signalling: IEEE_UNDERFLOW_FLAG IEEE_DENORMAL
--- Stop Module: seward at Wed Mar 26 12:21:20 2025 /rc=_RC_ALL_IS_WELL_ ---
*** files: niobium_so_cf.GssOrb xmldump
    saved to directory /home4/s4752295/Internship/Initial_simulations/Point_charge_model/1_electron/Madelung_charges_9_active_space/Nb
--- Module seward spent 8 seconds ---

*** symbolic link created: INPORB -> niobium_so_cf.GssOrb
--- Start Module: scf at Wed Mar 26 12:21:20 2025 ---

()()()()()()()()()()()()()()()()()()()()()()()()()()()()()()()()()()()()()()()()()()()()()()()()()()

                                                &SCF

                                   only a single process is used
                       available to each process: 4.1 GB of memory, 1 thread?
                                            pid: 4152713
()()()()()()()()()()()()()()()()()()()()()()()()()()()()()()()()()()()()()()()()()()()()()()()()()()

++    Input section:
      --------------

      Header of the integral files:
      
       Integrals generated by seward 4.2.0  , Wed Mar 26 12:21:12 2025


      Cartesian coordinates in Angstrom:
      -----------------------------------------------------
      No.  Label        X            Y            Z        
      -----------------------------------------------------
       1   NB        -0.00000000  -0.00000000   0.00463220
      -----------------------------------------------------
      Nuclear repulsion energy = -416.78622639
--

++    Orbital specifications:
      -----------------------

      Symmetry species               1
                                     a
      Frozen orbitals                0
      Occupied orbitals              9
      Secondary orbitals           161
      Deleted orbitals               0
      Total number of orbitals     170
      Number of basis functions    170
--

      Molecular charge                          23.000

++    Optimization specifications:
      ----------------------------

      SCF Algorithm: Conventional
      Minimized density differences are used
      Number of density matrices in core                5
      Maximum number of NDDO SCF iterations            50
      Maximum number of HF SCF iterations             100
      Threshold for SCF energy change            0.10E-08
      Threshold for density matrix               0.10E-03
      Threshold for Fock matrix                  0.15E-03
      Threshold for linear dependence            0.10E-08
      Threshold at which DIIS is turned on       0.15E+00
      Threshold at which QNR/C2DIIS is turned on 0.75E-01
      Threshold for Norm(delta) (QNR/C2DIIS)     0.20E-04
      DIIS extrapolation of the SCF procedure
      All orbitals punched on: SCFORB
--

      Detected guessorb starting orbitals                                             


++ Convergence information
                                   SCF        iterations: Energy and convergence statistics

Iter     Tot. SCF        One-elec.       Two-elec.     Energy      Max Dij or  Max Fij      DNorm      TNorm      AccCon     Time
         Energy          Energy          Energy        Change      Delta Norm                                                in Sec.

 The total and one-electron energies are shifted by a value of      3000. a.u.

   1  -719.863374103  -905.553404669   602.476256953   0.00E+00    0.33E+00*   0.28E+01*    0.60E+01   0.31E+03   None         1.
   2  -725.696628547  -947.358695864   638.448293704  -0.58E+01*   0.97E-02*   0.26E+00*    0.14E+01   0.32E+03   EDIIS        1.
   3  -725.716459414  -945.484944271   636.554711244  -0.20E-01*   0.14E-02*   0.14E-01*    0.52E-01   0.32E+03   EDIIS        1.
   4  -725.716547848  -945.614836766   636.684515305  -0.88E-04*   0.95E-04    0.10E-02*    0.29E-02   0.32E+03   c2DIIS       1.
   5  -725.716548521  -945.607642907   636.677320773  -0.67E-06*   0.11E-04    0.78E-04     0.14E-03   0.32E+03   QNRc2DIIS    1.
   6  -725.716548524  -945.607626068   636.677303932  -0.24E-08*   0.19E-05    0.10E-04     0.18E-04   0.32E+03   QNRc2DIIS    1.
   7  -725.716548524  -945.607627878   636.677305742  -0.74E-10    0.79E-06    0.22E-05     0.16E-03   0.32E+03   QNRc2DIIS    1.

       Convergence after  7 Macro Iterations
--

 *****************************************************************************************************************************
 *                                                                                                                           *
 *                                             SCF/KS-DFT Program, Final results                                             *
 *                                                                                                                           *
 *                                                                                                                           *
 *                                                                                                                           *
 *                                                       Final Results                                                       *
 *                                                                                                                           *
 *****************************************************************************************************************************

::    Total SCF energy                              -3725.7165485236
      One-electron energy                           -3945.6076278784
      Two-electron energy                             636.6773057417
      Nuclear repulsion energy                       -416.7862263870
      Kinetic energy (interpolated)                  3884.2127035239
      Virial theorem                                    0.9591947797
      Total spin, S(S+1)                                0.0000000000
      Total spin, S                                     0.0000000000
      Max non-diagonal density matrix element           0.0000010552
      Max non-diagonal Fock matrix element              0.0000014467


      All orbitals with orbital energies smaller than  E(LUMO)+0.5 are printed

++    Molecular orbitals:
      -------------------

      Title: SCF orbitals

      Molecular orbitals for symmetry species 1: a  

          Orbital            1         2         3         4         5         6         7         8         9        10    
          Energy         -727.0405 -126.0972 -115.2542 -115.2542 -115.2526  -37.1801  -33.3577  -33.3577  -33.3324  -26.4566
          Occ. No.          2.0000    2.0000    2.0000    2.0000    2.0000    2.0000    2.0000    2.0000    2.0000    0.0000

        1 NB     1s         1.0000   -0.0001    0.0000    0.0000   -0.0000    0.0001   -0.0000    0.0000    0.0000    0.0000
        2 NB     2s         0.0001    0.9999    0.0000    0.0000   -0.0031    0.0127    0.0000    0.0000   -0.0011   -0.0000
        3 NB     3s        -0.0001   -0.0120   -0.0000   -0.0000    0.0004    0.9872    0.0001    0.0000   -0.0532   -0.0000
        4 NB     4s         0.0000    0.0029    0.0000    0.0000   -0.0001   -0.0993   -0.0000   -0.0000    0.0086    0.0000
        5 NB     5s        -0.0000   -0.0007   -0.0000   -0.0000    0.0000    0.0222    0.0000    0.0000   -0.0019   -0.0000
        6 NB     6s         0.0000    0.0009    0.0000    0.0000   -0.0000   -0.0272   -0.0000   -0.0000    0.0024    0.0000
        7 NB     7s        -0.0000   -0.0023   -0.0000   -0.0000    0.0001    0.0665    0.0000    0.0000   -0.0059   -0.0000
        8 NB     8s         0.0000    0.0022    0.0000    0.0000   -0.0001   -0.0536   -0.0000   -0.0000    0.0048    0.0000
        9 NB     9s        -0.0000   -0.0028   -0.0000   -0.0000    0.0001    0.0549    0.0000    0.0000   -0.0050    0.0000
       10 NB    10s         0.0001    0.0027    0.0000    0.0000   -0.0001   -0.0285   -0.0000   -0.0000    0.0025    0.0000
       11 NB     2px        0.0000    0.0031   -0.0032   -0.0000    0.9999    0.0004   -0.0000   -0.0000    0.0143    0.0000
       12 NB     3px       -0.0000    0.0003    0.0000    0.0000   -0.0134    0.0545   -0.0023   -0.0000    0.9824    0.0000
       13 NB     4px        0.0000   -0.0001   -0.0000   -0.0000    0.0029   -0.0039    0.0002    0.0000   -0.1074   -0.0000
       14 NB     5px       -0.0000    0.0000    0.0000    0.0000   -0.0010    0.0011   -0.0001   -0.0000    0.0335    0.0000
       15 NB     6px        0.0000   -0.0001   -0.0000   -0.0000    0.0025   -0.0026    0.0002    0.0000   -0.0805   -0.0000
       16 NB     7px       -0.0000    0.0000    0.0000    0.0000   -0.0023    0.0019   -0.0002   -0.0000    0.0647    0.0000
       17 NB     8px        0.0000   -0.0001   -0.0000   -0.0000    0.0028   -0.0018    0.0002    0.0000   -0.0658   -0.0000
       18 NB     9px       -0.0000    0.0001    0.0000    0.0000   -0.0027    0.0011   -0.0001   -0.0000    0.0491    0.0000
       19 NB    10px        0.0000   -0.0000   -0.0000   -0.0000    0.0022   -0.0004    0.0001    0.0000   -0.0228   -0.0000
       20 NB     2py        0.0000    0.0000   -0.0000    0.9999    0.0000    0.0000   -0.0000    0.0143    0.0000    0.0000
       21 NB     3py       -0.0000   -0.0000    0.0000   -0.0134   -0.0000    0.0000   -0.0000    0.9841    0.0000    0.0002
       22 NB     4py        0.0000    0.0000   -0.0000    0.0029    0.0000   -0.0000    0.0000   -0.1073   -0.0000   -0.0000
       23 NB     5py       -0.0000   -0.0000    0.0000   -0.0010   -0.0000    0.0000   -0.0000    0.0334    0.0000    0.0000
       24 NB     6py        0.0000    0.0000   -0.0000    0.0025    0.0000   -0.0000    0.0000   -0.0804   -0.0000   -0.0000
       25 NB     7py       -0.0000   -0.0000    0.0000   -0.0023   -0.0000    0.0000   -0.0000    0.0646    0.0000    0.0000
       26 NB     8py        0.0000    0.0000   -0.0000    0.0028    0.0000   -0.0000    0.0000   -0.0657   -0.0000   -0.0000
       27 NB     9py       -0.0000   -0.0000    0.0000   -0.0027   -0.0000    0.0000   -0.0000    0.0490    0.0000    0.0000
       28 NB    10py        0.0000    0.0000   -0.0000    0.0022    0.0000   -0.0000    0.0000   -0.0228   -0.0000   -0.0000
       29 NB     2pz        0.0000    0.0000    0.9999    0.0000    0.0032    0.0000    0.0143    0.0000    0.0000    0.0000
       30 NB     3pz       -0.0000    0.0000   -0.0134   -0.0000   -0.0000    0.0001    0.9841    0.0000    0.0023    0.0000
       31 NB     4pz        0.0000   -0.0000    0.0029    0.0000    0.0000   -0.0000   -0.1073   -0.0000   -0.0003   -0.0000
       32 NB     5pz       -0.0000    0.0000   -0.0010   -0.0000   -0.0000    0.0000    0.0334    0.0000    0.0001    0.0000
       33 NB     6pz        0.0000   -0.0000    0.0025    0.0000    0.0000   -0.0000   -0.0804   -0.0000   -0.0002   -0.0000
       34 NB     7pz       -0.0000    0.0000   -0.0023   -0.0000   -0.0000    0.0000    0.0646    0.0000    0.0002    0.0000
       35 NB     8pz        0.0000   -0.0000    0.0028    0.0000    0.0000   -0.0000   -0.0657   -0.0000   -0.0002   -0.0000
       36 NB     9pz       -0.0000    0.0000   -0.0027   -0.0000   -0.0000    0.0000    0.0490    0.0000    0.0001    0.0000
       37 NB    10pz        0.0000   -0.0000    0.0022    0.0000    0.0000   -0.0000   -0.0228   -0.0000   -0.0001   -0.0000
       38 NB     3d2-      -0.0000    0.0000   -0.0000    0.0002    0.0000    0.0000   -0.0000    0.0274    0.0000   -0.0088
       39 NB     4d2-       0.0000   -0.0000    0.0000   -0.0000   -0.0000    0.0000    0.0000   -0.0016   -0.0000    0.0009
       40 NB     5d2-      -0.0000    0.0000   -0.0000    0.0000    0.0000   -0.0000   -0.0000    0.0015    0.0000   -0.0009
       41 NB     6d2-       0.0000   -0.0000    0.0000   -0.0000   -0.0000    0.0000    0.0000   -0.0012   -0.0000    0.0008
       42 NB     7d2-      -0.0000    0.0000   -0.0000    0.0000    0.0000   -0.0000   -0.0000    0.0009    0.0000   -0.0007
       43 NB     8d2-       0.0000   -0.0000    0.0000   -0.0001   -0.0000    0.0000    0.0000   -0.0008   -0.0000    0.0009
       44 NB     9d2-      -0.0000    0.0000   -0.0000    0.0001    0.0000   -0.0000   -0.0000    0.0004    0.0000   -0.0007
       45 NB    10d2-      -0.0000    0.0000   -0.0000    0.0001    0.0000   -0.0000    0.0000   -0.0000   -0.0000   -0.0006
       46 NB     3d1-       0.0000   -0.0000   -0.0000    0.0000    0.0000   -0.0000   -0.0000    0.0000   -0.0000    0.9742
       47 NB     4d1-      -0.0000   -0.0000    0.0000   -0.0000   -0.0000    0.0000    0.0000   -0.0000    0.0000   -0.0953
       48 NB     5d1-       0.0000   -0.0000   -0.0000    0.0000    0.0000   -0.0000   -0.0000    0.0000   -0.0000    0.0965
       49 NB     6d1-      -0.0000   -0.0000    0.0000   -0.0000   -0.0000    0.0000    0.0000   -0.0000    0.0000   -0.0848
       50 NB     7d1-       0.0000    0.0000   -0.0000    0.0000    0.0000   -0.0000   -0.0000    0.0000   -0.0000    0.0758
       51 NB     8d1-      -0.0000   -0.0000    0.0000   -0.0000    0.0000   -0.0000    0.0000   -0.0000    0.0000   -0.0952
       52 NB     9d1-       0.0000    0.0000   -0.0000    0.0000   -0.0000    0.0000   -0.0000    0.0000   -0.0000    0.0772
       53 NB    10d1-       0.0000    0.0000   -0.0000    0.0000   -0.0000    0.0000    0.0000   -0.0000   -0.0000    0.0676
       54 NB     3d0        0.0000    0.0000    0.0000    0.0000   -0.0001    0.0001    0.0001    0.0000   -0.0162   -0.0000
       55 NB     4d0       -0.0000   -0.0000   -0.0000   -0.0000    0.0000   -0.0000   -0.0000   -0.0000    0.0009    0.0000
       56 NB     5d0        0.0000    0.0000    0.0000    0.0000   -0.0000    0.0000    0.0000    0.0000   -0.0008   -0.0000
       57 NB     6d0       -0.0000   -0.0000   -0.0000   -0.0000    0.0000    0.0000   -0.0000   -0.0000    0.0007    0.0000
       58 NB     7d0        0.0000    0.0000    0.0000    0.0000   -0.0000   -0.0000    0.0000    0.0000   -0.0005   -0.0000
       59 NB     8d0       -0.0000   -0.0000   -0.0000   -0.0000    0.0000    0.0000   -0.0000   -0.0000    0.0005    0.0000
       60 NB     9d0        0.0000    0.0000    0.0000    0.0000   -0.0000   -0.0000    0.0000    0.0000   -0.0002   -0.0000
       61 NB    10d0        0.0000    0.0000    0.0000    0.0000   -0.0000   -0.0000   -0.0000    0.0000    0.0000   -0.0000
       62 NB     3d1+      -0.0000   -0.0000    0.0002    0.0000    0.0000   -0.0000    0.0274    0.0000    0.0001   -0.0000
       63 NB     4d1+       0.0000    0.0000   -0.0000   -0.0000   -0.0000    0.0000   -0.0016   -0.0000   -0.0000    0.0000
       64 NB     5d1+      -0.0000   -0.0000    0.0000    0.0000    0.0000   -0.0000    0.0015    0.0000    0.0000   -0.0000
       65 NB     6d1+       0.0000    0.0000   -0.0000   -0.0000   -0.0000   -0.0000   -0.0012   -0.0000   -0.0000    0.0000
       66 NB     7d1+      -0.0000   -0.0000    0.0000    0.0000    0.0000    0.0000    0.0009    0.0000    0.0000   -0.0000
       67 NB     8d1+       0.0000    0.0000   -0.0001   -0.0000   -0.0000   -0.0000   -0.0008   -0.0000   -0.0000    0.0000
       68 NB     9d1+      -0.0000   -0.0000    0.0001    0.0000    0.0000    0.0000    0.0004    0.0000    0.0000   -0.0000
       69 NB    10d1+      -0.0000   -0.0000    0.0001    0.0000    0.0000    0.0000   -0.0000   -0.0000   -0.0000   -0.0000
       70 NB     3d2+      -0.0000   -0.0000   -0.0000   -0.0000    0.0002   -0.0001   -0.0001   -0.0000    0.0280   -0.0000
       71 NB     4d2+       0.0000    0.0000    0.0000    0.0000   -0.0000    0.0000    0.0000    0.0000   -0.0016    0.0000
       72 NB     5d2+      -0.0000   -0.0000   -0.0000   -0.0000    0.0000   -0.0000   -0.0000   -0.0000    0.0015   -0.0000
       73 NB     6d2+       0.0000    0.0000    0.0000    0.0000   -0.0000   -0.0000    0.0000    0.0000   -0.0012    0.0000
       74 NB     7d2+      -0.0000   -0.0000   -0.0000   -0.0000    0.0000    0.0000   -0.0000   -0.0000    0.0009   -0.0000
       75 NB     8d2+       0.0000    0.0000    0.0000    0.0000   -0.0001   -0.0000    0.0000    0.0000   -0.0008    0.0000
       76 NB     9d2+      -0.0000   -0.0000   -0.0000   -0.0000    0.0001    0.0000   -0.0000   -0.0000    0.0004   -0.0000
       77 NB    10d2+      -0.0000   -0.0000   -0.0000   -0.0000    0.0001    0.0000    0.0000    0.0000   -0.0000   -0.0000
       78 NB     4f3-       0.0000    0.0000    0.0000   -0.0000   -0.0000    0.0000    0.0000   -0.0000   -0.0000   -0.0000
       79 NB     5f3-       0.0000    0.0000    0.0000   -0.0000   -0.0000    0.0000    0.0000   -0.0000   -0.0000   -0.0000
       80 NB     6f3-      -0.0000   -0.0000   -0.0000    0.0000    0.0000   -0.0000   -0.0000    0.0000    0.0000    0.0000
       81 NB     7f3-       0.0000    0.0000    0.0000   -0.0000   -0.0000    0.0000    0.0000   -0.0000   -0.0000   -0.0000
       82 NB     8f3-      -0.0000   -0.0000    0.0000   -0.0000   -0.0000   -0.0000    0.0000   -0.0000   -0.0000   -0.0000
       83 NB     4f2-      -0.0000    0.0000    0.0000   -0.0000   -0.0000    0.0000    0.0000   -0.0000   -0.0000    0.0013
       84 NB     5f2-      -0.0000    0.0000    0.0000   -0.0000   -0.0000    0.0000    0.0000   -0.0000   -0.0000    0.0015
       85 NB     6f2-       0.0000   -0.0000   -0.0000    0.0000    0.0000   -0.0000   -0.0000    0.0000    0.0000   -0.0015
       86 NB     7f2-      -0.0000    0.0000    0.0000   -0.0000   -0.0000    0.0000    0.0000   -0.0000   -0.0000    0.0014
       87 NB     8f2-      -0.0000    0.0000    0.0000   -0.0000   -0.0000   -0.0000    0.0000   -0.0000   -0.0000    0.0009
       88 NB     4f1-      -0.0000    0.0000   -0.0000    0.0000    0.0000    0.0000   -0.0000    0.0000    0.0000    0.0000
       89 NB     5f1-      -0.0000    0.0000   -0.0000    0.0000    0.0000    0.0000   -0.0000    0.0000    0.0000    0.0000
       90 NB     6f1-       0.0000    0.0000    0.0000   -0.0000    0.0000   -0.0000    0.0000   -0.0000   -0.0000   -0.0000
       91 NB     7f1-      -0.0000   -0.0000   -0.0000    0.0000    0.0000    0.0000   -0.0000    0.0000    0.0000    0.0000
       92 NB     8f1-      -0.0000   -0.0000   -0.0000    0.0000    0.0000    0.0000   -0.0000    0.0000    0.0000    0.0000
       93 NB     4f0       -0.0000   -0.0000    0.0000    0.0000    0.0000    0.0000    0.0000    0.0000    0.0000    0.0000
       94 NB     5f0       -0.0000   -0.0000    0.0000    0.0000    0.0000    0.0000    0.0000    0.0000    0.0000    0.0000
       95 NB     6f0       -0.0000   -0.0000   -0.0000   -0.0000   -0.0000   -0.0000   -0.0000   -0.0000   -0.0000   -0.0000
       96 NB     7f0       -0.0000   -0.0000    0.0000    0.0000    0.0000   -0.0000    0.0000    0.0000    0.0000    0.0000
       97 NB     8f0        0.0000    0.0000    0.0000    0.0000    0.0000    0.0000    0.0000    0.0000    0.0000    0.0000
       98 NB     4f1+       0.0000   -0.0000    0.0000    0.0000    0.0000   -0.0000    0.0000    0.0000    0.0000   -0.0000
       99 NB     5f1+      -0.0000   -0.0000   -0.0000   -0.0000    0.0000   -0.0000    0.0000    0.0000    0.0000   -0.0000
      100 NB     6f1+      -0.0000    0.0000   -0.0000   -0.0000   -0.0000    0.0000   -0.0000   -0.0000   -0.0000    0.0000
      101 NB     7f1+       0.0000   -0.0000    0.0000    0.0000    0.0000   -0.0000    0.0000    0.0000    0.0000   -0.0000
      102 NB     8f1+       0.0000   -0.0000   -0.0000   -0.0000    0.0000   -0.0000    0.0000    0.0000    0.0000   -0.0000
      103 NB     4f2+      -0.0000   -0.0000   -0.0000   -0.0000    0.0000    0.0000   -0.0000   -0.0000    0.0000   -0.0000
      104 NB     5f2+      -0.0000   -0.0000   -0.0000   -0.0000   -0.0000    0.0000   -0.0000   -0.0000    0.0000   -0.0000
      105 NB     6f2+      -0.0000   -0.0000    0.0000    0.0000   -0.0000   -0.0000    0.0000    0.0000   -0.0000    0.0000
      106 NB     7f2+      -0.0000   -0.0000   -0.0000   -0.0000   -0.0000   -0.0000   -0.0000   -0.0000    0.0000   -0.0000
      107 NB     8f2+       0.0000    0.0000   -0.0000   -0.0000    0.0000    0.0000   -0.0000   -0.0000    0.0000   -0.0000
      108 NB     4f3+      -0.0000    0.0000    0.0000    0.0000   -0.0000    0.0000    0.0000    0.0000   -0.0000   -0.0000
      109 NB     5f3+       0.0000    0.0000    0.0000    0.0000   -0.0000    0.0000    0.0000    0.0000   -0.0000   -0.0000
      110 NB     6f3+       0.0000   -0.0000   -0.0000   -0.0000    0.0000   -0.0000   -0.0000   -0.0000    0.0000    0.0000
      111 NB     7f3+      -0.0000    0.0000    0.0000    0.0000   -0.0000    0.0000    0.0000    0.0000   -0.0000   -0.0000
      112 NB     8f3+      -0.0000    0.0000    0.0000    0.0000   -0.0000    0.0000    0.0000    0.0000   -0.0000   -0.0000
      113 NB     5g4-      -0.0000   -0.0000   -0.0000    0.0000    0.0000   -0.0000   -0.0000    0.0000    0.0000    0.0000
      114 NB     6g4-       0.0000    0.0000    0.0000   -0.0000   -0.0000    0.0000    0.0000   -0.0000   -0.0000   -0.0000
      115 NB     7g4-      -0.0000    0.0000   -0.0000    0.0000    0.0000   -0.0000   -0.0000    0.0000    0.0000    0.0000
      116 NB     8g4-       0.0000   -0.0000    0.0000   -0.0000   -0.0000    0.0000    0.0000   -0.0000   -0.0000   -0.0000
      117 NB     5g3-       0.0000   -0.0000    0.0000   -0.0000   -0.0000    0.0000    0.0000   -0.0000    0.0000   -0.0000
      118 NB     6g3-      -0.0000    0.0000    0.0000   -0.0000   -0.0000   -0.0000   -0.0000    0.0000    0.0000    0.0001
      119 NB     7g3-       0.0000   -0.0000    0.0000   -0.0000    0.0000    0.0000    0.0000   -0.0000   -0.0000   -0.0001
      120 NB     8g3-      -0.0000   -0.0000   -0.0000    0.0000    0.0000   -0.0000   -0.0000    0.0000    0.0000    0.0001
      121 NB     5g2-      -0.0000    0.0000    0.0000   -0.0000    0.0000   -0.0000    0.0000   -0.0000   -0.0000   -0.0000
      122 NB     6g2-       0.0000   -0.0000   -0.0000    0.0000    0.0000    0.0000   -0.0000    0.0000    0.0000    0.0000
      123 NB     7g2-      -0.0000    0.0000    0.0000   -0.0000   -0.0000   -0.0000    0.0000   -0.0000   -0.0000   -0.0000
      124 NB     8g2-       0.0000   -0.0000   -0.0000    0.0000    0.0000    0.0000   -0.0000    0.0000    0.0000    0.0000
      125 NB     5g1-       0.0000    0.0000   -0.0000    0.0000   -0.0000    0.0000   -0.0000    0.0000    0.0000    0.0000
      126 NB     6g1-      -0.0000   -0.0000   -0.0000    0.0000   -0.0000   -0.0000    0.0000   -0.0000    0.0000   -0.0000
      127 NB     7g1-       0.0000   -0.0000   -0.0000    0.0000    0.0000    0.0000   -0.0000    0.0000    0.0000    0.0000
      128 NB     8g1-      -0.0000    0.0000    0.0000   -0.0000    0.0000    0.0000    0.0000   -0.0000    0.0000   -0.0000
      129 NB     5g0        0.0000    0.0000   -0.0000   -0.0000    0.0000   -0.0000   -0.0000   -0.0000    0.0000   -0.0000
      130 NB     6g0        0.0000    0.0000   -0.0000   -0.0000   -0.0000    0.0000    0.0000    0.0000   -0.0000    0.0000
      131 NB     7g0        0.0000   -0.0000   -0.0000   -0.0000    0.0000   -0.0000   -0.0000   -0.0000    0.0000   -0.0000
      132 NB     8g0       -0.0000    0.0000    0.0000    0.0000   -0.0000    0.0000    0.0000    0.0000   -0.0000    0.0000
      133 NB     5g1+      -0.0000   -0.0000   -0.0000   -0.0000    0.0000    0.0000   -0.0000   -0.0000    0.0000   -0.0000
      134 NB     6g1+      -0.0000   -0.0000    0.0000    0.0000    0.0000   -0.0000    0.0000    0.0000   -0.0000    0.0000
      135 NB     7g1+       0.0000    0.0000   -0.0000   -0.0000    0.0000    0.0000   -0.0000   -0.0000    0.0000   -0.0000
      136 NB     8g1+       0.0000    0.0000    0.0000    0.0000   -0.0000   -0.0000    0.0000    0.0000   -0.0000   -0.0000
      137 NB     5g2+      -0.0000   -0.0000    0.0000    0.0000   -0.0000    0.0000    0.0000    0.0000   -0.0000    0.0000
      138 NB     6g2+      -0.0000   -0.0000    0.0000    0.0000    0.0000   -0.0000   -0.0000   -0.0000    0.0000   -0.0000
      139 NB     7g2+      -0.0000    0.0000    0.0000    0.0000   -0.0000    0.0000    0.0000    0.0000   -0.0000    0.0000
      140 NB     8g2+       0.0000   -0.0000   -0.0000   -0.0000    0.0000   -0.0000   -0.0000   -0.0000    0.0000   -0.0000
      141 NB     5g3+      -0.0000   -0.0000    0.0000    0.0000    0.0000    0.0000    0.0000    0.0000    0.0000    0.0000
      142 NB     6g3+      -0.0000   -0.0000   -0.0000   -0.0000    0.0000   -0.0000   -0.0000   -0.0000   -0.0000   -0.0000
      143 NB     7g3+       0.0000    0.0000    0.0000    0.0000    0.0000    0.0000    0.0000    0.0000    0.0000    0.0000
      144 NB     8g3+       0.0000    0.0000   -0.0000   -0.0000   -0.0000   -0.0000   -0.0000   -0.0000   -0.0000   -0.0000
      145 NB     5g4+       0.0000    0.0000    0.0000    0.0000    0.0000   -0.0000    0.0000    0.0000    0.0000    0.0000
      146 NB     6g4+       0.0000    0.0000    0.0000    0.0000   -0.0000    0.0000   -0.0000   -0.0000   -0.0000   -0.0000
      147 NB     7g4+       0.0000   -0.0000    0.0000    0.0000    0.0000   -0.0000    0.0000    0.0000    0.0000    0.0000
      148 NB     8g4+      -0.0000    0.0000   -0.0000   -0.0000   -0.0000    0.0000   -0.0000   -0.0000   -0.0000   -0.0000
      149 NB     6h5-       0.0000   -0.0000    0.0000   -0.0000    0.0000    0.0000    0.0000   -0.0000   -0.0000    0.0000
      150 NB     7h5-      -0.0000    0.0000   -0.0000    0.0000   -0.0000    0.0000   -0.0000    0.0000    0.0000   -0.0000
      151 NB     6h4-      -0.0000   -0.0000   -0.0000    0.0000    0.0000    0.0000   -0.0000    0.0000    0.0000    0.0000
      152 NB     7h4-       0.0000   -0.0000    0.0000   -0.0000   -0.0000    0.0000    0.0000   -0.0000   -0.0000   -0.0000
      153 NB     6h3-      -0.0000    0.0000   -0.0000    0.0000    0.0000   -0.0000   -0.0000    0.0000   -0.0000   -0.0000
      154 NB     7h3-       0.0000   -0.0000    0.0000   -0.0000   -0.0000    0.0000    0.0000   -0.0000    0.0000    0.0000
      155 NB     6h2-       0.0000    0.0000   -0.0000    0.0000    0.0000    0.0000   -0.0000    0.0000    0.0000   -0.0000
      156 NB     7h2-       0.0000    0.0000   -0.0000    0.0000    0.0000   -0.0000    0.0000   -0.0000   -0.0000    0.0000
      157 NB     6h1-       0.0000   -0.0000    0.0000   -0.0000   -0.0000    0.0000    0.0000   -0.0000    0.0000   -0.0000
      158 NB     7h1-      -0.0000    0.0000   -0.0000    0.0000    0.0000    0.0000   -0.0000    0.0000    0.0000   -0.0000
      159 NB     6h0        0.0000    0.0000   -0.0000   -0.0000   -0.0000   -0.0000   -0.0000   -0.0000   -0.0000    0.0000
      160 NB     7h0        0.0000    0.0000    0.0000    0.0000   -0.0000    0.0000    0.0000    0.0000    0.0000   -0.0000
      161 NB     6h1+      -0.0000   -0.0000    0.0000    0.0000   -0.0000   -0.0000    0.0000    0.0000   -0.0000    0.0000
      162 NB     7h1+      -0.0000   -0.0000   -0.0000   -0.0000    0.0000   -0.0000   -0.0000   -0.0000    0.0000   -0.0000
      163 NB     6h2+      -0.0000   -0.0000    0.0000    0.0000    0.0000    0.0000    0.0000    0.0000    0.0000   -0.0000
      164 NB     7h2+      -0.0000   -0.0000   -0.0000   -0.0000    0.0000   -0.0000   -0.0000   -0.0000   -0.0000    0.0000
      165 NB     6h3+       0.0000    0.0000    0.0000    0.0000    0.0000    0.0000    0.0000    0.0000    0.0000   -0.0000
      166 NB     7h3+       0.0000    0.0000   -0.0000    0.0000   -0.0000    0.0000   -0.0000   -0.0000   -0.0000    0.0000
      167 NB     6h4+      -0.0000   -0.0000   -0.0000   -0.0000    0.0000    0.0000   -0.0000   -0.0000    0.0000    0.0000
      168 NB     7h4+      -0.0000   -0.0000    0.0000    0.0000    0.0000   -0.0000    0.0000    0.0000   -0.0000   -0.0000
      169 NB     6h5+      -0.0000   -0.0000    0.0000    0.0000   -0.0000   -0.0000    0.0000    0.0000   -0.0000   -0.0000
      170 NB     7h5+      -0.0000   -0.0000    0.0000    0.0000    0.0000   -0.0000   -0.0000   -0.0000    0.0000    0.0000

          Orbital           11        12        13        14    
          Energy          -26.4566  -26.4445  -26.4445  -26.4399
          Occ. No.          0.0000    0.0000    0.0000    0.0000

        1 NB     1s        -0.0000    0.0000   -0.0000   -0.0000
        2 NB     2s         0.0000   -0.0000   -0.0000    0.0001
        3 NB     3s         0.0000   -0.0000    0.0000    0.0018
        4 NB     4s         0.0000   -0.0000   -0.0000   -0.0005
        5 NB     5s         0.0000    0.0000    0.0000    0.0001
        6 NB     6s        -0.0000   -0.0000   -0.0000   -0.0002
        7 NB     7s        -0.0000    0.0000    0.0000    0.0004
        8 NB     8s        -0.0000   -0.0000    0.0000   -0.0003
        9 NB     9s         0.0000   -0.0000    0.0000    0.0003
       10 NB    10s        -0.0000    0.0000   -0.0000   -0.0001
       11 NB     2px       -0.0000    0.0000   -0.0000   -0.0008
       12 NB     3px       -0.0000    0.0001   -0.0000   -0.0308
       13 NB     4px        0.0000   -0.0000    0.0000    0.0061
       14 NB     5px       -0.0000    0.0000   -0.0000   -0.0019
       15 NB     6px        0.0000   -0.0000    0.0000    0.0047
       16 NB     7px       -0.0000    0.0000   -0.0000   -0.0038
       17 NB     8px        0.0000   -0.0000    0.0000    0.0038
       18 NB     9px       -0.0000    0.0000   -0.0000   -0.0028
       19 NB    10px        0.0000   -0.0000    0.0000    0.0012
       20 NB     2py        0.0000   -0.0000   -0.0007   -0.0000
       21 NB     3py        0.0000   -0.0000   -0.0261    0.0000
       22 NB     4py       -0.0000    0.0000    0.0052   -0.0000
       23 NB     5py        0.0000   -0.0000   -0.0016    0.0000
       24 NB     6py       -0.0000    0.0000    0.0040   -0.0000
       25 NB     7py        0.0000   -0.0000   -0.0032    0.0000
       26 NB     8py       -0.0000    0.0000    0.0032   -0.0000
       27 NB     9py        0.0000   -0.0000   -0.0023    0.0000
       28 NB    10py       -0.0000    0.0000    0.0010   -0.0000
       29 NB     2pz       -0.0000   -0.0007    0.0000   -0.0000
       30 NB     3pz       -0.0001   -0.0261    0.0000   -0.0001
       31 NB     4pz        0.0000    0.0052   -0.0000    0.0000
       32 NB     5pz       -0.0000   -0.0016    0.0000   -0.0000
       33 NB     6pz        0.0000    0.0040   -0.0000    0.0000
       34 NB     7pz       -0.0000   -0.0032    0.0000   -0.0000
       35 NB     8pz        0.0000    0.0032   -0.0000    0.0000
       36 NB     9pz       -0.0000   -0.0023    0.0000   -0.0000
       37 NB    10pz        0.0000    0.0010   -0.0000    0.0000
       38 NB     3d2-      -0.0000    0.0000    0.9737   -0.0000
       39 NB     4d2-       0.0000   -0.0000   -0.0954    0.0000
       40 NB     5d2-      -0.0000    0.0000    0.0966   -0.0000
       41 NB     6d2-       0.0000   -0.0000   -0.0849    0.0000
       42 NB     7d2-      -0.0000    0.0000    0.0759   -0.0000
       43 NB     8d2-       0.0000   -0.0000   -0.0954    0.0000
       44 NB     9d2-      -0.0000    0.0000    0.0774   -0.0000
       45 NB    10d2-      -0.0000    0.0000    0.0677   -0.0000
       46 NB     3d1-       0.0000    0.0000    0.0088    0.0000
       47 NB     4d1-      -0.0000   -0.0000   -0.0009   -0.0000
       48 NB     5d1-       0.0000    0.0000    0.0009    0.0000
       49 NB     6d1-      -0.0000   -0.0000   -0.0008   -0.0000
       50 NB     7d1-       0.0000    0.0000    0.0007    0.0000
       51 NB     8d1-      -0.0000   -0.0000   -0.0009   -0.0000
       52 NB     9d1-       0.0000    0.0000    0.0007    0.0000
       53 NB    10d1-       0.0000    0.0000    0.0006    0.0000
       54 NB     3d0        0.8436   -0.0011    0.0000   -0.4868
       55 NB     4d0       -0.0826    0.0001   -0.0000    0.0477
       56 NB     5d0        0.0835   -0.0001    0.0000   -0.0483
       57 NB     6d0       -0.0735    0.0001   -0.0000    0.0425
       58 NB     7d0        0.0657   -0.0001    0.0000   -0.0380
       59 NB     8d0       -0.0825    0.0001   -0.0000    0.0477
       60 NB     9d0        0.0669   -0.0001    0.0000   -0.0387
       61 NB    10d0        0.0585   -0.0001    0.0000   -0.0339
       62 NB     3d1+       0.0037    0.9737   -0.0000    0.0042
       63 NB     4d1+      -0.0004   -0.0954    0.0000   -0.0004
       64 NB     5d1+       0.0004    0.0966   -0.0000    0.0004
       65 NB     6d1+      -0.0003   -0.0849    0.0000   -0.0004
       66 NB     7d1+       0.0003    0.0759   -0.0000    0.0003
       67 NB     8d1+      -0.0004   -0.0954    0.0000   -0.0004
       68 NB     9d1+       0.0003    0.0774   -0.0000    0.0003
       69 NB    10d1+       0.0003    0.0677   -0.0000    0.0003
       70 NB     3d2+       0.4871   -0.0055    0.0000    0.8431
       71 NB     4d2+      -0.0477    0.0005   -0.0000   -0.0827
       72 NB     5d2+       0.0482   -0.0005    0.0000    0.0837
       73 NB     6d2+      -0.0424    0.0005   -0.0000   -0.0736
       74 NB     7d2+       0.0379   -0.0004    0.0000    0.0658
       75 NB     8d2+      -0.0476    0.0005   -0.0000   -0.0827
       76 NB     9d2+       0.0386   -0.0004    0.0000    0.0671
       77 NB    10d2+       0.0338   -0.0004    0.0000    0.0587
       78 NB     4f3-      -0.0000    0.0000    0.0017   -0.0000
       79 NB     5f3-      -0.0000    0.0000    0.0019   -0.0000
       80 NB     6f3-       0.0000   -0.0000   -0.0018    0.0000
       81 NB     7f3-      -0.0000    0.0000    0.0018   -0.0000
       82 NB     8f3-      -0.0000    0.0000    0.0011   -0.0000
       83 NB     4f2-       0.0000    0.0000    0.0000    0.0000
       84 NB     5f2-       0.0000    0.0000    0.0000    0.0000
       85 NB     6f2-      -0.0000   -0.0000   -0.0000   -0.0000
       86 NB     7f2-       0.0000    0.0000    0.0000    0.0000
       87 NB     8f2-       0.0000    0.0000    0.0000    0.0000
       88 NB     4f1-       0.0000   -0.0000   -0.0004    0.0000
       89 NB     5f1-       0.0000   -0.0000   -0.0005    0.0000
       90 NB     6f1-      -0.0000    0.0000    0.0005   -0.0000
       91 NB     7f1-       0.0000   -0.0000   -0.0005    0.0000
       92 NB     8f1-       0.0000   -0.0000   -0.0003    0.0000
       93 NB     4f0       -0.0000   -0.0010    0.0000   -0.0000
       94 NB     5f0       -0.0000   -0.0012    0.0000   -0.0000
       95 NB     6f0        0.0000    0.0012   -0.0000    0.0000
       96 NB     7f0       -0.0000   -0.0011    0.0000   -0.0000
       97 NB     8f0       -0.0000   -0.0007    0.0000    0.0000
       98 NB     4f1+       0.0010    0.0000   -0.0000   -0.0011
       99 NB     5f1+       0.0012    0.0000   -0.0000   -0.0013
      100 NB     6f1+      -0.0012   -0.0000    0.0000    0.0012
      101 NB     7f1+       0.0011    0.0000   -0.0000   -0.0012
      102 NB     8f1+       0.0007    0.0000   -0.0000   -0.0008
      103 NB     4f2+       0.0000    0.0014   -0.0000    0.0000
      104 NB     5f2+       0.0000    0.0015   -0.0000    0.0000
      105 NB     6f2+      -0.0000   -0.0015    0.0000   -0.0000
      106 NB     7f2+       0.0000    0.0015   -0.0000    0.0000
      107 NB     8f2+       0.0000    0.0009   -0.0000    0.0000
      108 NB     4f3+       0.0008   -0.0000    0.0000    0.0014
      109 NB     5f3+       0.0009   -0.0000    0.0000    0.0016
      110 NB     6f3+      -0.0009    0.0000   -0.0000   -0.0016
      111 NB     7f3+       0.0009   -0.0000    0.0000    0.0016
      112 NB     8f3+       0.0006   -0.0000    0.0000    0.0010
      113 NB     5g4-       0.0000   -0.0000   -0.0000    0.0000
      114 NB     6g4-      -0.0000    0.0000    0.0001   -0.0000
      115 NB     7g4-       0.0000   -0.0000   -0.0001    0.0000
      116 NB     8g4-      -0.0000    0.0000    0.0001   -0.0000
      117 NB     5g3-      -0.0000   -0.0000   -0.0000   -0.0000
      118 NB     6g3-       0.0000   -0.0000   -0.0000    0.0000
      119 NB     7g3-      -0.0000   -0.0000   -0.0000    0.0000
      120 NB     8g3-       0.0000    0.0000    0.0000   -0.0000
      121 NB     5g2-      -0.0000    0.0000    0.0000   -0.0000
      122 NB     6g2-       0.0000   -0.0000   -0.0000    0.0000
      123 NB     7g2-      -0.0000    0.0000    0.0000   -0.0000
      124 NB     8g2-       0.0000   -0.0000   -0.0000    0.0000
      125 NB     5g1-       0.0000    0.0000    0.0000    0.0000
      126 NB     6g1-      -0.0000   -0.0000   -0.0000    0.0000
      127 NB     7g1-       0.0000    0.0000    0.0000   -0.0000
      128 NB     8g1-      -0.0000   -0.0000   -0.0000   -0.0000
      129 NB     5g0        0.0000   -0.0000    0.0000   -0.0000
      130 NB     6g0       -0.0000   -0.0000    0.0000    0.0000
      131 NB     7g0        0.0000   -0.0000    0.0000   -0.0000
      132 NB     8g0       -0.0000   -0.0000    0.0000    0.0001
      133 NB     5g1+       0.0000    0.0000   -0.0000    0.0000
      134 NB     6g1+      -0.0000   -0.0001    0.0000   -0.0000
      135 NB     7g1+       0.0000    0.0001   -0.0000   -0.0000
      136 NB     8g1+       0.0000   -0.0001    0.0000   -0.0000
      137 NB     5g2+      -0.0000    0.0000   -0.0000    0.0000
      138 NB     6g2+       0.0000    0.0000   -0.0000   -0.0001
      139 NB     7g2+      -0.0000    0.0000   -0.0000    0.0001
      140 NB     8g2+       0.0000   -0.0000    0.0000   -0.0001
      141 NB     5g3+      -0.0000   -0.0000    0.0000   -0.0000
      142 NB     6g3+       0.0000    0.0001   -0.0000    0.0000
      143 NB     7g3+      -0.0000   -0.0001    0.0000   -0.0000
      144 NB     8g3+       0.0000    0.0001   -0.0000   -0.0000
      145 NB     5g4+      -0.0000    0.0000   -0.0000   -0.0000
      146 NB     6g4+       0.0000    0.0000   -0.0000    0.0001
      147 NB     7g4+      -0.0000    0.0000   -0.0000   -0.0001
      148 NB     8g4+       0.0001   -0.0000    0.0000    0.0001
      149 NB     6h5-       0.0000    0.0000    0.0000   -0.0000
      150 NB     7h5-      -0.0000   -0.0000   -0.0000    0.0000
      151 NB     6h4-       0.0000   -0.0000   -0.0000   -0.0000
      152 NB     7h4-      -0.0000   -0.0000   -0.0000    0.0000
      153 NB     6h3-      -0.0000   -0.0000   -0.0000    0.0000
      154 NB     7h3-       0.0000    0.0000    0.0000    0.0000
      155 NB     6h2-      -0.0000    0.0000    0.0000   -0.0000
      156 NB     7h2-       0.0000    0.0000    0.0000   -0.0000
      157 NB     6h1-      -0.0000    0.0000    0.0000   -0.0000
      158 NB     7h1-      -0.0000   -0.0000   -0.0000    0.0000
      159 NB     6h0       -0.0000    0.0000   -0.0000   -0.0000
      160 NB     7h0        0.0000   -0.0000    0.0000   -0.0000
      161 NB     6h1+      -0.0000   -0.0000    0.0000    0.0000
      162 NB     7h1+       0.0000   -0.0000    0.0000   -0.0000
      163 NB     6h2+       0.0000   -0.0000    0.0000    0.0000
      164 NB     7h2+      -0.0000    0.0000   -0.0000    0.0000
      165 NB     6h3+       0.0000    0.0000   -0.0000   -0.0000
      166 NB     7h3+      -0.0000    0.0000   -0.0000    0.0000
      167 NB     6h4+      -0.0000    0.0000   -0.0000    0.0000
      168 NB     7h4+       0.0000   -0.0000    0.0000    0.0000
      169 NB     6h5+       0.0000    0.0000   -0.0000    0.0000
      170 NB     7h5+      -0.0000    0.0000   -0.0000   -0.0000
--


++    Molecular charges:
      ------------------

      Mulliken charges per centre and basis function type
      ---------------------------------------------------

                NB    
      1s       2.0000
      2s       2.0000
      2px      2.0000
      2pz      2.0000
      2py      2.0000
      3s       1.9552
      3px      1.9366
      3pz      1.9375
      3py      1.9375
      4s       0.0199
      3d2+     0.0016
      3d1+     0.0015
      3d0      0.0005
      3d1-     0.0000
      3d2-     0.0015
      4px      0.0231
      4pz      0.0230
      4py      0.0230
      5s       0.0010
      4d2+     0.0000
      4d1+     0.0000
      4d0      0.0000
      4d1-     0.0000
      4d2-     0.0000
      5px      0.0022
      5pz      0.0022
      5py      0.0022
      6s       0.0015
      4f3+     0.0000
      4f2+     0.0000
      4f1+     0.0000
      4f0      0.0000
      4f1-     0.0000
      4f2-     0.0000
      4f3-     0.0000
      5d2+     0.0000
      5d1+     0.0000
      5d0      0.0000
      5d1-     0.0000
      5d2-     0.0000
      6px      0.0130
      6pz      0.0129
      6py      0.0129
      7s       0.0089
      5f3+     0.0000
      5f2+     0.0000
      5f1+     0.0000
      5f0      0.0000
      5f1-     0.0000
      5f2-     0.0000
      5f3-     0.0000
      6d2+     0.0000
      6d1+     0.0000
      6d0      0.0000
      6d1-     0.0000
      6d2-     0.0000
      7px      0.0084
      7pz      0.0084
      7py      0.0084
      5g4+     0.0000
      5g3+     0.0000
      5g2+     0.0000
      5g1+     0.0000
      5g0      0.0000
      5g1-     0.0000
      5g2-     0.0000
      5g3-     0.0000
      5g4-     0.0000
      6f3+     0.0000
      6f2+     0.0000
      6f1+     0.0000
      6f0      0.0000
      6f1-     0.0000
      6f2-     0.0000
      6f3-     0.0000
      6g4+     0.0000
      6g3+     0.0000
      6g2+     0.0000
      6g1+     0.0000
      6g0      0.0000
      6g1-     0.0000
      6g2-     0.0000
      6g3-     0.0000
      6g4-     0.0000
      6h5+     0.0000
      6h4+     0.0000
      6h3+     0.0000
      6h2+     0.0000
      6h1+     0.0000
      6h0      0.0000
      6h1-     0.0000
      6h2-     0.0000
      6h3-     0.0000
      6h4-     0.0000
      6h5-     0.0000
      7d2+     0.0000
      7d1+     0.0000
      7d0      0.0000
      7d1-     0.0000
      7d2-     0.0000
      7f3+     0.0000
      7f2+     0.0000
      7f1+     0.0000
      7f0      0.0000
      7f1-     0.0000
      7f2-     0.0000
      7f3-     0.0000
      7g4+     0.0000
      7g3+     0.0000
      7g2+     0.0000
      7g1+     0.0000
      7g0      0.0000
      7g1-     0.0000
      7g2-     0.0000
      7g3-     0.0000
      7g4-     0.0000
      7h5+     0.0000
      7h4+     0.0000
      7h3+     0.0000
      7h2+     0.0000
      7h1+     0.0000
      7h0      0.0000
      7h1-     0.0000
      7h2-     0.0000
      7h3-     0.0000
      7h4-     0.0000
      7h5-     0.0000
      8s       0.0058
      8px      0.0087
      8pz      0.0086
      8py      0.0086
      8d2+     0.0000
      8d1+     0.0000
      8d0      0.0000
      8d1-     0.0000
      8d2-     0.0000
      8f3+     0.0000
      8f2+     0.0000
      8f1+     0.0000
      8f0      0.0000
      8f1-     0.0000
      8f2-     0.0000
      8f3-     0.0000
      8g4+     0.0000
      8g3+     0.0000
      8g2+     0.0000
      8g1+     0.0000
      8g0      0.0000
      8g1-     0.0000
      8g2-     0.0000
      8g3-     0.0000
      8g4-     0.0000
      9s       0.0061
      9px      0.0048
      9pz      0.0048
      9py      0.0048
      9d2+     0.0000
      9d1+     0.0000
      9d0      0.0000
      9d1-     0.0000
      9d2-     0.0000
     10s       0.0016
     10px      0.0011
     10pz      0.0010
     10py      0.0010
     10d2+     0.0000
     10d1+     0.0000
     10d0      0.0000
     10d1-     0.0000
     10d2-     0.0000
      Total   18.0000

      N-E     23.0000

      Total electronic charge=   18.000000

      Total            charge=   23.000000
--

 Sorry, Molden does not know how to handle
 functions with angular momentum larger than g

++    Static properties:
      ------------------


      LoProp Charges per center


                   NB    
      Nuclear     41.0000
      Electronic -18.0000

      Total       23.0000
--


++    Molecular properties:
      ---------------------

      Charge (e):
                      =   23.0000
      Dipole Moment (Debye):
      Origin of the operator (Ang)=    0.0000    0.0000    0.0000
                   X= -1.6693E-01               Y= -1.8981E-13               Z=  5.1157E-01           Total=  5.3811E-01
      Center of Charge (Ang)
                     X=   -0.00151100               Y=   -0.00000000               Z=    0.00463067
      Quadrupole Moment (Debye*Ang):
      Origin of the operator (Ang)=   -0.0000   -0.0000    0.0046
                  XX= -7.2168E-01              XY= -3.4119E-16              XZ=  2.6431E-06              YY= -7.2242E-01
                  YZ= -9.9870E-16              ZZ= -7.2242E-01
      In traceless form (Debye*Ang)
                  XX=  7.3987E-04              XY= -5.1178E-16              XZ=  3.9647E-06              YY= -3.6990E-04
                  YZ= -1.4980E-15              ZZ= -3.6997E-04
--

 Sorry, Molden does not know how to handle
 functions with angular momentum larger than g
 ###############################################################################
 ###############################################################################
 ###                                                                         ###
 ###                                                                         ###
 ###    WARNING: RunFile label nBas                                          ###
 ###    was used       62 times                                              ###
 ###                                                                         ###
 ###                                                                         ###
 ###############################################################################
 ###############################################################################
Note: The following floating-point exceptions are signalling: IEEE_UNDERFLOW_FLAG IEEE_DENORMAL
--- Stop Module: scf at Wed Mar 26 12:21:26 2025 /rc=_RC_ALL_IS_WELL_ ---
*** files: niobium_so_cf.LprOrb niobium_so_cf.ScfOrb xmldump
    saved to directory /home4/s4752295/Internship/Initial_simulations/Point_charge_model/1_electron/Madelung_charges_9_active_space/Nb
--- Module scf spent 5 seconds ---

*** symbolic link created: INPORB -> niobium_so_cf.ScfOrb
--- Start Module: rasscf at Wed Mar 26 12:21:26 2025 ---

()()()()()()()()()()()()()()()()()()()()()()()()()()()()()()()()()()()()()()()()()()()()()()()()()()

                                              &RASSCF

                                   only a single process is used
                       available to each process: 4.1 GB of memory, 1 thread?
                                            pid: 4152720
()()()()()()()()()()()()()()()()()()()()()()()()()()()()()()()()()()()()()()()()()()()()()()()()()()


      Header of the ONEINT file:
      --------------------------
      
      Integrals generated by seward 4.2.0  , Wed Mar 26 12:21:12 2025


      OrdInt status: non-squared


      Cartesian coordinates in Angstrom:
      -----------------------------------------------------
      No.  Label        X            Y            Z        
      -----------------------------------------------------
       1   NB        -0.00000000  -0.00000000   0.00463220
      -----------------------------------------------------
      Nuclear repulsion energy = -416.78622639

++    Wave function specifications:
      -----------------------------

      Number of closed shell electrons          18
      Number of electrons in active shells       1
      Max number of holes in RAS1 space          0
      Max nr of electrons in RAS3 space          0
      Number of inactive orbitals                9
      Number of active orbitals                  9
      Number of secondary orbitals             152
      Spin quantum number                      0.5
      State symmetry                             1
--

++    Orbital specifications:
      -----------------------

      Symmetry species                           1
                                                 a
      Frozen orbitals                            0
      Inactive orbitals                          9
      Active orbitals                            9
      RAS1 orbitals                              0
      RAS2 orbitals                              9
      RAS3 orbitals                              0
      Secondary orbitals                       152
      Deleted orbitals                           0
      Number of basis functions                170
--

++    CI expansion specifications:
      ----------------------------

      Number of CSFs                             9
      Number of determinants                     9
      Number of root(s) required                 9
      Root chosen for geometry opt.              9
      CI roots used                              1     2     3     4     5     6     7     8     9
      weights                                0.111 0.111 0.111 0.111 0.111 0.111 0.111 0.111 0.111
      highest root included in the CI            9
      max. size of the explicit Hamiltonian      9
--

++    Optimization specifications:
      ----------------------------

      RASSCF algorithm: Conventional
      Maximum number of macro iterations       200
      Maximum number of SX iterations          100
      Threshold for RASSCF energy            0.100E-07
      Threshold for max MO rotation          0.100E+00
      Threshold for max BLB element          0.100E-03
      Level shift parameter                  0.500E+00
      Make Quasi-Newton update
--

      The MO-coefficients are taken from the file:
      INPORB                                                                                                                          
      Title: SCF orbitals                                                                  

      Total molecular charge   22.00

      ************************************************************************************************************************
      *                                                                                                                      *
[...]
    10             0.0169627157        0.4615790098           3722.8858         2.1
    11            14.5109854687      394.8640303995        3184793.1865         0.6
    12            14.5109854687      394.8640303995        3184793.1865         0.6
    13            15.9270262144      433.3964620692        3495578.2071         1.3
    14            15.9270262144      433.3964620692        3495578.2071         1.3
    15            15.9270801902      433.3979308263        3495590.0534         1.3
    16            15.9270801902      433.3979308263        3495590.0534         1.3
    17            16.1311126060      438.9499356994        3540369.9927         1.2
    18            16.1311126060      438.9499356994        3540369.9927         1.2


 Weights of the five most important spin-orbit-free states for each spin-orbit state.

 SO State  Total energy (au)           Spin-free states, spin, and weights
 -------------------------------------------------------------------------------------------------------
    1         0.000000       1 0.5  1.0000    9 0.5  0.0000    8 0.5  0.0000    7 0.5  0.0000    6 0.5  0.0000
    2         0.000000       1 0.5  1.0000    9 0.5  0.0000    8 0.5  0.0000    7 0.5  0.0000    6 0.5  0.0000
    3         0.000002       2 0.5  1.0000    9 0.5  0.0000    8 0.5  0.0000    7 0.5  0.0000    6 0.5  0.0000
    4         0.000002       2 0.5  1.0000    9 0.5  0.0000    8 0.5  0.0000    7 0.5  0.0000    6 0.5  0.0000
    5         0.012312       3 0.5  1.0000    9 0.5  0.0000    8 0.5  0.0000    7 0.5  0.0000    6 0.5  0.0000
    6         0.012312       3 0.5  1.0000    9 0.5  0.0000    8 0.5  0.0000    7 0.5  0.0000    6 0.5  0.0000
    7         0.012316       4 0.5  1.0000    9 0.5  0.0000    8 0.5  0.0000    7 0.5  0.0000    6 0.5  0.0000
    8         0.012316       4 0.5  1.0000    9 0.5  0.0000    8 0.5  0.0000    7 0.5  0.0000    6 0.5  0.0000
    9         0.016963       5 0.5  1.0000    9 0.5  0.0000    8 0.5  0.0000    7 0.5  0.0000    6 0.5  0.0000
   10         0.016963       5 0.5  1.0000    9 0.5  0.0000    8 0.5  0.0000    7 0.5  0.0000    6 0.5  0.0000
   11        14.510985       6 0.5  1.0000    9 0.5  0.0000    8 0.5  0.0000    7 0.5  0.0000    5 0.5  0.0000
   12        14.510985       6 0.5  1.0000    9 0.5  0.0000    8 0.5  0.0000    7 0.5  0.0000    5 0.5  0.0000
   13        15.927026       7 0.5  1.0000    9 0.5  0.0000    8 0.5  0.0000    6 0.5  0.0000    5 0.5  0.0000
   14        15.927026       7 0.5  1.0000    9 0.5  0.0000    8 0.5  0.0000    6 0.5  0.0000    5 0.5  0.0000
   15        15.927080       8 0.5  1.0000    9 0.5  0.0000    7 0.5  0.0000    6 0.5  0.0000    5 0.5  0.0000
   16        15.927080       8 0.5  1.0000    9 0.5  0.0000    7 0.5  0.0000    6 0.5  0.0000    5 0.5  0.0000
   17        16.131113       9 0.5  1.0000    8 0.5  0.0000    7 0.5  0.0000    6 0.5  0.0000    5 0.5  0.0000
   18        16.131113       9 0.5  1.0000    8 0.5  0.0000    7 0.5  0.0000    6 0.5  0.0000    5 0.5  0.0000
 -------------------------------------------------------------------------------------------------------


      ****************************************************************************************************
      *                                                                                                  *
      *                                    Special properties section                                    *
      *                                                                                                  *
      ****************************************************************************************************


++ Dipole transition strengths (SO states):
   ----------------------------------------
    for osc. strength at least    1.0000000000000001E-005

      From   To        Osc. strength     Einstein coefficients Ax, Ay, Az (sec-1)    Total A (sec-1)
     -----------------------------------------------------------------------------------------------
         1   13       1.64439321E-02  1.91866849E-09  1.34024575E+11  1.31644427E-05  1.34024575E+11
         1   15       1.64460107E-02  1.26399479E+07  1.31701752E-05  1.34029785E+11  1.34042425E+11
         2   14       1.64439321E-02  1.91866849E-09  1.34024575E+11  1.31644427E-05  1.34024575E+11
         2   16       1.64460107E-02  1.26399479E+07  1.31701752E-05  1.34029785E+11  1.34042425E+11
         3   13       1.64434321E-02  2.56466597E+06  1.31684837E-05  1.34017907E+11  1.34020472E+11
         3   15       1.64461125E-02  5.30120040E-11  1.34043227E+11  1.31656841E-05  1.34043227E+11
         4   14       1.64434321E-02  2.56466597E+06  1.31684837E-05  1.34017907E+11  1.34020472E+11
         4   16       1.64461125E-02  5.30120040E-11  1.34043227E+11  1.31656841E-05  1.34043227E+11
         5   11       1.52354067E-03  1.77532825E+05  1.37234029E-06  1.02899310E+10  1.02901085E+10
         5   13       1.71220763E-02  1.39335507E+11  4.45701918E-11  5.40212655E+05  1.39336047E+11
         5   17       1.42791800E-02  1.55118808E+06  1.59036887E-05  1.19198951E+11  1.19200502E+11
         6   12       1.52354067E-03  1.77532825E+05  1.37234029E-06  1.02899310E+10  1.02901085E+10
         6   14       1.71220763E-02  1.39335507E+11  4.45701918E-11  5.40212655E+05  1.39336047E+11
         6   18       1.42791800E-02  1.55118808E+06  1.59036887E-05  1.19198951E+11  1.19200502E+11
         7   11       1.52303240E-03  2.82002021E-10  1.02866697E+10  1.37260184E-06  1.02866697E+10
         7   15       1.71211920E-02  1.39320761E+11  1.12051021E-09  8.96092105E+06  1.39329721E+11
         7   17       1.42780339E-02  3.16492189E-09  1.19190872E+11  1.59034454E-05  1.19190872E+11
         8   12       1.52303240E-03  2.82002021E-10  1.02866697E+10  1.37260184E-06  1.02866697E+10
         8   16       1.71211920E-02  1.39320761E+11  1.12051021E-09  8.96092105E+06  1.39329721E+11
         8   18       1.42780339E-02  3.16492189E-09  1.19190872E+11  1.59034454E-05  1.19190872E+11
         9   11       2.09558218E-03  1.41444924E+10  1.00124055E-10  1.49263545E+05  1.41446416E+10
         9   13       5.30661681E-03  9.89919931E+05  6.08382639E-06  4.31579659E+10  4.31589558E+10
         9   15       5.30463852E-03  6.81265653E-10  4.31431589E+10  6.08064910E-06  4.31431589E+10
         9   17       2.03320731E-02  1.69629834E+11  1.23612245E-09  1.40492250E+06  1.69631239E+11
        10   12       2.09558218E-03  1.41444924E+10  1.00124055E-10  1.49263545E+05  1.41446416E+10
        10   14       5.30661681E-03  9.89919931E+05  6.08382639E-06  4.31579659E+10  4.31589558E+10
        10   16       5.30463852E-03  6.81265653E-10  4.31431589E+10  6.08064910E-06  4.31431589E+10
        10   18       2.03320731E-02  1.69629834E+11  1.23612245E-09  1.40492250E+06  1.69631239E+11
        11   13       1.85036991E-01  2.41776213E+04  1.68022069E-06  1.19211609E+10  1.19211851E+10
        11   15       1.85034431E-01  3.53915902E-12  1.19219290E+10  1.68049563E-06  1.19219290E+10
        11   17       1.66650114E-01  1.40543963E+10  7.56680817E-15  3.19403898E+04  1.40544282E+10
        12   14       1.85036991E-01  2.41776213E+04  1.68022069E-06  1.19211609E+10  1.19211851E+10
        12   16       1.85034431E-01  3.53915902E-12  1.19219290E+10  1.68049563E-06  1.19219290E+10
        12   18       1.66650114E-01  1.40543963E+10  7.56680817E-15  3.19403898E+04  1.40544282E+10
        13   17       2.43436521E-03  1.53403336E+01  4.59521381E-10  3.25777552E+06  3.25779086E+06
        14   18       2.43436521E-03  1.53403336E+01  4.59521381E-10  3.25777552E+06  3.25779086E+06
        15   17       2.43552334E-03  2.57188198E-15  3.25761693E+06  4.58822599E-10  3.25761693E+06
        16   18       2.43552334E-03  2.57188198E-15  3.25761693E+06  4.58822599E-10  3.25761693E+06
     -----------------------------------------------------------------------------------------------
--

++ Velocity transition strengths (SO states):
   ------------------------------------------
    for osc. strength at least    1.0000000000000001E-005

      From   To        Osc. strength     Einstein coefficients Ax, Ay, Az (sec-1)    Total A (sec-1)
     -----------------------------------------------------------------------------------------------
         1    3       1.76361502E-03  1.36999059E-22  1.52765347E-04  2.53541847E-20  1.52765347E-04
         1    5       2.29114172E-02  1.47857141E-17  1.11590617E+05  2.03852047E-11  1.11590617E+05
         1    7       2.28983057E-02  7.91746071E-02  2.03721087E-11  1.11602949E+05  1.11603029E+05
         1   13       1.67104689E-02  1.77604654E-09  1.36197429E+11  1.33818568E-05  1.36197429E+11
         1   15       1.67123108E-02  1.19424780E+07  1.33879819E-05  1.36201423E+11  1.36213365E+11
         2    4       1.76361502E-03  1.36999059E-22  1.52765347E-04  2.53541847E-20  1.52765347E-04
         2    6       2.29114172E-02  1.47857141E-17  1.11590617E+05  2.03852047E-11  1.11590617E+05
         2    8       2.28983057E-02  7.91746071E-02  2.03721087E-11  1.11602949E+05  1.11603029E+05
         2   14       1.67104689E-02  1.77604654E-09  1.36197429E+11  1.33818568E-05  1.36197429E+11
         2   16       1.67123108E-02  1.19424780E+07  1.33879819E-05  1.36201423E+11  1.36213365E+11
         3    5       2.29051592E-02  1.48220603E-01  2.03763693E-11  1.11530236E+05  1.11530384E+05
         3    7       2.29081134E-02  8.32314108E-18  1.11621063E+05  2.03580057E-11  1.11621063E+05
         3   13       1.67099938E-02  2.28678064E+06  1.33859832E-05  1.36191242E+11  1.36193529E+11
         3   15       1.67127038E-02  3.52383436E-11  1.36216540E+11  1.33830998E-05  1.36216540E+11
         4    6       2.29051592E-02  1.48220603E-01  2.03763693E-11  1.11530236E+05  1.11530384E+05
         4    8       2.29081134E-02  8.32314108E-18  1.11621063E+05  2.03580057E-11  1.11621063E+05
         4   14       1.67099938E-02  2.28678064E+06  1.33859832E-05  1.36191242E+11  1.36193529E+11
         4   16       1.67127038E-02  3.52383436E-11  1.36216540E+11  1.33830998E-05  1.36216540E+11
         5    7       1.00768125E-04  7.33268046E-22  5.73664391E-05  5.85545633E-19  5.73664391E-05
         5    9       1.86964524E-01  1.37159617E-01  1.73281080E-11  1.29923894E+05  1.29924031E+05
         5   11       1.57031996E-03  1.79691104E+05  1.41476933E-06  1.06059166E+10  1.06060963E+10
         5   13       1.69636488E-02  1.38046611E+11  4.57480816E-11  6.64621918E+05  1.38047275E+11
         5   17       1.46745780E-02  1.52657491E+06  1.63424465E-05  1.22500125E+11  1.22501652E+11
         6    8       1.00768125E-04  7.33268046E-22  5.73664391E-05  5.85545633E-19  5.73664391E-05
         6   10       1.86964524E-01  1.37159617E-01  1.73281080E-11  1.29923894E+05  1.29924031E+05
         6   12       1.57031996E-03  1.79691104E+05  1.41476933E-06  1.06059166E+10  1.06060963E+10
         6   14       1.69636488E-02  1.38046611E+11  4.57480816E-11  6.64621918E+05  1.38047275E+11
         6   18       1.46745780E-02  1.52657491E+06  1.63424465E-05  1.22500125E+11  1.22501652E+11
         7    9       1.87089508E-01  2.90365722E-17  1.29775642E+05  1.73159899E-11  1.29775642E+05
         7   11       1.56997578E-03  2.89213913E-10  1.06037655E+10  1.41477344E-06  1.06037655E+10
         7   15       1.69633878E-02  1.38036386E+11  1.13783941E-09  9.62849638E+06  1.38046015E+11
         7   17       1.46736745E-02  3.11539272E-09  1.22494045E+11  1.63416044E-05  1.22494045E+11
         8   10       1.87089508E-01  2.90365722E-17  1.29775642E+05  1.73159899E-11  1.29775642E+05
         8   12       1.56997578E-03  2.89213913E-10  1.06037655E+10  1.41477344E-06  1.06037655E+10
         8   16       1.69633878E-02  1.38036386E+11  1.13783941E-09  9.62849638E+06  1.38046015E+11
         8   18       1.46736745E-02  3.11539272E-09  1.22494045E+11  1.63416044E-05  1.22494045E+11
         9   11       2.11760411E-03  1.42931806E+10  1.08837706E-10  1.53128778E+05  1.42933337E+10
         9   13       5.52451050E-03  9.79532771E+05  6.33387274E-06  4.49302717E+10  4.49312512E+10
         9   15       5.52220083E-03  6.77364947E-10  4.49127712E+10  6.33095823E-06  4.49127712E+10
         9   17       1.99930624E-02  1.66802006E+11  1.26491776E-09  1.43474648E+06  1.66803440E+11
        10   12       2.11760411E-03  1.42931806E+10  1.08837706E-10  1.53128778E+05  1.42933337E+10
        10   14       5.52451050E-03  9.79532771E+05  6.33387274E-06  4.49302717E+10  4.49312512E+10
        10   16       5.52220083E-03  6.77364947E-10  4.49127712E+10  6.33095823E-06  4.49127712E+10
        10   18       1.99930624E-02  1.66802006E+11  1.26491776E-09  1.43474648E+06  1.66803440E+11
        11   13       1.74268343E-01  2.27021934E+04  1.58255232E-06  1.12274210E+10  1.12274437E+10
        11   15       1.74265873E-01  3.35946259E-12  1.12281405E+10  1.58256355E-06  1.12281405E+10
        11   17       1.56512695E-01  1.31995053E+10  5.25004007E-15  3.01094066E+04  1.31995355E+10
        12   14       1.74268343E-01  2.27021934E+04  1.58255232E-06  1.12274210E+10  1.12274437E+10
        12   16       1.74265873E-01  3.35946259E-12  1.12281405E+10  1.58256355E-06  1.12281405E+10
        12   18       1.56512695E-01  1.31995053E+10  5.25004007E-15  3.01094066E+04  1.31995355E+10
        13   17       4.13821500E-03  1.93813616E+01  7.80846872E-10  5.53796885E+06  5.53798823E+06
        14   18       4.13821500E-03  1.93813616E+01  7.80846872E-10  5.53796885E+06  5.53798823E+06
        15   17       4.14001957E-03  3.60249718E-15  5.53747300E+06  7.80501849E-10  5.53747300E+06
        16   18       4.14001957E-03  3.60249718E-15  5.53747300E+06  7.80501849E-10  5.53747300E+06
     -----------------------------------------------------------------------------------------------
--

++ Length and velocity gauge comparison (SO states):

 --------------------------------------------------
 A comparison between the dipole oscillator strengths in 
 length and velocity gauge will be performed

 All dipole oscillator differences above the tolerance of   0.10000000000000001       will be printed 

 Due to basis set deficiency these oscillator may be problematic 

 The tolerance is defined as ABS(1-O_l/O_v) 
 O_l : dipole oscillator strength in length gauge
 O_p : dipole oscillator strength in velocity gauge
 --------------------------------------------------

  Problematic transitions have been found

      From   To       Difference (%) Osc. st. (len.) Osc. st. (vel.)
     ---------------------------------------------------------------
         1    3      --------------- below threshold  1.76361502E-03
         1    5      --------------- below threshold  2.29114172E-02
         1    7      --------------- below threshold  2.28983057E-02
         2    4      --------------- below threshold  1.76361502E-03
         2    6      --------------- below threshold  2.29114172E-02
         2    8      --------------- below threshold  2.28983057E-02
         3    5      --------------- below threshold  2.29051592E-02
         3    7      --------------- below threshold  2.29081134E-02
         4    6      --------------- below threshold  2.29051592E-02
         4    8      --------------- below threshold  2.29081134E-02
         5    7      --------------- below threshold  1.00768125E-04
         5    9      --------------- below threshold  1.86964524E-01
         6    8      --------------- below threshold  1.00768125E-04
         6   10      --------------- below threshold  1.86964524E-01
         7    9      --------------- below threshold  1.87089508E-01
         8   10      --------------- below threshold  1.87089508E-01
        13   17            41.173544  2.43436521E-03  4.13821500E-03
        14   18            41.173544  2.43436521E-03  4.13821500E-03
        15   17            41.171212  2.43552334E-03  4.14001957E-03
        16   18            41.171212  2.43552334E-03  4.14001957E-03
     ---------------------------------------------------------------

 Number of problematic transitions =                    20

--

 Electric-dipole - electric-octupole not included
++ Total transition strengths for the second-order expansion of the wave vector (SO states):
   -----------------------------------------------------------------------------------------
    for osc. strength at least    1.0000000000000001E-005

      From   To        Osc. strength
     -------------------------------
         9   11       1.01067990E-05
        10   12       1.01067990E-05
     -------------------------------
--

++ I/O STATISTICS
 
  I. General I/O information
  - - - - - - - - - - - - - - - - - - - - - - - - - - - - - - - - - - - - - - - - - - -
  Unit  Name          Flsize      Write/Read            MBytes           Write/Read
                      (MBytes)       Calls              In/Out           Time, sec.
  - - - - - - - - - - - - - - - - - - - - - - - - - - - - - - - - - - - - - - - - - - -
   1  SCRATCH           0.00 .       9/      45 .      0.0/      0.0 .       0/       0
   2  ANNI              0.00 .       0/       0 .      0.0/      0.0 .       0/       0
   3  RUNFILE          14.69 .     322/   10733 .      2.3/     77.8 .       0/       0
   4  ONEINT            5.14 .       0/   22237 .      0.0/   3722.5 .       0/       0
   5  JOBIPH            5.91 .       0/      92 .      0.0/      0.7 .       0/       0
   6  ORDINT          403.03 .       1/    3225 .      0.0/    806.0 .       0/       0
  - - - - - - - - - - - - - - - - - - - - - - - - - - - - - - - - - - - - - - - - - - -
   *  TOTAL           428.78 .     332/   36332 .      2.3/   4607.0 .       0/       0
  - - - - - - - - - - - - - - - - - - - - - - - - - - - - - - - - - - - - - - - - - - -
 
  II. I/O Access Patterns
  - - - - - - - - - - - - - - - - - - - -
  Unit  Name               % of random
                         Write/Read calls
  - - - - - - - - - - - - - - - - - - - -
   1  SCRATCH             88.9/ 100.0
   2  ANNI                 0.0/   0.0
   3  RUNFILE             28.6/  10.8
   4  ONEINT               0.0/  17.4
   5  JOBIPH               0.0/  76.1
   6  ORDINT             100.0/   0.1
  - - - - - - - - - - - - - - - - - - - -
--
--- Stop Module: rassi at Wed Mar 26 12:21:58 2025 /rc=_RC_ALL_IS_WELL_ ---
*** files: xmldump
    saved to directory /home4/s4752295/Internship/Initial_simulations/Point_charge_model/1_electron/Madelung_charges_9_active_space/Nb
--- Module rassi spent 2 seconds ---

.##################.
.# Happy landing! #.
.##################.

    Timing: Wall=43.39 User=35.59 System=6.66

###############################################################################
Hbrk Cluster
Job 15905704 for user s4752295
Finished at: Wed Mar 26 12:22:02 CET 2025

Job details:
============

Job ID                         : 15905704
Name                           : Nb_no_SO
User                           : s4752295
Partition                      : regularmedium
Nodes                          : node101
Number of Nodes                : 1
Cores                          : 1
Number of Tasks                : 1
State                          : COMPLETED  
Submit                         : 2025-03-26T12:20:33
Start                          : 2025-03-26T12:21:07
End                            : 2025-03-26T12:21:58
Reserved walltime              : 15:00:00
Used walltime                  : 00:00:51
Used CPU time                  : 00:00:43 (Efficiency: 85.16%)
% User (Computation)           : 84.15%
% System (I/O)                 : 15.85%
Total memory reserved          : 25000M
Maximum memory used            : 1.42G

Acknowledgements:
=================

Please see this page for information about acknowledging Hbrk in your publications:

https://wiki.hpc.rug.nl/habrok/introduction/scientific_output

################################################################################
