   This run of MOLCAS is using the pymolcas driver

                             OPE
                             OPE          NMOL  CASOP  ENMOLC A   SO
                 OPE        NMOLC        AS  OP EN  MO LC     AS  OP
                OPENM       OL CA        SO  PE NM  OL CA     SOP EN
                OP EN      MO   LC       AS  OP ENMOL  CASO   PENMOL
                OP  EN     MO   LC       AS  OP EN     MO     LC ASO
               OP   E  NMOL  C  AS       OP  EN MO     LC     AS  OP
               OP  E   NMO   LC AS        OPEN  MO     LCASOP EN   M
               O  PEN   MO  LCA  SO
            OPE   NMO   L   CAS    OP
        OPENMOL  CASOP     ENMOL   CASOPE
     OPENMOLCA   SOPENMOLCASOPEN   MOLCASOPE
    OPENMOLCAS   OP           EN   MOL    CAS
    OPENMOLCAS       OP  ENM        O     LCA
    OPENMOLCAS    OPEN  MOLCASO     P  E  NMO
    OPENMOLCAS     OP               E  N  MOL
    OPENMOLCA   SO           PENM   O  L  CAS    OPEN    MO    LCAS
    OPENMOLCA   SOP           ENM   O  L  CAS   OP  EN  MOLC  AS   O
    OPENMOLCA   SOPE           NM      O  LCA   S      OP  EN MO
    OPENMOLC                AS         O  PEN   M      OL  CA  SOPE
    OPENMO        LCASOPE  NMOL        C  ASO   P      ENMOLC     AS
    OPE     NMO      LCA  SO     P     E   NM   OL  CA SO  PE N   MO
          OPENMOLCA            SOPE   NMO        LCAS  O    P  ENMO
     OPENMOLCASOPENMOLCASOPENMOLCASOPENMOLCA
        OPENMOLCASOPENMOLCASOPENMOLCASOPE
            OPENMOLCASOPENMOLCASOPENM
               OPENMOLCASOPENMOLCA        version: o91e1abe7de707b ?
                   OPENMOLCASO
                       OPE                tag:

 OpenMolcas is free software; you can redistribute it and/or modify it
 under the terms of the GNU Lesser General Public License version 2.1.
 OpenMolcas is distributed in the hope that it will be useful, but it
 is provided "as is" and without any express or implied warranties.
 For more details see the full text of the license in the file
 LICENSE or in <http://www.gnu.org/licenses/>.

                 Copyright (C) The OpenMolcas Authors
           For the author list and the recommended citation,
                   consult the file CONTRIBUTORS.md

           *************************************************
           * pymolcas version py2.10                       *
           *   build 3068ae8b88c9345ec6cfef6fef7f1169      *
           *   (after the EMIL interpreter by V. Veryazov) *
           *************************************************

configuration info
------------------
Host name: login1 (Linux)
C Compiler ID: GNU
C flags: -std=gnu99
Fortran Compiler ID: GNU
Fortran flags: -fno-aggressive-loop-optimizations -cpp -fdefault-integer-8 -fmax-stack-var-size=1048576
Definitions: _MOLCAS_;_I8_;_LINUX_;_MKL_
Parallel: OFF (GA=OFF)


   -----------------------------------------------------------------------------------------------------------------------------------
  |
  |           Project: niobium_so_cf
  |    Submitted from: /home4/s4752295/Internship/Initial_simulations/Point_charge_model/1_electron/Madelung_charges_9_active_space/Nb
  |      Scratch area: /tmp/niobium_so_cf
  |   Save outputs to: /home4/s4752295/Internship/Initial_simulations/Point_charge_model/1_electron/Madelung_charges_9_active_space/Nb
  |            Molcas: /home4/s4752295/Internship/Molcas/recomp_try/OpenMolcas-master/build
  |
  | Scratch area is empty
  |
  |    MOLCAS_DRIVER = /home4/s4752295/Internship/Molcas/bin/pymolcas
  |    MOLCAS_NPROCS = 1
  |    MOLCAS_SOURCE = /home4/s4752295/Internship/Molcas/recomp_try/OpenMolcas-master
  | MOLCAS_STRUCTURE = 0
  |
   -----------------------------------------------------------------------------------------------------------------------------------

++ ---------   Input file   ---------

&SEWARD
AMFi

CLIG
$R

Basis Set
Nb.ANO-rcc.Roos.21s18p13d6f4g2h.10s9p8d5f4g2h.
Spherical d
Nb            -1.0658140267135469e-14   -3.5527134223784897e-15 0.008753588724385739
End of Basis

Xfield

414
-2.00110054,-0.77,0.4445595     -0.625931
-2.00110054,-0.0,-0.8891195     -0.625931
-2.00110054,0.77,0.4445595      -0.625931
-1.997673035,0.0,0.0    1.892092
1.329589845,-0.77,-0.4445595    2.515516
1.329589845,0.0,0.8891195       2.515516
1.329589845,0.77,-0.4445595     2.515516
1.78149414,-1.54,0.0    0.004632
1.78149414,-0.77,-1.333679      0.004632
1.78149414,-0.77,1.333679       0.004632
1.78149414,0.77,-1.333679       0.004632
1.78149414,0.77,1.333679        0.004632
1.78149414,1.54,0.0     0.004632
2.064575195,-0.77,0.4445595     -2.519484
2.064575195,-0.0,-0.8891195     -2.519484
2.064575195,0.77,0.4445595      -2.519484
-1.466552735,-0.0,-0.0  -3.142907
-2.48754883,-1.54,-0.8891195    -0.625931
-2.48754883,0.0,1.7782385       -0.625931
-2.48754883,1.54,-0.8891195     -0.625931
-3.3046875,-1.54,0.0    1.892092
-3.3046875,-0.77,-1.333679      1.892092
-3.3046875,-0.77,1.333679       1.892092
-3.3046875,0.77,-1.333679       1.892092
-3.3046875,0.77,1.333679        1.892092
-3.3046875,1.54,0.0     1.892092
12.5859375,-1.54,0.8891195      2.515516
12.5859375,-0.0,-1.7782385      2.515516
12.5859375,1.54,0.8891195       2.515516
1.81933594,-1.54,-0.8891195     -2.519484
1.81933594,0.0,1.7782385        -2.519484
1.81933594,1.54,-0.8891195      -2.519484
-1.61621094,-1.54,-0.0  -3.142907
-1.61621094,-0.77,-1.333679     -3.142907
-1.61621094,-0.77,1.333679      -3.142907
-1.61621094,0.77,-1.333679      -3.142907
-1.61621094,0.77,1.333679       -3.142907
-1.61621094,1.54,-0.0   -3.142907
-4.76171875,-1.54,1.7782385     -0.625931
-4.76171875,1.54,1.7782385      -0.625931
-4.76171875,-2.31,0.4445595     -0.625931
-4.76171875,2.31,0.4445595      -0.625931
-4.76171875,-0.77,-2.2227985    -0.625931
-4.76171875,0.77,-2.2227985     -0.625931
3.00390625,-0.77,-0.4445595     4.409069
3.00390625,0.77,-0.4445595      4.409069
3.00390625,0.0,0.8891195        4.409069
-87.625,-0.0,-0.0       -5.030367
-87.625,0.0,0.0 5.039632
6.75878906,-1.54,-1.7782385     2.515516
6.75878906,1.54,-1.7782385      2.515516
6.75878906,-2.31,-0.4445595     2.515516
6.75878906,2.31,-0.4445595      2.515516
6.75878906,-0.77,2.2227985      2.515516
6.75878906,0.77,2.2227985       2.515516
9.51953125,-2.31,-1.333679      0.004632
9.51953125,-2.31,1.333679       0.004632
9.51953125,2.31,-1.333679       0.004632
9.51953125,2.31,1.333679        0.004632
9.51953125,-0.0,-2.667358       0.004632
9.51953125,0.0,2.667358 0.004632
24.0390625,-1.54,1.7782385      -2.519484
24.0390625,1.54,1.7782385       -2.519484
24.0390625,-2.31,0.4445595      -2.519484
24.0390625,2.31,0.4445595       -2.519484
24.0390625,-0.77,-2.2227985     -2.519484
24.0390625,0.77,-2.2227985      -2.519484
-72.9375,-2.31,-1.333679        1.892092
-72.9375,-2.31,1.333679 1.892092
-72.9375,2.31,-1.333679 1.892092
-72.9375,2.31,1.333679  1.892092
-72.9375,-0.0,-2.667358 1.892092
-72.9375,0.0,2.667358   1.892092
-58.875,-1.54,0.8891195 4.409069
-58.875,-0.0,-1.7782385 4.409069
-58.875,1.54,0.8891195  4.409069
-44.5,-1.54,-0.0        -5.030367
-44.5,-0.77,-1.333679   -5.030367
-44.5,-0.77,1.333679    -5.030367
-44.5,0.77,-1.333679    -5.030367
-44.5,-1.54,0.0 5.039632
-44.5,1.54,-0.0 -5.030367
-44.5,0.77,1.333679     -5.030367
-44.5,-0.77,-1.333679   5.039632
-44.5,-0.77,1.333679    5.039632
-44.5,0.77,-1.333679    5.039632
-44.5,1.54,0.0  5.039632
-44.5,0.77,1.333679     5.039632
-23.3125,-0.77,-0.4445595       -5.660931
-23.3125,0.0,0.8891195  -5.660931
-23.3125,0.77,-0.4445595        -5.660931
0.44140625,-3.0799995,0.0       0.004632
0.44140625,-1.54,-2.667358      0.004632
0.44140625,-1.54,2.667358       0.004632
0.44140625,1.54,-2.667358       0.004632
0.44140625,3.0799995,0.0        0.004632
0.44140625,1.54,2.667358        0.004632
33.96875,-2.31,1.333679 -3.142907
33.96875,-2.31,-1.333679        -3.142907
33.96875,2.31,-1.333679 -3.142907
33.96875,2.31,1.333679  -3.142907
33.96875,-0.0,-2.667358 -3.142907
33.96875,0.0,2.667358   -3.142907
43.1875,-3.0799995,-0.8891195   -0.625931
43.1875,-2.31,-2.2227985        -0.625931
43.1875,-0.77,3.1119175 -0.625931
43.1875,2.31,-2.2227985 -0.625931
43.1875,3.0799995,-0.8891195    -0.625931
43.1875,0.77,3.1119175  -0.625931
0.59863281,-3.0799995,0.0       1.892092
0.59863281,-1.54,-2.667358      1.892092
0.59863281,-1.54,2.667358       1.892092
0.59863281,1.54,-2.667358       1.892092
0.59863281,3.0799995,0.0        1.892092
0.59863281,1.54,2.667358        1.892092
16.921875,-1.54,-1.7782385      4.409069
16.921875,1.54,-1.7782385       4.409069
16.921875,-2.31,-0.4445595      4.409069
16.921875,2.31,-0.4445595       4.409069
16.921875,-0.77,2.2227985       4.409069
16.921875,0.77,2.2227985        4.409069
81.203125,-1.54,0.8891195       -5.660931
81.203125,-0.0,-1.7782385       -5.660931
81.203125,1.54,0.8891195        -5.660931
0.171875,-3.0799995,0.8891195   2.515516
0.171875,-0.77,-3.1119175       2.515516
0.171875,-2.31,2.2227985        2.515516
0.171875,0.77,-3.1119175        2.515516
0.171875,3.0799995,0.8891195    2.515516
0.171875,2.31,2.2227985 2.515516
-47.09375,-3.0799995,-0.8891195 -2.519484
-47.09375,-2.31,-2.2227985      -2.519484
-47.09375,-0.77,3.1119175       -2.519484
-47.09375,2.31,-2.2227985       -2.519484
-47.09375,0.77,3.1119175        -2.519484
-47.09375,3.0799995,-0.8891195  -2.519484
-11.03515625,-3.0799995,-0.0    -3.142907
-11.03515625,-1.54,-2.667358    -3.142907
-11.03515625,-1.54,2.667358     -3.142907
-11.03515625,1.54,-2.667358     -3.142907
-11.03515625,1.54,2.667358      -3.142907
-11.03515625,3.0799995,-0.0     -3.142907
303.25,0.0,0.0  6.927092
161.625,-3.0799995,1.7782385    -0.625931
161.625,3.0799995,1.7782385     -0.625931
161.625,-0.0,-3.5564775 -0.625931
-2.7109375,-2.31,1.333679       -5.030367
-2.7109375,-2.31,-1.333679      -5.030367
-2.7109375,-2.31,1.333679       5.039632
-2.7109375,-2.31,-1.333679      5.039632
-2.7109375,2.31,-1.333679       -5.030367
-2.7109375,2.31,1.333679        -5.030367
-2.7109375,2.31,-1.333679       5.039632
-2.7109375,2.31,1.333679        5.039632
-2.7109375,-0.0,-2.667358       -5.030367
-2.7109375,0.0,2.667358 -5.030367
-2.7109375,-0.0,-2.667358       5.039632
-2.7109375,0.0,2.667358 5.039632
45.90625,-1.54,-1.7782385       -5.660931
45.90625,1.54,-1.7782385        -5.660931
45.90625,-2.31,-0.4445595       -5.660931
45.90625,2.31,-0.4445595        -5.660931
45.90625,-0.77,2.2227985        -5.660931
45.90625,0.77,2.2227985 -5.660931
150.25,-3.0799995,-1.7782385    2.515516
150.25,3.0799995,-1.7782385     2.515516
150.25,0.0,3.5564775    2.515516
-258.625,-3.0799995,1.7782385   -2.519484
-258.625,3.0799995,1.7782385    -2.519484
-258.625,-0.0,-3.5564775        -2.519484
26.78125,-1.54,0.0      6.927092
26.78125,-0.77,-1.333679        6.927092
26.78125,-0.77,1.333679 6.927092
26.78125,0.77,-1.333679 6.927092
26.78125,0.77,1.333679  6.927092
26.78125,1.54,0.0       6.927092
-27.625,-0.77,0.4445595 7.550516
-27.625,0.0,-0.8891195  7.550516
-27.625,0.77,0.4445595  7.550516
7.765625,-0.77,-0.4445595       -7.554483
7.765625,0.77,-0.4445595        -7.554483
7.765625,-0.0,0.8891195 -7.554483
-62.4375,-3.8499995,0.4445595   -0.625931
-62.4375,-2.31,3.1119175        -0.625931
-62.4375,-1.54,-3.5564775       -0.625931
-62.4375,1.54,-3.5564775        -0.625931
-62.4375,3.8499995,0.4445595    -0.625931
-62.4375,2.31,3.1119175 -0.625931
-33.71875,-3.0799995,0.8891195  4.409069
-33.71875,-2.31,2.2227985       4.409069
-33.71875,-0.77,-3.1119175      4.409069
-33.71875,0.77,-3.1119175       4.409069
-33.71875,2.31,2.2227985        4.409069
-33.71875,3.0799995,0.8891195   4.409069
24.578125,-3.0799995,-0.0       -5.030367
24.578125,-1.54,-2.667358       -5.030367
24.578125,-1.54,2.667358        -5.030367
24.578125,-3.0799995,0.0        5.039632
24.578125,-1.54,-2.667358       5.039632
24.578125,1.54,-2.667358        -5.030367
24.578125,1.54,2.667358 -5.030367
24.578125,3.0799995,-0.0        -5.030367
24.578125,-1.54,2.667358        5.039632
24.578125,1.54,-2.667358        5.039632
24.578125,3.0799995,0.0 5.039632
24.578125,1.54,2.667358 5.039632
90.375,-3.8499995,-0.4445595    2.515516
90.375,-2.31,-3.1119175 2.515516
90.375,-1.54,3.5564775  2.515516
90.375,2.31,-3.1119175  2.515516
90.375,3.8499995,-0.4445595     2.515516
90.375,1.54,3.5564775   2.515516
-11.671875,-3.8499995,-1.333679 0.004632
-11.671875,-3.8499995,1.333679  0.004632
-11.671875,-3.0799995,-2.667358 0.004632
-11.671875,-3.0799995,2.667358  0.004632
-11.671875,-0.77,-4.001037      0.004632
-11.671875,0.77,-4.001037       0.004632
-11.671875,-0.77,4.001037       0.004632
-11.671875,3.0799995,-2.667358  0.004632
-11.671875,0.77,4.001037        0.004632
-11.671875,3.8499995,-1.333679  0.004632
-11.671875,3.8499995,1.333679   0.004632
-11.671875,3.0799995,2.667358   0.004632
-71.5625,-3.8499995,0.4445595   -2.519484
-71.5625,-2.31,3.1119175        -2.519484
-71.5625,-1.54,-3.5564775       -2.519484
-71.5625,1.54,-3.5564775        -2.519484
-71.5625,3.8499995,0.4445595    -2.519484
-71.5625,2.31,3.1119175 -2.519484
1516.0,-0.0,-0.0        -8.177907
-58.0,-1.54,-0.8891195  7.550516
-58.0,0.0,1.7782385     7.550516
-58.0,1.54,-0.8891195   7.550516
-301.75,-1.54,0.8891195 -7.554483
-301.75,-0.0,-1.7782385 -7.554483
-301.75,1.54,0.8891195  -7.554483
24.453125,-3.8499995,1.333679   1.892092
24.453125,-3.8499995,-1.333679  1.892092
24.453125,-3.0799995,-2.667358  1.892092
24.453125,-3.0799995,2.667358   1.892092
24.453125,-0.77,-4.001037       1.892092
24.453125,0.77,-4.001037        1.892092
24.453125,-0.77,4.001037        1.892092
24.453125,3.0799995,-2.667358   1.892092
24.453125,0.77,4.001037 1.892092
24.453125,3.8499995,-1.333679   1.892092
24.453125,3.8499995,1.333679    1.892092
24.453125,3.0799995,2.667358    1.892092
-252.5,-3.0799995,-1.7782385    4.409069
-252.5,3.0799995,-1.7782385     4.409069
-252.5,0.0,3.5564775    4.409069
12.91015625,-3.0799995,0.8891195        -5.660931
12.91015625,-0.77,-3.1119175    -5.660931
12.91015625,-2.31,2.2227985     -5.660931
12.91015625,0.77,-3.1119175     -5.660931
12.91015625,2.31,2.2227985      -5.660931
12.91015625,3.0799995,0.8891195 -5.660931
-29.09375,-3.0799995,-2.667358  -3.142907
-29.09375,-3.8499995,1.333679   -3.142907
-29.09375,-3.8499995,-1.333679  -3.142907
-29.09375,-3.0799995,2.667358   -3.142907
-29.09375,-0.77,-4.001037       -3.142907
-29.09375,0.77,-4.001037        -3.142907
-29.09375,-0.77,4.001037        -3.142907
-29.09375,3.8499995,-1.333679   -3.142907
-29.09375,3.0799995,-2.667358   -3.142907
-29.09375,0.77,4.001037 -3.142907
-29.09375,3.8499995,1.333679    -3.142907
-29.09375,3.0799995,2.667358    -3.142907
32.703125,-2.31,-1.333679       6.927092
32.703125,-2.31,1.333679        6.927092
32.703125,2.31,-1.333679        6.927092
32.703125,2.31,1.333679 6.927092
32.703125,-0.0,-2.667358        6.927092
32.703125,0.0,2.667358  6.927092
-41.625,-1.54,-0.0      -8.177907
-41.625,-0.77,1.333679  -8.177907
-41.625,-0.77,-1.333679 -8.177907
-41.625,0.77,-1.333679  -8.177907
-41.625,1.54,-0.0       -8.177907
-41.625,0.77,1.333679   -8.177907
-45.453125,-1.54,1.7782385      7.550516
-45.453125,1.54,1.7782385       7.550516
-45.453125,-2.31,0.4445595      7.550516
-45.453125,2.31,0.4445595       7.550516
-45.453125,-0.77,-2.2227985     7.550516
-45.453125,0.77,-2.2227985      7.550516
-22.84375,-1.54,-1.7782385      -7.554483
-22.84375,1.54,-1.7782385       -7.554483
-22.84375,-2.31,-0.4445595      -7.554483
-22.84375,2.31,-0.4445595       -7.554483
-22.84375,-0.77,2.2227985       -7.554483
-22.84375,0.77,2.2227985        -7.554483
-250.125,0.0,4.4455965  -0.625931
-250.125,-3.8499995,-2.2227985  -0.625931
-250.125,3.8499995,-2.2227985   -0.625931
-134.875,-3.8499995,-0.4445595  4.409069
-134.875,-2.31,-3.1119175       4.409069
-134.875,-1.54,3.5564775        4.409069
-134.875,2.31,-3.1119175        4.409069
-134.875,3.8499995,-0.4445595   4.409069
-134.875,1.54,3.5564775 4.409069
155.1875,-3.0799995,-1.7782385  -5.660931
155.1875,3.0799995,-1.7782385   -5.660931
155.1875,0.0,3.5564775  -5.660931
293.5,-0.0,-4.4455965   2.515516
293.5,-3.8499995,2.2227985      2.515516
293.5,3.8499995,2.2227985       2.515516
-46.9375,-4.6199995,-0.0        0.004632
-46.9375,2.31,-4.001037 0.004632
-46.9375,-2.31,4.001037 0.004632
-46.9375,4.6199995,-0.0 0.004632
-46.9375,-2.31,-4.001037        0.004632
-46.9375,2.31,4.001037  0.004632
-192.875,0.0,4.4455965  -2.519484
-192.875,-3.8499995,-2.2227985  -2.519484
-192.875,3.8499995,-2.2227985   -2.519484
114.0,-3.0799995,0.0    6.927092
114.0,-1.54,-2.667358   6.927092
114.0,-1.54,2.667358    6.927092
114.0,1.54,-2.667358    6.927092
114.0,3.0799995,0.0     6.927092
114.0,1.54,2.667358     6.927092
105.9375,-4.6199995,-0.8891195  -0.625931
105.9375,-1.54,4.4455965        -0.625931
105.9375,-3.0799995,-3.5564775  -0.625931
105.9375,3.0799995,-3.5564775   -0.625931
105.9375,1.54,4.4455965 -0.625931
105.9375,4.6199995,-0.8891195   -0.625931
55.96875,-4.6199995,0.0 1.892092
55.96875,-2.31,-4.001037        1.892092
55.96875,-2.31,4.001037 1.892092
55.96875,2.31,-4.001037 1.892092
55.96875,4.6199995,0.0  1.892092
55.96875,2.31,4.001037  1.892092
-2.16015625,-3.8499995,1.333679 -5.030367
-2.16015625,-3.8499995,-1.333679        -5.030367
-2.16015625,-3.0799995,-2.667358        -5.030367
-2.16015625,-3.0799995,2.667358 -5.030367
-2.16015625,-3.8499995,1.333679 5.039632
-2.16015625,0.77,-4.001037      -5.030367
-2.16015625,-0.77,-4.001037     -5.030367
-2.16015625,-3.8499995,-1.333679        5.039632
-2.16015625,-3.0799995,-2.667358        5.039632
-2.16015625,-0.77,4.001037      -5.030367
-2.16015625,0.77,-4.001037      5.039632
-2.16015625,-3.0799995,2.667358 5.039632
-2.16015625,-0.77,-4.001037     5.039632
-2.16015625,3.0799995,-2.667358 -5.030367
-2.16015625,0.77,4.001037       -5.030367
-2.16015625,3.8499995,-1.333679 -5.030367
-2.16015625,3.8499995,1.333679  -5.030367
-2.16015625,3.0799995,2.667358  -5.030367
-2.16015625,-0.77,4.001037      5.039632
-2.16015625,3.0799995,-2.667358 5.039632
-2.16015625,3.8499995,-1.333679 5.039632
-2.16015625,0.77,4.001037       5.039632
-2.16015625,3.8499995,1.333679  5.039632
-2.16015625,3.0799995,2.667358  5.039632
-0.34375,-3.8499995,-0.4445595  -5.660931
-0.34375,-2.31,-3.1119175       -5.660931
-0.34375,-1.54,3.5564775        -5.660931
-0.34375,2.31,-3.1119175        -5.660931
-0.34375,1.54,3.5564775 -5.660931
-0.34375,3.8499995,-0.4445595   -5.660931
58.0,-0.77,0.4445595    9.444068
58.0,0.0,-0.8891195     9.444068
58.0,0.77,0.4445595     9.444068
25.65625,-4.6199995,0.8891195   2.515516
25.65625,-1.54,-4.4455965       2.515516
25.65625,1.54,-4.4455965        2.515516
25.65625,-3.0799995,3.5564775   2.515516
25.65625,4.6199995,0.8891195    2.515516
25.65625,3.0799995,3.5564775    2.515516
78.4375,-4.6199995,-0.8891195   -2.519484
78.4375,-1.54,4.4455965 -2.519484
78.4375,-3.0799995,-3.5564775   -2.519484
78.4375,3.0799995,-3.5564775    -2.519484
78.4375,4.6199995,-0.8891195    -2.519484
78.4375,1.54,4.4455965  -2.519484
109.8125,-4.6199995,-0.0        -3.142907
109.8125,-2.31,-4.001037        -3.142907
109.8125,-2.31,4.001037 -3.142907
109.8125,2.31,-4.001037 -3.142907
109.8125,4.6199995,-0.0 -3.142907
109.8125,2.31,4.001037  -3.142907
4.322753905,-2.31,-1.333679     -8.177907
4.322753905,-2.31,1.333679      -8.177907
4.322753905,2.31,1.333679       -8.177907
4.322753905,2.31,-1.333679      -8.177907
4.322753905,-0.0,-2.667358      -8.177907
4.322753905,0.0,2.667358        -8.177907
125.9375,-2.31,-2.2227985       7.550516
125.9375,-3.0799995,-0.8891195  7.550516
125.9375,-0.77,3.1119175        7.550516
125.9375,2.31,-2.2227985        7.550516
125.9375,0.77,3.1119175 7.550516
125.9375,3.0799995,-0.8891195   7.550516
-174.0,-2.31,2.2227985  -7.554483
-174.0,-3.0799995,0.8891195     -7.554483
-174.0,-0.77,-3.1119175 -7.554483
-174.0,0.77,-3.1119175  -7.554483
-174.0,3.0799995,0.8891195      -7.554483
-174.0,2.31,2.2227985   -7.554483
35.6328125,-3.8499995,3.1119175 -0.625931
35.6328125,-4.6199995,1.7782385 -0.625931
35.6328125,-0.77,-4.8901565     -0.625931
35.6328125,0.77,-4.8901565      -0.625931
35.6328125,4.6199995,1.7782385  -0.625931
35.6328125,3.8499995,3.1119175  -0.625931
-241.875,-0.0,-4.4455965        4.409069
-241.875,-3.8499995,2.2227985   4.409069
-241.875,3.8499995,2.2227985    4.409069

End of input

&SCF
Occupied
9
Iterations
   50  100
End of Input

&RASSCF
LumOrb
Symmetry
1
Spin
2
Nactel
1 0 0
CIRoot
9 9 1
inactive
9
ras2
9
End of Input

>>> COPY niobium_so_cf.JobIph $SLURM_SUBMIT_DIR/niobium_so_cf.doublet.JobIph

>>> COPY $SLURM_SUBMIT_DIR/niobium_so_cf.doublet.JobIph ./JOB002

&RASSI
NROFJobIph
1 All
SpinOrbit
End of Input

EOF

-- ----------------------------------

--- Start Module: seward at Wed Mar 26 11:18:57 2025 ---

()()()()()()()()()()()()()()()()()()()()()()()()()()()()()()()()()()()()()()()()()()()()()()()()()()

                                              &SEWARD

                                   only a single process is used
                       available to each process: 4.1 GB of memory, 1 thread?
                                            pid: 3920761
()()()()()()()()()()()()()()()()()()()()()()()()()()()()()()()()()()()()()()()()()()()()()()()()()()

 The speed of LIGHT in this CALCULATION =   137.03599917700001     
               SEWARD will generate:
                  Multipole Moment integrals up to order  2
                  Kinetic Energy integrals
                  Nuclear Attraction integrals (point charge)
                  One-Electron Hamiltonian integrals
                  Velocity integrals
                  Relativistic Douglas-Kroll-Hess integrals:
                    - Parametrization         : EXP
                    - DKH order of Hamiltonian: 2
                    - DKH order of Properties : 0
                         - multipole moment operators
                         - electric potential operators
                         - contact operators
                  External field from   414 point(s) added to the one-electron Hamiltonian
                  Orbital angular momentum around (-0.0000 -0.0000  0.0088 )
                  Velocity quadrupole around (-0.0000 -0.0000  0.0088 )
                  Atomic mean-field integrals
                  Two-Electron Repulsion integrals

                   Integrals are discarded if absolute value <: 0.10E-13
                   Integral cutoff threshold is set to       <: 0.10E-15

++    Symmetry information:
      ---------------------

                    Character Table for C1 

                             E  
                    a        1  x, y, xy, Rz, z, xz, Ry, yz, Rx, I
--


++    Basis set information:
      ----------------------


      Basis set label: NB.ANO-RCC.ROOS.21S18P13D6F4G2H.10S9P8D5F4G2H......

      Electronic valence basis set:
      ------------------
      Associated Effective Charge  41.000000 au
      Associated Actual Charge     41.000000 au
      Nuclear Model: Point charge

      Shell  nPrim  nBasis  Cartesian Spherical Contaminant
         s      21      10        X                  
         p      18       9        X                  
         d      13       8                 X         
         f       6       5                 X         
         g       4       4                 X         
         h       2       2                 X         
--


++    Molecular structure info:
      -------------------------

                    ************************************************ 
                    **** Cartesian Coordinates / Bohr, Angstrom **** 
                    ************************************************ 

     Center  Label                x              y              z                     x              y              z
        1      NB              -0.000000      -0.000000       0.008754             -0.000000      -0.000000       0.004632
--


++    Operator info:
      --------------


  Net charge from external field:   -39.268449999999902     
--


            Nuclear Potential Energy              0.00000000 au

                    Nuclear-External Field Potential Energy    -750.21425428 au
                    External Field Potential Energy            3211.27380277 au 


            Total Nuclear Potential Energy           -750.21425428 au


      Basis set specifications :
      Symmetry species         a  
      Basis functions          170

 Sorry, Molden does not know how to handle
 functions with angular momentum larger than g
Note: The following floating-point exceptions are signalling: IEEE_UNDERFLOW_FLAG IEEE_DENORMAL
--- Stop Module: seward at Wed Mar 26 11:19:05 2025 /rc=_RC_ALL_IS_WELL_ ---
*** files: niobium_so_cf.GssOrb xmldump
    saved to directory /home4/s4752295/Internship/Initial_simulations/Point_charge_model/1_electron/Madelung_charges_9_active_space/Nb
--- Module seward spent 8 seconds ---

*** symbolic link created: INPORB -> niobium_so_cf.GssOrb
--- Start Module: scf at Wed Mar 26 11:19:05 2025 ---

()()()()()()()()()()()()()()()()()()()()()()()()()()()()()()()()()()()()()()()()()()()()()()()()()()

                                                &SCF

                                   only a single process is used
                       available to each process: 4.1 GB of memory, 1 thread?
                                            pid: 3920770
()()()()()()()()()()()()()()()()()()()()()()()()()()()()()()()()()()()()()()()()()()()()()()()()()()

++    Input section:
      --------------

      Header of the integral files:
      
       Integrals generated by seward 4.2.0  , Wed Mar 26 11:18:58 2025


      Cartesian coordinates in Angstrom:
      -----------------------------------------------------
      No.  Label        X            Y            Z        
      -----------------------------------------------------
       1   NB        -0.00000000  -0.00000000   0.00463220
      -----------------------------------------------------
      Nuclear repulsion energy = -750.21425428
--

++    Orbital specifications:
      -----------------------

      Symmetry species               1
                                     a
      Frozen orbitals                0
      Occupied orbitals              9
      Secondary orbitals           161
      Deleted orbitals               0
      Total number of orbitals     170
      Number of basis functions    170
--

      Molecular charge                          23.000

++    Optimization specifications:
      ----------------------------

      SCF Algorithm: Conventional
      Minimized density differences are used
      Number of density matrices in core                5
      Maximum number of NDDO SCF iterations            50
      Maximum number of HF SCF iterations             100
      Threshold for SCF energy change            0.10E-08
      Threshold for density matrix               0.10E-03
      Threshold for Fock matrix                  0.15E-03
      Threshold for linear dependence            0.10E-08
      Threshold at which DIIS is turned on       0.15E+00
      Threshold at which QNR/C2DIIS is turned on 0.75E-01
      Threshold for Norm(delta) (QNR/C2DIIS)     0.20E-04
      DIIS extrapolation of the SCF procedure
      All orbitals punched on: SCFORB
--

      Detected guessorb starting orbitals                                             


++ Convergence information
                                   SCF        iterations: Energy and convergence statistics

Iter     Tot. SCF        One-elec.       Two-elec.     Energy      Max Dij or  Max Fij      DNorm      TNorm      AccCon     Time
         Energy          Energy          Energy        Change      Delta Norm                                                in Sec.

 The total and one-electron energies are shifted by a value of      3000. a.u.

   1  -906.908393728  -759.170396404   602.476256953   0.00E+00    0.28E+00*   0.28E+01*    0.60E+01   0.31E+03   None         1.
   2  -913.139334381  -801.286311961   638.361231856  -0.62E+01*   0.27E-01*   0.26E+00*    0.15E+01   0.32E+03   EDIIS        1.
   3  -913.167853309  -799.343880113   636.390281081  -0.29E-01*   0.45E-02*   0.25E-01*    0.82E-01   0.32E+03   EDIIS        1.
   4  -913.168109679  -799.487689084   636.533833681  -0.26E-03*   0.26E-03*   0.30E-02*    0.51E-02   0.32E+03   c2DIIS       1.
   5  -913.168113701  -799.478900884   636.525041460  -0.40E-05*   0.49E-04*   0.31E-03*    0.59E-03   0.32E+03   QNRc2DIIS    1.
   6  -913.168113746  -799.478745461   636.524885992  -0.45E-07*   0.24E-04*   0.74E-04     0.45E-04   0.32E+03   QNRc2DIIS    1.
   7  -913.168113751  -799.478746647   636.524887173  -0.53E-08*   0.37E-06    0.18E-05     0.34E-05   0.32E+03   QNRc2DIIS    1.
   8  -913.168113751  -799.478752936   636.524893462  -0.59E-11    0.27E-07    0.22E-06     0.52E-02   0.32E+03   QNRc2DIIS    1.

       Convergence after  8 Macro Iterations
--

 *****************************************************************************************************************************
 *                                                                                                                           *
 *                                             SCF/KS-DFT Program, Final results                                             *
 *                                                                                                                           *
 *                                                                                                                           *
 *                                                                                                                           *
 *                                                       Final Results                                                       *
 *                                                                                                                           *
 *****************************************************************************************************************************

::    Total SCF energy                              -3913.1681137509
      One-electron energy                           -3799.4787529364
      Two-electron energy                             636.5248934618
      Nuclear repulsion energy                       -750.2142542763
      Kinetic energy (interpolated)                  3882.8267473074
      Virial theorem                                    1.0078142468
      Total spin, S(S+1)                                0.0000000000
      Total spin, S                                     0.0000000000
      Max non-diagonal density matrix element           0.0000000435
      Max non-diagonal Fock matrix element              0.0000000214


      All orbitals with orbital energies smaller than  E(LUMO)+0.5 are printed

++    Molecular orbitals:
      -------------------

      Title: SCF orbitals

      Molecular orbitals for symmetry species 1: a  

          Orbital            1         2         3         4         5         6         7         8         9        10    
          Energy         -718.9483 -117.9837 -107.1437 -107.1437 -107.1348  -29.1579  -25.2953  -25.2952  -25.1120  -18.3606
          Occ. No.          2.0000    2.0000    2.0000    2.0000    2.0000    2.0000    2.0000    2.0000    2.0000    0.0000

        1 NB     1s         1.0000   -0.0001    0.0000    0.0000   -0.0000    0.0001   -0.0000    0.0000    0.0000    0.0000
        2 NB     2s         0.0001    0.9999    0.0000    0.0000   -0.0101    0.0124    0.0000    0.0000   -0.0033   -0.0000
        3 NB     3s        -0.0001   -0.0120   -0.0000   -0.0000    0.0013    0.9748    0.0003    0.0000   -0.1641   -0.0000
        4 NB     4s         0.0000    0.0029    0.0000    0.0000   -0.0003   -0.0963   -0.0000   -0.0000    0.0265    0.0000
        5 NB     5s        -0.0000   -0.0007   -0.0000   -0.0000    0.0001    0.0215    0.0000   -0.0000   -0.0060   -0.0000
        6 NB     6s         0.0000    0.0009    0.0000    0.0000   -0.0001   -0.0264   -0.0000   -0.0000    0.0074    0.0000
        7 NB     7s        -0.0000   -0.0023   -0.0000   -0.0000    0.0002    0.0644    0.0000    0.0000   -0.0183   -0.0000
        8 NB     8s         0.0000    0.0022    0.0000    0.0000   -0.0002   -0.0519   -0.0000   -0.0000    0.0149    0.0000
        9 NB     9s        -0.0000   -0.0028   -0.0000   -0.0000    0.0002    0.0533    0.0000    0.0000   -0.0154   -0.0000
       10 NB    10s         0.0001    0.0027    0.0000    0.0000   -0.0002   -0.0277   -0.0000   -0.0000    0.0079    0.0000
       11 NB     2px        0.0000    0.0102   -0.0058   -0.0000    0.9998    0.0012   -0.0000   -0.0000    0.0142    0.0000
       12 NB     3px       -0.0000    0.0009    0.0001    0.0000   -0.0135    0.1686   -0.0034   -0.0000    0.9641    0.0000
       13 NB     4px        0.0000   -0.0002   -0.0000   -0.0000    0.0029   -0.0118    0.0004    0.0000   -0.1056   -0.0000
       14 NB     5px       -0.0000    0.0001    0.0000    0.0000   -0.0010    0.0035   -0.0001   -0.0000    0.0330    0.0000
       15 NB     6px        0.0000   -0.0002   -0.0000   -0.0000    0.0025   -0.0080    0.0003    0.0000   -0.0795   -0.0000
       16 NB     7px       -0.0000    0.0002    0.0000    0.0000   -0.0023    0.0059   -0.0002   -0.0000    0.0640    0.0000
       17 NB     8px        0.0000   -0.0002   -0.0000   -0.0000    0.0028   -0.0053    0.0002    0.0000   -0.0653   -0.0000
       18 NB     9px       -0.0000    0.0002    0.0000    0.0000   -0.0027    0.0034   -0.0002   -0.0000    0.0490    0.0000
       19 NB    10px        0.0000   -0.0002   -0.0000   -0.0000    0.0022   -0.0012    0.0001    0.0000   -0.0230   -0.0000
       20 NB     2py        0.0000    0.0000   -0.0000    0.9999    0.0000    0.0000   -0.0000    0.0141    0.0000    0.0000
       21 NB     3py       -0.0000   -0.0000    0.0000   -0.0134   -0.0000    0.0000   -0.0000    0.9812    0.0000    0.0018
       22 NB     4py        0.0000    0.0000   -0.0000    0.0029    0.0000   -0.0000    0.0000   -0.1057   -0.0000   -0.0004
       23 NB     5py       -0.0000   -0.0000    0.0000   -0.0010   -0.0000    0.0000   -0.0000    0.0329    0.0000    0.0001
       24 NB     6py        0.0000    0.0000   -0.0000    0.0025    0.0000   -0.0000    0.0000   -0.0792   -0.0000   -0.0003
       25 NB     7py       -0.0000   -0.0000    0.0000   -0.0023   -0.0000    0.0000   -0.0000    0.0637    0.0000    0.0002
       26 NB     8py        0.0000    0.0000   -0.0000    0.0028    0.0000   -0.0000    0.0000   -0.0647   -0.0000   -0.0002
       27 NB     9py       -0.0000   -0.0000    0.0000   -0.0027   -0.0000    0.0000   -0.0000    0.0483    0.0000    0.0002
       28 NB    10py        0.0000    0.0000   -0.0000    0.0022    0.0000   -0.0000    0.0000   -0.0225   -0.0000   -0.0001
       29 NB     2pz        0.0000    0.0000    0.9999    0.0000    0.0058    0.0000    0.0141    0.0000    0.0001    0.0000
       30 NB     3pz       -0.0000    0.0000   -0.0134   -0.0000   -0.0001    0.0003    0.9812    0.0000    0.0034    0.0000
       31 NB     4pz        0.0000   -0.0000    0.0029    0.0000    0.0000   -0.0000   -0.1057   -0.0000   -0.0004   -0.0000
       32 NB     5pz       -0.0000    0.0000   -0.0010   -0.0000   -0.0000    0.0000    0.0329    0.0000    0.0001    0.0000
       33 NB     6pz        0.0000   -0.0000    0.0025    0.0000    0.0000   -0.0000   -0.0792   -0.0000   -0.0003   -0.0000
       34 NB     7pz       -0.0000    0.0000   -0.0023   -0.0000   -0.0000    0.0000    0.0637    0.0000    0.0002    0.0000
       35 NB     8pz        0.0000   -0.0000    0.0028    0.0000    0.0000   -0.0000   -0.0647   -0.0000   -0.0002   -0.0000
       36 NB     9pz       -0.0000    0.0000   -0.0027   -0.0000   -0.0000    0.0000    0.0483    0.0000    0.0002    0.0000
       37 NB    10pz        0.0000   -0.0000    0.0022    0.0000    0.0000   -0.0000   -0.0225   -0.0000   -0.0001   -0.0000
       38 NB     3d2-      -0.0000    0.0000   -0.0000    0.0008    0.0000    0.0000   -0.0000    0.0860    0.0000   -0.0221
       39 NB     4d2-       0.0000   -0.0000    0.0000   -0.0001   -0.0000   -0.0000    0.0000   -0.0049   -0.0000    0.0021
       40 NB     5d2-      -0.0000    0.0000   -0.0000    0.0001    0.0000    0.0000   -0.0000    0.0046    0.0000   -0.0021
       41 NB     6d2-       0.0000   -0.0000    0.0000   -0.0001   -0.0000   -0.0000    0.0000   -0.0036   -0.0000    0.0018
       42 NB     7d2-      -0.0000    0.0000   -0.0000    0.0001    0.0000    0.0000   -0.0000    0.0029    0.0000   -0.0016
       43 NB     8d2-       0.0000   -0.0000    0.0000   -0.0002   -0.0000    0.0000    0.0000   -0.0025   -0.0000    0.0021
       44 NB     9d2-      -0.0000    0.0000   -0.0000    0.0002    0.0000   -0.0000   -0.0000    0.0012    0.0000   -0.0017
       45 NB    10d2-      -0.0000    0.0000   -0.0000    0.0002    0.0000   -0.0000    0.0000   -0.0002    0.0000   -0.0015
       46 NB     3d1-       0.0000   -0.0000   -0.0000    0.0000    0.0000   -0.0000   -0.0000    0.0001   -0.0000    0.9743
       47 NB     4d1-      -0.0000    0.0000    0.0000   -0.0000   -0.0000    0.0000    0.0000   -0.0000    0.0000   -0.0946
       48 NB     5d1-       0.0000    0.0000   -0.0000    0.0000    0.0000   -0.0000   -0.0000    0.0000   -0.0000    0.0957
       49 NB     6d1-      -0.0000   -0.0000    0.0000   -0.0000   -0.0000    0.0000    0.0000   -0.0000    0.0000   -0.0841
       50 NB     7d1-       0.0000   -0.0000   -0.0000    0.0000    0.0000   -0.0000   -0.0000    0.0000   -0.0000    0.0752
       51 NB     8d1-      -0.0000   -0.0000    0.0000   -0.0000    0.0000    0.0000    0.0000   -0.0000    0.0000   -0.0945
       52 NB     9d1-       0.0000    0.0000   -0.0000    0.0000   -0.0000   -0.0000   -0.0000    0.0000   -0.0000    0.0766
       53 NB    10d1-       0.0000    0.0000   -0.0000    0.0000   -0.0000   -0.0000    0.0000   -0.0000   -0.0000    0.0673
       54 NB     3d0        0.0000    0.0000    0.0000    0.0000   -0.0005   -0.0018    0.0004    0.0000   -0.0541   -0.0000
       55 NB     4d0       -0.0000   -0.0000   -0.0000   -0.0000    0.0001    0.0000   -0.0000   -0.0000    0.0031    0.0000
       56 NB     5d0        0.0000    0.0000    0.0000    0.0000   -0.0001    0.0000    0.0000    0.0000   -0.0029   -0.0000
       57 NB     6d0       -0.0000   -0.0000   -0.0000   -0.0000    0.0001   -0.0000   -0.0000   -0.0000    0.0023    0.0000
       58 NB     7d0        0.0000    0.0000    0.0000    0.0000   -0.0001    0.0000    0.0000    0.0000   -0.0018   -0.0000
       59 NB     8d0       -0.0000   -0.0000   -0.0000   -0.0000    0.0001   -0.0001   -0.0000   -0.0000    0.0016    0.0000
       60 NB     9d0        0.0000    0.0000    0.0000    0.0000   -0.0001    0.0001    0.0000    0.0000   -0.0008   -0.0000
       61 NB    10d0        0.0000    0.0000    0.0000    0.0000   -0.0001    0.0001    0.0000    0.0000   -0.0000   -0.0000
       62 NB     3d1+      -0.0000   -0.0000    0.0008    0.0000    0.0000   -0.0000    0.0861    0.0000    0.0005   -0.0000
       63 NB     4d1+       0.0000    0.0000   -0.0001   -0.0000   -0.0000    0.0000   -0.0049   -0.0000   -0.0000    0.0000
       64 NB     5d1+      -0.0000   -0.0000    0.0001    0.0000    0.0000   -0.0000    0.0046    0.0000    0.0000   -0.0000
       65 NB     6d1+       0.0000    0.0000   -0.0001   -0.0000   -0.0000    0.0000   -0.0036   -0.0000   -0.0000    0.0000
       66 NB     7d1+      -0.0000   -0.0000    0.0001    0.0000    0.0000    0.0000    0.0029    0.0000    0.0000   -0.0000
       67 NB     8d1+       0.0000    0.0000   -0.0002   -0.0000   -0.0000   -0.0000   -0.0025   -0.0000   -0.0000    0.0000
       68 NB     9d1+      -0.0000   -0.0000    0.0002    0.0000    0.0000    0.0000    0.0012    0.0000    0.0000   -0.0000
       69 NB    10d1+      -0.0000   -0.0000    0.0002    0.0000    0.0000    0.0000   -0.0002   -0.0000   -0.0000   -0.0000
       70 NB     3d2+      -0.0000   -0.0001   -0.0000   -0.0000    0.0008    0.0032   -0.0003   -0.0000    0.0937   -0.0000
       71 NB     4d2+       0.0000    0.0000    0.0000    0.0000   -0.0001   -0.0000    0.0000    0.0000   -0.0054    0.0000
       72 NB     5d2+      -0.0000   -0.0000   -0.0000   -0.0000    0.0001   -0.0000   -0.0000   -0.0000    0.0050   -0.0000
       73 NB     6d2+       0.0000    0.0000    0.0000    0.0000   -0.0001    0.0000    0.0000    0.0000   -0.0040    0.0000
       74 NB     7d2+      -0.0000   -0.0000   -0.0000   -0.0000    0.0001   -0.0001   -0.0000   -0.0000    0.0032   -0.0000
       75 NB     8d2+       0.0000    0.0000    0.0000    0.0000   -0.0002    0.0001    0.0000    0.0000   -0.0028    0.0000
       76 NB     9d2+      -0.0000   -0.0000   -0.0000   -0.0000    0.0002   -0.0001   -0.0000   -0.0000    0.0014   -0.0000
       77 NB    10d2+      -0.0000   -0.0000   -0.0000   -0.0000    0.0002   -0.0001    0.0000    0.0000    0.0000   -0.0000
       78 NB     4f3-      -0.0000    0.0000    0.0000   -0.0000   -0.0000    0.0000   -0.0000    0.0001    0.0000   -0.0002
       79 NB     5f3-       0.0000    0.0000    0.0000   -0.0000   -0.0000    0.0000   -0.0000    0.0001    0.0000   -0.0002
       80 NB     6f3-      -0.0000   -0.0000   -0.0000    0.0000    0.0000   -0.0000    0.0000   -0.0001   -0.0000    0.0002
       81 NB     7f3-       0.0000    0.0000    0.0000   -0.0000   -0.0000    0.0000   -0.0000    0.0001    0.0000   -0.0002
       82 NB     8f3-      -0.0000   -0.0000    0.0000   -0.0000   -0.0000    0.0000   -0.0000    0.0000    0.0000   -0.0001
       83 NB     4f2-      -0.0000    0.0000    0.0000   -0.0000   -0.0000    0.0000    0.0000   -0.0001   -0.0000    0.0041
       84 NB     5f2-      -0.0000    0.0000    0.0000   -0.0000   -0.0000    0.0000    0.0000   -0.0001   -0.0000    0.0047
       85 NB     6f2-       0.0000   -0.0000   -0.0000    0.0000    0.0000   -0.0000   -0.0000    0.0001    0.0000   -0.0046
       86 NB     7f2-      -0.0000    0.0000    0.0000   -0.0000   -0.0000    0.0000    0.0000   -0.0001   -0.0000    0.0044
       87 NB     8f2-      -0.0000    0.0000    0.0000   -0.0000   -0.0000   -0.0000    0.0000   -0.0000   -0.0000    0.0031
       88 NB     4f1-      -0.0000    0.0000   -0.0000    0.0000    0.0000    0.0000    0.0000   -0.0000   -0.0000    0.0001
       89 NB     5f1-      -0.0000    0.0000   -0.0000    0.0000   -0.0000    0.0000    0.0000   -0.0000   -0.0000    0.0001
       90 NB     6f1-       0.0000    0.0000    0.0000   -0.0000    0.0000   -0.0000   -0.0000    0.0000    0.0000   -0.0001
       91 NB     7f1-      -0.0000   -0.0000   -0.0000    0.0000    0.0000   -0.0000    0.0000   -0.0000   -0.0000    0.0001
       92 NB     8f1-       0.0000   -0.0000   -0.0000    0.0000    0.0000    0.0000    0.0000   -0.0000   -0.0000    0.0000
       93 NB     4f0        0.0000    0.0000    0.0000    0.0000    0.0000    0.0000   -0.0001   -0.0000    0.0001    0.0000
       94 NB     5f0        0.0000    0.0000    0.0000    0.0000    0.0000    0.0000   -0.0001   -0.0000    0.0001    0.0000
       95 NB     6f0        0.0000    0.0000   -0.0000   -0.0000   -0.0000   -0.0000    0.0001    0.0000   -0.0001   -0.0000
       96 NB     7f0       -0.0000   -0.0000    0.0000    0.0000    0.0000    0.0000   -0.0000   -0.0000    0.0000    0.0000
       97 NB     8f0        0.0000    0.0000    0.0000    0.0000    0.0000    0.0000   -0.0000   -0.0000    0.0000    0.0000
       98 NB     4f1+       0.0000   -0.0000    0.0000    0.0000    0.0000   -0.0001    0.0001    0.0000    0.0000   -0.0000
       99 NB     5f1+       0.0000   -0.0000    0.0000    0.0000    0.0000   -0.0001    0.0001    0.0000    0.0000   -0.0000
      100 NB     6f1+      -0.0000    0.0000   -0.0000   -0.0000   -0.0000    0.0001   -0.0001   -0.0000   -0.0000    0.0000
      101 NB     7f1+       0.0000   -0.0000    0.0000    0.0000    0.0000   -0.0001    0.0000    0.0000    0.0000   -0.0000
      102 NB     8f1+       0.0000   -0.0000    0.0000    0.0000    0.0000   -0.0001    0.0000    0.0000    0.0000   -0.0000
      103 NB     4f2+       0.0000    0.0000   -0.0000   -0.0000    0.0000    0.0000    0.0001    0.0000    0.0000   -0.0000
      104 NB     5f2+       0.0000    0.0000   -0.0000   -0.0000    0.0000    0.0000    0.0001    0.0000    0.0000   -0.0000
      105 NB     6f2+       0.0000    0.0000    0.0000    0.0000   -0.0000   -0.0000   -0.0001   -0.0000   -0.0000    0.0000
      106 NB     7f2+      -0.0000   -0.0000   -0.0000   -0.0000    0.0000    0.0000    0.0001    0.0000    0.0000   -0.0000
      107 NB     8f2+       0.0000    0.0000   -0.0000   -0.0000    0.0000    0.0000    0.0000    0.0000    0.0000   -0.0000
      108 NB     4f3+      -0.0000    0.0000    0.0000    0.0000   -0.0000    0.0001    0.0001    0.0000   -0.0000   -0.0000
      109 NB     5f3+      -0.0000    0.0000    0.0000    0.0000   -0.0000    0.0002    0.0001    0.0000   -0.0000   -0.0000
      110 NB     6f3+       0.0000   -0.0000   -0.0000   -0.0000    0.0000   -0.0001   -0.0000   -0.0000    0.0000    0.0000
      111 NB     7f3+      -0.0000    0.0000    0.0000    0.0000   -0.0000    0.0001    0.0000    0.0000   -0.0000   -0.0000
      112 NB     8f3+      -0.0000    0.0000    0.0000    0.0000   -0.0000    0.0001    0.0000    0.0000   -0.0000   -0.0000
      113 NB     5g4-      -0.0000   -0.0000   -0.0000    0.0000    0.0000   -0.0000   -0.0000    0.0001    0.0000   -0.0000
      114 NB     6g4-       0.0000   -0.0000    0.0000   -0.0000   -0.0000    0.0000    0.0000   -0.0001   -0.0000   -0.0000
      115 NB     7g4-      -0.0000    0.0000   -0.0000    0.0000    0.0000    0.0000   -0.0000    0.0002    0.0000    0.0000
      116 NB     8g4-       0.0000   -0.0000    0.0000   -0.0000   -0.0000   -0.0000    0.0000   -0.0002   -0.0000   -0.0000
      117 NB     5g3-       0.0000   -0.0000    0.0000   -0.0000   -0.0000    0.0000    0.0000   -0.0001   -0.0000   -0.0000
      118 NB     6g3-      -0.0000    0.0000   -0.0000    0.0000    0.0000    0.0000   -0.0000    0.0001    0.0000    0.0001
      119 NB     7g3-       0.0000   -0.0000    0.0000   -0.0000   -0.0000    0.0000    0.0000   -0.0001   -0.0000   -0.0002
      120 NB     8g3-      -0.0000   -0.0000   -0.0000    0.0000    0.0000   -0.0000   -0.0000    0.0000    0.0000    0.0004
      121 NB     5g2-      -0.0000    0.0000    0.0000   -0.0000    0.0000   -0.0000    0.0000   -0.0000   -0.0000   -0.0000
      122 NB     6g2-       0.0000   -0.0000   -0.0000    0.0000    0.0000    0.0000   -0.0000    0.0001    0.0000    0.0000
      123 NB     7g2-      -0.0000    0.0000    0.0000   -0.0000   -0.0000   -0.0000    0.0000   -0.0001   -0.0000   -0.0000
      124 NB     8g2-       0.0000   -0.0000   -0.0000    0.0000    0.0000    0.0000   -0.0000    0.0001    0.0000    0.0000
      125 NB     5g1-       0.0000    0.0000    0.0000   -0.0000   -0.0000    0.0000   -0.0000    0.0000    0.0000    0.0000
      126 NB     6g1-      -0.0000   -0.0000    0.0000   -0.0000   -0.0000    0.0000    0.0000   -0.0000    0.0000   -0.0000
      127 NB     7g1-       0.0000   -0.0000   -0.0000    0.0000    0.0000    0.0000   -0.0000    0.0000    0.0000    0.0001
      128 NB     8g1-      -0.0000    0.0000    0.0000   -0.0000   -0.0000    0.0000    0.0000   -0.0000    0.0000   -0.0001
      129 NB     5g0       -0.0000   -0.0000   -0.0000   -0.0000    0.0000   -0.0000   -0.0000   -0.0000    0.0001   -0.0000
      130 NB     6g0       -0.0000    0.0000    0.0000    0.0000   -0.0000    0.0000    0.0000    0.0000   -0.0001    0.0000
      131 NB     7g0        0.0000    0.0000   -0.0000   -0.0000    0.0000   -0.0000   -0.0000   -0.0000    0.0001   -0.0000
      132 NB     8g0        0.0000    0.0000    0.0000    0.0000   -0.0000    0.0000    0.0000    0.0000   -0.0001    0.0000
      133 NB     5g1+       0.0000    0.0000   -0.0000   -0.0000    0.0000    0.0001   -0.0001   -0.0000    0.0000    0.0000
      134 NB     6g1+      -0.0000   -0.0000    0.0000    0.0000   -0.0000   -0.0001    0.0001    0.0000   -0.0000    0.0000
      135 NB     7g1+      -0.0000    0.0000   -0.0000   -0.0000    0.0000    0.0001   -0.0001   -0.0000    0.0000   -0.0000
      136 NB     8g1+       0.0000   -0.0000    0.0000    0.0000   -0.0000   -0.0001    0.0001    0.0000   -0.0000    0.0000
      137 NB     5g2+       0.0000    0.0000    0.0000    0.0000   -0.0000    0.0000    0.0000    0.0000   -0.0001    0.0000
      138 NB     6g2+       0.0000   -0.0000   -0.0000   -0.0000    0.0000   -0.0000   -0.0000   -0.0000    0.0001   -0.0000
      139 NB     7g2+      -0.0000   -0.0000    0.0000    0.0000   -0.0000    0.0000    0.0000    0.0000   -0.0001    0.0000
      140 NB     8g2+      -0.0000   -0.0000   -0.0000   -0.0000    0.0000   -0.0000   -0.0000   -0.0000    0.0001   -0.0000
      141 NB     5g3+       0.0000    0.0000    0.0000    0.0000    0.0000    0.0001    0.0001    0.0000    0.0001   -0.0000
      142 NB     6g3+      -0.0000   -0.0000   -0.0000   -0.0000   -0.0000   -0.0001   -0.0001   -0.0000   -0.0001   -0.0000
      143 NB     7g3+      -0.0000    0.0000    0.0000    0.0000    0.0000    0.0001    0.0001    0.0000    0.0000    0.0000
      144 NB     8g3+       0.0000   -0.0000   -0.0000   -0.0000   -0.0000   -0.0001   -0.0001   -0.0000   -0.0000   -0.0000
      145 NB     5g4+      -0.0000   -0.0000    0.0000    0.0000    0.0000   -0.0000    0.0001    0.0000    0.0001    0.0000
      146 NB     6g4+      -0.0000    0.0000   -0.0000   -0.0000   -0.0000    0.0000   -0.0000   -0.0000   -0.0001   -0.0000
      147 NB     7g4+       0.0000    0.0000    0.0000    0.0000    0.0000   -0.0000    0.0000    0.0000    0.0002    0.0000
      148 NB     8g4+       0.0000    0.0000   -0.0000   -0.0000   -0.0000    0.0000   -0.0000   -0.0000   -0.0002   -0.0000
      149 NB     6h5-       0.0000    0.0000    0.0000   -0.0000    0.0000   -0.0000   -0.0000    0.0000    0.0000    0.0000
      150 NB     7h5-      -0.0000   -0.0000   -0.0000    0.0000   -0.0000    0.0000    0.0000   -0.0000    0.0000   -0.0000
      151 NB     6h4-       0.0000   -0.0000   -0.0000    0.0000    0.0000    0.0000    0.0000   -0.0000   -0.0000    0.0001
      152 NB     7h4-       0.0000    0.0000    0.0000   -0.0000   -0.0000    0.0000   -0.0000    0.0000    0.0000   -0.0001
      153 NB     6h3-      -0.0000    0.0000   -0.0000    0.0000    0.0000   -0.0000    0.0000   -0.0000   -0.0000   -0.0000
      154 NB     7h3-       0.0000   -0.0000    0.0000   -0.0000   -0.0000    0.0000   -0.0000    0.0000    0.0000    0.0000
      155 NB     6h2-      -0.0000    0.0000   -0.0000    0.0000    0.0000    0.0000   -0.0000    0.0001    0.0000   -0.0000
      156 NB     7h2-       0.0000   -0.0000    0.0000   -0.0000   -0.0000    0.0000    0.0000   -0.0000   -0.0000    0.0001
      157 NB     6h1-       0.0000   -0.0000    0.0000   -0.0000   -0.0000    0.0000    0.0000   -0.0000    0.0000   -0.0000
      158 NB     7h1-      -0.0000    0.0000   -0.0000    0.0000    0.0000    0.0000   -0.0000    0.0000    0.0000   -0.0000
      159 NB     6h0       -0.0000   -0.0000   -0.0000   -0.0000   -0.0000   -0.0000    0.0000    0.0000   -0.0000    0.0000
      160 NB     7h0        0.0000    0.0000   -0.0000   -0.0000    0.0000    0.0000   -0.0000   -0.0000    0.0000   -0.0000
      161 NB     6h1+       0.0000    0.0000    0.0000    0.0000   -0.0000   -0.0000   -0.0000    0.0000   -0.0001    0.0000
      162 NB     7h1+       0.0000    0.0000   -0.0000   -0.0000    0.0000    0.0000   -0.0000   -0.0000    0.0000   -0.0000
      163 NB     6h2+       0.0000    0.0000    0.0000    0.0000    0.0000    0.0000   -0.0000   -0.0000    0.0000    0.0000
      164 NB     7h2+      -0.0000   -0.0000   -0.0000   -0.0000   -0.0000   -0.0000    0.0000    0.0000   -0.0000    0.0000
      165 NB     6h3+      -0.0000   -0.0000    0.0000    0.0000    0.0000    0.0000    0.0000    0.0000    0.0001   -0.0000
      166 NB     7h3+      -0.0000   -0.0000   -0.0000   -0.0000   -0.0000   -0.0000   -0.0000   -0.0000   -0.0000    0.0000
      167 NB     6h4+       0.0000    0.0000   -0.0000   -0.0000    0.0000    0.0001    0.0000    0.0000    0.0001    0.0000
      168 NB     7h4+      -0.0000   -0.0000    0.0000    0.0000   -0.0000   -0.0001   -0.0000   -0.0000   -0.0001   -0.0000
      169 NB     6h5+       0.0000    0.0000   -0.0000   -0.0000   -0.0000   -0.0000    0.0000    0.0000   -0.0001   -0.0000
      170 NB     7h5+       0.0000    0.0000   -0.0000   -0.0000    0.0000    0.0000   -0.0000   -0.0000    0.0001    0.0000

          Orbital           11        12        13        14    
          Energy          -18.3605  -18.2787  -18.2786  -18.2381
          Occ. No.          0.0000    0.0000    0.0000    0.0000

        1 NB     1s        -0.0000    0.0000   -0.0000   -0.0000
        2 NB     2s         0.0000    0.0000   -0.0000    0.0004
        3 NB     3s         0.0000   -0.0000    0.0000    0.0139
        4 NB     4s         0.0000   -0.0000   -0.0000   -0.0034
        5 NB     5s        -0.0000    0.0000    0.0000    0.0008
        6 NB     6s         0.0000   -0.0000   -0.0000   -0.0010
        7 NB     7s         0.0000    0.0000    0.0000    0.0025
        8 NB     8s        -0.0000   -0.0000    0.0000   -0.0021
        9 NB     9s         0.0000    0.0000    0.0000    0.0021
       10 NB    10s        -0.0000    0.0000   -0.0000   -0.0010
       11 NB     2px       -0.0000    0.0000    0.0000   -0.0026
       12 NB     3px       -0.0001    0.0005    0.0000   -0.1023
       13 NB     4px        0.0000   -0.0001   -0.0000    0.0203
       14 NB     5px       -0.0000    0.0000    0.0000   -0.0064
       15 NB     6px        0.0000   -0.0001   -0.0000    0.0156
       16 NB     7px       -0.0000    0.0001    0.0000   -0.0127
       17 NB     8px        0.0000   -0.0001   -0.0000    0.0127
       18 NB     9px       -0.0000    0.0000    0.0000   -0.0093
       19 NB    10px        0.0000   -0.0000   -0.0000    0.0039
       20 NB     2py        0.0000    0.0000   -0.0021   -0.0000
       21 NB     3py        0.0000    0.0000   -0.0821    0.0000
       22 NB     4py       -0.0000   -0.0000    0.0161   -0.0000
       23 NB     5py        0.0000    0.0000   -0.0051    0.0000
       24 NB     6py       -0.0000   -0.0000    0.0124   -0.0000
       25 NB     7py        0.0000    0.0000   -0.0100    0.0000
       26 NB     8py       -0.0000   -0.0000    0.0101   -0.0000
       27 NB     9py        0.0000    0.0000   -0.0074    0.0000
       28 NB    10py       -0.0000   -0.0000    0.0031   -0.0000
       29 NB     2pz       -0.0000   -0.0021   -0.0000   -0.0000
       30 NB     3pz       -0.0014   -0.0822   -0.0000   -0.0005
       31 NB     4pz        0.0003    0.0161    0.0000    0.0001
       32 NB     5pz       -0.0001   -0.0051   -0.0000   -0.0000
       33 NB     6pz        0.0002    0.0124    0.0000    0.0001
       34 NB     7pz       -0.0002   -0.0100   -0.0000   -0.0001
       35 NB     8pz        0.0001    0.0101    0.0000    0.0001
       36 NB     9pz       -0.0001   -0.0074   -0.0000   -0.0000
       37 NB    10pz        0.0001    0.0032    0.0000    0.0000
       38 NB     3d2-      -0.0000   -0.0000    0.9701   -0.0000
       39 NB     4d2-       0.0000    0.0000   -0.0948    0.0000
       40 NB     5d2-      -0.0000   -0.0000    0.0960   -0.0000
       41 NB     6d2-       0.0000    0.0000   -0.0845    0.0000
       42 NB     7d2-      -0.0000   -0.0000    0.0755   -0.0000
       43 NB     8d2-       0.0000    0.0000   -0.0954    0.0000
       44 NB     9d2-      -0.0000   -0.0000    0.0777   -0.0000
       45 NB    10d2-      -0.0000   -0.0000    0.0684   -0.0000
       46 NB     3d1-       0.0000   -0.0000    0.0221    0.0000
       47 NB     4d1-      -0.0000    0.0000   -0.0023   -0.0000
       48 NB     5d1-       0.0000   -0.0000    0.0023    0.0000
       49 NB     6d1-      -0.0000    0.0000   -0.0020   -0.0000
       50 NB     7d1-       0.0000   -0.0000    0.0018    0.0000
       51 NB     8d1-      -0.0000    0.0000   -0.0022   -0.0000
       52 NB     9d1-       0.0000   -0.0000    0.0018    0.0000
       53 NB    10d1-       0.0000   -0.0000    0.0015    0.0000
       54 NB     3d0        0.8438   -0.0087   -0.0000   -0.4842
       55 NB     4d0       -0.0819    0.0009    0.0000    0.0476
       56 NB     5d0        0.0829   -0.0009   -0.0000   -0.0482
       57 NB     6d0       -0.0729    0.0008    0.0000    0.0425
       58 NB     7d0        0.0651   -0.0007   -0.0000   -0.0380
       59 NB     8d0       -0.0818    0.0009    0.0000    0.0480
       60 NB     9d0        0.0664   -0.0007   -0.0000   -0.0392
       61 NB    10d0        0.0583   -0.0006   -0.0000   -0.0345
       62 NB     3d1+       0.0138    0.9702    0.0000    0.0064
       63 NB     4d1+      -0.0013   -0.0948   -0.0000   -0.0006
       64 NB     5d1+       0.0013    0.0960    0.0000    0.0006
       65 NB     6d1+      -0.0011   -0.0845   -0.0000   -0.0006
       66 NB     7d1+       0.0010    0.0755    0.0000    0.0005
       67 NB     8d1+      -0.0013   -0.0954   -0.0000   -0.0006
       68 NB     9d1+       0.0011    0.0777    0.0000    0.0005
       69 NB    10d1+       0.0010    0.0684    0.0000    0.0005
       70 NB     3d2+       0.4874   -0.0125   -0.0000    0.8379
       71 NB     4d2+      -0.0473    0.0013    0.0000   -0.0823
       72 NB     5d2+       0.0479   -0.0013   -0.0000    0.0835
       73 NB     6d2+      -0.0421    0.0011    0.0000   -0.0735
       74 NB     7d2+       0.0376   -0.0010   -0.0000    0.0658
       75 NB     8d2+      -0.0473    0.0013    0.0000   -0.0831
       76 NB     9d2+       0.0383   -0.0010   -0.0000    0.0678
       77 NB    10d2+       0.0337   -0.0009   -0.0000    0.0598
       78 NB     4f3-      -0.0000   -0.0000    0.0054   -0.0000
       79 NB     5f3-      -0.0000   -0.0000    0.0061   -0.0000
       80 NB     6f3-       0.0000    0.0000   -0.0060    0.0000
       81 NB     7f3-      -0.0000   -0.0000    0.0057   -0.0000
       82 NB     8f3-      -0.0000   -0.0000    0.0039   -0.0000
       83 NB     4f2-       0.0000    0.0000   -0.0000    0.0000
       84 NB     5f2-       0.0000    0.0000   -0.0000    0.0000
       85 NB     6f2-      -0.0000    0.0000   -0.0000   -0.0000
       86 NB     7f2-       0.0000   -0.0000    0.0001    0.0000
       87 NB     8f2-       0.0000   -0.0000    0.0001    0.0000
       88 NB     4f1-       0.0000    0.0000   -0.0014    0.0000
       89 NB     5f1-       0.0000    0.0000   -0.0016    0.0000
       90 NB     6f1-      -0.0000   -0.0000    0.0016   -0.0000
       91 NB     7f1-       0.0000    0.0000   -0.0015    0.0000
       92 NB     8f1-       0.0000    0.0000   -0.0010    0.0000
       93 NB     4f0       -0.0001   -0.0034   -0.0000    0.0000
       94 NB     5f0       -0.0001   -0.0039   -0.0000   -0.0000
       95 NB     6f0        0.0001    0.0038    0.0000    0.0000
       96 NB     7f0       -0.0001   -0.0036   -0.0000   -0.0000
       97 NB     8f0       -0.0000   -0.0025   -0.0000   -0.0000
       98 NB     4f1+       0.0033    0.0001    0.0000   -0.0037
       99 NB     5f1+       0.0037    0.0001    0.0000   -0.0041
      100 NB     6f1+      -0.0036   -0.0001   -0.0000    0.0041
      101 NB     7f1+       0.0035    0.0000    0.0000   -0.0040
      102 NB     8f1+       0.0024   -0.0000   -0.0000   -0.0027
      103 NB     4f2+       0.0001    0.0044    0.0000    0.0001
      104 NB     5f2+       0.0001    0.0050    0.0000    0.0001
      105 NB     6f2+      -0.0001   -0.0049   -0.0000   -0.0001
      106 NB     7f2+       0.0001    0.0047    0.0000    0.0001
      107 NB     8f2+       0.0001    0.0032    0.0000    0.0000
      108 NB     4f3+       0.0025    0.0000    0.0000    0.0048
      109 NB     5f3+       0.0029    0.0000    0.0000    0.0053
      110 NB     6f3+      -0.0028    0.0000    0.0000   -0.0053
      111 NB     7f3+       0.0027   -0.0000   -0.0000    0.0051
      112 NB     8f3+       0.0019   -0.0000   -0.0000    0.0034
      113 NB     5g4-      -0.0000    0.0000   -0.0000   -0.0000
      114 NB     6g4-      -0.0000   -0.0000    0.0002   -0.0000
      115 NB     7g4-       0.0000    0.0000   -0.0003    0.0000
      116 NB     8g4-      -0.0000   -0.0000    0.0006   -0.0000
      117 NB     5g3-      -0.0000    0.0000   -0.0001    0.0000
      118 NB     6g3-       0.0000   -0.0000    0.0001   -0.0000
      119 NB     7g3-      -0.0000    0.0000   -0.0001   -0.0000
      120 NB     8g3-       0.0000   -0.0000    0.0000    0.0000
      121 NB     5g2-      -0.0000   -0.0000    0.0000   -0.0000
      122 NB     6g2-       0.0000    0.0000   -0.0001    0.0000
      123 NB     7g2-      -0.0000   -0.0000    0.0001   -0.0000
      124 NB     8g2-       0.0000    0.0000   -0.0002    0.0000
      125 NB     5g1-       0.0000   -0.0000    0.0001   -0.0000
      126 NB     6g1-      -0.0000    0.0000   -0.0001    0.0000
      127 NB     7g1-       0.0000   -0.0000    0.0001   -0.0000
      128 NB     8g1-      -0.0000    0.0000   -0.0001   -0.0000
      129 NB     5g0        0.0000   -0.0000   -0.0000   -0.0001
      130 NB     6g0       -0.0001    0.0000    0.0000    0.0002
      131 NB     7g0        0.0001   -0.0000   -0.0000   -0.0002
      132 NB     8g0       -0.0002   -0.0000   -0.0000    0.0003
      133 NB     5g1+      -0.0000    0.0000    0.0000    0.0000
      134 NB     6g1+      -0.0000   -0.0001   -0.0000   -0.0000
      135 NB     7g1+       0.0000    0.0002    0.0000    0.0000
      136 NB     8g1+      -0.0000   -0.0005   -0.0000   -0.0000
      137 NB     5g2+      -0.0000    0.0001    0.0000    0.0002
      138 NB     6g2+       0.0000   -0.0001   -0.0000   -0.0002
      139 NB     7g2+      -0.0001    0.0001    0.0000    0.0003
      140 NB     8g2+       0.0002   -0.0001   -0.0000   -0.0005
      141 NB     5g3+       0.0000   -0.0000   -0.0000    0.0000
      142 NB     6g3+       0.0000    0.0001    0.0000   -0.0000
      143 NB     7g3+      -0.0000   -0.0002   -0.0000   -0.0000
      144 NB     8g3+       0.0000    0.0004    0.0000   -0.0000
      145 NB     5g4+      -0.0000    0.0001    0.0000   -0.0002
      146 NB     6g4+       0.0001   -0.0001   -0.0000    0.0003
      147 NB     7g4+      -0.0001    0.0001    0.0000   -0.0004
      148 NB     8g4+       0.0003   -0.0000   -0.0000    0.0006
      149 NB     6h5-       0.0000   -0.0000    0.0001   -0.0000
      150 NB     7h5-      -0.0000    0.0000   -0.0001    0.0000
      151 NB     6h4-       0.0000    0.0000   -0.0001    0.0000
      152 NB     7h4-      -0.0000   -0.0000    0.0000   -0.0000
      153 NB     6h3-      -0.0000    0.0000   -0.0000    0.0000
      154 NB     7h3-       0.0000   -0.0000    0.0000   -0.0000
      155 NB     6h2-      -0.0000   -0.0000    0.0001   -0.0000
      156 NB     7h2-       0.0000    0.0000   -0.0001    0.0000
      157 NB     6h1-      -0.0000   -0.0000    0.0000   -0.0000
      158 NB     7h1-      -0.0000    0.0000   -0.0000    0.0000
      159 NB     6h0       -0.0000    0.0001    0.0000   -0.0000
      160 NB     7h0        0.0000   -0.0001   -0.0000    0.0000
      161 NB     6h1+      -0.0001   -0.0000   -0.0000    0.0001
      162 NB     7h1+       0.0001    0.0000    0.0000   -0.0000
      163 NB     6h2+      -0.0000   -0.0001   -0.0000    0.0000
      164 NB     7h2+      -0.0000    0.0001    0.0000   -0.0000
      165 NB     6h3+       0.0000    0.0001    0.0000   -0.0001
      166 NB     7h3+      -0.0000   -0.0001   -0.0000    0.0000
      167 NB     6h4+      -0.0000    0.0001    0.0000    0.0000
      168 NB     7h4+       0.0000   -0.0001   -0.0000   -0.0000
      169 NB     6h5+       0.0001    0.0001    0.0000    0.0001
      170 NB     7h5+      -0.0001   -0.0001   -0.0000   -0.0001
--


++    Molecular charges:
      ------------------

      Mulliken charges per centre and basis function type
      ---------------------------------------------------

                NB    
      1s       2.0000
      2s       2.0000
      2px      2.0000
      2pz      2.0000
      2py      2.0000
      3s       1.9546
      3px      1.9163
      3pz      1.9257
      3py      1.9258
      4s       0.0199
      3d2+     0.0176
      3d1+     0.0148
      3d0      0.0059
      3d1-     0.0000
      3d2-     0.0148
      4px      0.0226
      4pz      0.0224
      4py      0.0224
      5s       0.0010
      4d2+     0.0001
      4d1+     0.0000
      4d0      0.0000
      4d1-     0.0000
      4d2-     0.0000
      5px      0.0022
      5pz      0.0022
      5py      0.0022
      6s       0.0015
      4f3+     0.0000
      4f2+     0.0000
      4f1+     0.0000
      4f0      0.0000
      4f1-     0.0000
      4f2-     0.0000
      4f3-     0.0000
      5d2+     0.0000
      5d1+     0.0000
      5d0      0.0000
      5d1-     0.0000
      5d2-     0.0000
      6px      0.0128
      6pz      0.0126
      6py      0.0126
      7s       0.0090
      5f3+     0.0000
      5f2+     0.0000
      5f1+     0.0000
      5f0      0.0000
      5f1-     0.0000
      5f2-     0.0000
      5f3-     0.0000
      6d2+     0.0000
      6d1+     0.0000
      6d0      0.0000
      6d1-     0.0000
      6d2-     0.0000
      7px      0.0083
      7pz      0.0081
      7py      0.0081
      5g4+     0.0000
      5g3+     0.0000
      5g2+     0.0000
      5g1+     0.0000
      5g0      0.0000
      5g1-     0.0000
      5g2-     0.0000
      5g3-     0.0000
      5g4-     0.0000
      6f3+     0.0000
      6f2+     0.0000
      6f1+     0.0000
      6f0      0.0000
      6f1-     0.0000
      6f2-     0.0000
      6f3-     0.0000
      6g4+     0.0000
      6g3+     0.0000
      6g2+     0.0000
      6g1+     0.0000
      6g0      0.0000
      6g1-     0.0000
      6g2-     0.0000
      6g3-     0.0000
      6g4-     0.0000
      6h5+     0.0000
      6h4+     0.0000
      6h3+     0.0000
      6h2+     0.0000
      6h1+     0.0000
      6h0      0.0000
      6h1-     0.0000
      6h2-     0.0000
      6h3-     0.0000
      6h4-     0.0000
      6h5-     0.0000
      7d2+     0.0000
      7d1+     0.0000
      7d0      0.0000
      7d1-     0.0000
      7d2-     0.0000
      7f3+     0.0000
      7f2+     0.0000
      7f1+     0.0000
      7f0      0.0000
      7f1-     0.0000
      7f2-     0.0000
      7f3-     0.0000
      7g4+     0.0000
      7g3+     0.0000
      7g2+     0.0000
      7g1+     0.0000
      7g0      0.0000
      7g1-     0.0000
      7g2-     0.0000
      7g3-     0.0000
      7g4-     0.0000
      7h5+     0.0000
      7h4+     0.0000
      7h3+     0.0000
      7h2+     0.0000
      7h1+     0.0000
      7h0      0.0000
      7h1-     0.0000
      7h2-     0.0000
      7h3-     0.0000
      7h4-     0.0000
      7h5-     0.0000
      8s       0.0059
      8px      0.0086
      8pz      0.0084
      8py      0.0084
      8d2+     0.0000
      8d1+     0.0000
      8d0      0.0000
      8d1-     0.0000
      8d2-     0.0000
      8f3+     0.0000
      8f2+     0.0000
      8f1+     0.0000
      8f0      0.0000
      8f1-     0.0000
      8f2-     0.0000
      8f3-     0.0000
      8g4+     0.0000
      8g3+     0.0000
      8g2+     0.0000
      8g1+     0.0000
      8g0      0.0000
      8g1-     0.0000
      8g2-     0.0000
      8g3-     0.0000
      8g4-     0.0000
      9s       0.0062
      9px      0.0048
      9pz      0.0047
      9py      0.0047
      9d2+     0.0000
      9d1+     0.0000
      9d0      0.0000
      9d1-     0.0000
      9d2-     0.0000
     10s       0.0017
     10px      0.0011
     10pz      0.0010
     10py      0.0010
     10d2+     0.0000
     10d1+     0.0000
     10d0      0.0000
     10d1-     0.0000
     10d2-     0.0000
      Total   18.0000

      N-E     23.0000

      Total electronic charge=   18.000000

      Total            charge=   23.000000
--

 Sorry, Molden does not know how to handle
 functions with angular momentum larger than g

++    Static properties:
      ------------------


      LoProp Charges per center


                   NB    
      Nuclear     41.0000
      Electronic -18.0000

      Total       23.0000
--


++    Molecular properties:
      ---------------------

      Charge (e):
                      =   23.0000
      Dipole Moment (Debye):
      Origin of the operator (Ang)=    0.0000    0.0000    0.0000
                   X= -5.3792E-01               Y= -1.9071E-13               Z=  5.1076E-01           Total=  7.4178E-01
      Center of Charge (Ang)
                     X=   -0.00486920               Y=   -0.00000000               Z=    0.00462338
      Quadrupole Moment (Debye*Ang):
      Origin of the operator (Ang)=   -0.0000   -0.0000    0.0046
                  XX= -7.2115E-01              XY=  4.8424E-17              XZ=  2.6604E-05              YY= -7.2484E-01
                  YZ= -1.1039E-15              ZZ= -7.2484E-01
      In traceless form (Debye*Ang)
                  XX=  3.6961E-03              XY=  7.2636E-17              XZ=  3.9906E-05              YY= -1.8476E-03
                  YZ= -1.6558E-15              ZZ= -1.8485E-03
--

 Sorry, Molden does not know how to handle
 functions with angular momentum larger than g
 ###############################################################################
 ###############################################################################
 ###                                                                         ###
 ###                                                                         ###
 ###    WARNING: RunFile label nBas                                          ###
 ###    was used       62 times                                              ###
 ###                                                                         ###
 ###                                                                         ###
 ###############################################################################
 ###############################################################################
Note: The following floating-point exceptions are signalling: IEEE_UNDERFLOW_FLAG IEEE_DENORMAL
--- Stop Module: scf at Wed Mar 26 11:19:12 2025 /rc=_RC_ALL_IS_WELL_ ---
*** files: niobium_so_cf.LprOrb niobium_so_cf.ScfOrb xmldump
    saved to directory /home4/s4752295/Internship/Initial_simulations/Point_charge_model/1_electron/Madelung_charges_9_active_space/Nb
--- Module scf spent 6 seconds ---

*** symbolic link created: INPORB -> niobium_so_cf.ScfOrb
--- Start Module: rasscf at Wed Mar 26 11:19:12 2025 ---

()()()()()()()()()()()()()()()()()()()()()()()()()()()()()()()()()()()()()()()()()()()()()()()()()()

                                              &RASSCF

                                   only a single process is used
                       available to each process: 4.1 GB of memory, 1 thread?
                                            pid: 3920776
()()()()()()()()()()()()()()()()()()()()()()()()()()()()()()()()()()()()()()()()()()()()()()()()()()


      Header of the ONEINT file:
      --------------------------
      
      Integrals generated by seward 4.2.0  , Wed Mar 26 11:18:58 2025


      OrdInt status: non-squared


      Cartesian coordinates in Angstrom:
      -----------------------------------------------------
      No.  Label        X            Y            Z        
      -----------------------------------------------------
       1   NB        -0.00000000  -0.00000000   0.00463220
      -----------------------------------------------------
      Nuclear repulsion energy = -750.21425428

++    Wave function specifications:
      -----------------------------

      Number of closed shell electrons          18
      Number of electrons in active shells       1
      Max number of holes in RAS1 space          0
      Max nr of electrons in RAS3 space          0
      Number of inactive orbitals                9
      Number of active orbitals                  9
      Number of secondary orbitals             152
      Spin quantum number                      0.5
      State symmetry                             1
--

++    Orbital specifications:
      -----------------------

      Symmetry species                           1
                                                 a
      Frozen orbitals                            0
      Inactive orbitals                          9
      Active orbitals                            9
      RAS1 orbitals                              0
      RAS2 orbitals                              9
      RAS3 orbitals                              0
      Secondary orbitals                       152
      Deleted orbitals                           0
      Number of basis functions                170
--

++    CI expansion specifications:
      ----------------------------

      Number of CSFs                             9
      Number of determinants                     9
      Number of root(s) required                 9
      Root chosen for geometry opt.              9
      CI roots used                              1     2     3     4     5     6     7     8     9
      weights                                0.111 0.111 0.111 0.111 0.111 0.111 0.111 0.111 0.111
      highest root included in the CI            9
      max. size of the explicit Hamiltonian      9
--

++    Optimization specifications:
      ----------------------------

      RASSCF algorithm: Conventional
      Maximum number of macro iterations       200
      Maximum number of SX iterations          100
      Threshold for RASSCF energy            0.100E-07
      Threshold for max MO rotation          0.100E+00
      Threshold for max BLB element          0.100E-03
      Level shift parameter                  0.500E+00
      Make Quasi-Newton update
--

      The MO-coefficients are taken from the file:
      INPORB                                                                                                                          
      Title: SCF orbitals                                                                  

      Total molecular charge   22.00

      ************************************************************************************************************************
      *                                                                                                                      *
      *                                            Wave function control section                                             *
      *                                                                                                                      *
      ************************************************************************************************************************


                                         RASSCF iterations: Energy and convergence statistics
                                         ----------------------------------------------------

      Iter CI   SX   CI       RASSCF       Energy    max ROT     max BLB   max BLB  Level Ln srch  Step   QN   Walltime
          iter iter root      energy       change     param      element    value   shift minimum  type update hh:mm:ss
 Nr of preliminary CI iterations:   1
      Total energies have been shifted. Add                -3000.00 au
        1   1    5    0  -924.85007755    0.00E+00   0.94E-02    8  17 1 -0.38E+00*  0.00   0.00    SX    NO    0:00:02
        2   1    4    0  -924.87421298   -0.24E-01* -0.21E-02    8 168 1  0.30E-01*  0.00   0.00    SX    NO    0:00:01
        3   1    4    0  -924.87434094   -0.13E-03* -0.15E-02    7 169 1 -0.25E-02*  0.00   0.00    SX    NO    0:00:01
        4   1    4    0  -924.87434983   -0.89E-05*  0.10E-02   10  19 1  0.12E-02*  0.00   0.00    SX    NO    0:00:01
        5   1    4    0  -924.87435221   -0.24E-05* -0.38E-03   10  19 1 -0.78E-03*  0.00   0.67    QN   YES    0:00:01
        6   1    4    0  -924.87435341   -0.12E-05*  0.14E-03   18  23 1 -0.14E-03*  0.00   1.14    QN   YES    0:00:01
        7   1    3    0  -924.87435356   -0.15E-06*  0.18E-03   18  23 1 -0.10E-03*  0.00   1.63    QN   YES    0:00:01
        8   1    3    0  -924.87435362   -0.59E-07*  0.75E-04   18  23 1 -0.52E-04   0.00   1.13    QN   YES    0:00:01
        9   1    3    0  -924.87435363   -0.10E-07*  0.73E-04   18  23 1 -0.30E-04   0.00   1.49    QN   YES    0:00:01
       10   1    3    0  -924.87435363   -0.56E-08   0.21E-04   18  24 1 -0.91E-05   0.00   1.27    QN   YES    0:00:01
      Convergence after 10 iterations
       11   1    3    0  -924.87435363   -0.96E-09   0.21E-04   18  24 1 -0.53E-05   0.00   1.27    QN   YES    0:00:01

      ************************************************************************************************************************
                                                      Wave function printout:
                       occupation of active orbitals, and spin coupling of open shells (u,d: Spin up or down)
      ************************************************************************************************************************

      Note: transformation to natural orbitals
      has been made, which may change the order of the CSFs.

      printout of CI-coefficients larger than  0.05 for root  1
      energy=   -3931.577708
      conf/sym  111111111     Coeff  Weight
             1  u00000000   0.50085 0.25085
             2  0u0000000   0.49716 0.24716
             3  00u000000   0.06860 0.00471
             5  0000u0000   0.49051 0.24060
             8  0000000u0   0.07544 0.00569
             9  00000000u  -0.50068 0.25068

      printout of CI-coefficients larger than  0.05 for root  2
      energy=   -3931.577653
      conf/sym  111111111     Coeff  Weight
             1  u00000000  -0.42361 0.17945
             2  0u0000000   0.51459 0.26481
             3  00u000000   0.21219 0.04502
             4  000u00000  -0.24269 0.05890
             5  0000u0000   0.24384 0.05946
             8  0000000u0   0.46144 0.21293
             9  00000000u   0.42350 0.17935

      printout of CI-coefficients larger than  0.05 for root  3
      energy=   -3931.494333
      conf/sym  111111111     Coeff  Weight
             1  u00000000   0.16709 0.02792
             2  0u0000000  -0.30719 0.09436
             3  00u000000   0.75671 0.57261
             4  000u00000  -0.36130 0.13054
             5  0000u0000  -0.16806 0.02824
             6  00000u000   0.06884 0.00474
             7  000000u00   0.26920 0.07247
             8  0000000u0   0.20338 0.04136
             9  00000000u  -0.16661 0.02776

      printout of CI-coefficients larger than  0.05 for root  4
      energy=   -3931.494213
      conf/sym  111111111     Coeff  Weight
             2  0u0000000  -0.05590 0.00312
             3  00u000000   0.35328 0.12481
             4  000u00000   0.89325 0.79789
             5  0000u0000   0.06043 0.00365
             8  0000000u0   0.24933 0.06217

      printout of CI-coefficients larger than  0.05 for root  5
      energy=   -3931.453022
      conf/sym  111111111     Coeff  Weight
             1  u00000000  -0.16683 0.02783
             2  0u0000000  -0.33222 0.11037
             5  0000u0000   0.71409 0.50993
             6  00000u000   0.27873 0.07769
             7  000000u00   0.36655 0.13436
             8  0000000u0  -0.33324 0.11105
             9  00000000u   0.16598 0.02755

      printout of CI-coefficients larger than  0.05 for root  6
      energy=   -3918.149223
      conf/sym  111111111     Coeff  Weight
             1  u00000000   0.07578 0.00574
             3  00u000000  -0.35255 0.12429
             5  0000u0000  -0.22361 0.05000
             6  00000u000   0.75088 0.56382
             7  000000u00   0.32410 0.10504
             8  0000000u0   0.38015 0.14451
             9  00000000u  -0.07396 0.00547

      printout of CI-coefficients larger than  0.05 for root  7
      energy=   -3916.341014
      conf/sym  111111111     Coeff  Weight
             2  0u0000000  -0.16120 0.02599
             3  00u000000  -0.32736 0.10717
[...]
    5         0.083375       3 0.5  1.0000    9 0.5  0.0000    8 0.5  0.0000    7 0.5  0.0000    6 0.5  0.0000
    6         0.083375       3 0.5  1.0000    9 0.5  0.0000    8 0.5  0.0000    7 0.5  0.0000    6 0.5  0.0000
    7         0.083494       4 0.5  1.0000    9 0.5  0.0000    8 0.5  0.0000    7 0.5  0.0000    6 0.5  0.0000
    8         0.083494       4 0.5  1.0000    9 0.5  0.0000    8 0.5  0.0000    7 0.5  0.0000    6 0.5  0.0000
    9         0.124686       5 0.5  1.0000    9 0.5  0.0000    8 0.5  0.0000    7 0.5  0.0000    6 0.5  0.0000
   10         0.124686       5 0.5  1.0000    9 0.5  0.0000    8 0.5  0.0000    7 0.5  0.0000    6 0.5  0.0000
   11        13.428485       6 0.5  1.0000    9 0.5  0.0000    8 0.5  0.0000    7 0.5  0.0000    5 0.5  0.0000
   12        13.428485       6 0.5  1.0000    9 0.5  0.0000    8 0.5  0.0000    7 0.5  0.0000    5 0.5  0.0000
   13        15.236694       7 0.5  1.0000    9 0.5  0.0000    8 0.5  0.0000    6 0.5  0.0000    5 0.5  0.0000
   14        15.236694       7 0.5  1.0000    9 0.5  0.0000    8 0.5  0.0000    6 0.5  0.0000    5 0.5  0.0000
   15        15.240195       8 0.5  1.0000    9 0.5  0.0000    7 0.5  0.0000    6 0.5  0.0000    5 0.5  0.0000
   16        15.240195       8 0.5  1.0000    9 0.5  0.0000    7 0.5  0.0000    6 0.5  0.0000    5 0.5  0.0000
   17        16.133204       9 0.5  1.0000    8 0.5  0.0000    7 0.5  0.0000    6 0.5  0.0000    5 0.5  0.0000
   18        16.133204       9 0.5  1.0000    8 0.5  0.0000    7 0.5  0.0000    6 0.5  0.0000    5 0.5  0.0000
 -------------------------------------------------------------------------------------------------------


      ****************************************************************************************************
      *                                                                                                  *
      *                                    Special properties section                                    *
      *                                                                                                  *
      ****************************************************************************************************


++ Dipole transition strengths (SO states):
   ----------------------------------------
    for osc. strength at least    1.0000000000000001E-005

      From   To        Osc. strength     Einstein coefficients Ax, Ay, Az (sec-1)    Total A (sec-1)
     -----------------------------------------------------------------------------------------------
         1   13       1.16756823E-02  2.89659616E-08  8.70909678E+10  1.35389428E-05  8.70909678E+10
         1   15       1.17541737E-02  2.79051366E+08  1.35815110E-05  8.74376949E+10  8.77167462E+10
         2   14       1.16756823E-02  2.89659616E-08  8.70909678E+10  1.35389428E-05  8.70909678E+10
         2   16       1.17541737E-02  2.79051366E+08  1.35815110E-05  8.74376949E+10  8.77167462E+10
         3   13       1.16890394E-02  1.83206123E+08  1.35476961E-05  8.70067629E+10  8.71899691E+10
         3   15       1.17037189E-02  4.25074258E-08  8.73395885E+10  1.36020347E-05  8.73395885E+10
         4   14       1.16890394E-02  1.83206123E+08  1.35476961E-05  8.70067629E+10  8.71899691E+10
         4   16       1.17037189E-02  4.25074258E-08  8.73395885E+10  1.36020347E-05  8.73395885E+10
         5   11       3.69519355E-03  9.88962061E+05  1.40446225E-06  2.11431952E+10  2.11441841E+10
         5   13       1.76530308E-02  1.30223437E+11  1.53731068E-10  1.65056341E+07  1.30239942E+11
         5   17       3.65180140E-03  3.44501378E+06  2.00618527E-06  3.02209333E+10  3.02243783E+10
         6   12       3.69519355E-03  9.88962061E+05  1.40446225E-06  2.11431952E+10  2.11441841E+10
         6   14       1.76530308E-02  1.30223437E+11  1.53731068E-10  1.65056341E+07  1.30239942E+11
         6   18       3.65180140E-03  3.44501378E+06  2.00618527E-06  3.02209333E+10  3.02243783E+10
         7   11       3.67245257E-03  5.49395104E-11  2.10136808E+10  1.41305040E-06  2.10136808E+10
         7   15       1.75956769E-02  1.29873238E+11  4.10386253E-10  1.49818924E+06  1.29874737E+11
         7   17       3.62695188E-03  1.86273409E-10  3.00182610E+10  2.01957370E-06  3.00182610E+10
         8   12       3.67245257E-03  5.49395104E-11  2.10136808E+10  1.41305040E-06  2.10136808E+10
         8   16       1.75956769E-02  1.29873238E+11  4.10386253E-10  1.49818924E+06  1.29874737E+11
         8   18       3.62695188E-03  1.86273409E-10  3.00182610E+10  2.01957370E-06  3.00182610E+10
         9   11       6.17255683E-03  3.51005918E+10  3.13876671E-13  9.21501847E+05  3.51015133E+10
         9   13       2.57615275E-03  4.48608491E+06  1.10564481E-10  1.88982781E+10  1.89027642E+10
         9   15       2.59984558E-03  2.61295382E-12  1.90854527E+10  6.12157415E-11  1.90854527E+10
         9   17       1.39098735E-02  1.14531469E+11  6.66112240E-13  2.63411219E+06  1.14534103E+11
        10   12       6.17255683E-03  3.51005918E+10  3.13876671E-13  9.21501847E+05  3.51015133E+10
        10   14       2.57615275E-03  4.48608491E+06  1.10564481E-10  1.88982781E+10  1.89027642E+10
        10   16       2.59984558E-03  2.61295382E-12  1.90854527E+10  6.12157415E-11  1.90854527E+10
        10   18       1.39098735E-02  1.14531469E+11  6.66112240E-13  2.63411219E+06  1.14534103E+11
        11   13       1.92338055E-01  1.21368159E+04  8.86046106E-11  2.02055788E+10  2.02055910E+10
        11   15       1.92185938E-01  3.43582271E-18  2.02678684E+10  8.93555968E-11  2.02678684E+10
        11   17       1.30126221E-01  3.05856643E+10  3.33679785E-18  3.63918725E+04  3.05857007E+10
        12   14       1.92338055E-01  1.21368159E+04  8.86046106E-11  2.02055788E+10  2.02055910E+10
        12   16       1.92185938E-01  3.43582271E-18  2.02678684E+10  8.93555968E-11  2.02678684E+10
        12   18       1.30126221E-01  3.05856643E+10  3.33679785E-18  3.63918725E+04  3.05857007E+10
        13   17       3.35966950E-02  1.21724745E+04  3.86525561E-12  8.67581956E+08  8.67594128E+08
        14   18       3.35966950E-02  1.21724745E+04  3.86525561E-12  8.67581956E+08  8.67594128E+08
        15   17       3.39646118E-02  1.32582823E-16  8.70258064E+08  3.77247379E-12  8.70258064E+08
        16   18       3.39646118E-02  1.32582823E-16  8.70258064E+08  3.77247379E-12  8.70258064E+08
     -----------------------------------------------------------------------------------------------
--

++ Velocity transition strengths (SO states):
   ------------------------------------------
    for osc. strength at least    1.0000000000000001E-005

      From   To        Osc. strength     Einstein coefficients Ax, Ay, Az (sec-1)    Total A (sec-1)
     -----------------------------------------------------------------------------------------------
         1    3       1.34996610E-03  1.63820184E-20  1.32341881E-01  3.45301005E-19  1.32341881E-01
         1    5       3.54341903E-02  9.46918397E-15  7.91407406E+06  3.39446180E-09  7.91407406E+06
         1    7       3.53387060E-02  1.19083578E+01  3.40045105E-09  7.91545955E+06  7.91547145E+06
         1    9       2.71109384E-05  2.59187829E-16  1.35422530E+04  1.92458810E-12  1.35422530E+04
         1   13       1.22635644E-02  1.63247790E-08  9.14764018E+10  1.42254283E-05  9.14764018E+10
         1   15       1.23225240E-02  1.71456250E+08  1.42663357E-05  9.17869826E+10  9.19584388E+10
         2    4       1.34996610E-03  1.63820184E-20  1.32341881E-01  3.45301005E-19  1.32341881E-01
         2    6       3.54341903E-02  9.46918397E-15  7.91407406E+06  3.39446180E-09  7.91407406E+06
         2    8       3.53387060E-02  1.19083578E+01  3.40045105E-09  7.91545955E+06  7.91547145E+06
         2   10       2.71109384E-05  2.59187829E-16  1.35422530E+04  1.92458810E-12  1.35422530E+04
         2   14       1.22635644E-02  1.63247790E-08  9.14764018E+10  1.42254283E-05  9.14764018E+10
         2   16       1.23225240E-02  1.71456250E+08  1.42663357E-05  9.17869826E+10  9.19584388E+10
         3    5       3.53837540E-02  3.80595041E+01  3.39584653E-09  7.89230321E+06  7.89234127E+06
         3    7       3.54198112E-02  9.40117189E-15  7.92314431E+06  3.39470586E-09  7.92314431E+06
         3    9       2.50270020E-05  1.68148237E+00  1.89054521E-12  1.24885452E+04  1.24902267E+04
         3   13       1.22688057E-02  1.03585512E+08  1.42298767E-05  9.14112493E+10  9.15148349E+10
         3   15       1.22938412E-02  2.59121295E-08  9.17437248E+10  1.42785321E-05  9.17437248E+10
         4    6       3.53837540E-02  3.80595041E+01  3.39584653E-09  7.89230321E+06  7.89234127E+06
         4    8       3.54198112E-02  9.40117189E-15  7.92314431E+06  3.39470586E-09  7.92314431E+06
         4   10       2.50270020E-05  1.68148237E+00  1.89054521E-12  1.24885452E+04  1.24902267E+04
         4   14       1.22688057E-02  1.03585512E+08  1.42298767E-05  9.14112493E+10  9.15148349E+10
         4   16       1.22938412E-02  2.59121295E-08  9.17437248E+10  1.42785321E-05  9.17437248E+10
         5    7       2.88535076E-05  5.39099562E-19  1.33346684E-02  3.97753569E-18  1.33346684E-02
         5    9       2.36485789E-01  4.81127233E+01  8.65614657E-10  1.29674953E+07  1.29675434E+07
         5   11       3.97790658E-03  9.74300967E+05  1.51570031E-06  2.27609949E+10  2.27619692E+10
         5   13       1.48305847E-02  1.09415205E+11  1.36739889E-10  1.76889191E+06  1.09416974E+11
         5   17       4.89517961E-03  3.13277935E+06  2.69834100E-06  4.05122892E+10  4.05154220E+10
         6    8       2.88535076E-05  5.39099562E-19  1.33346684E-02  3.97753569E-18  1.33346684E-02
         6   10       2.36485789E-01  4.81127233E+01  8.65614657E-10  1.29674953E+07  1.29675434E+07
         6   12       3.97790658E-03  9.74300967E+05  1.51570031E-06  2.27609949E+10  2.27619692E+10
         6   14       1.48305847E-02  1.09415205E+11  1.36739889E-10  1.76889191E+06  1.09416974E+11
         6   18       4.89517961E-03  3.13277935E+06  2.69834100E-06  4.05122892E+10  4.05154220E+10
         7    9       2.36896062E-01  2.68628853E-15  1.29147266E+07  8.65106057E-10  1.29147266E+07
         7   11       3.96230422E-03  5.29843640E-11  2.26722835E+10  1.52142442E-06  2.26722835E+10
         7   15       1.48065425E-02  1.09285301E+11  2.61614200E-11  3.04872156E+06  1.09288349E+11
         7   17       4.87730982E-03  1.74601677E-10  4.03669177E+10  2.70782759E-06  4.03669177E+10
         8   10       2.36896062E-01  2.68628853E-15  1.29147266E+07  8.65106057E-10  1.29147266E+07
         8   12       3.96230422E-03  5.29843640E-11  2.26722835E+10  1.52142442E-06  2.26722835E+10
         8   16       1.48065425E-02  1.09285301E+11  2.61614200E-11  3.04872156E+06  1.09288349E+11
         8   18       4.87730982E-03  1.74601677E-10  4.03669177E+10  2.70782759E-06  4.03669177E+10
         9   11       5.70373429E-03  3.24346554E+10  3.80962617E-13  9.14926718E+05  3.24355703E+10
         9   13       3.56318901E-03  3.55126281E+06  1.48378677E-10  2.61417756E+10  2.61453269E+10
         9   15       3.58038976E-03  2.12622173E-12  2.62837137E+10  8.82325949E-11  2.62837137E+10
         9   17       9.94574373E-03  8.18911454E+10  8.05181858E-13  2.53920544E+06  8.18936846E+10
        10   12       5.70373429E-03  3.24346554E+10  3.80962617E-13  9.14926718E+05  3.24355703E+10
        10   14       3.56318901E-03  3.55126281E+06  1.48378677E-10  2.61417756E+10  2.61453269E+10
        10   16       3.58038976E-03  2.12622173E-12  2.62837137E+10  8.82325949E-11  2.62837137E+10
        10   18       9.94574373E-03  8.18911454E+10  8.05181858E-13  2.53920544E+06  8.18936846E+10
        11   13       1.86192131E-01  1.10770644E+04  8.56838748E-11  1.95600034E+10  1.95600145E+10
        11   15       1.86036842E-01  7.21692400E-16  1.96194549E+10  8.56237725E-11  1.96194549E+10
        11   17       1.25784331E-01  2.95652205E+10  3.45984461E-17  3.74456167E+04  2.95652579E+10
        12   14       1.86192131E-01  1.10770644E+04  8.56838748E-11  1.95600034E+10  1.95600145E+10
        12   16       1.86036842E-01  7.21692400E-16  1.96194549E+10  8.56237725E-11  1.96194549E+10
        12   18       1.25784331E-01  2.95652205E+10  3.45984461E-17  3.74456167E+04  2.95652579E+10
        13   17       3.67010945E-02  1.19853054E+04  4.27820232E-12  9.47752813E+08  9.47764798E+08
        14   18       3.67010945E-02  1.19853054E+04  4.27820232E-12  9.47752813E+08  9.47764798E+08
        15   17       3.70846250E-02  7.49338385E-17  9.50203889E+08  4.24637524E-12  9.50203889E+08
        16   18       3.70846250E-02  7.49338385E-17  9.50203889E+08  4.24637524E-12  9.50203889E+08
     -----------------------------------------------------------------------------------------------
--

++ Length and velocity gauge comparison (SO states):

 --------------------------------------------------
 A comparison between the dipole oscillator strengths in 
 length and velocity gauge will be performed

 All dipole oscillator differences above the tolerance of   0.10000000000000001       will be printed 

 Due to basis set deficiency these oscillator may be problematic 

 The tolerance is defined as ABS(1-O_l/O_v) 
 O_l : dipole oscillator strength in length gauge
 O_p : dipole oscillator strength in velocity gauge
 --------------------------------------------------

  Problematic transitions have been found

      From   To       Difference (%) Osc. st. (len.) Osc. st. (vel.)
     ---------------------------------------------------------------
         1    3      --------------- below threshold  1.34996610E-03
         1    5      --------------- below threshold  3.54341903E-02
         1    7      --------------- below threshold  3.53387060E-02
         1    9      --------------- below threshold  2.71109384E-05
         2    4      --------------- below threshold  1.34996610E-03
         2    6      --------------- below threshold  3.54341903E-02
         2    8      --------------- below threshold  3.53387060E-02
         2   10      --------------- below threshold  2.71109384E-05
         3    5      --------------- below threshold  3.53837540E-02
         3    7      --------------- below threshold  3.54198112E-02
         3    9      --------------- below threshold  2.50270020E-05
         4    6      --------------- below threshold  3.53837540E-02
         4    8      --------------- below threshold  3.54198112E-02
         4   10      --------------- below threshold  2.50270020E-05
         5    7      --------------- below threshold  2.88535076E-05
         5    9      --------------- below threshold  2.36485789E-01
         5   13            19.031253  1.76530308E-02  1.48305847E-02
         5   17            25.400053  3.65180140E-03  4.89517961E-03
         6    8      --------------- below threshold  2.88535076E-05
         6   10      --------------- below threshold  2.36485789E-01
         6   14            19.031253  1.76530308E-02  1.48305847E-02
         6   18            25.400053  3.65180140E-03  4.89517961E-03
         7    9      --------------- below threshold  2.36896062E-01
         7   15            18.837176  1.75956769E-02  1.48065425E-02
         7   17            25.636221  3.62695188E-03  4.87730982E-03
         8   10      --------------- below threshold  2.36896062E-01
         8   16            18.837176  1.75956769E-02  1.48065425E-02
         8   18            25.636221  3.62695188E-03  4.87730982E-03
         9   13            27.700923  2.57615275E-03  3.56318901E-03
         9   15            27.386521  2.59984558E-03  3.58038976E-03
         9   17            39.857550  1.39098735E-02  9.94574373E-03
        10   14            27.700923  2.57615275E-03  3.56318901E-03
        10   16            27.386521  2.59984558E-03  3.58038976E-03
        10   18            39.857550  1.39098735E-02  9.94574373E-03
     ---------------------------------------------------------------

 Number of problematic transitions =                    34

--

 Electric-dipole - electric-octupole not included
++ Total transition strengths for the second-order expansion of the wave vector (SO states):
   -----------------------------------------------------------------------------------------
    for osc. strength at least    1.0000000000000001E-005

      From   To        Osc. strength
     -------------------------------
         1   17       1.49479885E-05
         2   18       1.49479885E-05
         3   17       1.49484102E-05
         4   18       1.49484102E-05
     -------------------------------
--

++ I/O STATISTICS
 
  I. General I/O information
  - - - - - - - - - - - - - - - - - - - - - - - - - - - - - - - - - - - - - - - - - - -
  Unit  Name          Flsize      Write/Read            MBytes           Write/Read
                      (MBytes)       Calls              In/Out           Time, sec.
  - - - - - - - - - - - - - - - - - - - - - - - - - - - - - - - - - - - - - - - - - - -
   1  SCRATCH           0.00 .       9/      45 .      0.0/      0.0 .       0/       0
   2  ANNI              0.00 .       0/       0 .      0.0/      0.0 .       0/       0
   3  RUNFILE          14.69 .     322/   10733 .      2.3/     77.8 .       0/       0
   4  ONEINT            5.14 .       0/   22237 .      0.0/   3722.5 .       0/       0
   5  JOBIPH            5.91 .       0/      92 .      0.0/      0.7 .       0/       0
   6  ORDINT          403.03 .       1/    3225 .      0.0/    806.0 .       0/       0
  - - - - - - - - - - - - - - - - - - - - - - - - - - - - - - - - - - - - - - - - - - -
   *  TOTAL           428.78 .     332/   36332 .      2.3/   4607.0 .       0/       0
  - - - - - - - - - - - - - - - - - - - - - - - - - - - - - - - - - - - - - - - - - - -
 
  II. I/O Access Patterns
  - - - - - - - - - - - - - - - - - - - -
  Unit  Name               % of random
                         Write/Read calls
  - - - - - - - - - - - - - - - - - - - -
   1  SCRATCH             88.9/ 100.0
   2  ANNI                 0.0/   0.0
   3  RUNFILE             28.6/  10.8
   4  ONEINT               0.0/  17.4
   5  JOBIPH               0.0/  76.1
   6  ORDINT             100.0/   0.1
  - - - - - - - - - - - - - - - - - - - -
--
--- Stop Module: rassi at Wed Mar 26 11:19:40 2025 /rc=_RC_ALL_IS_WELL_ ---
*** files: xmldump
    saved to directory /home4/s4752295/Internship/Initial_simulations/Point_charge_model/1_electron/Madelung_charges_9_active_space/Nb
--- Module rassi spent 2 seconds ---

.##################.
.# Happy landing! #.
.##################.

    Timing: Wall=42.38 User=34.90 System=6.71

###############################################################################
Hbrk Cluster
Job 15905519 for user s4752295
Finished at: Wed Mar 26 11:19:44 CET 2025

Job details:
============

Job ID                         : 15905519
Name                           : Nb_no_SO
User                           : s4752295
Partition                      : regularmedium
Nodes                          : node100
Number of Nodes                : 1
Cores                          : 1
Number of Tasks                : 1
State                          : COMPLETED  
Submit                         : 2025-03-26T11:18:30
Start                          : 2025-03-26T11:18:53
End                            : 2025-03-26T11:19:40
Reserved walltime              : 15:00:00
Used walltime                  : 00:00:47
Used CPU time                  : 00:00:43 (Efficiency: 90.77%)
% User (Computation)           : 83.78%
% System (I/O)                 : 16.22%
Total memory reserved          : 25000M
Maximum memory used            : 1.62G

Acknowledgements:
=================

Please see this page for information about acknowledging Hbrk in your publications:

https://wiki.hpc.rug.nl/habrok/introduction/scientific_output

################################################################################
