   This run of MOLCAS is using the pymolcas driver

                             OPE
                             OPE          NMOL  CASOP  ENMOLC A   SO
                 OPE        NMOLC        AS  OP EN  MO LC     AS  OP
                OPENM       OL CA        SO  PE NM  OL CA     SOP EN
                OP EN      MO   LC       AS  OP ENMOL  CASO   PENMOL
                OP  EN     MO   LC       AS  OP EN     MO     LC ASO
               OP   E  NMOL  C  AS       OP  EN MO     LC     AS  OP
               OP  E   NMO   LC AS        OPEN  MO     LCASOP EN   M
               O  PEN   MO  LCA  SO
            OPE   NMO   L   CAS    OP
        OPENMOL  CASOP     ENMOL   CASOPE
     OPENMOLCA   SOPENMOLCASOPEN   MOLCASOPE
    OPENMOLCAS   OP           EN   MOL    CAS
    OPENMOLCAS       OP  ENM        O     LCA
    OPENMOLCAS    OPEN  MOLCASO     P  E  NMO
    OPENMOLCAS     OP               E  N  MOL
    OPENMOLCA   SO           PENM   O  L  CAS    OPEN    MO    LCAS
    OPENMOLCA   SOP           ENM   O  L  CAS   OP  EN  MOLC  AS   O
    OPENMOLCA   SOPE           NM      O  LCA   S      OP  EN MO
    OPENMOLC                AS         O  PEN   M      OL  CA  SOPE
    OPENMO        LCASOPE  NMOL        C  ASO   P      ENMOLC     AS
    OPE     NMO      LCA  SO     P     E   NM   OL  CA SO  PE N   MO
          OPENMOLCA            SOPE   NMO        LCAS  O    P  ENMO
     OPENMOLCASOPENMOLCASOPENMOLCASOPENMOLCA
        OPENMOLCASOPENMOLCASOPENMOLCASOPE
            OPENMOLCASOPENMOLCASOPENM
               OPENMOLCASOPENMOLCA        version: o91e1abe7de707b ?
                   OPENMOLCASO
                       OPE                tag:

 OpenMolcas is free software; you can redistribute it and/or modify it
 under the terms of the GNU Lesser General Public License version 2.1.
 OpenMolcas is distributed in the hope that it will be useful, but it
 is provided "as is" and without any express or implied warranties.
 For more details see the full text of the license in the file
 LICENSE or in <http://www.gnu.org/licenses/>.

                 Copyright (C) The OpenMolcas Authors
           For the author list and the recommended citation,
                   consult the file CONTRIBUTORS.md

           *************************************************
           * pymolcas version py2.10                       *
           *   build 3068ae8b88c9345ec6cfef6fef7f1169      *
           *   (after the EMIL interpreter by V. Veryazov) *
           *************************************************

configuration info
------------------
Host name: login1 (Linux)
C Compiler ID: GNU
C flags: -std=gnu99
Fortran Compiler ID: GNU
Fortran flags: -fno-aggressive-loop-optimizations -cpp -fdefault-integer-8 -fmax-stack-var-size=1048576
Definitions: _MOLCAS_;_I8_;_LINUX_;_MKL_
Parallel: OFF (GA=OFF)


   -----------------------------------------------------------------------------------------------------------------------------------
  |
  |           Project: niobium_so_cf
  |    Submitted from: /home4/s4752295/Internship/Initial_simulations/Point_charge_model/1_electron/Madelung_charges_9_active_space/Nb
  |      Scratch area: /tmp/niobium_so_cf
  |   Save outputs to: /home4/s4752295/Internship/Initial_simulations/Point_charge_model/1_electron/Madelung_charges_9_active_space/Nb
  |            Molcas: /home4/s4752295/Internship/Molcas/recomp_try/OpenMolcas-master/build
  |
  | Scratch area is empty
  |
  |    MOLCAS_DRIVER = /home4/s4752295/Internship/Molcas/bin/pymolcas
  |    MOLCAS_NPROCS = 1
  |    MOLCAS_SOURCE = /home4/s4752295/Internship/Molcas/recomp_try/OpenMolcas-master
  | MOLCAS_STRUCTURE = 0
  |
   -----------------------------------------------------------------------------------------------------------------------------------

++ ---------   Input file   ---------

&SEWARD
AMFi

CLIG
$R

Basis Set
Nb.ANO-rcc.Roos.21s18p13d6f4g2h.10s9p8d5f4g2h.
Spherical d
Nb            -1.0658140267135469e-14   -3.5527134223784897e-15 0.008753588724385739
End of Basis

Xfield

414
-1.600880432,-0.6160000000000001,0.3556476      -0.625931
-1.600880432,-0.0,-0.7112956    -0.625931
-1.600880432,0.6160000000000001,0.3556476       -0.625931
-1.5981384280000002,0.0,0.0     1.892092
1.0636718760000001,-0.6160000000000001,-0.3556476       2.515516
1.0636718760000001,0.0,0.7112956        2.515516
1.0636718760000001,0.6160000000000001,-0.3556476        2.515516
1.425195312,-1.2320000000000002,0.0     0.004632
1.425195312,-0.6160000000000001,-1.0669432      0.004632
1.425195312,-0.6160000000000001,1.0669432       0.004632
1.425195312,0.6160000000000001,-1.0669432       0.004632
1.425195312,0.6160000000000001,1.0669432        0.004632
1.425195312,1.2320000000000002,0.0      0.004632
1.6516601560000002,-0.6160000000000001,0.3556476        -2.519484
1.6516601560000002,-0.0,-0.7112956      -2.519484
1.6516601560000002,0.6160000000000001,0.3556476 -2.519484
-1.1732421880000001,-0.0,-0.0   -3.142907
-1.9900390640000003,-1.2320000000000002,-0.7112956      -0.625931
-1.9900390640000003,0.0,1.4225908       -0.625931
-1.9900390640000003,1.2320000000000002,-0.7112956       -0.625931
-2.6437500000000003,-1.2320000000000002,0.0     1.892092
-2.6437500000000003,-0.6160000000000001,-1.0669432      1.892092
-2.6437500000000003,-0.6160000000000001,1.0669432       1.892092
-2.6437500000000003,0.6160000000000001,-1.0669432       1.892092
-2.6437500000000003,0.6160000000000001,1.0669432        1.892092
-2.6437500000000003,1.2320000000000002,0.0      1.892092
10.068750000000001,-1.2320000000000002,0.7112956        2.515516
10.068750000000001,-0.0,-1.4225908      2.515516
10.068750000000001,1.2320000000000002,0.7112956 2.515516
1.455468752,-1.2320000000000002,-0.7112956      -2.519484
1.455468752,0.0,1.4225908       -2.519484
1.455468752,1.2320000000000002,-0.7112956       -2.519484
-1.2929687520000002,-1.2320000000000002,-0.0    -3.142907
-1.2929687520000002,-0.6160000000000001,-1.0669432      -3.142907
-1.2929687520000002,-0.6160000000000001,1.0669432       -3.142907
-1.2929687520000002,0.6160000000000001,-1.0669432       -3.142907
-1.2929687520000002,0.6160000000000001,1.0669432        -3.142907
-1.2929687520000002,1.2320000000000002,-0.0     -3.142907
-3.809375,-1.2320000000000002,1.4225908 -0.625931
-3.809375,1.2320000000000002,1.4225908  -0.625931
-3.809375,-1.848,0.3556476      -0.625931
-3.809375,1.848,0.3556476       -0.625931
-3.809375,-0.6160000000000001,-1.7782388000000002       -0.625931
-3.809375,0.6160000000000001,-1.7782388000000002        -0.625931
2.403125,-0.6160000000000001,-0.3556476 4.409069
2.403125,0.6160000000000001,-0.3556476  4.409069
2.403125,0.0,0.7112956  4.409069
-70.10000000000001,-0.0,-0.0    -5.030367
-70.10000000000001,0.0,0.0      5.039632
5.407031248,-1.2320000000000002,-1.4225908      2.515516
5.407031248,1.2320000000000002,-1.4225908       2.515516
5.407031248,-1.848,-0.3556476   2.515516
5.407031248,1.848,-0.3556476    2.515516
5.407031248,-0.6160000000000001,1.7782388000000002      2.515516
5.407031248,0.6160000000000001,1.7782388000000002       2.515516
7.6156250000000005,-1.848,-1.0669432    0.004632
7.6156250000000005,-1.848,1.0669432     0.004632
7.6156250000000005,1.848,-1.0669432     0.004632
7.6156250000000005,1.848,1.0669432      0.004632
7.6156250000000005,-0.0,-2.1338864      0.004632
7.6156250000000005,0.0,2.1338864        0.004632
19.231250000000003,-1.2320000000000002,1.4225908        -2.519484
19.231250000000003,1.2320000000000002,1.4225908 -2.519484
19.231250000000003,-1.848,0.3556476     -2.519484
19.231250000000003,1.848,0.3556476      -2.519484
19.231250000000003,-0.6160000000000001,-1.7782388000000002      -2.519484
19.231250000000003,0.6160000000000001,-1.7782388000000002       -2.519484
-58.35,-1.848,-1.0669432        1.892092
-58.35,-1.848,1.0669432 1.892092
-58.35,1.848,-1.0669432 1.892092
-58.35,1.848,1.0669432  1.892092
-58.35,-0.0,-2.1338864  1.892092
-58.35,0.0,2.1338864    1.892092
-47.1,-1.2320000000000002,0.7112956     4.409069
-47.1,-0.0,-1.4225908   4.409069
-47.1,1.2320000000000002,0.7112956      4.409069
-35.6,-1.2320000000000002,-0.0  -5.030367
-35.6,-0.6160000000000001,-1.0669432    -5.030367
-35.6,-0.6160000000000001,1.0669432     -5.030367
-35.6,0.6160000000000001,-1.0669432     -5.030367
-35.6,-1.2320000000000002,0.0   5.039632
-35.6,1.2320000000000002,-0.0   -5.030367
-35.6,0.6160000000000001,1.0669432      -5.030367
-35.6,-0.6160000000000001,-1.0669432    5.039632
-35.6,-0.6160000000000001,1.0669432     5.039632
-35.6,0.6160000000000001,-1.0669432     5.039632
-35.6,1.2320000000000002,0.0    5.039632
-35.6,0.6160000000000001,1.0669432      5.039632
-18.650000000000002,-0.6160000000000001,-0.3556476      -5.660931
-18.650000000000002,0.0,0.7112956       -5.660931
-18.650000000000002,0.6160000000000001,-0.3556476       -5.660931
0.353125,-2.4639996,0.0 0.004632
0.353125,-1.2320000000000002,-2.1338864 0.004632
0.353125,-1.2320000000000002,2.1338864  0.004632
0.353125,1.2320000000000002,-2.1338864  0.004632
0.353125,2.4639996,0.0  0.004632
0.353125,1.2320000000000002,2.1338864   0.004632
27.175,-1.848,1.0669432 -3.142907
27.175,-1.848,-1.0669432        -3.142907
27.175,1.848,-1.0669432 -3.142907
27.175,1.848,1.0669432  -3.142907
27.175,-0.0,-2.1338864  -3.142907
27.175,0.0,2.1338864    -3.142907
34.550000000000004,-2.4639996,-0.7112956        -0.625931
34.550000000000004,-1.848,-1.7782388000000002   -0.625931
34.550000000000004,-0.6160000000000001,2.4895340000000004       -0.625931
34.550000000000004,1.848,-1.7782388000000002    -0.625931
34.550000000000004,2.4639996,-0.7112956 -0.625931
34.550000000000004,0.6160000000000001,2.4895340000000004        -0.625931
0.47890624800000003,-2.4639996,0.0      1.892092
0.47890624800000003,-1.2320000000000002,-2.1338864      1.892092
0.47890624800000003,-1.2320000000000002,2.1338864       1.892092
0.47890624800000003,1.2320000000000002,-2.1338864       1.892092
0.47890624800000003,2.4639996,0.0       1.892092
0.47890624800000003,1.2320000000000002,2.1338864        1.892092
13.537500000000001,-1.2320000000000002,-1.4225908       4.409069
13.537500000000001,1.2320000000000002,-1.4225908        4.409069
13.537500000000001,-1.848,-0.3556476    4.409069
13.537500000000001,1.848,-0.3556476     4.409069
13.537500000000001,-0.6160000000000001,1.7782388000000002       4.409069
13.537500000000001,0.6160000000000001,1.7782388000000002        4.409069
64.9625,-1.2320000000000002,0.7112956   -5.660931
64.9625,-0.0,-1.4225908 -5.660931
64.9625,1.2320000000000002,0.7112956    -5.660931
0.1375,-2.4639996,0.7112956     2.515516
0.1375,-0.6160000000000001,-2.4895340000000004  2.515516
0.1375,-1.848,1.7782388000000002        2.515516
0.1375,0.6160000000000001,-2.4895340000000004   2.515516
0.1375,2.4639996,0.7112956      2.515516
0.1375,1.848,1.7782388000000002 2.515516
-37.675000000000004,-2.4639996,-0.7112956       -2.519484
-37.675000000000004,-1.848,-1.7782388000000002  -2.519484
-37.675000000000004,-0.6160000000000001,2.4895340000000004      -2.519484
-37.675000000000004,1.848,-1.7782388000000002   -2.519484
-37.675000000000004,0.6160000000000001,2.4895340000000004       -2.519484
-37.675000000000004,2.4639996,-0.7112956        -2.519484
-8.828125,-2.4639996,-0.0       -3.142907
-8.828125,-1.2320000000000002,-2.1338864        -3.142907
-8.828125,-1.2320000000000002,2.1338864 -3.142907
-8.828125,1.2320000000000002,-2.1338864 -3.142907
-8.828125,1.2320000000000002,2.1338864  -3.142907
-8.828125,2.4639996,-0.0        -3.142907
242.60000000000002,0.0,0.0      6.927092
129.3,-2.4639996,1.4225908      -0.625931
129.3,2.4639996,1.4225908       -0.625931
129.3,-0.0,-2.8451820000000003  -0.625931
-2.16875,-1.848,1.0669432       -5.030367
-2.16875,-1.848,-1.0669432      -5.030367
-2.16875,-1.848,1.0669432       5.039632
-2.16875,-1.848,-1.0669432      5.039632
-2.16875,1.848,-1.0669432       -5.030367
-2.16875,1.848,1.0669432        -5.030367
-2.16875,1.848,-1.0669432       5.039632
-2.16875,1.848,1.0669432        5.039632
-2.16875,-0.0,-2.1338864        -5.030367
-2.16875,0.0,2.1338864  -5.030367
-2.16875,-0.0,-2.1338864        5.039632
-2.16875,0.0,2.1338864  5.039632
36.725,-1.2320000000000002,-1.4225908   -5.660931
36.725,1.2320000000000002,-1.4225908    -5.660931
36.725,-1.848,-0.3556476        -5.660931
36.725,1.848,-0.3556476 -5.660931
36.725,-0.6160000000000001,1.7782388000000002   -5.660931
36.725,0.6160000000000001,1.7782388000000002    -5.660931
120.2,-2.4639996,-1.4225908     2.515516
120.2,2.4639996,-1.4225908      2.515516
120.2,0.0,2.8451820000000003    2.515516
-206.9,-2.4639996,1.4225908     -2.519484
-206.9,2.4639996,1.4225908      -2.519484
-206.9,-0.0,-2.8451820000000003 -2.519484
21.425,-1.2320000000000002,0.0  6.927092
21.425,-0.6160000000000001,-1.0669432   6.927092
21.425,-0.6160000000000001,1.0669432    6.927092
21.425,0.6160000000000001,-1.0669432    6.927092
21.425,0.6160000000000001,1.0669432     6.927092
21.425,1.2320000000000002,0.0   6.927092
-22.1,-0.6160000000000001,0.3556476     7.550516
-22.1,0.0,-0.7112956    7.550516
-22.1,0.6160000000000001,0.3556476      7.550516
6.2125,-0.6160000000000001,-0.3556476   -7.554483
6.2125,0.6160000000000001,-0.3556476    -7.554483
6.2125,-0.0,0.7112956   -7.554483
-49.95,-3.0799996000000003,0.3556476    -0.625931
-49.95,-1.848,2.4895340000000004        -0.625931
-49.95,-1.2320000000000002,-2.8451820000000003  -0.625931
-49.95,1.2320000000000002,-2.8451820000000003   -0.625931
-49.95,3.0799996000000003,0.3556476     -0.625931
-49.95,1.848,2.4895340000000004 -0.625931
-26.975,-2.4639996,0.7112956    4.409069
-26.975,-1.848,1.7782388000000002       4.409069
-26.975,-0.6160000000000001,-2.4895340000000004 4.409069
-26.975,0.6160000000000001,-2.4895340000000004  4.409069
-26.975,1.848,1.7782388000000002        4.409069
-26.975,2.4639996,0.7112956     4.409069
19.6625,-2.4639996,-0.0 -5.030367
19.6625,-1.2320000000000002,-2.1338864  -5.030367
19.6625,-1.2320000000000002,2.1338864   -5.030367
19.6625,-2.4639996,0.0  5.039632
19.6625,-1.2320000000000002,-2.1338864  5.039632
19.6625,1.2320000000000002,-2.1338864   -5.030367
19.6625,1.2320000000000002,2.1338864    -5.030367
19.6625,2.4639996,-0.0  -5.030367
19.6625,-1.2320000000000002,2.1338864   5.039632
19.6625,1.2320000000000002,-2.1338864   5.039632
19.6625,2.4639996,0.0   5.039632
19.6625,1.2320000000000002,2.1338864    5.039632
72.3,-3.0799996000000003,-0.3556476     2.515516
72.3,-1.848,-2.4895340000000004 2.515516
72.3,-1.2320000000000002,2.8451820000000003     2.515516
72.3,1.848,-2.4895340000000004  2.515516
72.3,3.0799996000000003,-0.3556476      2.515516
72.3,1.2320000000000002,2.8451820000000003      2.515516
-9.3375,-3.0799996000000003,-1.0669432  0.004632
-9.3375,-3.0799996000000003,1.0669432   0.004632
-9.3375,-2.4639996,-2.1338864   0.004632
-9.3375,-2.4639996,2.1338864    0.004632
-9.3375,-0.6160000000000001,-3.2008296000000005 0.004632
-9.3375,0.6160000000000001,-3.2008296000000005  0.004632
-9.3375,-0.6160000000000001,3.2008296000000005  0.004632
-9.3375,2.4639996,-2.1338864    0.004632
-9.3375,0.6160000000000001,3.2008296000000005   0.004632
-9.3375,3.0799996000000003,-1.0669432   0.004632
-9.3375,3.0799996000000003,1.0669432    0.004632
-9.3375,2.4639996,2.1338864     0.004632
-57.25,-3.0799996000000003,0.3556476    -2.519484
-57.25,-1.848,2.4895340000000004        -2.519484
-57.25,-1.2320000000000002,-2.8451820000000003  -2.519484
-57.25,1.2320000000000002,-2.8451820000000003   -2.519484
-57.25,3.0799996000000003,0.3556476     -2.519484
-57.25,1.848,2.4895340000000004 -2.519484
1212.8,-0.0,-0.0        -8.177907
-46.400000000000006,-1.2320000000000002,-0.7112956      7.550516
-46.400000000000006,0.0,1.4225908       7.550516
-46.400000000000006,1.2320000000000002,-0.7112956       7.550516
-241.4,-1.2320000000000002,0.7112956    -7.554483
-241.4,-0.0,-1.4225908  -7.554483
-241.4,1.2320000000000002,0.7112956     -7.554483
19.5625,-3.0799996000000003,1.0669432   1.892092
19.5625,-3.0799996000000003,-1.0669432  1.892092
19.5625,-2.4639996,-2.1338864   1.892092
19.5625,-2.4639996,2.1338864    1.892092
19.5625,-0.6160000000000001,-3.2008296000000005 1.892092
19.5625,0.6160000000000001,-3.2008296000000005  1.892092
19.5625,-0.6160000000000001,3.2008296000000005  1.892092
19.5625,2.4639996,-2.1338864    1.892092
19.5625,0.6160000000000001,3.2008296000000005   1.892092
19.5625,3.0799996000000003,-1.0669432   1.892092
19.5625,3.0799996000000003,1.0669432    1.892092
19.5625,2.4639996,2.1338864     1.892092
-202.0,-2.4639996,-1.4225908    4.409069
-202.0,2.4639996,-1.4225908     4.409069
-202.0,0.0,2.8451820000000003   4.409069
10.328125,-2.4639996,0.7112956  -5.660931
10.328125,-0.6160000000000001,-2.4895340000000004       -5.660931
10.328125,-1.848,1.7782388000000002     -5.660931
10.328125,0.6160000000000001,-2.4895340000000004        -5.660931
10.328125,1.848,1.7782388000000002      -5.660931
10.328125,2.4639996,0.7112956   -5.660931
-23.275000000000002,-2.4639996,-2.1338864       -3.142907
-23.275000000000002,-3.0799996000000003,1.0669432       -3.142907
-23.275000000000002,-3.0799996000000003,-1.0669432      -3.142907
-23.275000000000002,-2.4639996,2.1338864        -3.142907
-23.275000000000002,-0.6160000000000001,-3.2008296000000005     -3.142907
-23.275000000000002,0.6160000000000001,-3.2008296000000005      -3.142907
-23.275000000000002,-0.6160000000000001,3.2008296000000005      -3.142907
-23.275000000000002,3.0799996000000003,-1.0669432       -3.142907
-23.275000000000002,2.4639996,-2.1338864        -3.142907
-23.275000000000002,0.6160000000000001,3.2008296000000005       -3.142907
-23.275000000000002,3.0799996000000003,1.0669432        -3.142907
-23.275000000000002,2.4639996,2.1338864 -3.142907
26.1625,-1.848,-1.0669432       6.927092
26.1625,-1.848,1.0669432        6.927092
26.1625,1.848,-1.0669432        6.927092
26.1625,1.848,1.0669432 6.927092
26.1625,-0.0,-2.1338864 6.927092
26.1625,0.0,2.1338864   6.927092
-33.300000000000004,-1.2320000000000002,-0.0    -8.177907
-33.300000000000004,-0.6160000000000001,1.0669432       -8.177907
-33.300000000000004,-0.6160000000000001,-1.0669432      -8.177907
-33.300000000000004,0.6160000000000001,-1.0669432       -8.177907
-33.300000000000004,1.2320000000000002,-0.0     -8.177907
-33.300000000000004,0.6160000000000001,1.0669432        -8.177907
-36.362500000000004,-1.2320000000000002,1.4225908       7.550516
-36.362500000000004,1.2320000000000002,1.4225908        7.550516
-36.362500000000004,-1.848,0.3556476    7.550516
-36.362500000000004,1.848,0.3556476     7.550516
-36.362500000000004,-0.6160000000000001,-1.7782388000000002     7.550516
-36.362500000000004,0.6160000000000001,-1.7782388000000002      7.550516
-18.275000000000002,-1.2320000000000002,-1.4225908      -7.554483
-18.275000000000002,1.2320000000000002,-1.4225908       -7.554483
-18.275000000000002,-1.848,-0.3556476   -7.554483
-18.275000000000002,1.848,-0.3556476    -7.554483
-18.275000000000002,-0.6160000000000001,1.7782388000000002      -7.554483
-18.275000000000002,0.6160000000000001,1.7782388000000002       -7.554483
-200.10000000000002,0.0,3.5564772       -0.625931
-200.10000000000002,-3.0799996000000003,-1.7782388000000002     -0.625931
-200.10000000000002,3.0799996000000003,-1.7782388000000002      -0.625931
-107.9,-3.0799996000000003,-0.3556476   4.409069
-107.9,-1.848,-2.4895340000000004       4.409069
-107.9,-1.2320000000000002,2.8451820000000003   4.409069
-107.9,1.848,-2.4895340000000004        4.409069
-107.9,3.0799996000000003,-0.3556476    4.409069
-107.9,1.2320000000000002,2.8451820000000003    4.409069
124.15,-2.4639996,-1.4225908    -5.660931
124.15,2.4639996,-1.4225908     -5.660931
124.15,0.0,2.8451820000000003   -5.660931
234.8,-0.0,-3.5564772   2.515516
234.8,-3.0799996000000003,1.7782388000000002    2.515516
234.8,3.0799996000000003,1.7782388000000002     2.515516
-37.550000000000004,-3.6959996,-0.0     0.004632
-37.550000000000004,1.848,-3.2008296000000005   0.004632
-37.550000000000004,-1.848,3.2008296000000005   0.004632
-37.550000000000004,3.6959996,-0.0      0.004632
-37.550000000000004,-1.848,-3.2008296000000005  0.004632
-37.550000000000004,1.848,3.2008296000000005    0.004632
-154.3,0.0,3.5564772    -2.519484
-154.3,-3.0799996000000003,-1.7782388000000002  -2.519484
-154.3,3.0799996000000003,-1.7782388000000002   -2.519484
91.2,-2.4639996,0.0     6.927092
91.2,-1.2320000000000002,-2.1338864     6.927092
91.2,-1.2320000000000002,2.1338864      6.927092
91.2,1.2320000000000002,-2.1338864      6.927092
91.2,2.4639996,0.0      6.927092
91.2,1.2320000000000002,2.1338864       6.927092
84.75,-3.6959996,-0.7112956     -0.625931
84.75,-1.2320000000000002,3.5564772     -0.625931
84.75,-2.4639996,-2.8451820000000003    -0.625931
84.75,2.4639996,-2.8451820000000003     -0.625931
84.75,1.2320000000000002,3.5564772      -0.625931
84.75,3.6959996,-0.7112956      -0.625931
44.775000000000006,-3.6959996,0.0       1.892092
44.775000000000006,-1.848,-3.2008296000000005   1.892092
44.775000000000006,-1.848,3.2008296000000005    1.892092
44.775000000000006,1.848,-3.2008296000000005    1.892092
44.775000000000006,3.6959996,0.0        1.892092
44.775000000000006,1.848,3.2008296000000005     1.892092
-1.7281250000000001,-3.0799996000000003,1.0669432       -5.030367
-1.7281250000000001,-3.0799996000000003,-1.0669432      -5.030367
-1.7281250000000001,-2.4639996,-2.1338864       -5.030367
-1.7281250000000001,-2.4639996,2.1338864        -5.030367
-1.7281250000000001,-3.0799996000000003,1.0669432       5.039632
-1.7281250000000001,0.6160000000000001,-3.2008296000000005      -5.030367
-1.7281250000000001,-0.6160000000000001,-3.2008296000000005     -5.030367
-1.7281250000000001,-3.0799996000000003,-1.0669432      5.039632
-1.7281250000000001,-2.4639996,-2.1338864       5.039632
-1.7281250000000001,-0.6160000000000001,3.2008296000000005      -5.030367
-1.7281250000000001,0.6160000000000001,-3.2008296000000005      5.039632
-1.7281250000000001,-2.4639996,2.1338864        5.039632
-1.7281250000000001,-0.6160000000000001,-3.2008296000000005     5.039632
-1.7281250000000001,2.4639996,-2.1338864        -5.030367
-1.7281250000000001,0.6160000000000001,3.2008296000000005       -5.030367
-1.7281250000000001,3.0799996000000003,-1.0669432       -5.030367
-1.7281250000000001,3.0799996000000003,1.0669432        -5.030367
-1.7281250000000001,2.4639996,2.1338864 -5.030367
-1.7281250000000001,-0.6160000000000001,3.2008296000000005      5.039632
-1.7281250000000001,2.4639996,-2.1338864        5.039632
-1.7281250000000001,3.0799996000000003,-1.0669432       5.039632
-1.7281250000000001,0.6160000000000001,3.2008296000000005       5.039632
-1.7281250000000001,3.0799996000000003,1.0669432        5.039632
-1.7281250000000001,2.4639996,2.1338864 5.039632
-0.275,-3.0799996000000003,-0.3556476   -5.660931
-0.275,-1.848,-2.4895340000000004       -5.660931
-0.275,-1.2320000000000002,2.8451820000000003   -5.660931
-0.275,1.848,-2.4895340000000004        -5.660931
-0.275,1.2320000000000002,2.8451820000000003    -5.660931
-0.275,3.0799996000000003,-0.3556476    -5.660931
46.400000000000006,-0.6160000000000001,0.3556476        9.444068
46.400000000000006,0.0,-0.7112956       9.444068
46.400000000000006,0.6160000000000001,0.3556476 9.444068
20.525000000000002,-3.6959996,0.7112956 2.515516
20.525000000000002,-1.2320000000000002,-3.5564772       2.515516
20.525000000000002,1.2320000000000002,-3.5564772        2.515516
20.525000000000002,-2.4639996,2.8451820000000003        2.515516
20.525000000000002,3.6959996,0.7112956  2.515516
20.525000000000002,2.4639996,2.8451820000000003 2.515516
62.75,-3.6959996,-0.7112956     -2.519484
62.75,-1.2320000000000002,3.5564772     -2.519484
62.75,-2.4639996,-2.8451820000000003    -2.519484
62.75,2.4639996,-2.8451820000000003     -2.519484
62.75,3.6959996,-0.7112956      -2.519484
62.75,1.2320000000000002,3.5564772      -2.519484
87.85000000000001,-3.6959996,-0.0       -3.142907
87.85000000000001,-1.848,-3.2008296000000005    -3.142907
87.85000000000001,-1.848,3.2008296000000005     -3.142907
87.85000000000001,1.848,-3.2008296000000005     -3.142907
87.85000000000001,3.6959996,-0.0        -3.142907
87.85000000000001,1.848,3.2008296000000005      -3.142907
3.458203124,-1.848,-1.0669432   -8.177907
3.458203124,-1.848,1.0669432    -8.177907
3.458203124,1.848,1.0669432     -8.177907
3.458203124,1.848,-1.0669432    -8.177907
3.458203124,-0.0,-2.1338864     -8.177907
3.458203124,0.0,2.1338864       -8.177907
100.75,-1.848,-1.7782388000000002       7.550516
100.75,-2.4639996,-0.7112956    7.550516
100.75,-0.6160000000000001,2.4895340000000004   7.550516
100.75,1.848,-1.7782388000000002        7.550516
100.75,0.6160000000000001,2.4895340000000004    7.550516
100.75,2.4639996,-0.7112956     7.550516
-139.20000000000002,-1.848,1.7782388000000002   -7.554483
-139.20000000000002,-2.4639996,0.7112956        -7.554483
-139.20000000000002,-0.6160000000000001,-2.4895340000000004     -7.554483
-139.20000000000002,0.6160000000000001,-2.4895340000000004      -7.554483
-139.20000000000002,2.4639996,0.7112956 -7.554483
-139.20000000000002,1.848,1.7782388000000002    -7.554483
28.50625,-3.0799996000000003,2.4895340000000004 -0.625931
28.50625,-3.6959996,1.4225908   -0.625931
28.50625,-0.6160000000000001,-3.9121252 -0.625931
28.50625,0.6160000000000001,-3.9121252  -0.625931
28.50625,3.6959996,1.4225908    -0.625931
28.50625,3.0799996000000003,2.4895340000000004  -0.625931
-193.5,-0.0,-3.5564772  4.409069
-193.5,-3.0799996000000003,1.7782388000000002   4.409069
-193.5,3.0799996000000003,1.7782388000000002    4.409069

End of input

&SCF
Occupied
9
Iterations
   50  100
End of Input

&RASSCF
LumOrb
Symmetry
1
Spin
2
Nactel
1 0 0
CIRoot
9 9 1
inactive
9
ras2
9
End of Input

>>> COPY niobium_so_cf.JobIph $SLURM_SUBMIT_DIR/niobium_so_cf.doublet.JobIph

>>> COPY $SLURM_SUBMIT_DIR/niobium_so_cf.doublet.JobIph ./JOB002

&RASSI
NROFJobIph
1 All
SpinOrbit
End of Input

EOF

-- ----------------------------------

--- Start Module: seward at Tue Mar 25 17:57:08 2025 ---

()()()()()()()()()()()()()()()()()()()()()()()()()()()()()()()()()()()()()()()()()()()()()()()()()()

                                              &SEWARD

                                   only a single process is used
                       available to each process: 4.1 GB of memory, 1 thread?
                                            pid: 1257859
()()()()()()()()()()()()()()()()()()()()()()()()()()()()()()()()()()()()()()()()()()()()()()()()()()

 The speed of LIGHT in this CALCULATION =   137.03599917700001     
               SEWARD will generate:
                  Multipole Moment integrals up to order  2
                  Kinetic Energy integrals
                  Nuclear Attraction integrals (point charge)
                  One-Electron Hamiltonian integrals
                  Velocity integrals
                  Relativistic Douglas-Kroll-Hess integrals:
                    - Parametrization         : EXP
                    - DKH order of Hamiltonian: 2
                    - DKH order of Properties : 0
                         - multipole moment operators
                         - electric potential operators
                         - contact operators
                  External field from   414 point(s) added to the one-electron Hamiltonian
                  Orbital angular momentum around (-0.0000 -0.0000  0.0088 )
                  Velocity quadrupole around (-0.0000 -0.0000  0.0088 )
                  Atomic mean-field integrals
                  Two-Electron Repulsion integrals

                   Integrals are discarded if absolute value <: 0.10E-13
                   Integral cutoff threshold is set to       <: 0.10E-15

++    Symmetry information:
      ---------------------

                    Character Table for C1 

                             E  
                    a        1  x, y, xy, Rz, z, xz, Ry, yz, Rx, I
--


++    Basis set information:
      ----------------------


      Basis set label: NB.ANO-RCC.ROOS.21S18P13D6F4G2H.10S9P8D5F4G2H......

      Electronic valence basis set:
      ------------------
      Associated Effective Charge  41.000000 au
      Associated Actual Charge     41.000000 au
      Nuclear Model: Point charge

      Shell  nPrim  nBasis  Cartesian Spherical Contaminant
         s      21      10        X                  
         p      18       9        X                  
         d      13       8                 X         
         f       6       5                 X         
         g       4       4                 X         
         h       2       2                 X         
--


++    Molecular structure info:
      -------------------------

                    ************************************************ 
                    **** Cartesian Coordinates / Bohr, Angstrom **** 
                    ************************************************ 

     Center  Label                x              y              z                     x              y              z
        1      NB              -0.000000      -0.000000       0.008754             -0.000000      -0.000000       0.004632
--


++    Operator info:
      --------------


  Net charge from external field:   -39.268449999999902     
--


            Nuclear Potential Energy              0.00000000 au

                    Nuclear-External Field Potential Energy    -937.76684842 au
                    External Field Potential Energy            4014.09225346 au 


            Total Nuclear Potential Energy           -937.76684842 au


      Basis set specifications :
      Symmetry species         a  
      Basis functions          170

 Sorry, Molden does not know how to handle
 functions with angular momentum larger than g
Note: The following floating-point exceptions are signalling: IEEE_UNDERFLOW_FLAG IEEE_DENORMAL
--- Stop Module: seward at Tue Mar 25 17:57:18 2025 /rc=_RC_ALL_IS_WELL_ ---
*** files: niobium_so_cf.GssOrb xmldump
    saved to directory /home4/s4752295/Internship/Initial_simulations/Point_charge_model/1_electron/Madelung_charges_9_active_space/Nb
--- Module seward spent 10 seconds ---

*** symbolic link created: INPORB -> niobium_so_cf.GssOrb
--- Start Module: scf at Tue Mar 25 17:57:19 2025 ---

()()()()()()()()()()()()()()()()()()()()()()()()()()()()()()()()()()()()()()()()()()()()()()()()()()

                                                &SCF

                                   only a single process is used
                       available to each process: 4.1 GB of memory, 1 thread?
                                            pid: 1257866
()()()()()()()()()()()()()()()()()()()()()()()()()()()()()()()()()()()()()()()()()()()()()()()()()()

++    Input section:
      --------------

      Header of the integral files:
      
       Integrals generated by seward 4.2.0  , Tue Mar 25 17:57:09 2025


      Cartesian coordinates in Angstrom:
      -----------------------------------------------------
      No.  Label        X            Y            Z        
      -----------------------------------------------------
       1   NB        -0.00000000  -0.00000000   0.00463220
      -----------------------------------------------------
      Nuclear repulsion energy = -937.76684842
--

++    Orbital specifications:
      -----------------------

      Symmetry species               1
                                     a
      Frozen orbitals                0
      Occupied orbitals              9
      Secondary orbitals           161
      Deleted orbitals               0
      Total number of orbitals     170
      Number of basis functions    170
--

      Molecular charge                          23.000

++    Optimization specifications:
      ----------------------------

      SCF Algorithm: Conventional
      Minimized density differences are used
      Number of density matrices in core                5
      Maximum number of NDDO SCF iterations            50
      Maximum number of HF SCF iterations             100
      Threshold for SCF energy change            0.10E-08
      Threshold for density matrix               0.10E-03
      Threshold for Fock matrix                  0.15E-03
      Threshold for linear dependence            0.10E-08
      Threshold at which DIIS is turned on       0.15E+00
      Threshold at which QNR/C2DIIS is turned on 0.75E-01
      Threshold for Norm(delta) (QNR/C2DIIS)     0.20E-04
      DIIS extrapolation of the SCF procedure
      All orbitals punched on: SCFORB
--

      Detected guessorb starting orbitals                                             


++ Convergence information
                                   SCF        iterations: Energy and convergence statistics

Iter     Tot. SCF        One-elec.       Two-elec.     Energy      Max Dij or  Max Fij      DNorm      TNorm      AccCon     Time
         Energy          Energy          Energy        Change      Delta Norm                                                in Sec.

 The total and one-electron energies are shifted by a value of      4000. a.u.

   1   -12.121243321   323.169348147   602.476256953   0.00E+00    0.34E+00*   0.28E+01*    0.60E+01   0.31E+03   None         1.
   2   -18.985372052   280.566356883   638.215119486  -0.69E+01*   0.37E-01*   0.34E+00*    0.17E+01   0.32E+03   EDIIS        1.
   3   -19.025811911   282.609624652   636.131411858  -0.40E-01*   0.66E-02*   0.36E-01*    0.10E+00   0.32E+03   EDIIS        1.
   4   -19.026256362   282.446240522   636.294351537  -0.44E-03*   0.39E-03*   0.40E-02*    0.62E-02   0.32E+03   c2DIIS       1.
   5   -19.026263907   282.457297105   636.283287409  -0.75E-05*   0.11E-03*   0.60E-03*    0.10E-02   0.32E+03   QNRc2DIIS    1.
   6   -19.026264122   282.457505892   636.283078406  -0.22E-06*   0.54E-04*   0.18E-03*    0.56E-04   0.32E+03   QNRc2DIIS    1.
   7   -19.026264149   282.457493937   636.283090335  -0.27E-07*   0.82E-06    0.46E-05     0.91E-05   0.32E+03   QNRc2DIIS    1.
   8   -19.026264149   282.457496922   636.283087349  -0.12E-10    0.79E-07    0.70E-06     0.24E-02   0.32E+03   QNRc2DIIS    1.

       Convergence after  8 Macro Iterations
--

 *****************************************************************************************************************************
 *                                                                                                                           *
 *                                             SCF/KS-DFT Program, Final results                                             *
 *                                                                                                                           *
 *                                                                                                                           *
 *                                                                                                                           *
 *                                                       Final Results                                                       *
 *                                                                                                                           *
 *****************************************************************************************************************************

::    Total SCF energy                              -4019.0262641493
      One-electron energy                           -3717.5425030778
      Two-electron energy                             636.2830873493
      Nuclear repulsion energy                       -937.7668484209
      Kinetic energy (interpolated)                  3880.6348479959
      Virial theorem                                    1.0356620557
      Total spin, S(S+1)                                0.0000000000
      Total spin, S                                     0.0000000000
      Max non-diagonal density matrix element           0.0000001457
      Max non-diagonal Fock matrix element              0.0000001148


      All orbitals with orbital energies smaller than  E(LUMO)+0.5 are printed

++    Molecular orbitals:
      -------------------

      Title: SCF orbitals

      Molecular orbitals for symmetry species 1: a  

          Orbital            1         2         3         4         5         6         7         8         9        10    
          Energy         -714.4369 -113.4389 -102.6026 -102.6026 -102.5852  -24.7482  -20.8180  -20.8177  -20.4381  -13.8308
          Occ. No.          2.0000    2.0000    2.0000    2.0000    2.0000    2.0000    2.0000    2.0000    2.0000    0.0000

        1 NB     1s         1.0000   -0.0001    0.0000    0.0000   -0.0001    0.0001   -0.0000    0.0000    0.0000    0.0000
        2 NB     2s         0.0001    0.9998    0.0001    0.0000   -0.0160    0.0119    0.0000    0.0000   -0.0049    0.0000
        3 NB     3s        -0.0001   -0.0121   -0.0000   -0.0000    0.0020    0.9582    0.0005    0.0000   -0.2410   -0.0000
        4 NB     4s         0.0000    0.0029    0.0000    0.0000   -0.0004   -0.0920   -0.0001   -0.0000    0.0391    0.0000
        5 NB     5s        -0.0000   -0.0007   -0.0000   -0.0000    0.0001    0.0205    0.0000   -0.0000   -0.0089   -0.0000
        6 NB     6s         0.0000    0.0009    0.0000    0.0000   -0.0001   -0.0252   -0.0000   -0.0000    0.0110    0.0000
        7 NB     7s        -0.0000   -0.0023   -0.0000   -0.0000    0.0003    0.0615    0.0001    0.0000   -0.0271   -0.0000
        8 NB     8s         0.0000    0.0022    0.0000    0.0000   -0.0003   -0.0496   -0.0000   -0.0000    0.0221   -0.0000
        9 NB     9s        -0.0000   -0.0028   -0.0000   -0.0000    0.0004    0.0510    0.0000    0.0000   -0.0229    0.0000
       10 NB    10s         0.0001    0.0028    0.0000    0.0000   -0.0003   -0.0267   -0.0000   -0.0000    0.0116    0.0000
       11 NB     2px        0.0001    0.0161   -0.0071   -0.0000    0.9997    0.0017   -0.0001   -0.0000    0.0140    0.0000
       12 NB     3px       -0.0000    0.0014    0.0001    0.0000   -0.0136    0.2487   -0.0039   -0.0000    0.9378    0.0000
       13 NB     4px        0.0000   -0.0003   -0.0000   -0.0000    0.0029   -0.0170    0.0004    0.0000   -0.1025   -0.0000
       14 NB     5px       -0.0000    0.0001    0.0000    0.0000   -0.0010    0.0050   -0.0001   -0.0000    0.0320    0.0000
       15 NB     6px        0.0000   -0.0003   -0.0000   -0.0000    0.0026   -0.0114    0.0003    0.0000   -0.0773   -0.0000
       16 NB     7px       -0.0000    0.0003    0.0000    0.0000   -0.0023    0.0084   -0.0002   -0.0000    0.0625    0.0000
       17 NB     8px        0.0000   -0.0003   -0.0000   -0.0000    0.0029   -0.0075    0.0002    0.0000   -0.0642   -0.0000
       18 NB     9px       -0.0000    0.0003    0.0000    0.0000   -0.0027    0.0048   -0.0002   -0.0000    0.0485    0.0000
       19 NB    10px        0.0000   -0.0002   -0.0000   -0.0000    0.0023   -0.0016    0.0001    0.0000   -0.0231   -0.0000
       20 NB     2py        0.0000    0.0000   -0.0000    0.9999    0.0000    0.0000   -0.0000    0.0139    0.0000    0.0001
       21 NB     3py       -0.0000   -0.0000    0.0000   -0.0134   -0.0000    0.0000   -0.0000    0.9768    0.0000    0.0041
       22 NB     4py        0.0000    0.0000   -0.0000    0.0029    0.0000   -0.0000    0.0000   -0.1037   -0.0000   -0.0010
       23 NB     5py       -0.0000   -0.0000    0.0000   -0.0010   -0.0000    0.0000   -0.0000    0.0323    0.0000    0.0003
       24 NB     6py        0.0000    0.0000   -0.0000    0.0025    0.0000   -0.0000    0.0000   -0.0776   -0.0000   -0.0007
       25 NB     7py       -0.0000   -0.0000    0.0000   -0.0023   -0.0000    0.0000   -0.0000    0.0624    0.0000    0.0005
       26 NB     8py        0.0000    0.0000   -0.0000    0.0028    0.0000   -0.0000    0.0000   -0.0634   -0.0000   -0.0005
       27 NB     9py       -0.0000   -0.0000    0.0000   -0.0027   -0.0000    0.0000   -0.0000    0.0474    0.0000    0.0004
       28 NB    10py        0.0000    0.0000   -0.0000    0.0022    0.0000   -0.0000    0.0000   -0.0223   -0.0000   -0.0002
       29 NB     2pz        0.0000    0.0000    0.9999    0.0000    0.0071    0.0000    0.0139    0.0000    0.0001    0.0000
       30 NB     3pz       -0.0000    0.0000   -0.0134   -0.0000   -0.0001    0.0005    0.9768    0.0000    0.0038    0.0000
       31 NB     4pz        0.0000   -0.0000    0.0029    0.0000    0.0000   -0.0000   -0.1037   -0.0000   -0.0004   -0.0000
       32 NB     5pz       -0.0000    0.0000   -0.0010   -0.0000   -0.0000    0.0000    0.0323    0.0000    0.0001    0.0000
       33 NB     6pz        0.0000   -0.0000    0.0025    0.0000    0.0000   -0.0000   -0.0776   -0.0000   -0.0003   -0.0000
       34 NB     7pz       -0.0000    0.0000   -0.0023   -0.0000   -0.0000    0.0000    0.0624    0.0000    0.0003    0.0000
       35 NB     8pz        0.0000   -0.0000    0.0028    0.0000    0.0000   -0.0000   -0.0634   -0.0000   -0.0003   -0.0000
       36 NB     9pz       -0.0000    0.0000   -0.0027   -0.0000   -0.0000    0.0000    0.0474    0.0000    0.0002    0.0000
       37 NB    10pz        0.0000   -0.0000    0.0022    0.0000    0.0000   -0.0000   -0.0222   -0.0000   -0.0001   -0.0000
       38 NB     3d2-      -0.0000    0.0000   -0.0000    0.0012    0.0000    0.0000   -0.0000    0.1304    0.0000   -0.0325
       39 NB     4d2-       0.0000   -0.0000    0.0000   -0.0002   -0.0000   -0.0000    0.0000   -0.0074   -0.0000    0.0028
       40 NB     5d2-      -0.0000    0.0000   -0.0000    0.0002    0.0000    0.0000   -0.0000    0.0068    0.0000   -0.0028
       41 NB     6d2-       0.0000   -0.0000    0.0000   -0.0002   -0.0000   -0.0000    0.0000   -0.0054   -0.0000    0.0024
       42 NB     7d2-      -0.0000    0.0000   -0.0000    0.0002    0.0000    0.0000   -0.0000    0.0043    0.0000   -0.0022
       43 NB     8d2-       0.0000   -0.0000    0.0000   -0.0003   -0.0000   -0.0000    0.0000   -0.0036   -0.0000    0.0029
       44 NB     9d2-      -0.0000    0.0000   -0.0000    0.0003    0.0000   -0.0000   -0.0000    0.0017    0.0000   -0.0025
       45 NB    10d2-      -0.0000    0.0000   -0.0000    0.0004    0.0000   -0.0000    0.0000   -0.0003    0.0000   -0.0023
       46 NB     3d1-       0.0000   -0.0000   -0.0000    0.0000    0.0000   -0.0000   -0.0000    0.0000   -0.0000    0.9744
       47 NB     4d1-      -0.0000   -0.0000    0.0000   -0.0000   -0.0000    0.0000    0.0000   -0.0001    0.0000   -0.0937
       48 NB     5d1-       0.0000    0.0000   -0.0000    0.0000    0.0000   -0.0000   -0.0000    0.0001   -0.0000    0.0949
       49 NB     6d1-      -0.0000   -0.0000    0.0000   -0.0000   -0.0000    0.0000    0.0000   -0.0001    0.0000   -0.0833
       50 NB     7d1-       0.0000    0.0000   -0.0000    0.0000    0.0000   -0.0000   -0.0000    0.0000   -0.0000    0.0744
       51 NB     8d1-      -0.0000   -0.0000    0.0000   -0.0000    0.0000    0.0000    0.0000   -0.0000    0.0000   -0.0936
       52 NB     9d1-       0.0000    0.0000   -0.0000    0.0000   -0.0000   -0.0000   -0.0000    0.0000   -0.0000    0.0760
       53 NB    10d1-       0.0000    0.0000   -0.0000    0.0000   -0.0000   -0.0000    0.0000   -0.0000   -0.0000    0.0670
       54 NB     3d0        0.0000    0.0001    0.0000    0.0000   -0.0007   -0.0057    0.0008    0.0000   -0.0864   -0.0000
       55 NB     4d0       -0.0000   -0.0000   -0.0000   -0.0000    0.0001    0.0000   -0.0000   -0.0000    0.0051    0.0000
       56 NB     5d0        0.0000    0.0000    0.0000    0.0000   -0.0001    0.0000   -0.0000    0.0000   -0.0047   -0.0000
       57 NB     6d0       -0.0000   -0.0000   -0.0000   -0.0000    0.0001   -0.0001    0.0000   -0.0000    0.0038    0.0000
       58 NB     7d0        0.0000    0.0000    0.0000    0.0000   -0.0001    0.0001   -0.0000    0.0000   -0.0030   -0.0000
       59 NB     8d0       -0.0000   -0.0000   -0.0000   -0.0000    0.0002   -0.0002    0.0000   -0.0000    0.0027    0.0000
       60 NB     9d0        0.0000    0.0000    0.0000    0.0000   -0.0002    0.0002   -0.0000    0.0000   -0.0014   -0.0000
       61 NB    10d0        0.0000    0.0000    0.0000    0.0000   -0.0002    0.0002    0.0000    0.0000   -0.0002   -0.0000
       62 NB     3d1+      -0.0000   -0.0000    0.0012    0.0000    0.0000   -0.0001    0.1305    0.0000    0.0010   -0.0000
       63 NB     4d1+       0.0000    0.0000   -0.0002   -0.0000   -0.0000    0.0000   -0.0074   -0.0000   -0.0001    0.0000
       64 NB     5d1+      -0.0000   -0.0000    0.0002    0.0000    0.0000   -0.0000    0.0068    0.0000    0.0001   -0.0000
       65 NB     6d1+       0.0000    0.0000   -0.0002   -0.0000   -0.0000    0.0000   -0.0054   -0.0000   -0.0000    0.0000
       66 NB     7d1+      -0.0000   -0.0000    0.0002    0.0000    0.0000   -0.0000    0.0043    0.0000    0.0000   -0.0000
       67 NB     8d1+       0.0000    0.0000   -0.0003   -0.0000   -0.0000   -0.0000   -0.0036   -0.0000   -0.0000    0.0000
       68 NB     9d1+      -0.0000   -0.0000    0.0003    0.0000    0.0000    0.0000    0.0017    0.0000    0.0000   -0.0000
       69 NB    10d1+      -0.0000   -0.0000    0.0004    0.0000    0.0000    0.0000   -0.0003   -0.0000    0.0000   -0.0000
       70 NB     3d2+      -0.0000   -0.0001   -0.0000   -0.0000    0.0013    0.0098   -0.0004   -0.0000    0.1498   -0.0000
       71 NB     4d2+       0.0000    0.0000    0.0000    0.0000   -0.0002   -0.0000    0.0000    0.0000   -0.0087    0.0000
       72 NB     5d2+      -0.0000   -0.0000   -0.0000   -0.0000    0.0002   -0.0001   -0.0000   -0.0000    0.0082   -0.0000
       73 NB     6d2+       0.0000    0.0000    0.0000    0.0000   -0.0002    0.0001    0.0000    0.0000   -0.0065    0.0000
       74 NB     7d2+      -0.0000   -0.0000   -0.0000   -0.0000    0.0002   -0.0002   -0.0000   -0.0000    0.0052   -0.0000
       75 NB     8d2+       0.0000    0.0000    0.0000    0.0000   -0.0003    0.0004    0.0000    0.0000   -0.0047    0.0000
       76 NB     9d2+      -0.0000   -0.0000   -0.0000   -0.0000    0.0003   -0.0004   -0.0000   -0.0000    0.0025   -0.0000
       77 NB    10d2+      -0.0000   -0.0000   -0.0000   -0.0000    0.0003   -0.0004    0.0000    0.0000    0.0004   -0.0000
       78 NB     4f3-      -0.0000    0.0000    0.0000   -0.0000   -0.0000    0.0000   -0.0000    0.0005    0.0000   -0.0007
       79 NB     5f3-      -0.0000    0.0000    0.0000   -0.0000   -0.0000    0.0000   -0.0000    0.0006    0.0000   -0.0007
       80 NB     6f3-       0.0000   -0.0000   -0.0000    0.0000    0.0000   -0.0000    0.0000   -0.0006   -0.0000    0.0006
       81 NB     7f3-      -0.0000    0.0000    0.0000   -0.0000   -0.0000    0.0000   -0.0000    0.0005    0.0000   -0.0005
       82 NB     8f3-      -0.0000   -0.0000    0.0000   -0.0000   -0.0000    0.0000   -0.0000    0.0003    0.0000   -0.0003
       83 NB     4f2-      -0.0000    0.0000    0.0000   -0.0000   -0.0000    0.0000    0.0000   -0.0003   -0.0000    0.0064
       84 NB     5f2-      -0.0000    0.0000    0.0000   -0.0000   -0.0000    0.0000    0.0000   -0.0003   -0.0000    0.0071
       85 NB     6f2-       0.0000   -0.0000   -0.0000    0.0000    0.0000   -0.0000   -0.0000    0.0003    0.0000   -0.0070
       86 NB     7f2-      -0.0000    0.0000    0.0000   -0.0000   -0.0000    0.0000    0.0000   -0.0002   -0.0000    0.0067
       87 NB     8f2-      -0.0000    0.0000    0.0000   -0.0000   -0.0000   -0.0000    0.0000   -0.0001   -0.0000    0.0050
       88 NB     4f1-      -0.0000    0.0000   -0.0000    0.0000    0.0000    0.0000    0.0000   -0.0001   -0.0000    0.0002
       89 NB     5f1-      -0.0000    0.0000   -0.0000    0.0000   -0.0000    0.0000    0.0000   -0.0002   -0.0000    0.0002
       90 NB     6f1-       0.0000    0.0000    0.0000   -0.0000    0.0000    0.0000   -0.0000    0.0001    0.0000   -0.0002
       91 NB     7f1-      -0.0000   -0.0000   -0.0000    0.0000   -0.0000   -0.0000    0.0000   -0.0001   -0.0000    0.0001
       92 NB     8f1-       0.0000   -0.0000   -0.0000    0.0000    0.0000    0.0000    0.0000   -0.0001   -0.0000    0.0001
       93 NB     4f0        0.0000    0.0000    0.0000    0.0000    0.0000    0.0001   -0.0004   -0.0000    0.0002    0.0000
       94 NB     5f0       -0.0000    0.0000    0.0000    0.0000    0.0000    0.0001   -0.0004   -0.0000    0.0002    0.0000
       95 NB     6f0        0.0000    0.0000   -0.0000   -0.0000   -0.0000   -0.0000    0.0004    0.0000   -0.0002   -0.0000
       96 NB     7f0       -0.0000    0.0000    0.0000    0.0000    0.0000    0.0000   -0.0003   -0.0000    0.0001    0.0000
       97 NB     8f0        0.0000    0.0000    0.0000    0.0000    0.0000    0.0000   -0.0002   -0.0000    0.0001    0.0000
       98 NB     4f1+       0.0000   -0.0000    0.0000    0.0000    0.0000   -0.0002    0.0002    0.0000   -0.0002   -0.0000
       99 NB     5f1+       0.0000   -0.0000    0.0000    0.0000    0.0000   -0.0002    0.0002    0.0000   -0.0002   -0.0000
      100 NB     6f1+      -0.0000    0.0000   -0.0000   -0.0000   -0.0000    0.0002   -0.0002   -0.0000    0.0002    0.0000
      101 NB     7f1+       0.0000   -0.0000    0.0000    0.0000    0.0000   -0.0002    0.0002    0.0000   -0.0002   -0.0000
      102 NB     8f1+       0.0000   -0.0000    0.0000    0.0000    0.0000   -0.0001    0.0001    0.0000   -0.0001   -0.0000
      103 NB     4f2+       0.0000    0.0000   -0.0000   -0.0000    0.0000    0.0000    0.0004    0.0000    0.0001   -0.0000
      104 NB     5f2+      -0.0000    0.0000   -0.0000   -0.0000    0.0000    0.0000    0.0005    0.0000    0.0001   -0.0000
      105 NB     6f2+       0.0000    0.0000    0.0000    0.0000   -0.0000   -0.0000   -0.0005   -0.0000   -0.0001    0.0000
      106 NB     7f2+      -0.0000    0.0000   -0.0000   -0.0000    0.0000    0.0000    0.0004    0.0000    0.0001   -0.0000
      107 NB     8f2+       0.0000    0.0000   -0.0000   -0.0000    0.0000    0.0000    0.0002    0.0000    0.0000   -0.0000
      108 NB     4f3+      -0.0000    0.0000    0.0000    0.0000   -0.0000    0.0003    0.0002    0.0000    0.0003   -0.0000
      109 NB     5f3+      -0.0000    0.0000    0.0000    0.0000   -0.0000    0.0003    0.0002    0.0000    0.0003   -0.0000
      110 NB     6f3+       0.0000   -0.0000   -0.0000   -0.0000    0.0000   -0.0003   -0.0002   -0.0000   -0.0003    0.0000
      111 NB     7f3+      -0.0000    0.0000    0.0000    0.0000   -0.0000    0.0003    0.0001    0.0000    0.0002   -0.0000
      112 NB     8f3+      -0.0000    0.0000    0.0000    0.0000   -0.0000    0.0002    0.0001    0.0000    0.0001   -0.0000
      113 NB     5g4-      -0.0000   -0.0000   -0.0000    0.0000    0.0000    0.0000   -0.0000    0.0003    0.0000   -0.0001
      114 NB     6g4-       0.0000   -0.0000    0.0000   -0.0000   -0.0000    0.0000    0.0000   -0.0003   -0.0000    0.0001
      115 NB     7g4-      -0.0000    0.0000   -0.0000    0.0000    0.0000    0.0000   -0.0000    0.0004    0.0000   -0.0000
      116 NB     8g4-       0.0000   -0.0000    0.0000   -0.0000   -0.0000   -0.0000    0.0000   -0.0004   -0.0000   -0.0000
      117 NB     5g3-       0.0000   -0.0000    0.0000   -0.0000   -0.0000    0.0000    0.0000   -0.0003   -0.0000    0.0001
      118 NB     6g3-      -0.0000    0.0000   -0.0000    0.0000    0.0000    0.0000   -0.0000    0.0003    0.0000   -0.0000
      119 NB     7g3-       0.0000   -0.0000    0.0000   -0.0000   -0.0000    0.0000    0.0000   -0.0003   -0.0000   -0.0001
      120 NB     8g3-      -0.0000   -0.0000   -0.0000    0.0000    0.0000   -0.0000   -0.0000    0.0002    0.0000    0.0006
      121 NB     5g2-      -0.0000    0.0000    0.0000   -0.0000    0.0000   -0.0000    0.0000   -0.0001   -0.0000    0.0000
      122 NB     6g2-       0.0000   -0.0000   -0.0000    0.0000    0.0000    0.0000   -0.0000    0.0001    0.0000   -0.0000
      123 NB     7g2-      -0.0000    0.0000    0.0000   -0.0000   -0.0000   -0.0000    0.0000   -0.0001   -0.0000   -0.0000
      124 NB     8g2-       0.0000   -0.0000   -0.0000    0.0000    0.0000    0.0000   -0.0000    0.0001    0.0000    0.0000
      125 NB     5g1-       0.0000    0.0000   -0.0000    0.0000   -0.0000    0.0000   -0.0000    0.0001    0.0000   -0.0001
      126 NB     6g1-      -0.0000   -0.0000    0.0000   -0.0000   -0.0000    0.0000    0.0000   -0.0001    0.0000    0.0001
      127 NB     7g1-       0.0000   -0.0000   -0.0000    0.0000    0.0000    0.0000   -0.0000    0.0001    0.0000    0.0000
      128 NB     8g1-      -0.0000    0.0000    0.0000   -0.0000   -0.0000    0.0000    0.0000   -0.0001   -0.0000   -0.0002
      129 NB     5g0       -0.0000   -0.0000   -0.0000   -0.0000    0.0000   -0.0001   -0.0002   -0.0000    0.0001    0.0000
      130 NB     6g0       -0.0000    0.0000    0.0000    0.0000   -0.0000    0.0001    0.0002    0.0000   -0.0001    0.0000
      131 NB     7g0        0.0000   -0.0000   -0.0000   -0.0000    0.0000   -0.0001   -0.0002   -0.0000    0.0001   -0.0000
      132 NB     8g0        0.0000    0.0000    0.0000    0.0000   -0.0000    0.0001    0.0001    0.0000   -0.0002    0.0000
      133 NB     5g1+       0.0000    0.0000   -0.0000   -0.0000    0.0000    0.0002   -0.0003   -0.0000    0.0001    0.0000
      134 NB     6g1+       0.0000   -0.0000    0.0000    0.0000   -0.0000   -0.0002    0.0003    0.0000   -0.0001   -0.0000
      135 NB     7g1+      -0.0000    0.0000   -0.0000   -0.0000    0.0000    0.0002   -0.0003   -0.0000    0.0001    0.0000
      136 NB     8g1+       0.0000   -0.0000    0.0000    0.0000   -0.0000   -0.0002    0.0003    0.0000   -0.0001    0.0000
      137 NB     5g2+       0.0000    0.0000    0.0000    0.0000   -0.0000    0.0001    0.0001    0.0000   -0.0001   -0.0000
      138 NB     6g2+       0.0000    0.0000   -0.0000   -0.0000    0.0000   -0.0001   -0.0001   -0.0000    0.0001    0.0000
      139 NB     7g2+      -0.0000    0.0000    0.0000    0.0000   -0.0000    0.0001    0.0001    0.0000   -0.0002    0.0000
      140 NB     8g2+      -0.0000   -0.0000   -0.0000   -0.0000    0.0000   -0.0001   -0.0001   -0.0000    0.0003   -0.0000
      141 NB     5g3+       0.0000    0.0000    0.0000    0.0000    0.0000    0.0002    0.0002    0.0000    0.0002   -0.0000
      142 NB     6g3+       0.0000   -0.0000   -0.0000   -0.0000   -0.0000   -0.0002   -0.0003   -0.0000   -0.0002    0.0000
      143 NB     7g3+      -0.0000    0.0000    0.0000    0.0000    0.0000    0.0002    0.0003    0.0000    0.0002   -0.0000
      144 NB     8g3+       0.0000   -0.0000   -0.0000   -0.0000   -0.0000   -0.0002   -0.0003   -0.0000   -0.0001   -0.0000
      145 NB     5g4+      -0.0000   -0.0000    0.0000    0.0000    0.0000   -0.0001    0.0002    0.0000    0.0001   -0.0000
      146 NB     6g4+      -0.0000   -0.0000   -0.0000   -0.0000   -0.0000    0.0001   -0.0002   -0.0000   -0.0002    0.0000
      147 NB     7g4+       0.0000   -0.0000    0.0000    0.0000    0.0000   -0.0001    0.0002    0.0000    0.0003    0.0000
      148 NB     8g4+       0.0000    0.0000   -0.0000   -0.0000   -0.0000    0.0001   -0.0002   -0.0000   -0.0004   -0.0000
      149 NB     6h5-       0.0000    0.0000   -0.0000    0.0000    0.0000   -0.0000   -0.0000    0.0001    0.0000    0.0000
      150 NB     7h5-      -0.0000   -0.0000    0.0000   -0.0000   -0.0000    0.0000    0.0000   -0.0001    0.0000    0.0000
      151 NB     6h4-       0.0000   -0.0000   -0.0000    0.0000   -0.0000    0.0000    0.0000   -0.0001   -0.0000    0.0002
      152 NB     7h4-      -0.0000    0.0000    0.0000   -0.0000   -0.0000   -0.0000   -0.0000    0.0001    0.0000   -0.0002
      153 NB     6h3-      -0.0000    0.0000    0.0000   -0.0000    0.0000   -0.0000    0.0000   -0.0000   -0.0000   -0.0000
      154 NB     7h3-       0.0000   -0.0000   -0.0000    0.0000   -0.0000    0.0000   -0.0000    0.0000    0.0000    0.0000
      155 NB     6h2-      -0.0000    0.0000   -0.0000    0.0000    0.0000    0.0000   -0.0000    0.0002    0.0000   -0.0002
      156 NB     7h2-       0.0000   -0.0000    0.0000   -0.0000   -0.0000   -0.0000    0.0000   -0.0002   -0.0000    0.0002
      157 NB     6h1-       0.0000   -0.0000    0.0000   -0.0000   -0.0000    0.0000    0.0000   -0.0000    0.0000   -0.0001
      158 NB     7h1-      -0.0000    0.0000   -0.0000    0.0000    0.0000    0.0000   -0.0000    0.0000    0.0000    0.0000
      159 NB     6h0       -0.0000   -0.0000    0.0000    0.0000   -0.0000   -0.0001    0.0001    0.0000   -0.0002    0.0000
      160 NB     7h0        0.0000    0.0000   -0.0000   -0.0000    0.0000    0.0001   -0.0000   -0.0000    0.0001   -0.0000
      161 NB     6h1+      -0.0000   -0.0000    0.0000    0.0000   -0.0000   -0.0001   -0.0001   -0.0000   -0.0002    0.0000
      162 NB     7h1+      -0.0000    0.0000   -0.0000   -0.0000    0.0000    0.0001    0.0000    0.0000    0.0002   -0.0000
      163 NB     6h2+       0.0000    0.0000   -0.0000   -0.0000    0.0000    0.0001   -0.0001   -0.0000    0.0001    0.0000
      164 NB     7h2+      -0.0000   -0.0000    0.0000    0.0000   -0.0000   -0.0001    0.0000    0.0000   -0.0001   -0.0000
      165 NB     6h3+       0.0000    0.0000    0.0000    0.0000    0.0000    0.0001    0.0001    0.0000    0.0002   -0.0000
      166 NB     7h3+       0.0000   -0.0000   -0.0000   -0.0000   -0.0000   -0.0001   -0.0001   -0.0000   -0.0002    0.0000
      167 NB     6h4+       0.0000    0.0000    0.0000    0.0000    0.0000    0.0002    0.0001    0.0000    0.0002    0.0000
      168 NB     7h4+      -0.0000   -0.0000   -0.0000   -0.0000   -0.0000   -0.0002   -0.0000   -0.0000   -0.0002    0.0000
      169 NB     6h5+      -0.0000   -0.0000    0.0000    0.0000   -0.0000   -0.0001    0.0001    0.0000   -0.0002   -0.0000
      170 NB     7h5+      -0.0000    0.0000   -0.0000   -0.0000    0.0000    0.0001   -0.0001   -0.0000    0.0002    0.0000

          Orbital           11        12        13        14    
          Energy          -13.8306  -13.6613  -13.6609  -13.5582
          Occ. No.          0.0000    0.0000    0.0000    0.0000

        1 NB     1s        -0.0000    0.0000   -0.0000   -0.0000
        2 NB     2s         0.0000    0.0000   -0.0000    0.0009
        3 NB     3s         0.0000   -0.0000    0.0000    0.0307
        4 NB     4s         0.0000   -0.0000   -0.0000   -0.0068
        5 NB     5s        -0.0000    0.0000    0.0000    0.0016
        6 NB     6s         0.0000   -0.0000   -0.0000   -0.0020
        7 NB     7s         0.0000    0.0000    0.0000    0.0051
        8 NB     8s        -0.0000   -0.0000    0.0000   -0.0044
        9 NB     9s         0.0000    0.0000    0.0000    0.0046
       10 NB    10s        -0.0000    0.0000   -0.0000   -0.0022
       11 NB     2px       -0.0000    0.0000    0.0000   -0.0042
       12 NB     3px       -0.0002    0.0008    0.0000   -0.1623
       13 NB     4px        0.0000   -0.0002   -0.0000    0.0321
       14 NB     5px       -0.0000    0.0000    0.0000   -0.0101
       15 NB     6px        0.0000   -0.0001   -0.0000    0.0248
       16 NB     7px       -0.0000    0.0001    0.0000   -0.0203
       17 NB     8px        0.0000   -0.0001   -0.0000    0.0203
       18 NB     9px       -0.0000    0.0001    0.0000   -0.0151
       19 NB    10px        0.0000   -0.0000   -0.0000    0.0064
       20 NB     2py        0.0000    0.0000   -0.0032   -0.0000
       21 NB     3py        0.0000    0.0000   -0.1244    0.0000
       22 NB     4py       -0.0000   -0.0000    0.0243   -0.0000
       23 NB     5py        0.0000    0.0000   -0.0077    0.0000
       24 NB     6py       -0.0000   -0.0000    0.0187   -0.0000
       25 NB     7py        0.0000    0.0000   -0.0151    0.0000
       26 NB     8py       -0.0000   -0.0000    0.0151    0.0000
       27 NB     9py        0.0000    0.0000   -0.0113    0.0000
       28 NB    10py       -0.0000   -0.0000    0.0048   -0.0000
       29 NB     2pz       -0.0001   -0.0032   -0.0000   -0.0000
       30 NB     3pz       -0.0034   -0.1246   -0.0000   -0.0009
       31 NB     4pz        0.0008    0.0244    0.0000    0.0002
       32 NB     5pz       -0.0003   -0.0077   -0.0000   -0.0001
       33 NB     6pz        0.0006    0.0187    0.0000    0.0001
       34 NB     7pz       -0.0004   -0.0152   -0.0000   -0.0001
       35 NB     8pz        0.0004    0.0152    0.0000    0.0001
       36 NB     9pz       -0.0003   -0.0113   -0.0000   -0.0001
       37 NB    10pz        0.0001    0.0048    0.0000    0.0000
       38 NB     3d2-      -0.0000   -0.0000    0.9649   -0.0000
       39 NB     4d2-       0.0000    0.0000   -0.0937    0.0000
       40 NB     5d2-      -0.0000   -0.0000    0.0950   -0.0000
       41 NB     6d2-       0.0000    0.0000   -0.0835    0.0000
       42 NB     7d2-      -0.0000   -0.0000    0.0748   -0.0000
       43 NB     8d2-       0.0000    0.0000   -0.0952    0.0000
       44 NB     9d2-      -0.0000   -0.0000    0.0779   -0.0000
       45 NB    10d2-      -0.0000   -0.0000    0.0694   -0.0000
       46 NB     3d1-       0.0000   -0.0000    0.0325   -0.0000
       47 NB     4d1-      -0.0000    0.0000   -0.0035   -0.0000
       48 NB     5d1-       0.0000   -0.0000    0.0035   -0.0000
       49 NB     6d1-      -0.0000    0.0000   -0.0031    0.0000
       50 NB     7d1-       0.0000   -0.0000    0.0028    0.0000
       51 NB     8d1-      -0.0000    0.0000   -0.0034    0.0000
       52 NB     9d1-       0.0000   -0.0000    0.0027    0.0000
       53 NB    10d1-       0.0000   -0.0000    0.0023    0.0000
       54 NB     3d0        0.8439   -0.0159   -0.0000   -0.4795
       55 NB     4d0       -0.0812    0.0019    0.0000    0.0472
       56 NB     5d0        0.0822   -0.0018   -0.0000   -0.0480
       57 NB     6d0       -0.0721    0.0016    0.0000    0.0423
       58 NB     7d0        0.0645   -0.0014   -0.0000   -0.0379
       59 NB     8d0       -0.0811    0.0018    0.0000    0.0483
       60 NB     9d0        0.0658   -0.0014   -0.0000   -0.0397
       61 NB    10d0        0.0580   -0.0011   -0.0000   -0.0355
       62 NB     3d1+       0.0226    0.9651    0.0000    0.0074
       63 NB     4d1+      -0.0018   -0.0937   -0.0000   -0.0007
       64 NB     5d1+       0.0018    0.0950    0.0000    0.0007
       65 NB     6d1+      -0.0016   -0.0835   -0.0000   -0.0006
       66 NB     7d1+       0.0015    0.0748    0.0000    0.0006
       67 NB     8d1+      -0.0020   -0.0951   -0.0000   -0.0007
       68 NB     9d1+       0.0017    0.0779    0.0000    0.0006
       69 NB    10d1+       0.0016    0.0694    0.0000    0.0005
       70 NB     3d2+       0.4877   -0.0178   -0.0000    0.8293
       71 NB     4d2+      -0.0469    0.0019    0.0000   -0.0816
       72 NB     5d2+       0.0475   -0.0019   -0.0000    0.0829
       73 NB     6d2+      -0.0417    0.0017    0.0000   -0.0731
       74 NB     7d2+       0.0372   -0.0015   -0.0000    0.0656
       75 NB     8d2+      -0.0468    0.0019    0.0000   -0.0836
       76 NB     9d2+       0.0380   -0.0015   -0.0000    0.0687
       77 NB    10d2+       0.0335   -0.0012   -0.0000    0.0614
       78 NB     4f3-      -0.0000   -0.0000    0.0087   -0.0000
       79 NB     5f3-      -0.0000   -0.0000    0.0096   -0.0000
       80 NB     6f3-       0.0000    0.0000   -0.0095    0.0000
       81 NB     7f3-      -0.0000   -0.0000    0.0090   -0.0000
       82 NB     8f3-      -0.0000   -0.0000    0.0064   -0.0000
       83 NB     4f2-       0.0000    0.0000   -0.0003    0.0000
       84 NB     5f2-       0.0000    0.0000   -0.0003    0.0000
       85 NB     6f2-      -0.0000   -0.0000    0.0002   -0.0000
       86 NB     7f2-       0.0000    0.0000   -0.0000    0.0000
       87 NB     8f2-       0.0000   -0.0000    0.0001    0.0000
       88 NB     4f1-       0.0000    0.0000   -0.0022    0.0000
       89 NB     5f1-       0.0000    0.0000   -0.0025    0.0000
       90 NB     6f1-      -0.0000   -0.0000    0.0024   -0.0000
       91 NB     7f1-       0.0000    0.0000   -0.0023    0.0000
       92 NB     8f1-       0.0000    0.0000   -0.0017    0.0000
       93 NB     4f0       -0.0003   -0.0055   -0.0000    0.0001
       94 NB     5f0       -0.0004   -0.0061   -0.0000    0.0001
       95 NB     6f0        0.0003    0.0060    0.0000   -0.0000
       96 NB     7f0       -0.0002   -0.0057   -0.0000    0.0000
       97 NB     8f0       -0.0001   -0.0041   -0.0000    0.0000
       98 NB     4f1+       0.0050    0.0003    0.0000   -0.0057
       99 NB     5f1+       0.0056    0.0003    0.0000   -0.0063
      100 NB     6f1+      -0.0055   -0.0003   -0.0000    0.0063
      101 NB     7f1+       0.0053    0.0001    0.0000   -0.0062
      102 NB     8f1+       0.0039    0.0000    0.0000   -0.0045
      103 NB     4f2+       0.0005    0.0071    0.0000    0.0002
      104 NB     5f2+       0.0005    0.0079    0.0000    0.0002
      105 NB     6f2+      -0.0004   -0.0078   -0.0000   -0.0002
      106 NB     7f2+       0.0003    0.0074    0.0000    0.0002
      107 NB     8f2+       0.0002    0.0053    0.0000    0.0001
      108 NB     4f3+       0.0039    0.0002    0.0000    0.0074
      109 NB     5f3+       0.0043    0.0002    0.0000    0.0082
      110 NB     6f3+      -0.0043   -0.0001   -0.0000   -0.0082
      111 NB     7f3+       0.0041    0.0000    0.0000    0.0081
      112 NB     8f3+       0.0030   -0.0001   -0.0000    0.0058
      113 NB     5g4-      -0.0000   -0.0000    0.0003   -0.0000
      114 NB     6g4-       0.0000    0.0000   -0.0000   -0.0000
      115 NB     7g4-      -0.0000    0.0000   -0.0002    0.0000
      116 NB     8g4-      -0.0000   -0.0000    0.0010   -0.0000
      117 NB     5g3-       0.0000    0.0000   -0.0005    0.0000
      118 NB     6g3-      -0.0000   -0.0000    0.0005   -0.0000
      119 NB     7g3-      -0.0000    0.0000   -0.0004    0.0000
      120 NB     8g3-       0.0000   -0.0000    0.0002    0.0000
      121 NB     5g2-       0.0000    0.0000   -0.0001    0.0000
      122 NB     6g2-      -0.0000   -0.0000    0.0000    0.0000
      123 NB     7g2-      -0.0000   -0.0000    0.0001    0.0000
      124 NB     8g2-       0.0000    0.0000   -0.0004    0.0000
      125 NB     5g1-      -0.0000   -0.0000    0.0004   -0.0000
      126 NB     6g1-       0.0000    0.0000   -0.0003   -0.0000
      127 NB     7g1-       0.0000   -0.0000    0.0003   -0.0000
      128 NB     8g1-      -0.0000    0.0000   -0.0003   -0.0000
      129 NB     5g0       -0.0000   -0.0002   -0.0000   -0.0002
      130 NB     6g0       -0.0000    0.0002    0.0000    0.0003
      131 NB     7g0        0.0001   -0.0001   -0.0000   -0.0004
      132 NB     8g0       -0.0003   -0.0000   -0.0000    0.0007
      133 NB     5g1+      -0.0001   -0.0003   -0.0000    0.0001
      134 NB     6g1+       0.0001    0.0001    0.0000   -0.0001
      135 NB     7g1+      -0.0000    0.0002    0.0000    0.0001
      136 NB     8g1+      -0.0000   -0.0008   -0.0000   -0.0001
      137 NB     5g2+       0.0001    0.0004    0.0000    0.0003
      138 NB     6g2+      -0.0000   -0.0003   -0.0000   -0.0004
      139 NB     7g2+      -0.0000    0.0003    0.0000    0.0006
      140 NB     8g2+       0.0003   -0.0002   -0.0000   -0.0010
      141 NB     5g3+       0.0001    0.0002    0.0000    0.0002
      142 NB     6g3+      -0.0001   -0.0001   -0.0000   -0.0001
      143 NB     7g3+       0.0000   -0.0001   -0.0000    0.0001
      144 NB     8g3+       0.0000    0.0007    0.0000   -0.0000
      145 NB     5g4+       0.0001    0.0004    0.0000   -0.0004
      146 NB     6g4+      -0.0000   -0.0004   -0.0000    0.0006
      147 NB     7g4+      -0.0001    0.0003    0.0000   -0.0008
      148 NB     8g4+       0.0004   -0.0002   -0.0000    0.0014
      149 NB     6h5-      -0.0000   -0.0000    0.0003   -0.0000
      150 NB     7h5-       0.0000    0.0000   -0.0002    0.0000
      151 NB     6h4-       0.0000    0.0000   -0.0003    0.0000
      152 NB     7h4-      -0.0000   -0.0000    0.0002   -0.0000
      153 NB     6h3-      -0.0000    0.0000   -0.0001    0.0000
      154 NB     7h3-       0.0000   -0.0000    0.0001   -0.0000
      155 NB     6h2-      -0.0000   -0.0000    0.0004   -0.0000
      156 NB     7h2-       0.0000    0.0000   -0.0003    0.0000
      157 NB     6h1-      -0.0000   -0.0000    0.0000   -0.0000
      158 NB     7h1-       0.0000   -0.0000    0.0000   -0.0000
      159 NB     6h0       -0.0000    0.0001    0.0000   -0.0001
      160 NB     7h0        0.0000   -0.0001   -0.0000    0.0001
      161 NB     6h1+      -0.0002   -0.0002   -0.0000    0.0000
      162 NB     7h1+       0.0001    0.0002    0.0000    0.0000
      163 NB     6h2+      -0.0000   -0.0002   -0.0000    0.0001
      164 NB     7h2+       0.0000    0.0001    0.0000   -0.0001
      165 NB     6h3+       0.0001    0.0003    0.0000   -0.0000
      166 NB     7h3+      -0.0001   -0.0002   -0.0000   -0.0000
      167 NB     6h4+      -0.0000    0.0002    0.0000    0.0002
      168 NB     7h4+      -0.0000   -0.0001   -0.0000   -0.0002
      169 NB     6h5+       0.0002    0.0004    0.0000    0.0001
      170 NB     7h5+      -0.0002   -0.0003   -0.0000   -0.0000
--


++    Molecular charges:
      ------------------

      Mulliken charges per centre and basis function type
      ---------------------------------------------------

                NB    
      1s       2.0000
      2s       2.0000
      2px      1.9999
      2pz      1.9999
      2py      1.9999
      3s       1.9528
      3px      1.8830
      3pz      1.9086
      3py      1.9087
      4s       0.0200
      3d2+     0.0451
      3d1+     0.0341
      3d0      0.0150
      3d1-     0.0000
      3d2-     0.0340
      4px      0.0216
      4pz      0.0215
      4py      0.0215
      5s       0.0010
      4d2+     0.0002
      4d1+     0.0001
      4d0      0.0001
      4d1-     0.0000
      4d2-     0.0001
      5px      0.0021
      5pz      0.0021
      5py      0.0021
      6s       0.0015
      4f3+     0.0000
      4f2+     0.0000
      4f1+     0.0000
      4f0      0.0000
      4f1-     0.0000
      4f2-     0.0000
      4f3-     0.0000
      5d2+     0.0001
      5d1+     0.0001
      5d0      0.0000
      5d1-     0.0000
      5d2-     0.0001
      6px      0.0122
      6pz      0.0121
      6py      0.0121
      7s       0.0090
      5f3+     0.0000
      5f2+     0.0000
      5f1+     0.0000
      5f0      0.0000
      5f1-     0.0000
      5f2-     0.0000
      5f3-     0.0000
      6d2+     0.0001
      6d1+     0.0001
      6d0      0.0000
      6d1-     0.0000
      6d2-     0.0001
      7px      0.0080
      7pz      0.0078
      7py      0.0078
      5g4+     0.0000
      5g3+     0.0000
      5g2+     0.0000
      5g1+     0.0000
      5g0      0.0000
      5g1-     0.0000
      5g2-     0.0000
      5g3-     0.0000
      5g4-     0.0000
      6f3+     0.0000
      6f2+     0.0000
      6f1+     0.0000
      6f0      0.0000
      6f1-     0.0000
      6f2-     0.0000
      6f3-     0.0000
      6g4+     0.0000
      6g3+     0.0000
      6g2+     0.0000
      6g1+     0.0000
      6g0      0.0000
      6g1-     0.0000
      6g2-     0.0000
      6g3-     0.0000
      6g4-     0.0000
      6h5+     0.0000
      6h4+     0.0000
      6h3+     0.0000
      6h2+     0.0000
      6h1+     0.0000
      6h0      0.0000
      6h1-     0.0000
      6h2-     0.0000
      6h3-     0.0000
      6h4-     0.0000
      6h5-     0.0000
      7d2+     0.0001
      7d1+     0.0000
      7d0      0.0000
      7d1-     0.0000
      7d2-     0.0000
      7f3+     0.0000
      7f2+     0.0000
      7f1+     0.0000
      7f0      0.0000
      7f1-     0.0000
      7f2-     0.0000
      7f3-     0.0000
      7g4+     0.0000
      7g3+     0.0000
      7g2+     0.0000
      7g1+     0.0000
      7g0      0.0000
      7g1-     0.0000
      7g2-     0.0000
      7g3-     0.0000
      7g4-     0.0000
      7h5+     0.0000
      7h4+     0.0000
      7h3+     0.0000
      7h2+     0.0000
      7h1+     0.0000
      7h0      0.0000
      7h1-     0.0000
      7h2-     0.0000
      7h3-     0.0000
      7h4-     0.0000
      7h5-     0.0000
      8s       0.0059
      8px      0.0084
      8pz      0.0081
      8py      0.0081
      8d2+     0.0000
      8d1+     0.0000
      8d0      0.0000
      8d1-     0.0000
      8d2-     0.0000
      8f3+     0.0000
      8f2+     0.0000
      8f1+     0.0000
      8f0      0.0000
      8f1-     0.0000
      8f2-     0.0000
      8f3-     0.0000
      8g4+     0.0000
      8g3+     0.0000
      8g2+     0.0000
      8g1+     0.0000
      8g0      0.0000
      8g1-     0.0000
      8g2-     0.0000
      8g3-     0.0000
      8g4-     0.0000
      9s       0.0063
      9px      0.0048
      9pz      0.0045
      9py      0.0045
      9d2+     0.0000
      9d1+     0.0000
      9d0      0.0000
      9d1-     0.0000
      9d2-     0.0000
     10s       0.0017
     10px      0.0011
     10pz      0.0010
     10py      0.0010
     10d2+     0.0000
     10d1+     0.0000
     10d0      0.0000
     10d1-     0.0000
     10d2-     0.0000
      Total   18.0000

      N-E     23.0000

      Total electronic charge=   18.000000

      Total            charge=   23.000000
--

 Sorry, Molden does not know how to handle
 functions with angular momentum larger than g

++    Static properties:
      ------------------


      LoProp Charges per center


                   NB    
      Nuclear     41.0000
      Electronic -18.0000

      Total       23.0000
--


++    Molecular properties:
      ---------------------

      Charge (e):
                      =   23.0000
      Dipole Moment (Debye):
      Origin of the operator (Ang)=    0.0000    0.0000    0.0000
                   X= -8.3391E-01               Y= -1.9179E-13               Z=  5.0986E-01           Total=  9.7743E-01
      Center of Charge (Ang)
                     X=   -0.00754853               Y=   -0.00000000               Z=    0.00461517
      Quadrupole Moment (Debye*Ang):
      Origin of the operator (Ang)=   -0.0000   -0.0000    0.0046
                  XX= -7.2156E-01              XY=  5.0742E-16              XZ=  6.3414E-05              YY= -7.2804E-01
                  YZ= -8.2698E-16              ZZ= -7.2804E-01
      In traceless form (Debye*Ang)
                  XX=  6.4806E-03              XY=  7.6113E-16              XZ=  9.5121E-05              YY= -3.2394E-03
                  YZ= -1.2405E-15              ZZ= -3.2412E-03
--

 Sorry, Molden does not know how to handle
 functions with angular momentum larger than g
 ###############################################################################
 ###############################################################################
 ###                                                                         ###
 ###                                                                         ###
 ###    WARNING: RunFile label nBas                                          ###
 ###    was used       62 times                                              ###
 ###                                                                         ###
 ###                                                                         ###
 ###############################################################################
 ###############################################################################
Note: The following floating-point exceptions are signalling: IEEE_UNDERFLOW_FLAG IEEE_DENORMAL
--- Stop Module: scf at Tue Mar 25 17:57:26 2025 /rc=_RC_ALL_IS_WELL_ ---
*** files: niobium_so_cf.LprOrb niobium_so_cf.ScfOrb xmldump
    saved to directory /home4/s4752295/Internship/Initial_simulations/Point_charge_model/1_electron/Madelung_charges_9_active_space/Nb
--- Module scf spent 7 seconds ---

*** symbolic link created: INPORB -> niobium_so_cf.ScfOrb
--- Start Module: rasscf at Tue Mar 25 17:57:26 2025 ---

()()()()()()()()()()()()()()()()()()()()()()()()()()()()()()()()()()()()()()()()()()()()()()()()()()

                                              &RASSCF

                                   only a single process is used
                       available to each process: 4.1 GB of memory, 1 thread?
                                            pid: 1257872
()()()()()()()()()()()()()()()()()()()()()()()()()()()()()()()()()()()()()()()()()()()()()()()()()()


      Header of the ONEINT file:
      --------------------------
      
      Integrals generated by seward 4.2.0  , Tue Mar 25 17:57:09 2025


      OrdInt status: non-squared


      Cartesian coordinates in Angstrom:
      -----------------------------------------------------
      No.  Label        X            Y            Z        
      -----------------------------------------------------
       1   NB        -0.00000000  -0.00000000   0.00463220
      -----------------------------------------------------
      Nuclear repulsion energy = -937.76684842

++    Wave function specifications:
      -----------------------------

      Number of closed shell electrons          18
      Number of electrons in active shells       1
      Max number of holes in RAS1 space          0
      Max nr of electrons in RAS3 space          0
      Number of inactive orbitals                9
      Number of active orbitals                  9
      Number of secondary orbitals             152
      Spin quantum number                      0.5
      State symmetry                             1
--

++    Orbital specifications:
      -----------------------

      Symmetry species                           1
                                                 a
      Frozen orbitals                            0
      Inactive orbitals                          9
      Active orbitals                            9
      RAS1 orbitals                              0
      RAS2 orbitals                              9
      RAS3 orbitals                              0
      Secondary orbitals                       152
      Deleted orbitals                           0
      Number of basis functions                170
--

++    CI expansion specifications:
      ----------------------------

      Number of CSFs                             9
      Number of determinants                     9
      Number of root(s) required                 9
      Root chosen for geometry opt.              9
      CI roots used                              1     2     3     4     5     6     7     8     9
      weights                                0.111 0.111 0.111 0.111 0.111 0.111 0.111 0.111 0.111
      highest root included in the CI            9
      max. size of the explicit Hamiltonian      9
--

++    Optimization specifications:
      ----------------------------

      RASSCF algorithm: Conventional
      Maximum number of macro iterations       200
      Maximum number of SX iterations          100
      Threshold for RASSCF energy            0.100E-07
      Threshold for max MO rotation          0.100E+00
      Threshold for max BLB element          0.100E-03
      Level shift parameter                  0.500E+00
      Make Quasi-Newton update
--

      The MO-coefficients are taken from the file:
      INPORB                                                                                                                          
      Title: SCF orbitals                                                                  

      Total molecular charge   22.00

      ************************************************************************************************************************
      *                                                                                                                      *
      *                                            Wave function control section                                             *
      *                                                                                                                      *
      ************************************************************************************************************************


[...]
         4   18       2.55286581E-05  2.49360715E+06  1.17687228E-09  2.04578959E+08  2.07072566E+08
         5    9       1.42414432E-05  1.76377517E-01  7.11922669E-15  4.99376718E+03  4.99394355E+03
         5   11       3.71924919E-03  1.24080680E+06  2.51586446E-08  1.80877066E+10  1.80889474E+10
         5   13       1.99104283E-02  1.31087892E+11  5.37188760E-10  3.82330695E+08  1.31470222E+11
         5   15       5.77566984E-05  1.58503266E-07  3.81987443E+08  5.40240703E-10  3.81987443E+08
         5   17       1.06631926E-03  4.44043361E+06  1.14437477E-08  8.45897340E+09  8.46341383E+09
         6   10       1.42414432E-05  1.76377517E-01  7.11922669E-15  4.99376718E+03  4.99394355E+03
         6   12       3.71924919E-03  1.24080680E+06  2.51586446E-08  1.80877066E+10  1.80889474E+10
         6   14       1.99104283E-02  1.31087892E+11  5.37188760E-10  3.82330695E+08  1.31470222E+11
         6   16       5.77566984E-05  1.58503266E-07  3.81987443E+08  5.40240703E-10  3.81987443E+08
         6   18       1.06631926E-03  4.44043361E+06  1.14437477E-08  8.45897340E+09  8.46341383E+09
         7    9       1.42753840E-05  1.44282412E-18  4.96323383E+03  6.98808567E-15  4.96323383E+03
         7   11       3.64738663E-03  8.91465166E-12  1.77381517E+10  2.56539459E-08  1.77381517E+10
         7   13       4.80816597E-05  1.60381949E-07  3.17467483E+08  5.98349573E-10  3.17467483E+08
         7   15       1.96697260E-02  1.29769065E+11  5.39160627E-10  3.13191492E+08  1.30082256E+11
         7   17       1.01144689E-03  2.41341060E-11  8.02743468E+09  1.20702021E-08  8.02743468E+09
         8   10       1.42753840E-05  1.44282412E-18  4.96323383E+03  6.98808567E-15  4.96323383E+03
         8   12       3.64738663E-03  8.91465166E-12  1.77381517E+10  2.56539459E-08  1.77381517E+10
         8   14       4.80816597E-05  1.60381949E-07  3.17467483E+08  5.98349573E-10  3.17467483E+08
         8   16       1.96697260E-02  1.29769065E+11  5.39160627E-10  3.13191492E+08  1.30082256E+11
         8   18       1.01144689E-03  2.41341060E-11  8.02743468E+09  1.20702021E-08  8.02743468E+09
         9   11       6.90236302E-03  3.30012304E+10  1.15190629E-12  1.43515681E+06  3.30026656E+10
         9   13       9.97524810E-04  1.14674813E+07  4.77707910E-11  6.47962188E+09  6.49108936E+09
         9   15       1.05362523E-03  9.81434884E-12  6.86728565E+09  4.95589384E-11  6.86728565E+09
         9   17       1.31627497E-02  1.03082270E+11  3.34229368E-13  6.72281931E+06  1.03088993E+11
        10   12       6.90236302E-03  3.30012304E+10  1.15190629E-12  1.43515681E+06  3.30026656E+10
        10   14       9.97524810E-04  1.14674813E+07  4.77707910E-11  6.47962188E+09  6.49108936E+09
        10   16       1.05362523E-03  9.81434884E-12  6.86728565E+09  4.95589384E-11  6.86728565E+09
        10   18       1.31627497E-02  1.03082270E+11  3.34229368E-13  6.72281931E+06  1.03088993E+11
        11   13       1.97500846E-01  1.52985272E+02  1.91145663E-10  2.62096474E+10  2.62096476E+10
        11   15       1.97300837E-01  7.45125743E-15  2.64817311E+10  1.96962719E-10  2.64817311E+10
        11   17       1.12015761E-01  4.19434193E+10  3.30755490E-14  2.36462773E+04  4.19434429E+10
        12   14       1.97500846E-01  1.52985272E+02  1.91145663E-10  2.62096474E+10  2.62096476E+10
        12   16       1.97300837E-01  7.45125743E-15  2.64817311E+10  1.96962719E-10  2.64817311E+10
        12   18       1.12015761E-01  4.19434193E+10  3.30755490E-14  2.36462773E+04  4.19434429E+10
        13   15       1.89238963E-05  1.76967066E-21  8.12062978E+01  2.45313515E-18  8.12062978E+01
        13   17       5.50561175E-02  1.15080837E+05  2.60060832E-11  3.37590242E+09  3.37601751E+09
        14   16       1.89238963E-05  1.76967066E-21  8.12062978E+01  2.45313515E-18  8.12062978E+01
        14   18       5.50561175E-02  1.15080837E+05  2.60060832E-11  3.37590242E+09  3.37601751E+09
        15   17       5.70053755E-02  4.52007353E-15  3.43730608E+09  2.42030819E-11  3.43730608E+09
        16   18       5.70053755E-02  4.52007353E-15  3.43730608E+09  2.42030819E-11  3.43730608E+09
     -----------------------------------------------------------------------------------------------
--

++ Velocity transition strengths (SO states):
   ------------------------------------------
    for osc. strength at least    1.0000000000000001E-005

      From   To        Osc. strength     Einstein coefficients Ax, Ay, Az (sec-1)    Total A (sec-1)
     -----------------------------------------------------------------------------------------------
         1    3       1.18586870E-03  7.63862592E-22  1.80319549E+00  1.07022235E-18  1.80319549E+00
         1    5       4.09670113E-02  1.16446613E-15  3.88944190E+07  1.68861153E-11  3.88944190E+07
         1    7       4.07614940E-02  4.06308153E+01  1.70781101E-11  3.89001500E+07  3.89001906E+07
         1    9       7.41384835E-05  9.73431392E-17  1.81940457E+05  6.26630820E-13  1.81940457E+05
         1   11       2.03560312E-05  9.32472853E-13  1.01789794E+08  2.51751306E-10  1.01789794E+08
         1   13       9.49891629E-03  2.52733164E-09  6.42355718E+10  1.99330457E-07  6.42355718E+10
         1   15       9.71419357E-03  8.80590140E+08  2.01734484E-07  6.49154760E+10  6.57960661E+10
         1   17       2.77703884E-05  3.42843715E-12  2.25263036E+08  4.08370672E-10  2.25263036E+08
         2    4       1.18586870E-03  7.63862592E-22  1.80319549E+00  1.07022235E-18  1.80319549E+00
         2    6       4.09670113E-02  1.16446613E-15  3.88944190E+07  1.68861153E-11  3.88944190E+07
         2    8       4.07614940E-02  4.06308153E+01  1.70781101E-11  3.89001500E+07  3.89001906E+07
         2   10       7.41384835E-05  9.73431392E-17  1.81940457E+05  6.26630820E-13  1.81940457E+05
         2   12       2.03560312E-05  9.32472853E-13  1.01789794E+08  2.51751306E-10  1.01789794E+08
         2   14       9.49891629E-03  2.52733164E-09  6.42355718E+10  1.99330457E-07  6.42355718E+10
         2   16       9.71419357E-03  8.80590140E+08  2.01734484E-07  6.49154760E+10  6.57960661E+10
         2   18       2.77703884E-05  3.42843715E-12  2.25263036E+08  4.08370672E-10  2.25263036E+08
         3    5       4.08640449E-02  3.60859054E+02  1.69646940E-11  3.86981655E+07  3.86985264E+07
         3    7       4.09350438E-02  3.01740796E-16  3.89672546E+07  1.70542052E-11  3.89672546E+07
         3    9       6.89347207E-05  3.68095462E+01  6.41262561E-13  1.68867068E+05  1.68903877E+05
         3   11       1.54480641E-05  2.42378806E+05  3.73503338E-10  7.70025619E+07  7.72449407E+07
         3   13       9.56184113E-03  6.75299330E+08  2.00253954E-07  6.39838569E+10  6.46591562E+10
         3   15       9.54726125E-03  3.39008290E-09  6.46634642E+10  2.02574479E-07  6.46634642E+10
         3   17       1.48030948E-05  9.78887141E+05  7.97219773E-10  1.19095011E+08  1.20073898E+08
         4    6       4.08640449E-02  3.60859054E+02  1.69646940E-11  3.86981655E+07  3.86985264E+07
         4    8       4.09350438E-02  3.01740796E-16  3.89672546E+07  1.70542052E-11  3.89672546E+07
         4   10       6.89347207E-05  3.68095462E+01  6.41262561E-13  1.68867068E+05  1.68903877E+05
         4   12       1.54480641E-05  2.42378806E+05  3.73503338E-10  7.70025619E+07  7.72449407E+07
         4   14       9.56184113E-03  6.75299330E+08  2.00253954E-07  6.39838569E+10  6.46591562E+10
         4   16       9.54726125E-03  3.39008290E-09  6.46634642E+10  2.02574479E-07  6.46634642E+10
         4   18       1.48030948E-05  9.78887141E+05  7.97219773E-10  1.19095011E+08  1.20073898E+08
         5    9       2.35363301E-01  5.14536059E+02  1.16815892E-10  8.25329136E+07  8.25334281E+07
         5   11       4.06437227E-03  1.22981832E+06  2.77050062E-08  1.97663277E+10  1.97675575E+10
         5   13       1.42806758E-02  9.41862686E+10  1.15198329E-10  1.10555239E+08  9.42968238E+10
         5   15       1.38569664E-05  1.14250599E-07  9.16466094E+07  1.18025525E-10  9.16466094E+07
         5   17       2.28288919E-03  4.50989952E+06  2.52019574E-08  1.81149256E+10  1.81194355E+10
         6   10       2.35363301E-01  5.14536059E+02  1.16815892E-10  8.25329136E+07  8.25334281E+07
         6   12       4.06437227E-03  1.22981832E+06  2.77050062E-08  1.97663277E+10  1.97675575E+10
         6   14       1.42806758E-02  9.41862686E+10  1.15198329E-10  1.10555239E+08  9.42968238E+10
         6   16       1.38569664E-05  1.14250599E-07  9.16466094E+07  1.18025525E-10  9.16466094E+07
         6   18       2.28288919E-03  4.50989952E+06  2.52019574E-08  1.81149256E+10  1.81194355E+10
         7    9       2.35893952E-01  1.19318464E-15  8.20153709E+07  1.16525430E-10  8.20153709E+07
         7   11       4.01594641E-03  7.25521516E-12  1.95306178E+10  2.80231462E-08  1.95306178E+10
         7   15       1.41691723E-02  9.36425179E+10  1.03703319E-10  6.31245656E+07  9.37056424E+10
         7   17       2.23650621E-03  1.65041229E-11  1.77502844E+10  2.56926830E-08  1.77502844E+10
         8   10       2.35893952E-01  1.19318464E-15  8.20153709E+07  1.16525430E-10  8.20153709E+07
         8   12       4.01594641E-03  7.25521516E-12  1.95306178E+10  2.80231462E-08  1.95306178E+10
         8   16       1.41691723E-02  9.36425179E+10  1.03703319E-10  6.31245656E+07  9.37056424E+10
         8   18       2.23650621E-03  1.65041229E-11  1.77502844E+10  2.56926830E-08  1.77502844E+10
         9   11       5.82865000E-03  2.78676756E+10  1.06353829E-12  1.28103145E+06  2.78689566E+10
         9   13       2.21191106E-03  7.15535854E+06  1.08462129E-10  1.43862332E+10  1.43933886E+10
         9   15       2.26765652E-03  6.52378871E-12  1.47801122E+10  1.09119586E-10  1.47801122E+10
         9   17       7.04587189E-03  5.51769365E+10  7.45997816E-13  5.63372914E+06  5.51825702E+10
        10   12       5.82865000E-03  2.78676756E+10  1.06353829E-12  1.28103145E+06  2.78689566E+10
        10   14       2.21191106E-03  7.15535854E+06  1.08462129E-10  1.43862332E+10  1.43933886E+10
        10   16       2.26765652E-03  6.52378871E-12  1.47801122E+10  1.09119586E-10  1.47801122E+10
        10   18       7.04587189E-03  5.51769365E+10  7.45997816E-13  5.63372914E+06  5.51825702E+10
        11   13       1.99325271E-01  1.69706329E+03  1.95714242E-10  2.64518510E+10  2.64518527E+10
        11   15       1.98962979E-01  2.44664921E-17  2.67049168E+10  1.96494425E-10  2.67049168E+10
        11   17       1.10565153E-01  4.14004120E+10  5.43854254E-15  5.60947333E+03  4.14004176E+10
        12   14       1.99325271E-01  1.69706329E+03  1.95714242E-10  2.64518510E+10  2.64518527E+10
        12   16       1.98962979E-01  2.44664921E-17  2.67049168E+10  1.96494425E-10  2.67049168E+10
        12   18       1.10565153E-01  4.14004120E+10  5.43854254E-15  5.60947333E+03  4.14004176E+10
        13   15       2.13380315E-05  3.22628757E-20  9.15661626E+01  1.96103898E-16  9.15661626E+01
        13   17       5.92043594E-02  1.25990321E+05  2.73756579E-11  3.63027255E+09  3.63039854E+09
        14   16       2.13380315E-05  3.22628757E-20  9.15661626E+01  1.96103898E-16  9.15661626E+01
        14   18       5.92043594E-02  1.25990321E+05  2.73756579E-11  3.63027255E+09  3.63039854E+09
        15   17       6.12255946E-02  2.56770237E-14  3.69178939E+09  2.64487510E-11  3.69178939E+09
        16   18       6.12255946E-02  2.56770237E-14  3.69178939E+09  2.64487510E-11  3.69178939E+09
     -----------------------------------------------------------------------------------------------
--

++ Length and velocity gauge comparison (SO states):

 --------------------------------------------------
 A comparison between the dipole oscillator strengths in 
 length and velocity gauge will be performed

 All dipole oscillator differences above the tolerance of   0.10000000000000001       will be printed 

 Due to basis set deficiency these oscillator may be problematic 

 The tolerance is defined as ABS(1-O_l/O_v) 
 O_l : dipole oscillator strength in length gauge
 O_p : dipole oscillator strength in velocity gauge
 --------------------------------------------------

  Problematic transitions have been found

      From   To       Difference (%) Osc. st. (len.) Osc. st. (vel.)
     ---------------------------------------------------------------
         1    3      --------------- below threshold  1.18586870E-03
         1    5            99.903635  3.94779108E-05  4.09670113E-02
         1    7            99.902920  3.95711552E-05  4.07614940E-02
         1    9      --------------- below threshold  7.41384835E-05
         1   11            53.343203  3.12145903E-05  2.03560312E-05
         1   17            47.472220  4.09536081E-05  2.77703884E-05
         2    4      --------------- below threshold  1.18586870E-03
         2    6            99.903635  3.94779108E-05  4.09670113E-02
         2    8            99.902920  3.95711552E-05  4.07614940E-02
         2   10      --------------- below threshold  7.41384835E-05
         2   12            53.343203  3.12145903E-05  2.03560312E-05
         2   18            47.472220  4.09536081E-05  2.77703884E-05
         3    5            99.903057  3.96146834E-05  4.08640449E-02
         3    7            99.903832  3.93663362E-05  4.09350438E-02
         3    9      --------------- below threshold  6.89347207E-05
         3   11            62.606640  2.51195780E-05  1.54480641E-05
         3   17            72.454871  2.55286581E-05  1.48030948E-05
         4    6            99.903057  3.96146834E-05  4.08640449E-02
         4    8            99.903832  3.93663362E-05  4.09350438E-02
         4   10      --------------- below threshold  6.89347207E-05
         4   12            62.606640  2.51195780E-05  1.54480641E-05
         4   18            72.454871  2.55286581E-05  1.48030948E-05
         5    9            99.993949  1.42414432E-05  2.35363301E-01
         5   13            39.422172  1.99104283E-02  1.42806758E-02
         5   15           316.806223  5.77566984E-05  1.38569664E-05
         5   17            53.290801  1.06631926E-03  2.28288919E-03
         6   10            99.993949  1.42414432E-05  2.35363301E-01
         6   14            39.422172  1.99104283E-02  1.42806758E-02
         6   16           316.806223  5.77566984E-05  1.38569664E-05
         6   18            53.290801  1.06631926E-03  2.28288919E-03
         7    9            99.993948  1.42753840E-05  2.35893952E-01
         7   13      ---------------  4.80816597E-05 below threshold
         7   15            38.820572  1.96697260E-02  1.41691723E-02
         7   17            54.775583  1.01144689E-03  2.23650621E-03
         8   10            99.993948  1.42753840E-05  2.35893952E-01
         8   14      ---------------  4.80816597E-05 below threshold
         8   16            38.820572  1.96697260E-02  1.41691723E-02
         8   18            54.775583  1.01144689E-03  2.23650621E-03
         9   11            18.421299  6.90236302E-03  5.82865000E-03
         9   13            54.902128  9.97524810E-04  2.21191106E-03
         9   15            53.536824  1.05362523E-03  2.26765652E-03
         9   17            86.815059  1.31627497E-02  7.04587189E-03
        10   12            18.421299  6.90236302E-03  5.82865000E-03
        10   14            54.902128  9.97524810E-04  2.21191106E-03
        10   16            53.536824  1.05362523E-03  2.26765652E-03
        10   18            86.815059  1.31627497E-02  7.04587189E-03
        13   15            11.313767  1.89238963E-05  2.13380315E-05
        14   16            11.313767  1.89238963E-05  2.13380315E-05
     ---------------------------------------------------------------

 Number of problematic transitions =                    48

--

 Electric-dipole - electric-octupole not included
++ Total transition strengths for the second-order expansion of the wave vector (SO states):
   -----------------------------------------------------------------------------------------
    for osc. strength at least    1.0000000000000001E-005

      From   To        Osc. strength
     -------------------------------
         1   17       1.69652214E-05
         2   18       1.69652214E-05
         3   17       1.69614641E-05
         4   18       1.69614641E-05
        11   13       1.26634867E-05
        11   15       1.27773964E-05
        12   14       1.26634867E-05
        12   16       1.27773964E-05
        13   17       1.36304875E-05
        14   18       1.36304875E-05
        15   17       1.35678653E-05
        16   18       1.35678653E-05
     -------------------------------
--

++ I/O STATISTICS
 
  I. General I/O information
  - - - - - - - - - - - - - - - - - - - - - - - - - - - - - - - - - - - - - - - - - - -
  Unit  Name          Flsize      Write/Read            MBytes           Write/Read
                      (MBytes)       Calls              In/Out           Time, sec.
  - - - - - - - - - - - - - - - - - - - - - - - - - - - - - - - - - - - - - - - - - - -
   1  SCRATCH           0.00 .       9/      45 .      0.0/      0.0 .       0/       0
   2  ANNI              0.00 .       0/       0 .      0.0/      0.0 .       0/       0
   3  RUNFILE          14.69 .     322/   10733 .      2.3/     77.8 .       0/       0
   4  ONEINT            5.14 .       0/   22237 .      0.0/   3722.5 .       0/       0
   5  JOBIPH            5.91 .       0/      92 .      0.0/      0.7 .       0/       0
   6  ORDINT          403.03 .       1/    3225 .      0.0/    806.0 .       0/       0
  - - - - - - - - - - - - - - - - - - - - - - - - - - - - - - - - - - - - - - - - - - -
   *  TOTAL           428.78 .     332/   36332 .      2.3/   4607.0 .       0/       0
  - - - - - - - - - - - - - - - - - - - - - - - - - - - - - - - - - - - - - - - - - - -
 
  II. I/O Access Patterns
  - - - - - - - - - - - - - - - - - - - -
  Unit  Name               % of random
                         Write/Read calls
  - - - - - - - - - - - - - - - - - - - -
   1  SCRATCH             88.9/ 100.0
   2  ANNI                 0.0/   0.0
   3  RUNFILE             28.6/  10.8
   4  ONEINT               0.0/  17.4
   5  JOBIPH               0.0/  76.1
   6  ORDINT             100.0/   0.1
  - - - - - - - - - - - - - - - - - - - -
--
--- Stop Module: rassi at Tue Mar 25 17:58:01 2025 /rc=_RC_ALL_IS_WELL_ ---
*** files: xmldump
    saved to directory /home4/s4752295/Internship/Initial_simulations/Point_charge_model/1_electron/Madelung_charges_9_active_space/Nb
--- Module rassi spent 4 seconds ---

.##################.
.# Happy landing! #.
.##################.

    Timing: Wall=51.06 User=39.49 System=6.99

###############################################################################
Hbrk Cluster
Job 15900840 for user s4752295
Finished at: Tue Mar 25 17:58:05 CET 2025

Job details:
============

Job ID                         : 15900840
Name                           : Nb_no_SO
User                           : s4752295
Partition                      : regularmedium
Nodes                          : node99
Number of Nodes                : 1
Cores                          : 1
Number of Tasks                : 1
State                          : COMPLETED  
Submit                         : 2025-03-25T17:56:36
Start                          : 2025-03-25T17:57:03
End                            : 2025-03-25T17:58:01
Reserved walltime              : 15:00:00
Used walltime                  : 00:00:58
Used CPU time                  : 00:00:48 (Efficiency: 82.48%)
% User (Computation)           : 84.89%
% System (I/O)                 : 15.11%
Total memory reserved          : 25000M
Maximum memory used            : 1.62G

Acknowledgements:
=================

Please see this page for information about acknowledging Hbrk in your publications:

https://wiki.hpc.rug.nl/habrok/introduction/scientific_output

################################################################################
