   This run of MOLCAS is using the pymolcas driver

                             OPE
                             OPE          NMOL  CASOP  ENMOLC A   SO
                 OPE        NMOLC        AS  OP EN  MO LC     AS  OP
                OPENM       OL CA        SO  PE NM  OL CA     SOP EN
                OP EN      MO   LC       AS  OP ENMOL  CASO   PENMOL
                OP  EN     MO   LC       AS  OP EN     MO     LC ASO
               OP   E  NMOL  C  AS       OP  EN MO     LC     AS  OP
               OP  E   NMO   LC AS        OPEN  MO     LCASOP EN   M
               O  PEN   MO  LCA  SO
            OPE   NMO   L   CAS    OP
        OPENMOL  CASOP     ENMOL   CASOPE
     OPENMOLCA   SOPENMOLCASOPEN   MOLCASOPE
    OPENMOLCAS   OP           EN   MOL    CAS
    OPENMOLCAS       OP  ENM        O     LCA
    OPENMOLCAS    OPEN  MOLCASO     P  E  NMO
    OPENMOLCAS     OP               E  N  MOL
    OPENMOLCA   SO           PENM   O  L  CAS    OPEN    MO    LCAS
    OPENMOLCA   SOP           ENM   O  L  CAS   OP  EN  MOLC  AS   O
    OPENMOLCA   SOPE           NM      O  LCA   S      OP  EN MO
    OPENMOLC                AS         O  PEN   M      OL  CA  SOPE
    OPENMO        LCASOPE  NMOL        C  ASO   P      ENMOLC     AS
    OPE     NMO      LCA  SO     P     E   NM   OL  CA SO  PE N   MO
          OPENMOLCA            SOPE   NMO        LCAS  O    P  ENMO
     OPENMOLCASOPENMOLCASOPENMOLCASOPENMOLCA
        OPENMOLCASOPENMOLCASOPENMOLCASOPE
            OPENMOLCASOPENMOLCASOPENM
               OPENMOLCASOPENMOLCA        version: o91e1abe7de707b ?
                   OPENMOLCASO
                       OPE                tag:

 OpenMolcas is free software; you can redistribute it and/or modify it
 under the terms of the GNU Lesser General Public License version 2.1.
 OpenMolcas is distributed in the hope that it will be useful, but it
 is provided "as is" and without any express or implied warranties.
 For more details see the full text of the license in the file
 LICENSE or in <http://www.gnu.org/licenses/>.

                 Copyright (C) The OpenMolcas Authors
           For the author list and the recommended citation,
                   consult the file CONTRIBUTORS.md

           *************************************************
           * pymolcas version py2.10                       *
           *   build 3068ae8b88c9345ec6cfef6fef7f1169      *
           *   (after the EMIL interpreter by V. Veryazov) *
           *************************************************

configuration info
------------------
Host name: login1 (Linux)
C Compiler ID: GNU
C flags: -std=gnu99
Fortran Compiler ID: GNU
Fortran flags: -fno-aggressive-loop-optimizations -cpp -fdefault-integer-8 -fmax-stack-var-size=1048576
Definitions: _MOLCAS_;_I8_;_LINUX_;_MKL_
Parallel: OFF (GA=OFF)


   -----------------------------------------------------------------------------------------------------------------------------------
  |
  |           Project: niobium_so_cf
  |    Submitted from: /home4/s4752295/Internship/Initial_simulations/Point_charge_model/1_electron/Madelung_charges_9_active_space/Nb
  |      Scratch area: /tmp/niobium_so_cf
  |   Save outputs to: /home4/s4752295/Internship/Initial_simulations/Point_charge_model/1_electron/Madelung_charges_9_active_space/Nb
  |            Molcas: /home4/s4752295/Internship/Molcas/recomp_try/OpenMolcas-master/build
  |
  | Scratch area is empty
  |
  |    MOLCAS_DRIVER = /home4/s4752295/Internship/Molcas/bin/pymolcas
  |    MOLCAS_NPROCS = 1
  |    MOLCAS_SOURCE = /home4/s4752295/Internship/Molcas/recomp_try/OpenMolcas-master
  | MOLCAS_STRUCTURE = 0
  |
   -----------------------------------------------------------------------------------------------------------------------------------

++ ---------   Input file   ---------

&SEWARD
AMFi

CLIG
$R

Basis Set
Nb.ANO-rcc.Roos.21s18p13d6f4g2h.10s9p8d5f4g2h.
Spherical d
Nb            -1.0658140267135469e-14   -3.5527134223784897e-15 0.008753588724385739
End of Basis

Xfield

414
-0.400220108,-0.15400000000000003,0.0889119     -0.625931
-0.400220108,-0.0,-0.1778239    -0.625931
-0.400220108,0.15400000000000003,0.0889119      -0.625931
-0.39953460700000004,0.0,0.0    1.892092
0.26591796900000003,-0.15400000000000003,-0.0889119     2.515516
0.26591796900000003,0.0,0.1778239       2.515516
0.26591796900000003,0.15400000000000003,-0.0889119      2.515516
0.356298828,-0.30800000000000005,0.0    0.004632
0.356298828,-0.15400000000000003,-0.2667358     0.004632
0.356298828,-0.15400000000000003,0.2667358      0.004632
0.356298828,0.15400000000000003,-0.2667358      0.004632
0.356298828,0.15400000000000003,0.2667358       0.004632
0.356298828,0.30800000000000005,0.0     0.004632
0.41291503900000004,-0.15400000000000003,0.0889119      -2.519484
0.41291503900000004,-0.0,-0.1778239     -2.519484
0.41291503900000004,0.15400000000000003,0.0889119       -2.519484
-0.29331054700000003,-0.0,-0.0  -3.142907
-0.4975097660000001,-0.30800000000000005,-0.1778239     -0.625931
-0.4975097660000001,0.0,0.3556477       -0.625931
-0.4975097660000001,0.30800000000000005,-0.1778239      -0.625931
-0.6609375000000001,-0.30800000000000005,0.0    1.892092
-0.6609375000000001,-0.15400000000000003,-0.2667358     1.892092
-0.6609375000000001,-0.15400000000000003,0.2667358      1.892092
-0.6609375000000001,0.15400000000000003,-0.2667358      1.892092
-0.6609375000000001,0.15400000000000003,0.2667358       1.892092
-0.6609375000000001,0.30800000000000005,0.0     1.892092
2.5171875000000004,-0.30800000000000005,0.1778239       2.515516
2.5171875000000004,-0.0,-0.3556477      2.515516
2.5171875000000004,0.30800000000000005,0.1778239        2.515516
0.363867188,-0.30800000000000005,-0.1778239     -2.519484
0.363867188,0.0,0.3556477       -2.519484
0.363867188,0.30800000000000005,-0.1778239      -2.519484
-0.32324218800000004,-0.30800000000000005,-0.0  -3.142907
-0.32324218800000004,-0.15400000000000003,-0.2667358    -3.142907
-0.32324218800000004,-0.15400000000000003,0.2667358     -3.142907
-0.32324218800000004,0.15400000000000003,-0.2667358     -3.142907
-0.32324218800000004,0.15400000000000003,0.2667358      -3.142907
-0.32324218800000004,0.30800000000000005,-0.0   -3.142907
-0.95234375,-0.30800000000000005,0.3556477      -0.625931
-0.95234375,0.30800000000000005,0.3556477       -0.625931
-0.95234375,-0.462,0.0889119    -0.625931
-0.95234375,0.462,0.0889119     -0.625931
-0.95234375,-0.15400000000000003,-0.44455970000000006   -0.625931
-0.95234375,0.15400000000000003,-0.44455970000000006    -0.625931
0.60078125,-0.15400000000000003,-0.0889119      4.409069
0.60078125,0.15400000000000003,-0.0889119       4.409069
0.60078125,0.0,0.1778239        4.409069
-17.525000000000002,-0.0,-0.0   -5.030367
-17.525000000000002,0.0,0.0     5.039632
1.351757812,-0.30800000000000005,-0.3556477     2.515516
1.351757812,0.30800000000000005,-0.3556477      2.515516
1.351757812,-0.462,-0.0889119   2.515516
1.351757812,0.462,-0.0889119    2.515516
1.351757812,-0.15400000000000003,0.44455970000000006    2.515516
1.351757812,0.15400000000000003,0.44455970000000006     2.515516
1.9039062500000001,-0.462,-0.2667358    0.004632
1.9039062500000001,-0.462,0.2667358     0.004632
1.9039062500000001,0.462,-0.2667358     0.004632
1.9039062500000001,0.462,0.2667358      0.004632
1.9039062500000001,-0.0,-0.5334716      0.004632
1.9039062500000001,0.0,0.5334716        0.004632
4.807812500000001,-0.30800000000000005,0.3556477        -2.519484
4.807812500000001,0.30800000000000005,0.3556477 -2.519484
4.807812500000001,-0.462,0.0889119      -2.519484
4.807812500000001,0.462,0.0889119       -2.519484
4.807812500000001,-0.15400000000000003,-0.44455970000000006     -2.519484
4.807812500000001,0.15400000000000003,-0.44455970000000006      -2.519484
-14.5875,-0.462,-0.2667358      1.892092
-14.5875,-0.462,0.2667358       1.892092
-14.5875,0.462,-0.2667358       1.892092
-14.5875,0.462,0.2667358        1.892092
-14.5875,-0.0,-0.5334716        1.892092
-14.5875,0.0,0.5334716  1.892092
-11.775,-0.30800000000000005,0.1778239  4.409069
-11.775,-0.0,-0.3556477 4.409069
-11.775,0.30800000000000005,0.1778239   4.409069
-8.9,-0.30800000000000005,-0.0  -5.030367
-8.9,-0.15400000000000003,-0.2667358    -5.030367
-8.9,-0.15400000000000003,0.2667358     -5.030367
-8.9,0.15400000000000003,-0.2667358     -5.030367
-8.9,-0.30800000000000005,0.0   5.039632
-8.9,0.30800000000000005,-0.0   -5.030367
-8.9,0.15400000000000003,0.2667358      -5.030367
-8.9,-0.15400000000000003,-0.2667358    5.039632
-8.9,-0.15400000000000003,0.2667358     5.039632
-8.9,0.15400000000000003,-0.2667358     5.039632
-8.9,0.30800000000000005,0.0    5.039632
-8.9,0.15400000000000003,0.2667358      5.039632
-4.6625000000000005,-0.15400000000000003,-0.0889119     -5.660931
-4.6625000000000005,0.0,0.1778239       -5.660931
-4.6625000000000005,0.15400000000000003,-0.0889119      -5.660931
0.08828125,-0.6159999,0.0       0.004632
0.08828125,-0.30800000000000005,-0.5334716      0.004632
0.08828125,-0.30800000000000005,0.5334716       0.004632
0.08828125,0.30800000000000005,-0.5334716       0.004632
0.08828125,0.6159999,0.0        0.004632
0.08828125,0.30800000000000005,0.5334716        0.004632
6.79375,-0.462,0.2667358        -3.142907
6.79375,-0.462,-0.2667358       -3.142907
6.79375,0.462,-0.2667358        -3.142907
6.79375,0.462,0.2667358 -3.142907
6.79375,-0.0,-0.5334716 -3.142907
6.79375,0.0,0.5334716   -3.142907
8.637500000000001,-0.6159999,-0.1778239 -0.625931
8.637500000000001,-0.462,-0.44455970000000006   -0.625931
8.637500000000001,-0.15400000000000003,0.6223835000000001       -0.625931
8.637500000000001,0.462,-0.44455970000000006    -0.625931
8.637500000000001,0.6159999,-0.1778239  -0.625931
8.637500000000001,0.15400000000000003,0.6223835000000001        -0.625931
0.11972656200000001,-0.6159999,0.0      1.892092
0.11972656200000001,-0.30800000000000005,-0.5334716     1.892092
0.11972656200000001,-0.30800000000000005,0.5334716      1.892092
0.11972656200000001,0.30800000000000005,-0.5334716      1.892092
0.11972656200000001,0.6159999,0.0       1.892092
0.11972656200000001,0.30800000000000005,0.5334716       1.892092
3.3843750000000004,-0.30800000000000005,-0.3556477      4.409069
3.3843750000000004,0.30800000000000005,-0.3556477       4.409069
3.3843750000000004,-0.462,-0.0889119    4.409069
3.3843750000000004,0.462,-0.0889119     4.409069
3.3843750000000004,-0.15400000000000003,0.44455970000000006     4.409069
3.3843750000000004,0.15400000000000003,0.44455970000000006      4.409069
16.240625,-0.30800000000000005,0.1778239        -5.660931
16.240625,-0.0,-0.3556477       -5.660931
16.240625,0.30800000000000005,0.1778239 -5.660931
0.034375,-0.6159999,0.1778239   2.515516
0.034375,-0.15400000000000003,-0.6223835000000001       2.515516
0.034375,-0.462,0.44455970000000006     2.515516
0.034375,0.15400000000000003,-0.6223835000000001        2.515516
0.034375,0.6159999,0.1778239    2.515516
0.034375,0.462,0.44455970000000006      2.515516
-9.418750000000001,-0.6159999,-0.1778239        -2.519484
-9.418750000000001,-0.462,-0.44455970000000006  -2.519484
-9.418750000000001,-0.15400000000000003,0.6223835000000001      -2.519484
-9.418750000000001,0.462,-0.44455970000000006   -2.519484
-9.418750000000001,0.15400000000000003,0.6223835000000001       -2.519484
-9.418750000000001,0.6159999,-0.1778239 -2.519484
-2.20703125,-0.6159999,-0.0     -3.142907
-2.20703125,-0.30800000000000005,-0.5334716     -3.142907
-2.20703125,-0.30800000000000005,0.5334716      -3.142907
-2.20703125,0.30800000000000005,-0.5334716      -3.142907
-2.20703125,0.30800000000000005,0.5334716       -3.142907
-2.20703125,0.6159999,-0.0      -3.142907
60.650000000000006,0.0,0.0      6.927092
32.325,-0.6159999,0.3556477     -0.625931
32.325,0.6159999,0.3556477      -0.625931
32.325,-0.0,-0.7112955000000001 -0.625931
-0.5421875,-0.462,0.2667358     -5.030367
-0.5421875,-0.462,-0.2667358    -5.030367
-0.5421875,-0.462,0.2667358     5.039632
-0.5421875,-0.462,-0.2667358    5.039632
-0.5421875,0.462,-0.2667358     -5.030367
-0.5421875,0.462,0.2667358      -5.030367
-0.5421875,0.462,-0.2667358     5.039632
-0.5421875,0.462,0.2667358      5.039632
-0.5421875,-0.0,-0.5334716      -5.030367
-0.5421875,0.0,0.5334716        -5.030367
-0.5421875,-0.0,-0.5334716      5.039632
-0.5421875,0.0,0.5334716        5.039632
9.18125,-0.30800000000000005,-0.3556477 -5.660931
9.18125,0.30800000000000005,-0.3556477  -5.660931
9.18125,-0.462,-0.0889119       -5.660931
9.18125,0.462,-0.0889119        -5.660931
9.18125,-0.15400000000000003,0.44455970000000006        -5.660931
9.18125,0.15400000000000003,0.44455970000000006 -5.660931
30.05,-0.6159999,-0.3556477     2.515516
30.05,0.6159999,-0.3556477      2.515516
30.05,0.0,0.7112955000000001    2.515516
-51.725,-0.6159999,0.3556477    -2.519484
-51.725,0.6159999,0.3556477     -2.519484
-51.725,-0.0,-0.7112955000000001        -2.519484
5.35625,-0.30800000000000005,0.0        6.927092
5.35625,-0.15400000000000003,-0.2667358 6.927092
5.35625,-0.15400000000000003,0.2667358  6.927092
5.35625,0.15400000000000003,-0.2667358  6.927092
5.35625,0.15400000000000003,0.2667358   6.927092
5.35625,0.30800000000000005,0.0 6.927092
-5.525,-0.15400000000000003,0.0889119   7.550516
-5.525,0.0,-0.1778239   7.550516
-5.525,0.15400000000000003,0.0889119    7.550516
1.553125,-0.15400000000000003,-0.0889119        -7.554483
1.553125,0.15400000000000003,-0.0889119 -7.554483
1.553125,-0.0,0.1778239 -7.554483
-12.4875,-0.7699999000000001,0.0889119  -0.625931
-12.4875,-0.462,0.6223835000000001      -0.625931
-12.4875,-0.30800000000000005,-0.7112955000000001       -0.625931
-12.4875,0.30800000000000005,-0.7112955000000001        -0.625931
-12.4875,0.7699999000000001,0.0889119   -0.625931
-12.4875,0.462,0.6223835000000001       -0.625931
-6.74375,-0.6159999,0.1778239   4.409069
-6.74375,-0.462,0.44455970000000006     4.409069
-6.74375,-0.15400000000000003,-0.6223835000000001       4.409069
-6.74375,0.15400000000000003,-0.6223835000000001        4.409069
-6.74375,0.462,0.44455970000000006      4.409069
-6.74375,0.6159999,0.1778239    4.409069
4.915625,-0.6159999,-0.0        -5.030367
4.915625,-0.30800000000000005,-0.5334716        -5.030367
4.915625,-0.30800000000000005,0.5334716 -5.030367
4.915625,-0.6159999,0.0 5.039632
4.915625,-0.30800000000000005,-0.5334716        5.039632
4.915625,0.30800000000000005,-0.5334716 -5.030367
4.915625,0.30800000000000005,0.5334716  -5.030367
4.915625,0.6159999,-0.0 -5.030367
4.915625,-0.30800000000000005,0.5334716 5.039632
4.915625,0.30800000000000005,-0.5334716 5.039632
4.915625,0.6159999,0.0  5.039632
4.915625,0.30800000000000005,0.5334716  5.039632
18.075,-0.7699999000000001,-0.0889119   2.515516
18.075,-0.462,-0.6223835000000001       2.515516
18.075,-0.30800000000000005,0.7112955000000001  2.515516
18.075,0.462,-0.6223835000000001        2.515516
18.075,0.7699999000000001,-0.0889119    2.515516
18.075,0.30800000000000005,0.7112955000000001   2.515516
-2.334375,-0.7699999000000001,-0.2667358        0.004632
-2.334375,-0.7699999000000001,0.2667358 0.004632
-2.334375,-0.6159999,-0.5334716 0.004632
-2.334375,-0.6159999,0.5334716  0.004632
-2.334375,-0.15400000000000003,-0.8002074000000001      0.004632
-2.334375,0.15400000000000003,-0.8002074000000001       0.004632
-2.334375,-0.15400000000000003,0.8002074000000001       0.004632
-2.334375,0.6159999,-0.5334716  0.004632
-2.334375,0.15400000000000003,0.8002074000000001        0.004632
-2.334375,0.7699999000000001,-0.2667358 0.004632
-2.334375,0.7699999000000001,0.2667358  0.004632
-2.334375,0.6159999,0.5334716   0.004632
-14.3125,-0.7699999000000001,0.0889119  -2.519484
-14.3125,-0.462,0.6223835000000001      -2.519484
-14.3125,-0.30800000000000005,-0.7112955000000001       -2.519484
-14.3125,0.30800000000000005,-0.7112955000000001        -2.519484
-14.3125,0.7699999000000001,0.0889119   -2.519484
-14.3125,0.462,0.6223835000000001       -2.519484
303.2,-0.0,-0.0 -8.177907
-11.600000000000001,-0.30800000000000005,-0.1778239     7.550516
-11.600000000000001,0.0,0.3556477       7.550516
-11.600000000000001,0.30800000000000005,-0.1778239      7.550516
-60.35,-0.30800000000000005,0.1778239   -7.554483
-60.35,-0.0,-0.3556477  -7.554483
-60.35,0.30800000000000005,0.1778239    -7.554483
4.890625,-0.7699999000000001,0.2667358  1.892092
4.890625,-0.7699999000000001,-0.2667358 1.892092
4.890625,-0.6159999,-0.5334716  1.892092
4.890625,-0.6159999,0.5334716   1.892092
4.890625,-0.15400000000000003,-0.8002074000000001       1.892092
4.890625,0.15400000000000003,-0.8002074000000001        1.892092
4.890625,-0.15400000000000003,0.8002074000000001        1.892092
4.890625,0.6159999,-0.5334716   1.892092
4.890625,0.15400000000000003,0.8002074000000001 1.892092
4.890625,0.7699999000000001,-0.2667358  1.892092
4.890625,0.7699999000000001,0.2667358   1.892092
4.890625,0.6159999,0.5334716    1.892092
-50.5,-0.6159999,-0.3556477     4.409069
-50.5,0.6159999,-0.3556477      4.409069
-50.5,0.0,0.7112955000000001    4.409069
2.58203125,-0.6159999,0.1778239 -5.660931
2.58203125,-0.15400000000000003,-0.6223835000000001     -5.660931
2.58203125,-0.462,0.44455970000000006   -5.660931
2.58203125,0.15400000000000003,-0.6223835000000001      -5.660931
2.58203125,0.462,0.44455970000000006    -5.660931
2.58203125,0.6159999,0.1778239  -5.660931
-5.8187500000000005,-0.6159999,-0.5334716       -3.142907
-5.8187500000000005,-0.7699999000000001,0.2667358       -3.142907
-5.8187500000000005,-0.7699999000000001,-0.2667358      -3.142907
-5.8187500000000005,-0.6159999,0.5334716        -3.142907
-5.8187500000000005,-0.15400000000000003,-0.8002074000000001    -3.142907
-5.8187500000000005,0.15400000000000003,-0.8002074000000001     -3.142907
-5.8187500000000005,-0.15400000000000003,0.8002074000000001     -3.142907
-5.8187500000000005,0.7699999000000001,-0.2667358       -3.142907
-5.8187500000000005,0.6159999,-0.5334716        -3.142907
-5.8187500000000005,0.15400000000000003,0.8002074000000001      -3.142907
-5.8187500000000005,0.7699999000000001,0.2667358        -3.142907
-5.8187500000000005,0.6159999,0.5334716 -3.142907
6.540625,-0.462,-0.2667358      6.927092
6.540625,-0.462,0.2667358       6.927092
6.540625,0.462,-0.2667358       6.927092
6.540625,0.462,0.2667358        6.927092
6.540625,-0.0,-0.5334716        6.927092
6.540625,0.0,0.5334716  6.927092
-8.325000000000001,-0.30800000000000005,-0.0    -8.177907
-8.325000000000001,-0.15400000000000003,0.2667358       -8.177907
-8.325000000000001,-0.15400000000000003,-0.2667358      -8.177907
-8.325000000000001,0.15400000000000003,-0.2667358       -8.177907
-8.325000000000001,0.30800000000000005,-0.0     -8.177907
-8.325000000000001,0.15400000000000003,0.2667358        -8.177907
-9.090625000000001,-0.30800000000000005,0.3556477       7.550516
-9.090625000000001,0.30800000000000005,0.3556477        7.550516
-9.090625000000001,-0.462,0.0889119     7.550516
-9.090625000000001,0.462,0.0889119      7.550516
-9.090625000000001,-0.15400000000000003,-0.44455970000000006    7.550516
-9.090625000000001,0.15400000000000003,-0.44455970000000006     7.550516
-4.5687500000000005,-0.30800000000000005,-0.3556477     -7.554483
-4.5687500000000005,0.30800000000000005,-0.3556477      -7.554483
-4.5687500000000005,-0.462,-0.0889119   -7.554483
-4.5687500000000005,0.462,-0.0889119    -7.554483
-4.5687500000000005,-0.15400000000000003,0.44455970000000006    -7.554483
-4.5687500000000005,0.15400000000000003,0.44455970000000006     -7.554483
-50.025000000000006,0.0,0.8891193       -0.625931
-50.025000000000006,-0.7699999000000001,-0.44455970000000006    -0.625931
-50.025000000000006,0.7699999000000001,-0.44455970000000006     -0.625931
-26.975,-0.7699999000000001,-0.0889119  4.409069
-26.975,-0.462,-0.6223835000000001      4.409069
-26.975,-0.30800000000000005,0.7112955000000001 4.409069
-26.975,0.462,-0.6223835000000001       4.409069
-26.975,0.7699999000000001,-0.0889119   4.409069
-26.975,0.30800000000000005,0.7112955000000001  4.409069
31.0375,-0.6159999,-0.3556477   -5.660931
31.0375,0.6159999,-0.3556477    -5.660931
31.0375,0.0,0.7112955000000001  -5.660931
58.7,-0.0,-0.8891193    2.515516
58.7,-0.7699999000000001,0.44455970000000006    2.515516
58.7,0.7699999000000001,0.44455970000000006     2.515516
-9.387500000000001,-0.9239999,-0.0      0.004632
-9.387500000000001,0.462,-0.8002074000000001    0.004632
-9.387500000000001,-0.462,0.8002074000000001    0.004632
-9.387500000000001,0.9239999,-0.0       0.004632
-9.387500000000001,-0.462,-0.8002074000000001   0.004632
-9.387500000000001,0.462,0.8002074000000001     0.004632
-38.575,0.0,0.8891193   -2.519484
-38.575,-0.7699999000000001,-0.44455970000000006        -2.519484
-38.575,0.7699999000000001,-0.44455970000000006 -2.519484
22.8,-0.6159999,0.0     6.927092
22.8,-0.30800000000000005,-0.5334716    6.927092
22.8,-0.30800000000000005,0.5334716     6.927092
22.8,0.30800000000000005,-0.5334716     6.927092
22.8,0.6159999,0.0      6.927092
22.8,0.30800000000000005,0.5334716      6.927092
21.1875,-0.9239999,-0.1778239   -0.625931
21.1875,-0.30800000000000005,0.8891193  -0.625931
21.1875,-0.6159999,-0.7112955000000001  -0.625931
21.1875,0.6159999,-0.7112955000000001   -0.625931
21.1875,0.30800000000000005,0.8891193   -0.625931
21.1875,0.9239999,-0.1778239    -0.625931
11.193750000000001,-0.9239999,0.0       1.892092
11.193750000000001,-0.462,-0.8002074000000001   1.892092
11.193750000000001,-0.462,0.8002074000000001    1.892092
11.193750000000001,0.462,-0.8002074000000001    1.892092
11.193750000000001,0.9239999,0.0        1.892092
11.193750000000001,0.462,0.8002074000000001     1.892092
-0.43203125000000003,-0.7699999000000001,0.2667358      -5.030367
-0.43203125000000003,-0.7699999000000001,-0.2667358     -5.030367
-0.43203125000000003,-0.6159999,-0.5334716      -5.030367
-0.43203125000000003,-0.6159999,0.5334716       -5.030367
-0.43203125000000003,-0.7699999000000001,0.2667358      5.039632
-0.43203125000000003,0.15400000000000003,-0.8002074000000001    -5.030367
-0.43203125000000003,-0.15400000000000003,-0.8002074000000001   -5.030367
-0.43203125000000003,-0.7699999000000001,-0.2667358     5.039632
-0.43203125000000003,-0.6159999,-0.5334716      5.039632
-0.43203125000000003,-0.15400000000000003,0.8002074000000001    -5.030367
-0.43203125000000003,0.15400000000000003,-0.8002074000000001    5.039632
-0.43203125000000003,-0.6159999,0.5334716       5.039632
-0.43203125000000003,-0.15400000000000003,-0.8002074000000001   5.039632
-0.43203125000000003,0.6159999,-0.5334716       -5.030367
-0.43203125000000003,0.15400000000000003,0.8002074000000001     -5.030367
-0.43203125000000003,0.7699999000000001,-0.2667358      -5.030367
-0.43203125000000003,0.7699999000000001,0.2667358       -5.030367
-0.43203125000000003,0.6159999,0.5334716        -5.030367
-0.43203125000000003,-0.15400000000000003,0.8002074000000001    5.039632
-0.43203125000000003,0.6159999,-0.5334716       5.039632
-0.43203125000000003,0.7699999000000001,-0.2667358      5.039632
-0.43203125000000003,0.15400000000000003,0.8002074000000001     5.039632
-0.43203125000000003,0.7699999000000001,0.2667358       5.039632
-0.43203125000000003,0.6159999,0.5334716        5.039632
-0.06875,-0.7699999000000001,-0.0889119 -5.660931
-0.06875,-0.462,-0.6223835000000001     -5.660931
-0.06875,-0.30800000000000005,0.7112955000000001        -5.660931
-0.06875,0.462,-0.6223835000000001      -5.660931
-0.06875,0.30800000000000005,0.7112955000000001 -5.660931
-0.06875,0.7699999000000001,-0.0889119  -5.660931
11.600000000000001,-0.15400000000000003,0.0889119       9.444068
11.600000000000001,0.0,-0.1778239       9.444068
11.600000000000001,0.15400000000000003,0.0889119        9.444068
5.1312500000000005,-0.9239999,0.1778239 2.515516
5.1312500000000005,-0.30800000000000005,-0.8891193      2.515516
5.1312500000000005,0.30800000000000005,-0.8891193       2.515516
5.1312500000000005,-0.6159999,0.7112955000000001        2.515516
5.1312500000000005,0.9239999,0.1778239  2.515516
5.1312500000000005,0.6159999,0.7112955000000001 2.515516
15.6875,-0.9239999,-0.1778239   -2.519484
15.6875,-0.30800000000000005,0.8891193  -2.519484
15.6875,-0.6159999,-0.7112955000000001  -2.519484
15.6875,0.6159999,-0.7112955000000001   -2.519484
15.6875,0.9239999,-0.1778239    -2.519484
15.6875,0.30800000000000005,0.8891193   -2.519484
21.962500000000002,-0.9239999,-0.0      -3.142907
21.962500000000002,-0.462,-0.8002074000000001   -3.142907
21.962500000000002,-0.462,0.8002074000000001    -3.142907
21.962500000000002,0.462,-0.8002074000000001    -3.142907
21.962500000000002,0.9239999,-0.0       -3.142907
21.962500000000002,0.462,0.8002074000000001     -3.142907
0.864550781,-0.462,-0.2667358   -8.177907
0.864550781,-0.462,0.2667358    -8.177907
0.864550781,0.462,0.2667358     -8.177907
0.864550781,0.462,-0.2667358    -8.177907
0.864550781,-0.0,-0.5334716     -8.177907
0.864550781,0.0,0.5334716       -8.177907
25.1875,-0.462,-0.44455970000000006     7.550516
25.1875,-0.6159999,-0.1778239   7.550516
25.1875,-0.15400000000000003,0.6223835000000001 7.550516
25.1875,0.462,-0.44455970000000006      7.550516
25.1875,0.15400000000000003,0.6223835000000001  7.550516
25.1875,0.6159999,-0.1778239    7.550516
-34.800000000000004,-0.462,0.44455970000000006  -7.554483
-34.800000000000004,-0.6159999,0.1778239        -7.554483
-34.800000000000004,-0.15400000000000003,-0.6223835000000001    -7.554483
-34.800000000000004,0.15400000000000003,-0.6223835000000001     -7.554483
-34.800000000000004,0.6159999,0.1778239 -7.554483
-34.800000000000004,0.462,0.44455970000000006   -7.554483
7.1265625,-0.7699999000000001,0.6223835000000001        -0.625931
7.1265625,-0.9239999,0.3556477  -0.625931
7.1265625,-0.15400000000000003,-0.9780313       -0.625931
7.1265625,0.15400000000000003,-0.9780313        -0.625931
7.1265625,0.9239999,0.3556477   -0.625931
7.1265625,0.7699999000000001,0.6223835000000001 -0.625931
-48.375,-0.0,-0.8891193 4.409069
-48.375,-0.7699999000000001,0.44455970000000006 4.409069
-48.375,0.7699999000000001,0.44455970000000006  4.409069

End of input

&SCF
Occupied
9
Iterations
   50  100
End of Input

&RASSCF
LumOrb
Symmetry
1
Spin
2
Nactel
1 0 0
CIRoot
9 9 1
inactive
9
ras2
9
End of Input

>>> COPY niobium_so_cf.JobIph $SLURM_SUBMIT_DIR/niobium_so_cf.doublet.JobIph

>>> COPY $SLURM_SUBMIT_DIR/niobium_so_cf.doublet.JobIph ./JOB002

&RASSI
NROFJobIph
1 All
SpinOrbit
End of Input

EOF

-- ----------------------------------

--- Start Module: seward at Tue Mar 25 14:17:37 2025 ---

()()()()()()()()()()()()()()()()()()()()()()()()()()()()()()()()()()()()()()()()()()()()()()()()()()

                                              &SEWARD

                                   only a single process is used
                       available to each process: 4.1 GB of memory, 1 thread?
                                            pid: 1837059
()()()()()()()()()()()()()()()()()()()()()()()()()()()()()()()()()()()()()()()()()()()()()()()()()()

 The speed of LIGHT in this CALCULATION =   137.03599917700001     
               SEWARD will generate:
                  Multipole Moment integrals up to order  2
                  Kinetic Energy integrals
                  Nuclear Attraction integrals (point charge)
                  One-Electron Hamiltonian integrals
                  Velocity integrals
                  Relativistic Douglas-Kroll-Hess integrals:
                    - Parametrization         : EXP
                    - DKH order of Hamiltonian: 2
                    - DKH order of Properties : 0
                         - multipole moment operators
                         - electric potential operators
                         - contact operators
                  External field from   414 point(s) added to the one-electron Hamiltonian
                  Orbital angular momentum around (-0.0000 -0.0000  0.0088 )
                  Velocity quadrupole around (-0.0000 -0.0000  0.0088 )
                  Atomic mean-field integrals
                  Two-Electron Repulsion integrals

                   Integrals are discarded if absolute value <: 0.10E-13
                   Integral cutoff threshold is set to       <: 0.10E-15

++    Symmetry information:
      ---------------------

                    Character Table for C1 

                             E  
                    a        1  x, y, xy, Rz, z, xz, Ry, yz, Rx, I
--


++    Basis set information:
      ----------------------


      Basis set label: NB.ANO-RCC.ROOS.21S18P13D6F4G2H.10S9P8D5F4G2H......

      Electronic valence basis set:
      ------------------
      Associated Effective Charge  41.000000 au
      Associated Actual Charge     41.000000 au
      Nuclear Model: Point charge

      Shell  nPrim  nBasis  Cartesian Spherical Contaminant
         s      21      10        X                  
         p      18       9        X                  
         d      13       8                 X         
         f       6       5                 X         
         g       4       4                 X         
         h       2       2                 X         
--


++    Molecular structure info:
      -------------------------

                    ************************************************ 
                    **** Cartesian Coordinates / Bohr, Angstrom **** 
                    ************************************************ 

     Center  Label                x              y              z                     x              y              z
        1      NB              -0.000000      -0.000000       0.008754             -0.000000      -0.000000       0.004632
--


++    Operator info:
      --------------


  Net charge from external field:   -39.268449999999902     
--


            Nuclear Potential Energy              0.00000000 au

                    Nuclear-External Field Potential Energy   -3750.90588715 au
                    External Field Potential Energy           16056.36901386 au 


            Total Nuclear Potential Energy          -3750.90588715 au


      Basis set specifications :
      Symmetry species         a  
      Basis functions          170

 Sorry, Molden does not know how to handle
 functions with angular momentum larger than g
Note: The following floating-point exceptions are signalling: IEEE_UNDERFLOW_FLAG IEEE_DENORMAL
--- Stop Module: seward at Tue Mar 25 14:17:48 2025 /rc=_RC_ALL_IS_WELL_ ---
*** files: niobium_so_cf.GssOrb xmldump
    saved to directory /home4/s4752295/Internship/Initial_simulations/Point_charge_model/1_electron/Madelung_charges_9_active_space/Nb
--- Module seward spent 10 seconds ---

*** symbolic link created: INPORB -> niobium_so_cf.GssOrb
--- Start Module: scf at Tue Mar 25 14:17:48 2025 ---

()()()()()()()()()()()()()()()()()()()()()()()()()()()()()()()()()()()()()()()()()()()()()()()()()()

                                                &SCF

                                   only a single process is used
                       available to each process: 4.1 GB of memory, 1 thread?
                                            pid: 1837086
()()()()()()()()()()()()()()()()()()()()()()()()()()()()()()()()()()()()()()()()()()()()()()()()()()

++    Input section:
      --------------

      Header of the integral files:
      
       Integrals generated by seward 4.2.0  , Tue Mar 25 14:17:38 2025


      Cartesian coordinates in Angstrom:
      -----------------------------------------------------
      No.  Label        X            Y            Z        
      -----------------------------------------------------
       1   NB        -0.00000000  -0.00000000   0.00463220
      -----------------------------------------------------
      Nuclear repulsion energy =-3750.90588715
--

++    Orbital specifications:
      -----------------------

      Symmetry species               1
                                     a
      Frozen orbitals                0
      Occupied orbitals              9
      Secondary orbitals           161
      Deleted orbitals               0
      Total number of orbitals     170
      Number of basis functions    170
--

      Molecular charge                          23.000

++    Optimization specifications:
      ----------------------------

      SCF Algorithm: Conventional
      Minimized density differences are used
      Number of density matrices in core                5
      Maximum number of NDDO SCF iterations            50
      Maximum number of HF SCF iterations             100
      Threshold for SCF energy change            0.10E-08
      Threshold for density matrix               0.10E-03
      Threshold for Fock matrix                  0.15E-03
      Threshold for linear dependence            0.10E-08
      Threshold at which DIIS is turned on       0.15E+00
      Threshold at which QNR/C2DIIS is turned on 0.75E-01
      Threshold for Norm(delta) (QNR/C2DIIS)     0.20E-04
      DIIS extrapolation of the SCF procedure
      All orbitals punched on: SCFORB
--

      Detected guessorb starting orbitals                                             


++ Convergence information
                                   SCF        iterations: Energy and convergence statistics

Iter     Tot. SCF        One-elec.       Two-elec.     Energy      Max Dij or  Max Fij      DNorm      TNorm      AccCon     Time
         Energy          Energy          Energy        Change      Delta Norm                                                in Sec.

 The total and one-electron energies are shifted by a value of      5000. a.u.

   1  -610.928910785  2537.500719414   602.476256953   0.00E+00    0.75E-01*   0.60E+01*    0.60E+01   0.31E+03   None         1.
   2  -993.637619901  2402.948092471   354.320174779  -0.38E+03*   0.38E-01*   0.68E+00*    0.63E+01   0.23E+03   EDIIS        1.
   3  -993.736676637  2400.460836220   356.708374294  -0.99E-01*   0.39E-03*   0.27E-01*    0.15E+00   0.23E+03   EDIIS        1.
   4  -993.736767157  2400.528481863   356.640638132  -0.91E-04*   0.84E-05    0.69E-03*    0.22E-02   0.23E+03   c2DIIS       1.
   5  -993.736767251  2400.526186800   356.642933100  -0.94E-07*   0.46E-06    0.12E-04     0.43E-04   0.23E+03   QNRc2DIIS    1.
   6  -993.736767251  2400.526186220   356.642933681  -0.21E-10    0.15E-07    0.51E-06     0.46E-04   0.23E+03   QNRc2DIIS    1.

       Convergence after  6 Macro Iterations
--

 *****************************************************************************************************************************
 *                                                                                                                           *
 *                                             SCF/KS-DFT Program, Final results                                             *
 *                                                                                                                           *
 *                                                                                                                           *
 *                                                                                                                           *
 *                                                       Final Results                                                       *
 *                                                                                                                           *
 *****************************************************************************************************************************

::    Total SCF energy                              -5993.7367672511
      One-electron energy                           -2599.4738137802
      Two-electron energy                             356.6429336805
      Nuclear repulsion energy                      -3750.9058871514
      Kinetic energy (interpolated)                  3433.9678015237
      Virial theorem                                    1.7454260243
      Total spin, S(S+1)                                0.0000000000
      Total spin, S                                     0.0000000000
      Max non-diagonal density matrix element           0.0000000143
      Max non-diagonal Fock matrix element              0.0000000154


      All orbitals with orbital energies smaller than  E(LUMO)+0.5 are printed

++    Molecular orbitals:
      -------------------

      Title: SCF orbitals

      Molecular orbitals for symmetry species 1: a  

          Orbital            1         2         3         4         5         6         7         8         9        10    
          Energy         -671.2095  -70.7630  -56.8853  -56.8824  -51.5928  -20.7981   -8.7200   -3.1216   -3.1215    0.3646
          Occ. No.          2.0000    2.0000    2.0000    2.0000    2.0000    2.0000    2.0000    2.0000    2.0000    0.0000

        1 NB     1s         1.0000   -0.0006    0.0000    0.0000   -0.0028    0.0000    0.0000   -0.0000    0.0000   -0.0000
        2 NB     2s        -0.0007    0.8845    0.0028    0.0000   -0.4640   -0.0004    0.0005   -0.0000    0.0000    0.0000
        3 NB     3s         0.0003   -0.0138   -0.0002   -0.0000    0.0198   -0.0002   -0.0004    0.0000   -0.0000   -0.0000
        4 NB     4s        -0.0001    0.0026    0.0001    0.0000   -0.0062    0.0031   -0.0034   -0.0000    0.0000    0.0000
        5 NB     5s         0.0000   -0.0006   -0.0000    0.0000    0.0015    0.2276   -0.0056   -0.0000    0.0006   -0.0000
        6 NB     6s        -0.0000    0.0008    0.0000    0.0000   -0.0020    0.1266    0.2661   -0.0000    0.0005    0.0000
        7 NB     7s         0.0001   -0.0019   -0.0001    0.0000    0.0058   -0.0847    0.1760    0.0000   -0.0000    0.0000
        8 NB     8s        -0.0001    0.0016    0.0001    0.0000   -0.0057   -0.1323    0.0944    0.0000   -0.0001    0.0000
        9 NB     9s         0.0001   -0.0021   -0.0001   -0.0000    0.0075   -0.0570    0.0057    0.0000   -0.0000    0.0000
       10 NB    10s        -0.0003    0.0005    0.0001    0.0000   -0.0116   -0.0100   -0.0032   -0.0000    0.0000   -0.0000
       11 NB     2px        0.0027    0.4654   -0.0119   -0.0000    0.8812    0.0003   -0.0016    0.0000   -0.0000   -0.0000
       12 NB     3px       -0.0008    0.0105    0.0001    0.0000   -0.0348    0.0005   -0.0005   -0.0000    0.0000   -0.0000
       13 NB     4px        0.0003   -0.0045   -0.0000   -0.0000    0.0091    0.0123   -0.0140   -0.0000    0.0000   -0.0000
       14 NB     5px       -0.0001    0.0016    0.0000   -0.0000   -0.0033    0.3797   -0.0296   -0.0000    0.0010   -0.0000
       15 NB     6px        0.0003   -0.0047   -0.0000    0.0000    0.0084    0.2486    0.1602   -0.0000    0.0007    0.0000
       16 NB     7px       -0.0003    0.0050    0.0000   -0.0000   -0.0080    0.1015    0.3868   -0.0000    0.0005    0.0000
       17 NB     8px        0.0004   -0.0073   -0.0000   -0.0000    0.0119   -0.0996    0.2918   -0.0000    0.0001    0.0000
       18 NB     9px       -0.0005    0.0085    0.0000    0.0000   -0.0121   -0.1055    0.1425    0.0000   -0.0000    0.0000
       19 NB    10px        0.0009   -0.0139   -0.0000   -0.0000    0.0150   -0.0280    0.0225    0.0000   -0.0000   -0.0000
       20 NB     2py        0.0000    0.0000   -0.0000    0.9982    0.0000    0.0000   -0.0000   -0.0002   -0.0000   -0.0005
       21 NB     3py       -0.0000   -0.0000    0.0000   -0.0172    0.0000    0.0000   -0.0000   -0.0001   -0.0000   -0.0073
       22 NB     4py        0.0000    0.0000   -0.0000    0.0037    0.0000   -0.0000    0.0000    0.0054    0.0000   -0.0077
       23 NB     5py        0.0000    0.0000    0.0000   -0.0013    0.0000   -0.0000   -0.0000    0.2451    0.0000   -0.0549
       24 NB     6py        0.0000    0.0000   -0.0000    0.0033   -0.0000   -0.0000    0.0000    0.2026    0.0000    0.0686
       25 NB     7py        0.0000   -0.0000    0.0000   -0.0031    0.0000    0.0000    0.0000    0.1744    0.0000    0.2526
       26 NB     8py        0.0000    0.0000   -0.0000    0.0041   -0.0000   -0.0000    0.0000    0.0365    0.0000    0.2511
       27 NB     9py       -0.0000   -0.0000    0.0000   -0.0039    0.0000   -0.0000   -0.0000   -0.0076   -0.0000    0.1546
       28 NB    10py        0.0000    0.0000   -0.0000    0.0040   -0.0000    0.0000   -0.0000   -0.0053   -0.0000    0.0287
       29 NB     2pz        0.0000    0.0031    0.9981    0.0000    0.0118    0.0000   -0.0000    0.0000   -0.0002   -0.0000
       30 NB     3pz       -0.0000   -0.0000   -0.0174   -0.0000   -0.0005   -0.0000    0.0001    0.0000   -0.0001   -0.0000
       31 NB     4pz        0.0000    0.0000    0.0038    0.0000    0.0001   -0.0000   -0.0000   -0.0000    0.0054   -0.0000
       32 NB     5pz       -0.0000   -0.0000   -0.0013   -0.0000   -0.0000   -0.0005   -0.0000   -0.0000    0.2451   -0.0000
       33 NB     6pz        0.0000    0.0000    0.0033    0.0000    0.0001   -0.0004   -0.0003   -0.0000    0.2026    0.0000
       34 NB     7pz       -0.0000   -0.0000   -0.0031   -0.0000   -0.0001   -0.0001   -0.0005   -0.0000    0.1744    0.0000
       35 NB     8pz        0.0000    0.0000    0.0041    0.0000    0.0002    0.0001   -0.0005   -0.0000    0.0365    0.0000
       36 NB     9pz       -0.0000    0.0000   -0.0039   -0.0000   -0.0002    0.0001   -0.0002    0.0000   -0.0076    0.0000
       37 NB    10pz        0.0000   -0.0000    0.0039    0.0000    0.0002    0.0000   -0.0000    0.0000   -0.0053    0.0000
       38 NB     3d2-      -0.0000    0.0000   -0.0000    0.0413    0.0000    0.0000   -0.0000    0.0010    0.0000    0.0032
       39 NB     4d2-       0.0000   -0.0000    0.0000   -0.0084   -0.0000    0.0000    0.0000    0.1462    0.0000   -0.0857
       40 NB     5d2-       0.0000    0.0000   -0.0000    0.0092    0.0000    0.0000   -0.0000    0.4193    0.0000   -0.0433
       41 NB     6d2-       0.0000    0.0000    0.0000   -0.0086   -0.0000    0.0000    0.0000    0.3878    0.0000    0.3992
       42 NB     7d2-      -0.0000    0.0000   -0.0000    0.0082    0.0000   -0.0000   -0.0000   -0.0327   -0.0000    0.5650
       43 NB     8d2-      -0.0000   -0.0000    0.0000   -0.0141   -0.0000   -0.0000   -0.0000   -0.2007   -0.0000    0.1470
       44 NB     9d2-      -0.0000    0.0000   -0.0000    0.0156    0.0000   -0.0000   -0.0000   -0.1575   -0.0000   -0.0137
       45 NB    10d2-       0.0000    0.0000   -0.0000    0.0264    0.0000    0.0000    0.0000    0.0289    0.0000    0.0387
       46 NB     3d1-       0.0000    0.0000   -0.0000    0.0010    0.0000   -0.0000   -0.0000    0.0000    0.0000   -0.0028
       47 NB     4d1-      -0.0000   -0.0000    0.0000   -0.0001   -0.0000    0.0000   -0.0000   -0.0003   -0.0000    0.0008
       48 NB     5d1-       0.0000    0.0000   -0.0000    0.0001    0.0000    0.0000    0.0000   -0.0007   -0.0000    0.0014
       49 NB     6d1-      -0.0000   -0.0000    0.0000   -0.0001   -0.0000    0.0000   -0.0000   -0.0001   -0.0000   -0.0006
       50 NB     7d1-       0.0000    0.0000   -0.0000    0.0001    0.0000   -0.0000    0.0000    0.0004    0.0000   -0.0011
       51 NB     8d1-      -0.0000    0.0000    0.0000   -0.0000    0.0000    0.0000    0.0000    0.0002    0.0000   -0.0009
       52 NB     9d1-       0.0000   -0.0000    0.0000   -0.0000   -0.0000   -0.0000    0.0000   -0.0002   -0.0000    0.0017
       53 NB    10d1-       0.0000   -0.0000    0.0000   -0.0003   -0.0000   -0.0000    0.0000    0.0000    0.0000    0.0010
       54 NB     3d0        0.0000   -0.0066    0.0001    0.0000   -0.0266    0.0004   -0.0023    0.0000   -0.0000    0.0000
       55 NB     4d0       -0.0000    0.0015   -0.0001   -0.0000    0.0055   -0.0806    0.0347    0.0000   -0.0001   -0.0000
       56 NB     5d0        0.0000   -0.0016    0.0001    0.0000   -0.0059   -0.1964   -0.0055    0.0000   -0.0005   -0.0000
       57 NB     6d0       -0.0000    0.0015   -0.0001   -0.0000    0.0056   -0.1107   -0.1750    0.0000   -0.0009    0.0000
       58 NB     7d0        0.0000   -0.0015    0.0001    0.0000   -0.0054    0.0992   -0.1554    0.0000   -0.0002   -0.0000
       59 NB     8d0       -0.0000    0.0027   -0.0003   -0.0000    0.0093    0.0967    0.0604   -0.0000    0.0004    0.0000
       60 NB     9d0        0.0000   -0.0030    0.0004    0.0000   -0.0102    0.0463    0.1250   -0.0000    0.0007   -0.0000
       61 NB    10d0        0.0000   -0.0053    0.0008    0.0000   -0.0173   -0.0001   -0.0473    0.0000   -0.0001   -0.0000
       62 NB     3d1+      -0.0000   -0.0002    0.0416    0.0000    0.0012    0.0000   -0.0001   -0.0000    0.0010    0.0000
       63 NB     4d1+       0.0000    0.0000   -0.0085   -0.0000   -0.0002   -0.0004    0.0001   -0.0000    0.1462   -0.0000
       64 NB     5d1+      -0.0000   -0.0000    0.0093    0.0000    0.0003   -0.0010   -0.0002   -0.0000    0.4193   -0.0000
       65 NB     6d1+       0.0000    0.0000   -0.0087   -0.0000   -0.0003   -0.0006   -0.0008   -0.0000    0.3878    0.0000
       66 NB     7d1+      -0.0000   -0.0000    0.0083    0.0000    0.0002    0.0005   -0.0006    0.0000   -0.0327    0.0000
       67 NB     8d1+       0.0000    0.0000   -0.0142   -0.0000   -0.0004    0.0005    0.0003    0.0000   -0.2007    0.0000
       68 NB     9d1+      -0.0000   -0.0000    0.0157    0.0000    0.0005    0.0003    0.0007    0.0000   -0.1575   -0.0000
       69 NB    10d1+      -0.0000   -0.0000    0.0266    0.0000    0.0008   -0.0001   -0.0002   -0.0000    0.0289    0.0000
       70 NB     3d2+      -0.0000    0.0114   -0.0009   -0.0000    0.0466   -0.0006    0.0040   -0.0000    0.0000    0.0000
       71 NB     4d2+       0.0000   -0.0026    0.0001    0.0000   -0.0096    0.1397   -0.0602   -0.0000    0.0004   -0.0000
       72 NB     5d2+      -0.0000    0.0029   -0.0001   -0.0000    0.0104    0.3401    0.0095   -0.0000    0.0010   -0.0000
       73 NB     6d2+       0.0000   -0.0026    0.0001    0.0000   -0.0098    0.1918    0.3030   -0.0000    0.0007    0.0000
       74 NB     7d2+      -0.0000    0.0026   -0.0001   -0.0000    0.0095   -0.1718    0.2692    0.0000   -0.0002    0.0000
       75 NB     8d2+       0.0000   -0.0048    0.0002    0.0000   -0.0162   -0.1674   -0.1046    0.0000   -0.0003    0.0000
       76 NB     9d2+      -0.0000    0.0053   -0.0001   -0.0000    0.0178   -0.0802   -0.2166   -0.0000    0.0000   -0.0000
       77 NB    10d2+      -0.0000    0.0093   -0.0001   -0.0000    0.0301    0.0002    0.0820    0.0000   -0.0000   -0.0000
       78 NB     4f3-       0.0000    0.0000    0.0000   -0.0002   -0.0000    0.0000   -0.0000    0.1151    0.0000   -0.1084
       79 NB     5f3-      -0.0000   -0.0000    0.0000   -0.0002   -0.0000   -0.0000    0.0000   -0.2972   -0.0000    0.2200
       80 NB     6f3-      -0.0000   -0.0000   -0.0000    0.0003    0.0000   -0.0000    0.0000   -0.3912   -0.0000    0.1463
       81 NB     7f3-      -0.0000   -0.0000    0.0000   -0.0002    0.0000   -0.0000   -0.0000   -0.2927   -0.0000   -0.0975
       82 NB     8f3-       0.0000    0.0000    0.0000   -0.0001   -0.0000    0.0000    0.0000    0.1527    0.0000    0.3623
       83 NB     4f2-      -0.0000    0.0000    0.0000   -0.0000   -0.0000   -0.0000   -0.0000   -0.0006   -0.0000    0.0013
       84 NB     5f2-      -0.0000    0.0000   -0.0000    0.0000   -0.0000    0.0000   -0.0000    0.0012    0.0000   -0.0028
       85 NB     6f2-       0.0000   -0.0000    0.0000   -0.0000    0.0000   -0.0000    0.0000    0.0009    0.0000   -0.0017
       86 NB     7f2-      -0.0000    0.0000   -0.0000    0.0000   -0.0000    0.0000   -0.0000    0.0001    0.0000    0.0004
       87 NB     8f2-      -0.0000    0.0000    0.0000   -0.0001   -0.0000   -0.0000   -0.0000    0.0008    0.0000   -0.0023
       88 NB     4f1-      -0.0000   -0.0000   -0.0000    0.0000    0.0000   -0.0000    0.0000   -0.0297   -0.0000    0.0280
       89 NB     5f1-       0.0000    0.0000   -0.0000    0.0001   -0.0000    0.0000   -0.0000    0.0767    0.0000   -0.0568
       90 NB     6f1-       0.0000    0.0000    0.0000   -0.0001    0.0000    0.0000    0.0000    0.1010    0.0000   -0.0378
       91 NB     7f1-       0.0000    0.0000   -0.0000    0.0000   -0.0000    0.0000    0.0000    0.0756    0.0000    0.0252
       92 NB     8f1-      -0.0000   -0.0000   -0.0000    0.0000    0.0000   -0.0000   -0.0000   -0.0394   -0.0000   -0.0934
       93 NB     4f0       -0.0000   -0.0001    0.0001    0.0000    0.0000    0.0003   -0.0001    0.0000   -0.0728    0.0000
       94 NB     5f0       -0.0000   -0.0001    0.0001    0.0000    0.0000   -0.0007    0.0006   -0.0000    0.1880   -0.0000
       95 NB     6f0        0.0000    0.0001   -0.0002   -0.0000    0.0000   -0.0008   -0.0002   -0.0000    0.2474   -0.0000
       96 NB     7f0       -0.0000   -0.0001    0.0001    0.0000   -0.0000   -0.0004   -0.0001   -0.0000    0.1851    0.0000
       97 NB     8f0       -0.0000   -0.0001    0.0000    0.0000    0.0001   -0.0001    0.0013    0.0000   -0.0966   -0.0000
       98 NB     4f1+      -0.0000    0.0001    0.0000    0.0000    0.0001   -0.0739    0.0476   -0.0000    0.0001   -0.0000
       99 NB     5f1+      -0.0000    0.0001   -0.0000   -0.0000   -0.0000    0.1812   -0.0790    0.0000   -0.0001    0.0000
      100 NB     6f1+       0.0000   -0.0001    0.0000    0.0000   -0.0002    0.2143   -0.0037   -0.0000    0.0004    0.0000
      101 NB     7f1+      -0.0000    0.0001   -0.0000   -0.0000    0.0001    0.1190    0.1298   -0.0000    0.0007   -0.0000
      102 NB     8f1+      -0.0000    0.0000    0.0000    0.0000   -0.0003    0.0100   -0.2573    0.0000   -0.0010    0.0000
      103 NB     4f2+      -0.0000   -0.0001   -0.0002   -0.0000    0.0000   -0.0003    0.0001   -0.0000    0.0940   -0.0000
      104 NB     5f2+      -0.0000   -0.0001   -0.0002   -0.0000    0.0000    0.0008    0.0001    0.0000   -0.2427    0.0000
      105 NB     6f2+       0.0000    0.0001    0.0002    0.0000    0.0000    0.0009   -0.0000    0.0000   -0.3194    0.0000
      106 NB     7f2+      -0.0000   -0.0001   -0.0002   -0.0000   -0.0000    0.0005    0.0007    0.0000   -0.2390   -0.0000
      107 NB     8f2+      -0.0000   -0.0001   -0.0000   -0.0000    0.0001    0.0001   -0.0007   -0.0000    0.1247    0.0000
      108 NB     4f3+       0.0000   -0.0001    0.0000    0.0000   -0.0001    0.0954   -0.0614   -0.0000    0.0004   -0.0000
      109 NB     5f3+       0.0000   -0.0001   -0.0000   -0.0000    0.0000   -0.2340    0.1020    0.0000   -0.0009    0.0000
      110 NB     6f3+      -0.0000    0.0001    0.0000    0.0000    0.0003   -0.2767    0.0048    0.0000   -0.0007    0.0000
      111 NB     7f3+       0.0000   -0.0002    0.0000    0.0000   -0.0002   -0.1537   -0.1675    0.0000   -0.0001   -0.0000
      112 NB     8f3+       0.0000   -0.0000    0.0000    0.0000    0.0004   -0.0129    0.3323    0.0000   -0.0006    0.0000
      113 NB     5g4-       0.0000    0.0000    0.0000   -0.0001   -0.0000    0.0000   -0.0000    0.0394    0.0000   -0.0531
      114 NB     6g4-       0.0000    0.0000   -0.0000    0.0001    0.0000    0.0000   -0.0000    0.1241    0.0000   -0.1603
      115 NB     7g4-       0.0000    0.0000    0.0000   -0.0002   -0.0000    0.0000   -0.0000    0.1738    0.0000   -0.2018
      116 NB     8g4-       0.0000    0.0000   -0.0000    0.0003    0.0000    0.0000   -0.0000    0.0959    0.0000   -0.1058
      117 NB     5g3-      -0.0000   -0.0000    0.0000   -0.0000   -0.0000    0.0000    0.0000   -0.0004   -0.0000    0.0012
      118 NB     6g3-      -0.0000    0.0000   -0.0000    0.0001    0.0000   -0.0000   -0.0000   -0.0010   -0.0000    0.0022
      119 NB     7g3-      -0.0000   -0.0000    0.0000   -0.0001   -0.0000    0.0000    0.0000   -0.0010   -0.0000    0.0031
      120 NB     8g3-      -0.0000    0.0000   -0.0000    0.0002    0.0000   -0.0000   -0.0000   -0.0004   -0.0000   -0.0007
      121 NB     5g2-      -0.0000   -0.0000   -0.0000    0.0000    0.0000   -0.0000    0.0000   -0.0149   -0.0000    0.0201
      122 NB     6g2-      -0.0000   -0.0000    0.0000   -0.0000   -0.0000   -0.0000    0.0000   -0.0469   -0.0000    0.0606
      123 NB     7g2-      -0.0000   -0.0000   -0.0000    0.0001    0.0000   -0.0000    0.0000   -0.0657   -0.0000    0.0763
      124 NB     8g2-      -0.0000   -0.0000    0.0000   -0.0001   -0.0000   -0.0000    0.0000   -0.0362   -0.0000    0.0400
      125 NB     5g1-       0.0000   -0.0000    0.0000   -0.0000   -0.0000    0.0000    0.0000    0.0002    0.0000   -0.0003
      126 NB     6g1-       0.0000    0.0000   -0.0000    0.0001    0.0000   -0.0000   -0.0000    0.0005    0.0000   -0.0014
      127 NB     7g1-       0.0000   -0.0000    0.0000   -0.0001   -0.0000    0.0000    0.0000    0.0005    0.0000   -0.0006
      128 NB     8g1-      -0.0000    0.0000   -0.0000    0.0002    0.0000   -0.0000   -0.0000    0.0003    0.0000   -0.0017
      129 NB     5g0       -0.0000    0.0000   -0.0000   -0.0000   -0.0000    0.0181   -0.0181    0.0000   -0.0002    0.0000
      130 NB     6g0        0.0000   -0.0000    0.0001    0.0000   -0.0000    0.0576   -0.0505    0.0000   -0.0003    0.0000
      131 NB     7g0        0.0000    0.0000   -0.0001   -0.0000   -0.0002    0.0816   -0.0592    0.0000   -0.0003    0.0000
      132 NB     8g0       -0.0000    0.0000    0.0002    0.0000    0.0003    0.0460   -0.0306    0.0000   -0.0000   -0.0000
      133 NB     5g1+      -0.0000   -0.0000    0.0001    0.0000   -0.0000    0.0002   -0.0003    0.0000   -0.0316    0.0000
      134 NB     6g1+       0.0000   -0.0000   -0.0001   -0.0000    0.0000    0.0006   -0.0008    0.0000   -0.0995    0.0000
      135 NB     7g1+      -0.0000    0.0000    0.0001    0.0000   -0.0000    0.0006   -0.0003    0.0000   -0.1394    0.0000
      136 NB     8g1+       0.0000   -0.0000   -0.0002   -0.0000    0.0000    0.0007   -0.0008    0.0000   -0.0769    0.0000
      137 NB     5g2+       0.0000   -0.0000   -0.0000   -0.0000    0.0000   -0.0270    0.0269   -0.0000    0.0002   -0.0000
      138 NB     6g2+      -0.0000    0.0000    0.0000    0.0000    0.0000   -0.0859    0.0753   -0.0000    0.0004   -0.0000
      139 NB     7g2+      -0.0000   -0.0000   -0.0001   -0.0000    0.0003   -0.1216    0.0882   -0.0000    0.0003   -0.0000
      140 NB     8g2+       0.0000   -0.0000    0.0001    0.0000   -0.0004   -0.0686    0.0457   -0.0000    0.0002   -0.0000
      141 NB     5g3+       0.0000   -0.0000   -0.0001   -0.0000   -0.0000   -0.0001   -0.0001   -0.0000    0.0279   -0.0000
      142 NB     6g3+      -0.0000    0.0000    0.0001    0.0000    0.0000   -0.0003   -0.0003   -0.0000    0.0877   -0.0000
      143 NB     7g3+      -0.0000    0.0000   -0.0001   -0.0000   -0.0000   -0.0005    0.0002   -0.0000    0.1229   -0.0000
      144 NB     8g3+       0.0000   -0.0000    0.0002    0.0000    0.0000    0.0001   -0.0006   -0.0000    0.0678   -0.0000
      145 NB     5g4+      -0.0000    0.0000    0.0000    0.0000   -0.0001    0.0357   -0.0356   -0.0000    0.0003   -0.0000
      146 NB     6g4+       0.0000   -0.0000   -0.0000   -0.0000   -0.0000    0.1136   -0.0996   -0.0000    0.0007   -0.0000
      147 NB     7g4+       0.0000    0.0000    0.0000    0.0000   -0.0004    0.1608   -0.1167   -0.0000    0.0007   -0.0000
      148 NB     8g4+      -0.0000   -0.0000   -0.0001   -0.0000    0.0005    0.0907   -0.0605   -0.0000    0.0003   -0.0000
      149 NB     6h5-       0.0000    0.0000    0.0000   -0.0000    0.0000   -0.0000    0.0000    0.0036    0.0000   -0.0061
      150 NB     7h5-       0.0000   -0.0000   -0.0000    0.0000   -0.0000    0.0000   -0.0000    0.0100    0.0000   -0.0165
      151 NB     6h4-      -0.0000    0.0000    0.0000   -0.0000    0.0000    0.0000   -0.0000   -0.0001   -0.0000    0.0004
      152 NB     7h4-      -0.0000   -0.0000   -0.0000    0.0000   -0.0000    0.0000   -0.0000   -0.0003   -0.0000    0.0008
      153 NB     6h3-      -0.0000    0.0000   -0.0000    0.0000    0.0000    0.0000    0.0000   -0.0016   -0.0000    0.0027
      154 NB     7h3-      -0.0000   -0.0000    0.0000   -0.0000   -0.0000   -0.0000   -0.0000   -0.0045   -0.0000    0.0074
      155 NB     6h2-       0.0000   -0.0000    0.0000   -0.0000   -0.0000    0.0000   -0.0000    0.0001    0.0000   -0.0003
      156 NB     7h2-       0.0000    0.0000   -0.0000    0.0000    0.0000   -0.0000   -0.0000    0.0001    0.0000   -0.0005
      157 NB     6h1-       0.0000   -0.0000    0.0000   -0.0000   -0.0000   -0.0000    0.0000    0.0005    0.0000   -0.0008
      158 NB     7h1-       0.0000    0.0000   -0.0000    0.0000    0.0000   -0.0000   -0.0000    0.0014    0.0000   -0.0023
      159 NB     6h0       -0.0000   -0.0000   -0.0000   -0.0000   -0.0000   -0.0000    0.0002   -0.0000    0.0019   -0.0000
      160 NB     7h0        0.0000    0.0000    0.0000    0.0000    0.0000   -0.0001    0.0003   -0.0000    0.0054   -0.0000
      161 NB     6h1+      -0.0000    0.0000   -0.0000   -0.0000    0.0001    0.0024   -0.0039    0.0000   -0.0001    0.0000
      162 NB     7h1+       0.0000   -0.0000    0.0000    0.0000   -0.0000    0.0087   -0.0094    0.0000   -0.0002    0.0000
      163 NB     6h2+      -0.0000    0.0000    0.0000    0.0000    0.0000    0.0000   -0.0001    0.0000   -0.0026    0.0000
      164 NB     7h2+       0.0000   -0.0000   -0.0000   -0.0000   -0.0000    0.0001   -0.0002    0.0000   -0.0073    0.0000
      165 NB     6h3+       0.0000   -0.0000   -0.0000   -0.0000   -0.0001   -0.0026    0.0042   -0.0000    0.0001   -0.0000
      166 NB     7h3+      -0.0000    0.0000    0.0000    0.0000    0.0000   -0.0094    0.0102   -0.0000    0.0000   -0.0000
      167 NB     6h4+       0.0000    0.0000   -0.0000   -0.0000   -0.0000    0.0001   -0.0003   -0.0000    0.0023   -0.0000
      168 NB     7h4+      -0.0000   -0.0000    0.0000    0.0000    0.0000   -0.0001   -0.0003   -0.0000    0.0063   -0.0000
      169 NB     6h5+      -0.0000    0.0000   -0.0000   -0.0000    0.0001    0.0035   -0.0057   -0.0000    0.0001   -0.0000
      170 NB     7h5+       0.0000   -0.0000    0.0000    0.0000   -0.0000    0.0126   -0.0137   -0.0000    0.0002   -0.0000

          Orbital           11    
          Energy            0.3648
          Occ. No.          0.0000

        1 NB     1s        -0.0000
        2 NB     2s         0.0000
        3 NB     3s        -0.0002
        4 NB     4s         0.0000
        5 NB     5s        -0.0003
        6 NB     6s         0.0009
        7 NB     7s         0.0008
        8 NB     8s         0.0007
        9 NB     9s         0.0001
       10 NB    10s        -0.0000
       11 NB     2px       -0.0000
       12 NB     3px       -0.0002
       13 NB     4px       -0.0001
       14 NB     5px       -0.0006
       15 NB     6px        0.0000
       16 NB     7px        0.0010
       17 NB     8px        0.0009
       18 NB     9px        0.0005
       19 NB    10px        0.0000
       20 NB     2py        0.0000
       21 NB     3py        0.0000
       22 NB     4py        0.0000
       23 NB     5py        0.0000
       24 NB     6py       -0.0000
       25 NB     7py       -0.0000
       26 NB     8py       -0.0000
       27 NB     9py       -0.0000
       28 NB    10py       -0.0000
       29 NB     2pz       -0.0006
       30 NB     3pz       -0.0070
       31 NB     4pz       -0.0077
       32 NB     5pz       -0.0549
       33 NB     6pz        0.0686
       34 NB     7pz        0.2526
       35 NB     8pz        0.2512
       36 NB     9pz        0.1546
       37 NB    10pz        0.0287
       38 NB     3d2-      -0.0000
       39 NB     4d2-       0.0000
       40 NB     5d2-       0.0000
       41 NB     6d2-      -0.0000
       42 NB     7d2-      -0.0000
       43 NB     8d2-      -0.0000
       44 NB     9d2-       0.0000
       45 NB    10d2-      -0.0000
       46 NB     3d1-       0.0000
       47 NB     4d1-      -0.0000
       48 NB     5d1-      -0.0000
       49 NB     6d1-       0.0000
       50 NB     7d1-       0.0000
       51 NB     8d1-       0.0000
       52 NB     9d1-      -0.0000
       53 NB    10d1-      -0.0000
       54 NB     3d0        0.0024
       55 NB     4d0       -0.0005
       56 NB     5d0       -0.0011
       57 NB     6d0        0.0000
       58 NB     7d0       -0.0001
       59 NB     8d0        0.0004
       60 NB     9d0       -0.0017
       61 NB    10d0       -0.0008
       62 NB     3d1+       0.0032
       63 NB     4d1+      -0.0857
       64 NB     5d1+      -0.0433
       65 NB     6d1+       0.3992
       66 NB     7d1+       0.5650
       67 NB     8d1+       0.1470
       68 NB     9d1+      -0.0137
       69 NB    10d1+       0.0387
       70 NB     3d2+       0.0013
       71 NB     4d2+      -0.0007
       72 NB     5d2+      -0.0010
       73 NB     6d2+       0.0007
       74 NB     7d2+       0.0015
       75 NB     8d2+       0.0008
       76 NB     9d2+      -0.0009
       77 NB    10d2+      -0.0004
       78 NB     4f3-       0.0000
       79 NB     5f3-      -0.0000
       80 NB     6f3-      -0.0000
       81 NB     7f3-       0.0000
       82 NB     8f3-      -0.0000
       83 NB     4f2-      -0.0000
       84 NB     5f2-       0.0000
       85 NB     6f2-       0.0000
       86 NB     7f2-      -0.0000
       87 NB     8f2-       0.0000
       88 NB     4f1-      -0.0000
       89 NB     5f1-       0.0000
       90 NB     6f1-       0.0000
       91 NB     7f1-      -0.0000
       92 NB     8f1-       0.0000
       93 NB     4f0        0.0686
       94 NB     5f0       -0.1391
       95 NB     6f0       -0.0926
       96 NB     7f0        0.0617
       97 NB     8f0       -0.2290
       98 NB     4f1+      -0.0010
       99 NB     5f1+       0.0021
      100 NB     6f1+       0.0011
      101 NB     7f1+      -0.0004
      102 NB     8f1+       0.0016
      103 NB     4f2+      -0.0885
      104 NB     5f2+       0.1796
      105 NB     6f2+       0.1195
      106 NB     7f2+      -0.0797
      107 NB     8f2+       0.2957
      108 NB     4f3+      -0.0010
      109 NB     5f3+       0.0020
      110 NB     6f3+       0.0013
      111 NB     7f3+      -0.0002
      112 NB     8f3+       0.0013
      113 NB     5g4-       0.0000
      114 NB     6g4-       0.0000
      115 NB     7g4-       0.0000
      116 NB     8g4-       0.0000
      117 NB     5g3-      -0.0000
      118 NB     6g3-      -0.0000
      119 NB     7g3-      -0.0000
      120 NB     8g3-       0.0000
      121 NB     5g2-      -0.0000
      122 NB     6g2-      -0.0000
      123 NB     7g2-      -0.0000
      124 NB     8g2-      -0.0000
      125 NB     5g1-       0.0000
      126 NB     6g1-       0.0000
      127 NB     7g1-       0.0000
      128 NB     8g1-       0.0000
      129 NB     5g0        0.0009
      130 NB     6g0        0.0011
      131 NB     7g0        0.0023
      132 NB     8g0       -0.0012
      133 NB     5g1+       0.0426
      134 NB     6g1+       0.1285
      135 NB     7g1+       0.1618
      136 NB     8g1+       0.0848
      137 NB     5g2+      -0.0006
      138 NB     6g2+      -0.0017
      139 NB     7g2+      -0.0014
      140 NB     8g2+      -0.0012
      141 NB     5g3+      -0.0375
      142 NB     6g3+      -0.1133
      143 NB     7g3+      -0.1427
      144 NB     8g3+      -0.0748
      145 NB     5g4+      -0.0009
      146 NB     6g4+      -0.0017
      147 NB     7g4+      -0.0020
      148 NB     8g4+      -0.0001
      149 NB     6h5-       0.0000
      150 NB     7h5-       0.0000
      151 NB     6h4-      -0.0000
      152 NB     7h4-      -0.0000
      153 NB     6h3-      -0.0000
      154 NB     7h3-      -0.0000
      155 NB     6h2-       0.0000
      156 NB     7h2-       0.0000
      157 NB     6h1-       0.0000
      158 NB     7h1-       0.0000
      159 NB     6h0       -0.0033
      160 NB     7h0       -0.0088
      161 NB     6h1+       0.0003
      162 NB     7h1+       0.0005
      163 NB     6h2+       0.0045
      164 NB     7h2+       0.0121
      165 NB     6h3+      -0.0002
      166 NB     7h3+      -0.0003
      167 NB     6h4+      -0.0039
      168 NB     7h4+      -0.0104
      169 NB     6h5+      -0.0004
      170 NB     7h5+      -0.0006
--


++    Molecular charges:
      ------------------

      Mulliken charges per centre and basis function type
      ---------------------------------------------------

                NB    
      1s       2.0000
      2s       1.9952
      2px      1.9866
      2pz      1.9928
      2py      1.9930
      3s       0.0012
      3px      0.0027
      3pz      0.0006
      3py      0.0006
      4s       0.0001
      3d2+     0.0046
      3d1+     0.0035
      3d0      0.0015
      3d1-     0.0000
      3d2-     0.0034
      4px      0.0009
      4pz      0.0001
      4py      0.0001
      5s       0.1036
      4d2+     0.0464
      4d1+     0.0429
      4d0      0.0155
      4d1-     0.0000
      4d2-     0.0429
      5px      0.2901
      5pz      0.1201
      5py      0.1201
      6s       0.1737
      4f3+     0.0257
      4f2+     0.0177
      4f1+     0.0154
      4f0      0.0106
      4f1-     0.0018
      4f2-     0.0000
      4f3-     0.0265
      5d2+     0.2318
      5d1+     0.3518
      5d0      0.0773
      5d1-     0.0000
      5d2-     0.3518
      6px      0.1751
      6pz      0.0822
      6py      0.0822
      7s       0.0764
      5f3+     0.1303
      5f2+     0.1178
      5f1+     0.0782
      5f0      0.0707
      5f1-     0.0118
      5f2-     0.0000
      5f3-     0.1767
      6d2+     0.2574
      6d1+     0.3010
      6d0      0.0858
      6d1-     0.0000
      6d2-     0.3010
      7px      0.3200
      7pz      0.0608
      7py      0.0608
      5g4+     0.0051
      5g3+     0.0016
      5g2+     0.0029
      5g1+     0.0020
      5g0      0.0013
      5g1-     0.0000
      5g2-     0.0004
      5g3-     0.0000
      5g4-     0.0031
      6f3+     0.1532
      6f2+     0.2040
      6f1+     0.0919
      6f0      0.1224
      6f1-     0.0204
      6f2-     0.0000
      6f3-     0.3061
      6g4+     0.0456
      6g3+     0.0154
      6g2+     0.0261
      6g1+     0.0198
      6g0      0.0117
      6g1-     0.0000
      6g2-     0.0044
      6g3-     0.0000
      6g4-     0.0308
      6h5+     0.0001
      6h4+     0.0000
      6h3+     0.0000
      6h2+     0.0000
      6h1+     0.0000
      6h0      0.0000
      6h1-     0.0000
      6h2-     0.0000
      6h3-     0.0000
      6h4-     0.0000
      6h5-     0.0000
      7d2+     0.2042
      7d1+     0.0023
      7d0      0.0681
      7d1-     0.0000
      7d2-     0.0023
      7f3+     0.1033
      7f2+     0.1142
      7f1+     0.0620
      7f0      0.0686
      7f1-     0.0114
      7f2-     0.0000
      7f3-     0.1714
      7g4+     0.0790
      7g3+     0.0302
      7g2+     0.0451
      7g1+     0.0389
      7g0      0.0203
      7g1-     0.0000
      7g2-     0.0086
      7g3-     0.0000
      7g4-     0.0604
      7h5+     0.0007
      7h4+     0.0001
      7h3+     0.0004
      7h2+     0.0001
      7h1+     0.0003
      7h0      0.0001
      7h1-     0.0000
      7h2-     0.0000
      7h3-     0.0000
      7h4-     0.0000
      7h5-     0.0002
      8s       0.0529
      8px      0.1905
      8pz      0.0027
      8py      0.0027
      8d2+     0.0785
      8d1+     0.0810
      8d0      0.0262
      8d1-     0.0000
      8d2-     0.0810
      8f3+     0.2212
      8f2+     0.0311
      8f1+     0.1327
      8f0      0.0187
      8f1-     0.0031
      8f2-     0.0000
      8f3-     0.0466
      8g4+     0.0238
      8g3+     0.0092
      8g2+     0.0136
      8g1+     0.0118
      8g0      0.0061
      8g1-     0.0000
      8g2-     0.0026
      8g3-     0.0000
      8g4-     0.0184
      9s       0.0067
      9px      0.0633
      9pz      0.0001
      9py      0.0001
      9d2+     0.1074
      9d1+     0.0501
      9d0      0.0358
      9d1-     0.0000
      9d2-     0.0501
     10s       0.0005
     10px      0.0034
     10pz      0.0001
     10py      0.0001
     10d2+     0.0154
     10d1+     0.0031
     10d0      0.0051
     10d1-     0.0000
     10d2-     0.0031
      Total   18.0000

      N-E     23.0000

      Total electronic charge=   18.000000

      Total            charge=   23.000000
--

 Sorry, Molden does not know how to handle
 functions with angular momentum larger than g

++    Static properties:
      ------------------


      LoProp Charges per center


                   NB    
      Nuclear     41.0000
      Electronic -18.0000

      Total       23.0000
--


++    Molecular properties:
      ---------------------

      Charge (e):
                      =   23.0000
      Dipole Moment (Debye):
      Origin of the operator (Ang)=    0.0000    0.0000    0.0000
                   X= -8.8988E+01               Y= -2.3009E-13               Z=  5.6076E-01           Total=  8.8990E+01
      Center of Charge (Ang)
                     X=   -0.80551561               Y=   -0.00000000               Z=    0.00507597
      Quadrupole Moment (Debye*Ang):
      Origin of the operator (Ang)=   -0.0000   -0.0000    0.0046
                  XX= -2.6149E+02              XY= -9.4781E-14              XZ=  1.3246E-01              YY= -6.7696E+01
                  YZ=  9.1253E-14              ZZ= -6.7696E+01
      In traceless form (Debye*Ang)
                  XX= -1.9379E+02              XY= -1.4217E-13              XZ=  1.9868E-01              YY=  9.6897E+01
                  YZ=  1.3688E-13              ZZ=  9.6897E+01
--

 Sorry, Molden does not know how to handle
 functions with angular momentum larger than g
 ###############################################################################
 ###############################################################################
 ###                                                                         ###
 ###                                                                         ###
 ###    WARNING: RunFile label nBas                                          ###
 ###    was used       62 times                                              ###
 ###                                                                         ###
 ###                                                                         ###
 ###############################################################################
 ###############################################################################
Note: The following floating-point exceptions are signalling: IEEE_UNDERFLOW_FLAG IEEE_DENORMAL
--- Stop Module: scf at Tue Mar 25 14:17:54 2025 /rc=_RC_ALL_IS_WELL_ ---
*** files: niobium_so_cf.LprOrb niobium_so_cf.ScfOrb xmldump
    saved to directory /home4/s4752295/Internship/Initial_simulations/Point_charge_model/1_electron/Madelung_charges_9_active_space/Nb
--- Module scf spent 6 seconds ---

*** symbolic link created: INPORB -> niobium_so_cf.ScfOrb
--- Start Module: rasscf at Tue Mar 25 14:17:54 2025 ---

()()()()()()()()()()()()()()()()()()()()()()()()()()()()()()()()()()()()()()()()()()()()()()()()()()

                                              &RASSCF

                                   only a single process is used
                       available to each process: 4.1 GB of memory, 1 thread?
                                            pid: 1837092
()()()()()()()()()()()()()()()()()()()()()()()()()()()()()()()()()()()()()()()()()()()()()()()()()()


      Header of the ONEINT file:
      --------------------------
      
      Integrals generated by seward 4.2.0  , Tue Mar 25 14:17:38 2025


      OrdInt status: non-squared


      Cartesian coordinates in Angstrom:
      -----------------------------------------------------
      No.  Label        X            Y            Z        
      -----------------------------------------------------
       1   NB        -0.00000000  -0.00000000   0.00463220
      -----------------------------------------------------
      Nuclear repulsion energy =-3750.90588715

++    Wave function specifications:
      -----------------------------

      Number of closed shell electrons          18
      Number of electrons in active shells       1
      Max number of holes in RAS1 space          0
      Max nr of electrons in RAS3 space          0
      Number of inactive orbitals                9
      Number of active orbitals                  9
      Number of secondary orbitals             152
      Spin quantum number                      0.5
      State symmetry                             1
--

++    Orbital specifications:
      -----------------------

      Symmetry species                           1
                                                 a
      Frozen orbitals                            0
      Inactive orbitals                          9
      Active orbitals                            9
      RAS1 orbitals                              0
      RAS2 orbitals                              9
      RAS3 orbitals                              0
      Secondary orbitals                       152
      Deleted orbitals                           0
      Number of basis functions                170
--

++    CI expansion specifications:
      ----------------------------

      Number of CSFs                             9
      Number of determinants                     9
      Number of root(s) required                 9
      Root chosen for geometry opt.              9
      CI roots used                              1     2     3     4     5     6     7     8     9
      weights                                0.111 0.111 0.111 0.111 0.111 0.111 0.111 0.111 0.111
      highest root included in the CI            9
      max. size of the explicit Hamiltonian      9
--

++    Optimization specifications:
      ----------------------------

      RASSCF algorithm: Conventional
      Maximum number of macro iterations       200
      Maximum number of SX iterations          100
      Threshold for RASSCF energy            0.100E-07
      Threshold for max MO rotation          0.100E+00
      Threshold for max BLB element          0.100E-03
      Level shift parameter                  0.500E+00
      Make Quasi-Newton update
--

      The MO-coefficients are taken from the file:
      INPORB                                                                                                                          
      Title: SCF orbitals                                                                  

      Total molecular charge   22.00

      ************************************************************************************************************************
      *                                                                                                                      *
      *                                            Wave function control section                                             *
      *                                                                                                                      *
      ************************************************************************************************************************


                                         RASSCF iterations: Energy and convergence statistics
                                         ----------------------------------------------------

      Iter CI   SX   CI       RASSCF       Energy    max ROT     max BLB   max BLB  Level Ln srch  Step   QN   Walltime
          iter iter root      energy       change     param      element    value   shift minimum  type update hh:mm:ss
 Nr of preliminary CI iterations:   1
      Total energies have been shifted. Add                -5000.00 au
        1   1    4    0  -991.01411746    0.00E+00   0.42E-02    9  11 1 -0.29E-01*  0.00   0.00    SX    NO    0:00:03
        2   1    3    0  -991.01443567   -0.32E-03* -0.41E-03    9  11 1 -0.12E-02*  0.00   0.00    SX    NO    0:00:01
        3   1    3    0  -991.01443622   -0.55E-06* -0.47E-03   11  19 1 -0.11E-03*  0.00   0.00    SX    NO    0:00:01
        4   1    3    0  -991.01443622    0.43E-08  -0.55E-03   11  19 1  0.12E-03*  0.00   0.00    SX    NO    0:00:01
        5   1    3    0  -991.01443621    0.11E-07*  0.45E-03   11  19 1 -0.14E-03*  0.00   0.46    SX   YES    0:00:01
        6   1    3    0  -991.01443624   -0.31E-07*  0.15E-03   11  19 1  0.74E-04   0.00   0.66    QN   YES    0:00:01
        7   1    2    0  -991.01443625   -0.11E-07* -0.27E-05   16  19 1  0.59E-06   0.00   1.00    QN   YES    0:00:01
        8   1    2    0  -991.01443625    0.18E-11  -0.44E-05   16  19 1  0.47E-06   0.00   0.17    QN   YES    0:00:01
      Convergence after  8 iterations
        9   1    2    0  -991.01443625   -0.15E-10  -0.44E-05   16  19 1  0.26E-06   0.00   0.17    QN   YES    0:00:01

      ************************************************************************************************************************
                                                      Wave function printout:
                       occupation of active orbitals, and spin coupling of open shells (u,d: Spin up or down)
      ************************************************************************************************************************

      Note: transformation to natural orbitals
      has been made, which may change the order of the CSFs.

      printout of CI-coefficients larger than  0.05 for root  1
      energy=   -5993.372899
      conf/sym  111111111     Coeff  Weight
             1  u00000000   0.73662 0.54260
             3  00u000000  -0.18799 0.03534
             6  00000u000   0.42955 0.18452
             7  000000u00  -0.20722 0.04294
             8  0000000u0   0.44002 0.19362

      printout of CI-coefficients larger than  0.05 for root  2
      energy=   -5993.372721
      conf/sym  111111111     Coeff  Weight
             2  0u0000000   0.99315 0.98634
             4  000u00000  -0.07356 0.00541
             7  000000u00   0.08572 0.00735

      printout of CI-coefficients larger than  0.05 for root  3
      energy=   -5991.820749
      conf/sym  111111111     Coeff  Weight
             3  00u000000   0.65620 0.43059
             4  000u00000   0.24371 0.05939
             5  0000u0000  -0.23218 0.05391
             7  000000u00   0.44561 0.19857
             8  0000000u0   0.50609 0.25612

      printout of CI-coefficients larger than  0.05 for root  4
      energy=   -5991.007070
      conf/sym  111111111     Coeff  Weight
             2  0u0000000   0.07639 0.00584
             3  00u000000  -0.10745 0.01155
             4  000u00000   0.87305 0.76222
             5  0000u0000  -0.07435 0.00553
             6  00000u000   0.34617 0.11983
             8  0000000u0  -0.30708 0.09430

      printout of CI-coefficients larger than  0.05 for root  5
      energy=   -5991.007068
      conf/sym  111111111     Coeff  Weight
             4  000u00000   0.21433 0.04594
             5  0000u0000   0.93689 0.87776
             6  00000u000  -0.11904 0.01417
             7  000000u00   0.05794 0.00336
             8  0000000u0   0.24065 0.05791

      printout of CI-coefficients larger than  0.05 for root  6
      energy=   -5990.661726
      conf/sym  111111111     Coeff  Weight
             1  u00000000  -0.10836 0.01174
             3  00u000000   0.40371 0.16298
             4  000u00000  -0.33738 0.11383
             5  0000u0000   0.23528 0.05536
             6  00000u000   0.73706 0.54326
             7  000000u00   0.09280 0.00861
             8  0000000u0  -0.32186 0.10359

      printout of CI-coefficients larger than  0.05 for root  7
      energy=   -5989.439123
      conf/sym  111111111     Coeff  Weight
             1  u00000000   0.40212 0.16170
             2  0u0000000  -0.07362 0.00542
             3  00u000000  -0.25956 0.06737
             4  000u00000  -0.08573 0.00735
             5  0000u0000   0.05077 0.00258
             6  00000u000  -0.09431 0.00889
             7  000000u00   0.80588 0.64944
             8  0000000u0  -0.31184 0.09725

      printout of CI-coefficients larger than  0.05 for root  8
[...]
         7   13       8.55517245E-01  6.75553432E+10  1.05588823E-07  2.19802818E+07  6.75773235E+10
         7   15       9.89670620E-05  1.61646220E-04  7.81869405E+06  5.51302782E-08  7.81869405E+06
         7   17       2.06215198E-01  4.54385114E-07  2.64363249E+10  1.14358489E-04  2.64363249E+10
         8   12       2.09008971E-05  6.17174932E+01  3.99937489E-10  8.00283066E+04  8.00900241E+04
         8   14       8.55517245E-01  6.75553432E+10  1.05588823E-07  2.19802818E+07  6.75773235E+10
         8   16       9.89670620E-05  1.61646220E-04  7.81869405E+06  5.51302782E-08  7.81869405E+06
         8   18       2.06215198E-01  4.54385114E-07  2.64363249E+10  1.14358489E-04  2.64363249E+10
         9   11       2.39176877E-05  2.51948476E-13  9.16490230E+04  3.48709446E-10  9.16490230E+04
         9   13       2.22705632E-04  1.61467360E-04  1.75914789E+07  1.22348193E-07  1.75914789E+07
         9   15       8.55787840E-01  6.76041501E+10  6.57068919E-08  5.48390918E+06  6.76096340E+10
         9   17       2.06348252E-01  1.03786852E+08  1.14731932E-04  2.63495441E+10  2.64533309E+10
        10   12       2.39176877E-05  2.51948476E-13  9.16490230E+04  3.48709446E-10  9.16490230E+04
        10   14       2.22705632E-04  1.61467360E-04  1.75914789E+07  1.22348193E-07  1.75914789E+07
        10   16       8.55787840E-01  6.76041501E+10  6.57068919E-08  5.48390918E+06  6.76096340E+10
        10   18       2.06348252E-01  1.03786852E+08  1.14731932E-04  2.63495441E+10  2.64533309E+10
        11   13       6.44347824E-04  8.03337963E+02  3.85962352E-09  3.09449232E+07  3.09457266E+07
        11   15       2.72701874E-04  2.44354045E-13  1.30996565E+07  9.05897680E-09  1.30996565E+07
        11   17       7.82823052E-01  1.59325566E-14  6.86549653E+10  1.07527789E-09  6.86549653E+10
        12   14       6.44347824E-04  8.03337963E+02  3.85962352E-09  3.09449232E+07  3.09457266E+07
        12   16       2.72701874E-04  2.44354045E-13  1.30996565E+07  9.05897680E-09  1.30996565E+07
        12   18       7.82823052E-01  1.59325566E-14  6.86549653E+10  1.07527789E-09  6.86549653E+10
        13   17       1.13982682E-04  1.14731407E-11  6.75724437E+05  2.00420948E-10  6.75724437E+05
        14   18       1.13982682E-04  1.14731407E-11  6.75724437E+05  2.00420948E-10  6.75724437E+05
        15   17       1.23919939E-04  3.96763067E+04  1.93898011E-10  6.94518912E+05  7.34195219E+05
        16   18       1.23919939E-04  3.96763067E+04  1.93898011E-10  6.94518912E+05  7.34195219E+05
     -----------------------------------------------------------------------------------------------
--

++ Velocity transition strengths (SO states):
   ------------------------------------------
    for osc. strength at least    1.0000000000000001E-005

      From   To        Osc. strength     Einstein coefficients Ax, Ay, Az (sec-1)    Total A (sec-1)
     -----------------------------------------------------------------------------------------------
         1    3       5.62453081E-04  6.57490938E-22  5.73299223E-01  1.07463035E-19  5.73299223E-01
         1    5       4.73936302E-03  2.76770350E-17  3.66858488E+08  6.35734951E-11  3.66858488E+08
         1    7       3.48384838E-05  1.59461756E-11  6.26522910E+06  2.69095991E-08  6.26522910E+06
         1    9       3.48179124E-05  3.70763612E+03  2.69471812E-08  6.25783217E+06  6.26153981E+06
         1   11       2.03147120E-03  1.08486265E-15  4.79773396E+08  8.28029430E-11  4.79773396E+08
         1   13       4.64656740E-03  2.75294953E-10  2.31026866E+09  6.44353751E-07  2.31026866E+09
         1   15       4.65100784E-03  8.72896257E+05  6.43943227E-07  2.31175493E+09  2.31262783E+09
         1   17       5.43907865E-03  3.32652916E+09  1.79069250E-13  6.10634547E+05  3.32713979E+09
         2    4       5.62453081E-04  6.57490938E-22  5.73299223E-01  1.07463035E-19  5.73299223E-01
         2    6       4.73936302E-03  2.76770350E-17  3.66858488E+08  6.35734951E-11  3.66858488E+08
         2    8       3.48384838E-05  1.59461756E-11  6.26522910E+06  2.69095991E-08  6.26522910E+06
         2   10       3.48179124E-05  3.70763612E+03  2.69471812E-08  6.25783217E+06  6.26153981E+06
         2   12       2.03147120E-03  1.08486265E-15  4.79773396E+08  8.28029430E-11  4.79773396E+08
         2   14       4.64656740E-03  2.75294953E-10  2.31026866E+09  6.44353751E-07  2.31026866E+09
         2   16       4.65100784E-03  8.72896257E+05  6.43943227E-07  2.31175493E+09  2.31262783E+09
         2   18       5.43907865E-03  3.32652916E+09  1.79069250E-13  6.10634547E+05  3.32713979E+09
         3    5       4.73671784E-03  4.83355299E+01  6.34776586E-11  3.66569541E+08  3.66569590E+08
         3    7       3.46221832E-05  1.06104773E+03  2.68395908E-08  6.22433186E+06  6.22539291E+06
         3    9       3.47143888E-05  4.51156590E-12  6.24198251E+06  2.67720769E-08  6.24198251E+06
         3   11       2.03200410E-03  4.53250731E+03  8.33834496E-11  4.79831665E+08  4.79836198E+08
         3   13       4.65088103E-03  2.15210249E+06  6.44357354E-07  2.31005190E+09  2.31220400E+09
         3   15       4.64971014E-03  6.49585536E-10  2.31177322E+09  6.43906963E-07  2.31177322E+09
         4    6       4.73671784E-03  4.83355299E+01  6.34776586E-11  3.66569541E+08  3.66569590E+08
         4    8       3.46221832E-05  1.06104773E+03  2.68395908E-08  6.22433186E+06  6.22539291E+06
         4   10       3.47143888E-05  4.51156590E-12  6.24198251E+06  2.67720769E-08  6.24198251E+06
         4   12       2.03200410E-03  4.53250731E+03  8.33834496E-11  4.79831665E+08  4.79836198E+08
         4   14       4.65088103E-03  2.15210249E+06  6.44357354E-07  2.31005190E+09  2.31220400E+09
         4   16       4.64971014E-03  6.49585536E-10  2.31177322E+09  6.43906963E-07  2.31177322E+09
         5   11       2.04654974E-03  8.83225229E+07  2.35427135E-18  9.29964767E+03  8.83318225E+07
         5   13       1.96596331E-05  1.40487792E+01  5.00717168E-10  3.58287518E+06  3.58288923E+06
         5   17       2.16357346E-02  7.97846911E-16  5.49360772E+09  8.62185921E-11  5.49360772E+09
         6   12       2.04654974E-03  8.83225229E+07  2.35427135E-18  9.29964767E+03  8.83318225E+07
         6   14       1.96596331E-05  1.40487792E+01  5.00717168E-10  3.58287518E+06  3.58288923E+06
         6   18       2.16357346E-02  7.97846911E-16  5.49360772E+09  8.62185921E-11  5.49360772E+09
         7    9       9.75126919E-02  4.64308704E-22  1.16430037E-02  1.33838982E-25  1.16430037E-02
         7   13       2.82592069E-03  2.23177584E+08  4.03859249E-10  4.27221221E+04  2.23220306E+08
         7   17       8.19710327E-04  2.46083755E-10  1.05085387E+08  4.56074059E-07  1.05085387E+08
         8   10       9.75126919E-02  4.64308704E-22  1.16430037E-02  1.33838982E-25  1.16430037E-02
         8   14       2.82592069E-03  2.23177584E+08  4.03859249E-10  4.27221221E+04  2.23220306E+08
         8   18       8.19710327E-04  2.46083755E-10  1.05085387E+08  4.56074059E-07  1.05085387E+08
         9   15       2.82724002E-03  2.23280312E+08  4.14853314E-10  8.03369415E+04  2.23360649E+08
         9   17       8.20137949E-04  5.62093995E+04  4.56070148E-07  1.05083795E+08  1.05140004E+08
        10   16       2.82724002E-03  2.23280312E+08  4.14853314E-10  8.03369415E+04  2.23360649E+08
        10   18       8.20137949E-04  5.62093995E+04  4.56070148E-07  1.05083795E+08  1.05140004E+08
        11   17       4.62169074E-05  5.48690434E-19  4.05331856E+06  6.39812789E-14  4.05331856E+06
        12   18       4.62169074E-05  5.48690434E-19  4.05331856E+06  6.39812789E-14  4.05331856E+06
        13   15       4.02222115E-03  2.98142975E-20  2.14240281E+00  3.30789945E-20  2.14240281E+00
        13   17       9.49376957E-04  2.82440138E-12  5.62821853E+06  1.63022315E-09  5.62821853E+06
        14   16       4.02222115E-03  2.98142975E-20  2.14240281E+00  3.30789945E-20  2.14240281E+00
        14   18       9.49376957E-04  2.82440138E-12  5.62821853E+06  1.63022315E-09  5.62821853E+06
        15   17       9.54914860E-04  9.58191870E+03  1.62396963E-09  5.64807389E+06  5.65765581E+06
        16   18       9.54914860E-04  9.58191870E+03  1.62396963E-09  5.64807389E+06  5.65765581E+06
     -----------------------------------------------------------------------------------------------
--

++ Length and velocity gauge comparison (SO states):

 --------------------------------------------------
 A comparison between the dipole oscillator strengths in 
 length and velocity gauge will be performed

 All dipole oscillator differences above the tolerance of   0.10000000000000001       will be printed 

 Due to basis set deficiency these oscillator may be problematic 

 The tolerance is defined as ABS(1-O_l/O_v) 
 O_l : dipole oscillator strength in length gauge
 O_p : dipole oscillator strength in velocity gauge
 --------------------------------------------------

  Problematic transitions have been found

      From   To       Difference (%) Osc. st. (len.) Osc. st. (vel.)
     ---------------------------------------------------------------
         1    3      --------------- below threshold  5.62453081E-04
         1    5         63698.742750  3.02365402E+00  4.73936302E-03
         1    7       8573113.661298  2.98677765E+00  3.48384838E-05
         1    9       8581427.714455  2.98790880E+00  3.48179124E-05
         1   11        204857.895350  4.16366062E+00  2.03147120E-03
         1   13          3362.835301  1.60902976E-01  4.64656740E-03
         1   15          3370.428133  1.61409884E-01  4.65100784E-03
         1   17         22294.148661  1.21803536E+00  5.43907865E-03
         2    4      --------------- below threshold  5.62453081E-04
         2    6         63698.742750  3.02365402E+00  4.73936302E-03
         2    8       8573113.661298  2.98677765E+00  3.48384838E-05
         2   10       8581427.714455  2.98790880E+00  3.48179124E-05
         2   12        204857.895350  4.16366062E+00  2.03147120E-03
         2   14          3362.835301  1.60902976E-01  4.64656740E-03
         2   16          3370.428133  1.61409884E-01  4.65100784E-03
         2   18         22294.148661  1.21803536E+00  5.43907865E-03
         3    5         63685.703793  3.02134881E+00  4.73671784E-03
         3    7       8629400.114049  2.98772134E+00  3.46221832E-05
         3    9       8604172.821167  2.98692072E+00  3.47143888E-05
         3   11        204890.040986  4.16540604E+00  2.03200410E-03
         3   13          3383.821776  1.62028406E-01  4.65088103E-03
         3   15          3364.786347  1.61102522E-01  4.64971014E-03
         3   17      ---------------  2.60286845E-04 below threshold
         4    6         63685.703793  3.02134881E+00  4.73671784E-03
         4    8       8629400.114049  2.98772134E+00  3.46221832E-05
         4   10       8604172.821167  2.98692072E+00  3.47143888E-05
         4   12        204890.040986  4.16540604E+00  2.03200410E-03
         4   14          3383.821776  1.62028406E-01  4.65088103E-03
         4   16          3364.786347  1.61102522E-01  4.64971014E-03
         4   18      ---------------  2.60286845E-04 below threshold
         5   11         52884.591155  1.08435601E+00  2.04654974E-03
         5   13          2685.631508  5.47644933E-04  1.96596331E-05
         5   15      ---------------  2.83063858E-04 below threshold
         5   17          1752.244241  4.00746648E-01  2.16357346E-02
         6   12         52884.591155  1.08435601E+00  2.04654974E-03
         6   14          2685.631508  5.47644933E-04  1.96596331E-05
         6   16      ---------------  2.83063858E-04 below threshold
         6   18          1752.244241  4.00746648E-01  2.16357346E-02
         7    9      --------------- below threshold  9.75126919E-02
         7   11      ---------------  2.09008971E-05 below threshold
         7   13         30173.929718  8.55517245E-01  2.82592069E-03
         7   15      ---------------  9.89670620E-05 below threshold
         7   17         25057.081890  2.06215198E-01  8.19710327E-04
         8   10      --------------- below threshold  9.75126919E-02
         8   12      ---------------  2.09008971E-05 below threshold
         8   14         30173.929718  8.55517245E-01  2.82592069E-03
         8   16      ---------------  9.89670620E-05 below threshold
         8   18         25057.081890  2.06215198E-01  8.19710327E-04
         9   11      ---------------  2.39176877E-05 below threshold
         9   13      ---------------  2.22705632E-04 below threshold
         9   15         30169.373439  8.55787840E-01  2.82724002E-03
         9   17         25060.188210  2.06348252E-01  8.20137949E-04
        10   12      ---------------  2.39176877E-05 below threshold
        10   14      ---------------  2.22705632E-04 below threshold
        10   16         30169.373439  8.55787840E-01  2.82724002E-03
        10   18         25060.188210  2.06348252E-01  8.20137949E-04
        11   13      ---------------  6.44347824E-04 below threshold
        11   15      ---------------  2.72701874E-04 below threshold
        11   17       1693702.325836  7.82823052E-01  4.62169074E-05
        12   14      ---------------  6.44347824E-04 below threshold
        12   16      ---------------  2.72701874E-04 below threshold
        12   18       1693702.325836  7.82823052E-01  4.62169074E-05
        13   15      --------------- below threshold  4.02222115E-03
        13   17            87.993949  1.13982682E-04  9.49376957E-04
        14   16      --------------- below threshold  4.02222115E-03
        14   18            87.993949  1.13982682E-04  9.49376957E-04
        15   17            87.022933  1.23919939E-04  9.54914860E-04
        16   18            87.022933  1.23919939E-04  9.54914860E-04
     ---------------------------------------------------------------

 Number of problematic transitions =                    68

--

 Electric-dipole - electric-octupole not included
++ Total transition strengths for the second-order expansion of the wave vector (SO states):
   -----------------------------------------------------------------------------------------
    for osc. strength at least    1.0000000000000001E-005

      From   To        Osc. strength
     -------------------------------
         1    5       2.90365283E-03
         1    7       5.04042228E-03
         1    9       5.04187569E-03
         1   11       2.16998889E-03
         1   13       8.84571876E-03
         1   15       8.84441674E-03
         1   17       1.37823925E-02
         2    6       2.90365283E-03
         2    8       5.04042228E-03
         2   10       5.04187569E-03
         2   12       2.16998889E-03
         2   14       8.84571876E-03
         2   16       8.84441674E-03
         2   18       1.37823925E-02
         3    5       2.90126462E-03
         3    7       5.04135010E-03
         3    9       5.04004869E-03
         3   11       2.17106228E-03
         3   13       8.84380781E-03
         3   15       8.84555734E-03
         3   17       1.35822076E-02
         4    6       2.90126462E-03
         4    8       5.04135010E-03
         4   10       5.04004869E-03
         4   12       2.17106228E-03
         4   14       8.84380781E-03
         4   16       8.84555734E-03
         4   18       1.35822076E-02
         5    7       7.07807978E-05
         5    9       7.07828729E-05
         5   11       8.18737995E-04
         5   13       1.16608288E-03
         5   15       1.16311017E-03
         5   17       9.42719109E-03
         6    8       7.07807978E-05
         6   10       7.07828729E-05
         6   12       8.18737995E-04
         6   14       1.16608288E-03
         6   16       1.16311017E-03
         6   18       9.42719109E-03
         7   11       8.19027872E-05
         7   13       9.95212762E-04
         7   17       1.21515756E-03
         8   12       8.19027872E-05
         8   14       9.95212762E-04
         8   18       1.21515756E-03
         9   11       8.19019915E-05
         9   15       9.95488600E-04
         9   17       1.21631914E-03
        10   12       8.19019915E-05
        10   16       9.95488600E-04
        10   18       1.21631914E-03
        11   13       1.12545735E-03
        11   15       1.12635118E-03
        11   17       1.29629015E-05
        12   14       1.12545735E-03
        12   16       1.12635118E-03
        12   18       1.29629015E-05
        13   17       3.13255832E-05
        14   18       3.13255832E-05
        15   17       3.13413432E-05
        16   18       3.13413432E-05
     -------------------------------
--

++ I/O STATISTICS
 
  I. General I/O information
  - - - - - - - - - - - - - - - - - - - - - - - - - - - - - - - - - - - - - - - - - - -
  Unit  Name          Flsize      Write/Read            MBytes           Write/Read
                      (MBytes)       Calls              In/Out           Time, sec.
  - - - - - - - - - - - - - - - - - - - - - - - - - - - - - - - - - - - - - - - - - - -
   1  SCRATCH           0.00 .       9/      45 .      0.0/      0.0 .       0/       0
   2  ANNI              0.00 .       0/       0 .      0.0/      0.0 .       0/       0
   3  RUNFILE          14.69 .     322/   10733 .      2.3/     77.8 .       0/       0
   4  ONEINT            5.14 .       0/   22237 .      0.0/   3722.5 .       0/       0
   5  JOBIPH            5.91 .       0/      92 .      0.0/      0.7 .       0/       0
   6  ORDINT          403.03 .       1/    3225 .      0.0/    806.0 .       0/       0
  - - - - - - - - - - - - - - - - - - - - - - - - - - - - - - - - - - - - - - - - - - -
   *  TOTAL           428.78 .     332/   36332 .      2.3/   4607.0 .       0/       0
  - - - - - - - - - - - - - - - - - - - - - - - - - - - - - - - - - - - - - - - - - - -
 
  II. I/O Access Patterns
  - - - - - - - - - - - - - - - - - - - -
  Unit  Name               % of random
                         Write/Read calls
  - - - - - - - - - - - - - - - - - - - -
   1  SCRATCH             88.9/ 100.0
   2  ANNI                 0.0/   0.0
   3  RUNFILE             28.6/  10.8
   4  ONEINT               0.0/  17.4
   5  JOBIPH               0.0/  76.1
   6  ORDINT             100.0/   0.1
  - - - - - - - - - - - - - - - - - - - -
--
--- Stop Module: rassi at Tue Mar 25 14:18:24 2025 /rc=_RC_ALL_IS_WELL_ ---
*** files: xmldump
    saved to directory /home4/s4752295/Internship/Initial_simulations/Point_charge_model/1_electron/Madelung_charges_9_active_space/Nb
--- Module rassi spent 3 seconds ---

.##################.
.# Happy landing! #.
.##################.

    Timing: Wall=46.20 User=31.91 System=9.57

###############################################################################
Hbrk Cluster
Job 15897331 for user s4752295
Finished at: Tue Mar 25 14:18:28 CET 2025

Job details:
============

Job ID                         : 15897331
Name                           : Nb_no_SO
User                           : s4752295
Partition                      : regularmedium
Nodes                          : node91
Number of Nodes                : 1
Cores                          : 1
Number of Tasks                : 1
State                          : COMPLETED  
Submit                         : 2025-03-25T14:17:11
Start                          : 2025-03-25T14:17:34
End                            : 2025-03-25T14:18:24
Reserved walltime              : 15:00:00
Used walltime                  : 00:00:50
Used CPU time                  : 00:00:43 (Efficiency: 85.69%)
% User (Computation)           : 76.88%
% System (I/O)                 : 23.12%
Total memory reserved          : 25000M
Maximum memory used            : 1.62G

Acknowledgements:
=================

Please see this page for information about acknowledging Hbrk in your publications:

https://wiki.hpc.rug.nl/habrok/introduction/scientific_output

################################################################################
