   This run of MOLCAS is using the pymolcas driver

                             OPE
                             OPE          NMOL  CASOP  ENMOLC A   SO
                 OPE        NMOLC        AS  OP EN  MO LC     AS  OP
                OPENM       OL CA        SO  PE NM  OL CA     SOP EN
                OP EN      MO   LC       AS  OP ENMOL  CASO   PENMOL
                OP  EN     MO   LC       AS  OP EN     MO     LC ASO
               OP   E  NMOL  C  AS       OP  EN MO     LC     AS  OP
               OP  E   NMO   LC AS        OPEN  MO     LCASOP EN   M
               O  PEN   MO  LCA  SO
            OPE   NMO   L   CAS    OP
        OPENMOL  CASOP     ENMOL   CASOPE
     OPENMOLCA   SOPENMOLCASOPEN   MOLCASOPE
    OPENMOLCAS   OP           EN   MOL    CAS
    OPENMOLCAS       OP  ENM        O     LCA
    OPENMOLCAS    OPEN  MOLCASO     P  E  NMO
    OPENMOLCAS     OP               E  N  MOL
    OPENMOLCA   SO           PENM   O  L  CAS    OPEN    MO    LCAS
    OPENMOLCA   SOP           ENM   O  L  CAS   OP  EN  MOLC  AS   O
    OPENMOLCA   SOPE           NM      O  LCA   S      OP  EN MO
    OPENMOLC                AS         O  PEN   M      OL  CA  SOPE
    OPENMO        LCASOPE  NMOL        C  ASO   P      ENMOLC     AS
    OPE     NMO      LCA  SO     P     E   NM   OL  CA SO  PE N   MO
          OPENMOLCA            SOPE   NMO        LCAS  O    P  ENMO
     OPENMOLCASOPENMOLCASOPENMOLCASOPENMOLCA
        OPENMOLCASOPENMOLCASOPENMOLCASOPE
            OPENMOLCASOPENMOLCASOPENM
               OPENMOLCASOPENMOLCA        version: o91e1abe7de707b ?
                   OPENMOLCASO
                       OPE                tag:

 OpenMolcas is free software; you can redistribute it and/or modify it
 under the terms of the GNU Lesser General Public License version 2.1.
 OpenMolcas is distributed in the hope that it will be useful, but it
 is provided "as is" and without any express or implied warranties.
 For more details see the full text of the license in the file
 LICENSE or in <http://www.gnu.org/licenses/>.

                 Copyright (C) The OpenMolcas Authors
           For the author list and the recommended citation,
                   consult the file CONTRIBUTORS.md

           *************************************************
           * pymolcas version py2.10                       *
           *   build 3068ae8b88c9345ec6cfef6fef7f1169      *
           *   (after the EMIL interpreter by V. Veryazov) *
           *************************************************

configuration info
------------------
Host name: login1 (Linux)
C Compiler ID: GNU
C flags: -std=gnu99
Fortran Compiler ID: GNU
Fortran flags: -fno-aggressive-loop-optimizations -cpp -fdefault-integer-8 -fmax-stack-var-size=1048576
Definitions: _MOLCAS_;_I8_;_LINUX_;_MKL_
Parallel: OFF (GA=OFF)


   -----------------------------------------------------------------------------------------------------------------------------------
  |
  |           Project: niobium_so_cf
  |    Submitted from: /home4/s4752295/Internship/Initial_simulations/Point_charge_model/1_electron/Madelung_charges_9_active_space/Nb
  |      Scratch area: /tmp/niobium_so_cf
  |   Save outputs to: /home4/s4752295/Internship/Initial_simulations/Point_charge_model/1_electron/Madelung_charges_9_active_space/Nb
  |            Molcas: /home4/s4752295/Internship/Molcas/recomp_try/OpenMolcas-master/build
  |
  | Scratch area is empty
  |
  |    MOLCAS_DRIVER = /home4/s4752295/Internship/Molcas/bin/pymolcas
  |    MOLCAS_NPROCS = 1
  |    MOLCAS_SOURCE = /home4/s4752295/Internship/Molcas/recomp_try/OpenMolcas-master
  | MOLCAS_STRUCTURE = 0
  |
   -----------------------------------------------------------------------------------------------------------------------------------

++ ---------   Input file   ---------

&SEWARD
AMFi

CLIG
$R

Basis Set
Nb.ANO-rcc.Roos.21s18p13d6f4g2h.10s9p8d5f4g2h.
Spherical d
Nb            -1.0658140267135469e-14   -3.5527134223784897e-15 0.008753588724385739
End of Basis

Xfield

414
-1.200660324,-0.46199999999999997,0.26673569999999996   -0.625931
-1.200660324,-0.0,-0.5334717    -0.625931
-1.200660324,0.46199999999999997,0.26673569999999996    -0.625931
-1.198603821,0.0,0.0    1.892092
0.797753907,-0.46199999999999997,-0.26673569999999996   2.515516
0.797753907,0.0,0.5334717       2.515516
0.797753907,0.46199999999999997,-0.26673569999999996    2.515516
1.068896484,-0.9239999999999999,0.0     0.004632
1.068896484,-0.46199999999999997,-0.8002074     0.004632
1.068896484,-0.46199999999999997,0.8002074      0.004632
1.068896484,0.46199999999999997,-0.8002074      0.004632
1.068896484,0.46199999999999997,0.8002074       0.004632
1.068896484,0.9239999999999999,0.0      0.004632
1.2387451170000001,-0.46199999999999997,0.26673569999999996     -2.519484
1.2387451170000001,-0.0,-0.5334717      -2.519484
1.2387451170000001,0.46199999999999997,0.26673569999999996      -2.519484
-0.879931641,-0.0,-0.0  -3.142907
-1.492529298,-0.9239999999999999,-0.5334717     -0.625931
-1.492529298,0.0,1.0669431      -0.625931
-1.492529298,0.9239999999999999,-0.5334717      -0.625931
-1.9828124999999999,-0.9239999999999999,0.0     1.892092
-1.9828124999999999,-0.46199999999999997,-0.8002074     1.892092
-1.9828124999999999,-0.46199999999999997,0.8002074      1.892092
-1.9828124999999999,0.46199999999999997,-0.8002074      1.892092
-1.9828124999999999,0.46199999999999997,0.8002074       1.892092
-1.9828124999999999,0.9239999999999999,0.0      1.892092
7.551562499999999,-0.9239999999999999,0.5334717 2.515516
7.551562499999999,-0.0,-1.0669431       2.515516
7.551562499999999,0.9239999999999999,0.5334717  2.515516
1.0916015639999999,-0.9239999999999999,-0.5334717       -2.519484
1.0916015639999999,0.0,1.0669431        -2.519484
1.0916015639999999,0.9239999999999999,-0.5334717        -2.519484
-0.9697265639999999,-0.9239999999999999,-0.0    -3.142907
-0.9697265639999999,-0.46199999999999997,-0.8002074     -3.142907
-0.9697265639999999,-0.46199999999999997,0.8002074      -3.142907
-0.9697265639999999,0.46199999999999997,-0.8002074      -3.142907
-0.9697265639999999,0.46199999999999997,0.8002074       -3.142907
-0.9697265639999999,0.9239999999999999,-0.0     -3.142907
-2.85703125,-0.9239999999999999,1.0669431       -0.625931
-2.85703125,0.9239999999999999,1.0669431        -0.625931
-2.85703125,-1.386,0.26673569999999996  -0.625931
-2.85703125,1.386,0.26673569999999996   -0.625931
-2.85703125,-0.46199999999999997,-1.3336791000000001    -0.625931
-2.85703125,0.46199999999999997,-1.3336791000000001     -0.625931
1.80234375,-0.46199999999999997,-0.26673569999999996    4.409069
1.80234375,0.46199999999999997,-0.26673569999999996     4.409069
1.80234375,0.0,0.5334717        4.409069
-52.574999999999996,-0.0,-0.0   -5.030367
-52.574999999999996,0.0,0.0     5.039632
4.055273435999999,-0.9239999999999999,-1.0669431        2.515516
4.055273435999999,0.9239999999999999,-1.0669431 2.515516
4.055273435999999,-1.386,-0.26673569999999996   2.515516
4.055273435999999,1.386,-0.26673569999999996    2.515516
4.055273435999999,-0.46199999999999997,1.3336791000000001       2.515516
4.055273435999999,0.46199999999999997,1.3336791000000001        2.515516
5.71171875,-1.386,-0.8002074    0.004632
5.71171875,-1.386,0.8002074     0.004632
5.71171875,1.386,-0.8002074     0.004632
5.71171875,1.386,0.8002074      0.004632
5.71171875,-0.0,-1.6004148      0.004632
5.71171875,0.0,1.6004148        0.004632
14.423437499999999,-0.9239999999999999,1.0669431        -2.519484
14.423437499999999,0.9239999999999999,1.0669431 -2.519484
14.423437499999999,-1.386,0.26673569999999996   -2.519484
14.423437499999999,1.386,0.26673569999999996    -2.519484
14.423437499999999,-0.46199999999999997,-1.3336791000000001     -2.519484
14.423437499999999,0.46199999999999997,-1.3336791000000001      -2.519484
-43.762499999999996,-1.386,-0.8002074   1.892092
-43.762499999999996,-1.386,0.8002074    1.892092
-43.762499999999996,1.386,-0.8002074    1.892092
-43.762499999999996,1.386,0.8002074     1.892092
-43.762499999999996,-0.0,-1.6004148     1.892092
-43.762499999999996,0.0,1.6004148       1.892092
-35.324999999999996,-0.9239999999999999,0.5334717       4.409069
-35.324999999999996,-0.0,-1.0669431     4.409069
-35.324999999999996,0.9239999999999999,0.5334717        4.409069
-26.7,-0.9239999999999999,-0.0  -5.030367
-26.7,-0.46199999999999997,-0.8002074   -5.030367
-26.7,-0.46199999999999997,0.8002074    -5.030367
-26.7,0.46199999999999997,-0.8002074    -5.030367
-26.7,-0.9239999999999999,0.0   5.039632
-26.7,0.9239999999999999,-0.0   -5.030367
-26.7,0.46199999999999997,0.8002074     -5.030367
-26.7,-0.46199999999999997,-0.8002074   5.039632
-26.7,-0.46199999999999997,0.8002074    5.039632
-26.7,0.46199999999999997,-0.8002074    5.039632
-26.7,0.9239999999999999,0.0    5.039632
-26.7,0.46199999999999997,0.8002074     5.039632
-13.987499999999999,-0.46199999999999997,-0.26673569999999996   -5.660931
-13.987499999999999,0.0,0.5334717       -5.660931
-13.987499999999999,0.46199999999999997,-0.26673569999999996    -5.660931
0.26484375,-1.8479997,0.0       0.004632
0.26484375,-0.9239999999999999,-1.6004148       0.004632
0.26484375,-0.9239999999999999,1.6004148        0.004632
0.26484375,0.9239999999999999,-1.6004148        0.004632
0.26484375,1.8479997,0.0        0.004632
0.26484375,0.9239999999999999,1.6004148 0.004632
20.381249999999998,-1.386,0.8002074     -3.142907
20.381249999999998,-1.386,-0.8002074    -3.142907
20.381249999999998,1.386,-0.8002074     -3.142907
20.381249999999998,1.386,0.8002074      -3.142907
20.381249999999998,-0.0,-1.6004148      -3.142907
20.381249999999998,0.0,1.6004148        -3.142907
25.912499999999998,-1.8479997,-0.5334717        -0.625931
25.912499999999998,-1.386,-1.3336791000000001   -0.625931
25.912499999999998,-0.46199999999999997,1.8671505       -0.625931
25.912499999999998,1.386,-1.3336791000000001    -0.625931
25.912499999999998,1.8479997,-0.5334717 -0.625931
25.912499999999998,0.46199999999999997,1.8671505        -0.625931
0.359179686,-1.8479997,0.0      1.892092
0.359179686,-0.9239999999999999,-1.6004148      1.892092
0.359179686,-0.9239999999999999,1.6004148       1.892092
0.359179686,0.9239999999999999,-1.6004148       1.892092
0.359179686,1.8479997,0.0       1.892092
0.359179686,0.9239999999999999,1.6004148        1.892092
10.153125,-0.9239999999999999,-1.0669431        4.409069
10.153125,0.9239999999999999,-1.0669431 4.409069
10.153125,-1.386,-0.26673569999999996   4.409069
10.153125,1.386,-0.26673569999999996    4.409069
10.153125,-0.46199999999999997,1.3336791000000001       4.409069
10.153125,0.46199999999999997,1.3336791000000001        4.409069
48.721875,-0.9239999999999999,0.5334717 -5.660931
48.721875,-0.0,-1.0669431       -5.660931
48.721875,0.9239999999999999,0.5334717  -5.660931
0.103125,-1.8479997,0.5334717   2.515516
0.103125,-0.46199999999999997,-1.8671505        2.515516
0.103125,-1.386,1.3336791000000001      2.515516
0.103125,0.46199999999999997,-1.8671505 2.515516
0.103125,1.8479997,0.5334717    2.515516
0.103125,1.386,1.3336791000000001       2.515516
-28.256249999999998,-1.8479997,-0.5334717       -2.519484
-28.256249999999998,-1.386,-1.3336791000000001  -2.519484
-28.256249999999998,-0.46199999999999997,1.8671505      -2.519484
-28.256249999999998,1.386,-1.3336791000000001   -2.519484
-28.256249999999998,0.46199999999999997,1.8671505       -2.519484
-28.256249999999998,1.8479997,-0.5334717        -2.519484
-6.62109375,-1.8479997,-0.0     -3.142907
-6.62109375,-0.9239999999999999,-1.6004148      -3.142907
-6.62109375,-0.9239999999999999,1.6004148       -3.142907
-6.62109375,0.9239999999999999,-1.6004148       -3.142907
-6.62109375,0.9239999999999999,1.6004148        -3.142907
-6.62109375,1.8479997,-0.0      -3.142907
181.95,0.0,0.0  6.927092
96.975,-1.8479997,1.0669431     -0.625931
96.975,1.8479997,1.0669431      -0.625931
96.975,-0.0,-2.1338865  -0.625931
-1.6265625,-1.386,0.8002074     -5.030367
-1.6265625,-1.386,-0.8002074    -5.030367
-1.6265625,-1.386,0.8002074     5.039632
-1.6265625,-1.386,-0.8002074    5.039632
-1.6265625,1.386,-0.8002074     -5.030367
-1.6265625,1.386,0.8002074      -5.030367
-1.6265625,1.386,-0.8002074     5.039632
-1.6265625,1.386,0.8002074      5.039632
-1.6265625,-0.0,-1.6004148      -5.030367
-1.6265625,0.0,1.6004148        -5.030367
-1.6265625,-0.0,-1.6004148      5.039632
-1.6265625,0.0,1.6004148        5.039632
27.54375,-0.9239999999999999,-1.0669431 -5.660931
27.54375,0.9239999999999999,-1.0669431  -5.660931
27.54375,-1.386,-0.26673569999999996    -5.660931
27.54375,1.386,-0.26673569999999996     -5.660931
27.54375,-0.46199999999999997,1.3336791000000001        -5.660931
27.54375,0.46199999999999997,1.3336791000000001 -5.660931
90.14999999999999,-1.8479997,-1.0669431 2.515516
90.14999999999999,1.8479997,-1.0669431  2.515516
90.14999999999999,0.0,2.1338865 2.515516
-155.17499999999998,-1.8479997,1.0669431        -2.519484
-155.17499999999998,1.8479997,1.0669431 -2.519484
-155.17499999999998,-0.0,-2.1338865     -2.519484
16.068749999999998,-0.9239999999999999,0.0      6.927092
16.068749999999998,-0.46199999999999997,-0.8002074      6.927092
16.068749999999998,-0.46199999999999997,0.8002074       6.927092
16.068749999999998,0.46199999999999997,-0.8002074       6.927092
16.068749999999998,0.46199999999999997,0.8002074        6.927092
16.068749999999998,0.9239999999999999,0.0       6.927092
-16.575,-0.46199999999999997,0.26673569999999996        7.550516
-16.575,0.0,-0.5334717  7.550516
-16.575,0.46199999999999997,0.26673569999999996 7.550516
4.659375,-0.46199999999999997,-0.26673569999999996      -7.554483
4.659375,0.46199999999999997,-0.26673569999999996       -7.554483
4.659375,-0.0,0.5334717 -7.554483
-37.4625,-2.3099997,0.26673569999999996 -0.625931
-37.4625,-1.386,1.8671505       -0.625931
-37.4625,-0.9239999999999999,-2.1338865 -0.625931
-37.4625,0.9239999999999999,-2.1338865  -0.625931
-37.4625,2.3099997,0.26673569999999996  -0.625931
-37.4625,1.386,1.8671505        -0.625931
-20.23125,-1.8479997,0.5334717  4.409069
-20.23125,-1.386,1.3336791000000001     4.409069
-20.23125,-0.46199999999999997,-1.8671505       4.409069
-20.23125,0.46199999999999997,-1.8671505        4.409069
-20.23125,1.386,1.3336791000000001      4.409069
-20.23125,1.8479997,0.5334717   4.409069
14.746875,-1.8479997,-0.0       -5.030367
14.746875,-0.9239999999999999,-1.6004148        -5.030367
14.746875,-0.9239999999999999,1.6004148 -5.030367
14.746875,-1.8479997,0.0        5.039632
14.746875,-0.9239999999999999,-1.6004148        5.039632
14.746875,0.9239999999999999,-1.6004148 -5.030367
14.746875,0.9239999999999999,1.6004148  -5.030367
14.746875,1.8479997,-0.0        -5.030367
14.746875,-0.9239999999999999,1.6004148 5.039632
14.746875,0.9239999999999999,-1.6004148 5.039632
14.746875,1.8479997,0.0 5.039632
14.746875,0.9239999999999999,1.6004148  5.039632
54.225,-2.3099997,-0.26673569999999996  2.515516
54.225,-1.386,-1.8671505        2.515516
54.225,-0.9239999999999999,2.1338865    2.515516
54.225,1.386,-1.8671505 2.515516
54.225,2.3099997,-0.26673569999999996   2.515516
54.225,0.9239999999999999,2.1338865     2.515516
-7.003125,-2.3099997,-0.8002074 0.004632
-7.003125,-2.3099997,0.8002074  0.004632
-7.003125,-1.8479997,-1.6004148 0.004632
-7.003125,-1.8479997,1.6004148  0.004632
-7.003125,-0.46199999999999997,-2.4006222       0.004632
-7.003125,0.46199999999999997,-2.4006222        0.004632
-7.003125,-0.46199999999999997,2.4006222        0.004632
-7.003125,1.8479997,-1.6004148  0.004632
-7.003125,0.46199999999999997,2.4006222 0.004632
-7.003125,2.3099997,-0.8002074  0.004632
-7.003125,2.3099997,0.8002074   0.004632
-7.003125,1.8479997,1.6004148   0.004632
-42.9375,-2.3099997,0.26673569999999996 -2.519484
-42.9375,-1.386,1.8671505       -2.519484
-42.9375,-0.9239999999999999,-2.1338865 -2.519484
-42.9375,0.9239999999999999,-2.1338865  -2.519484
-42.9375,2.3099997,0.26673569999999996  -2.519484
-42.9375,1.386,1.8671505        -2.519484
909.6,-0.0,-0.0 -8.177907
-34.8,-0.9239999999999999,-0.5334717    7.550516
-34.8,0.0,1.0669431     7.550516
-34.8,0.9239999999999999,-0.5334717     7.550516
-181.04999999999998,-0.9239999999999999,0.5334717       -7.554483
-181.04999999999998,-0.0,-1.0669431     -7.554483
-181.04999999999998,0.9239999999999999,0.5334717        -7.554483
14.671875,-2.3099997,0.8002074  1.892092
14.671875,-2.3099997,-0.8002074 1.892092
14.671875,-1.8479997,-1.6004148 1.892092
14.671875,-1.8479997,1.6004148  1.892092
14.671875,-0.46199999999999997,-2.4006222       1.892092
14.671875,0.46199999999999997,-2.4006222        1.892092
14.671875,-0.46199999999999997,2.4006222        1.892092
14.671875,1.8479997,-1.6004148  1.892092
14.671875,0.46199999999999997,2.4006222 1.892092
14.671875,2.3099997,-0.8002074  1.892092
14.671875,2.3099997,0.8002074   1.892092
14.671875,1.8479997,1.6004148   1.892092
-151.5,-1.8479997,-1.0669431    4.409069
-151.5,1.8479997,-1.0669431     4.409069
-151.5,0.0,2.1338865    4.409069
7.74609375,-1.8479997,0.5334717 -5.660931
7.74609375,-0.46199999999999997,-1.8671505      -5.660931
7.74609375,-1.386,1.3336791000000001    -5.660931
7.74609375,0.46199999999999997,-1.8671505       -5.660931
7.74609375,1.386,1.3336791000000001     -5.660931
7.74609375,1.8479997,0.5334717  -5.660931
-17.45625,-1.8479997,-1.6004148 -3.142907
-17.45625,-2.3099997,0.8002074  -3.142907
-17.45625,-2.3099997,-0.8002074 -3.142907
-17.45625,-1.8479997,1.6004148  -3.142907
-17.45625,-0.46199999999999997,-2.4006222       -3.142907
-17.45625,0.46199999999999997,-2.4006222        -3.142907
-17.45625,-0.46199999999999997,2.4006222        -3.142907
-17.45625,2.3099997,-0.8002074  -3.142907
-17.45625,1.8479997,-1.6004148  -3.142907
-17.45625,0.46199999999999997,2.4006222 -3.142907
-17.45625,2.3099997,0.8002074   -3.142907
-17.45625,1.8479997,1.6004148   -3.142907
19.621875,-1.386,-0.8002074     6.927092
19.621875,-1.386,0.8002074      6.927092
19.621875,1.386,-0.8002074      6.927092
19.621875,1.386,0.8002074       6.927092
19.621875,-0.0,-1.6004148       6.927092
19.621875,0.0,1.6004148 6.927092
-24.974999999999998,-0.9239999999999999,-0.0    -8.177907
-24.974999999999998,-0.46199999999999997,0.8002074      -8.177907
-24.974999999999998,-0.46199999999999997,-0.8002074     -8.177907
-24.974999999999998,0.46199999999999997,-0.8002074      -8.177907
-24.974999999999998,0.9239999999999999,-0.0     -8.177907
-24.974999999999998,0.46199999999999997,0.8002074       -8.177907
-27.271874999999998,-0.9239999999999999,1.0669431       7.550516
-27.271874999999998,0.9239999999999999,1.0669431        7.550516
-27.271874999999998,-1.386,0.26673569999999996  7.550516
-27.271874999999998,1.386,0.26673569999999996   7.550516
-27.271874999999998,-0.46199999999999997,-1.3336791000000001    7.550516
-27.271874999999998,0.46199999999999997,-1.3336791000000001     7.550516
-13.706249999999999,-0.9239999999999999,-1.0669431      -7.554483
-13.706249999999999,0.9239999999999999,-1.0669431       -7.554483
-13.706249999999999,-1.386,-0.26673569999999996 -7.554483
-13.706249999999999,1.386,-0.26673569999999996  -7.554483
-13.706249999999999,-0.46199999999999997,1.3336791000000001     -7.554483
-13.706249999999999,0.46199999999999997,1.3336791000000001      -7.554483
-150.075,0.0,2.6673579  -0.625931
-150.075,-2.3099997,-1.3336791000000001 -0.625931
-150.075,2.3099997,-1.3336791000000001  -0.625931
-80.925,-2.3099997,-0.26673569999999996 4.409069
-80.925,-1.386,-1.8671505       4.409069
-80.925,-0.9239999999999999,2.1338865   4.409069
-80.925,1.386,-1.8671505        4.409069
-80.925,2.3099997,-0.26673569999999996  4.409069
-80.925,0.9239999999999999,2.1338865    4.409069
93.1125,-1.8479997,-1.0669431   -5.660931
93.1125,1.8479997,-1.0669431    -5.660931
93.1125,0.0,2.1338865   -5.660931
176.1,-0.0,-2.6673579   2.515516
176.1,-2.3099997,1.3336791000000001     2.515516
176.1,2.3099997,1.3336791000000001      2.515516
-28.162499999999998,-2.7719997,-0.0     0.004632
-28.162499999999998,1.386,-2.4006222    0.004632
-28.162499999999998,-1.386,2.4006222    0.004632
-28.162499999999998,2.7719997,-0.0      0.004632
-28.162499999999998,-1.386,-2.4006222   0.004632
-28.162499999999998,1.386,2.4006222     0.004632
-115.725,0.0,2.6673579  -2.519484
-115.725,-2.3099997,-1.3336791000000001 -2.519484
-115.725,2.3099997,-1.3336791000000001  -2.519484
68.39999999999999,-1.8479997,0.0        6.927092
68.39999999999999,-0.9239999999999999,-1.6004148        6.927092
68.39999999999999,-0.9239999999999999,1.6004148 6.927092
68.39999999999999,0.9239999999999999,-1.6004148 6.927092
68.39999999999999,1.8479997,0.0 6.927092
68.39999999999999,0.9239999999999999,1.6004148  6.927092
63.5625,-2.7719997,-0.5334717   -0.625931
63.5625,-0.9239999999999999,2.6673579   -0.625931
63.5625,-1.8479997,-2.1338865   -0.625931
63.5625,1.8479997,-2.1338865    -0.625931
63.5625,0.9239999999999999,2.6673579    -0.625931
63.5625,2.7719997,-0.5334717    -0.625931
33.58125,-2.7719997,0.0 1.892092
33.58125,-1.386,-2.4006222      1.892092
33.58125,-1.386,2.4006222       1.892092
33.58125,1.386,-2.4006222       1.892092
33.58125,2.7719997,0.0  1.892092
33.58125,1.386,2.4006222        1.892092
-1.29609375,-2.3099997,0.8002074        -5.030367
-1.29609375,-2.3099997,-0.8002074       -5.030367
-1.29609375,-1.8479997,-1.6004148       -5.030367
-1.29609375,-1.8479997,1.6004148        -5.030367
-1.29609375,-2.3099997,0.8002074        5.039632
-1.29609375,0.46199999999999997,-2.4006222      -5.030367
-1.29609375,-0.46199999999999997,-2.4006222     -5.030367
-1.29609375,-2.3099997,-0.8002074       5.039632
-1.29609375,-1.8479997,-1.6004148       5.039632
-1.29609375,-0.46199999999999997,2.4006222      -5.030367
-1.29609375,0.46199999999999997,-2.4006222      5.039632
-1.29609375,-1.8479997,1.6004148        5.039632
-1.29609375,-0.46199999999999997,-2.4006222     5.039632
-1.29609375,1.8479997,-1.6004148        -5.030367
-1.29609375,0.46199999999999997,2.4006222       -5.030367
-1.29609375,2.3099997,-0.8002074        -5.030367
-1.29609375,2.3099997,0.8002074 -5.030367
-1.29609375,1.8479997,1.6004148 -5.030367
-1.29609375,-0.46199999999999997,2.4006222      5.039632
-1.29609375,1.8479997,-1.6004148        5.039632
-1.29609375,2.3099997,-0.8002074        5.039632
-1.29609375,0.46199999999999997,2.4006222       5.039632
-1.29609375,2.3099997,0.8002074 5.039632
-1.29609375,1.8479997,1.6004148 5.039632
-0.20625,-2.3099997,-0.26673569999999996        -5.660931
-0.20625,-1.386,-1.8671505      -5.660931
-0.20625,-0.9239999999999999,2.1338865  -5.660931
-0.20625,1.386,-1.8671505       -5.660931
-0.20625,0.9239999999999999,2.1338865   -5.660931
-0.20625,2.3099997,-0.26673569999999996 -5.660931
34.8,-0.46199999999999997,0.26673569999999996   9.444068
34.8,0.0,-0.5334717     9.444068
34.8,0.46199999999999997,0.26673569999999996    9.444068
15.393749999999999,-2.7719997,0.5334717 2.515516
15.393749999999999,-0.9239999999999999,-2.6673579       2.515516
15.393749999999999,0.9239999999999999,-2.6673579        2.515516
15.393749999999999,-1.8479997,2.1338865 2.515516
15.393749999999999,2.7719997,0.5334717  2.515516
15.393749999999999,1.8479997,2.1338865  2.515516
47.0625,-2.7719997,-0.5334717   -2.519484
47.0625,-0.9239999999999999,2.6673579   -2.519484
47.0625,-1.8479997,-2.1338865   -2.519484
47.0625,1.8479997,-2.1338865    -2.519484
47.0625,2.7719997,-0.5334717    -2.519484
47.0625,0.9239999999999999,2.6673579    -2.519484
65.8875,-2.7719997,-0.0 -3.142907
65.8875,-1.386,-2.4006222       -3.142907
65.8875,-1.386,2.4006222        -3.142907
65.8875,1.386,-2.4006222        -3.142907
65.8875,2.7719997,-0.0  -3.142907
65.8875,1.386,2.4006222 -3.142907
2.593652343,-1.386,-0.8002074   -8.177907
2.593652343,-1.386,0.8002074    -8.177907
2.593652343,1.386,0.8002074     -8.177907
2.593652343,1.386,-0.8002074    -8.177907
2.593652343,-0.0,-1.6004148     -8.177907
2.593652343,0.0,1.6004148       -8.177907
75.5625,-1.386,-1.3336791000000001      7.550516
75.5625,-1.8479997,-0.5334717   7.550516
75.5625,-0.46199999999999997,1.8671505  7.550516
75.5625,1.386,-1.3336791000000001       7.550516
75.5625,0.46199999999999997,1.8671505   7.550516
75.5625,1.8479997,-0.5334717    7.550516
-104.39999999999999,-1.386,1.3336791000000001   -7.554483
-104.39999999999999,-1.8479997,0.5334717        -7.554483
-104.39999999999999,-0.46199999999999997,-1.8671505     -7.554483
-104.39999999999999,0.46199999999999997,-1.8671505      -7.554483
-104.39999999999999,1.8479997,0.5334717 -7.554483
-104.39999999999999,1.386,1.3336791000000001    -7.554483
21.3796875,-2.3099997,1.8671505 -0.625931
21.3796875,-2.7719997,1.0669431 -0.625931
21.3796875,-0.46199999999999997,-2.9340938999999997     -0.625931
21.3796875,0.46199999999999997,-2.9340938999999997      -0.625931
21.3796875,2.7719997,1.0669431  -0.625931
21.3796875,2.3099997,1.8671505  -0.625931
-145.125,-0.0,-2.6673579        4.409069
-145.125,-2.3099997,1.3336791000000001  4.409069
-145.125,2.3099997,1.3336791000000001   4.409069

End of input

&SCF
Occupied
9
Iterations
   50  100
End of Input

&RASSCF
LumOrb
Symmetry
1
Spin
2
Nactel
1 0 0
CIRoot
9 9 1
inactive
9
ras2
9
End of Input

>>> COPY niobium_so_cf.JobIph $SLURM_SUBMIT_DIR/niobium_so_cf.doublet.JobIph

>>> COPY $SLURM_SUBMIT_DIR/niobium_so_cf.doublet.JobIph ./JOB002

&RASSI
NROFJobIph
1 All
SpinOrbit
End of Input

EOF

-- ----------------------------------

--- Start Module: seward at Tue Mar 25 16:52:47 2025 ---

()()()()()()()()()()()()()()()()()()()()()()()()()()()()()()()()()()()()()()()()()()()()()()()()()()

                                              &SEWARD

                                   only a single process is used
                       available to each process: 4.1 GB of memory, 1 thread?
                                            pid: 1188005
()()()()()()()()()()()()()()()()()()()()()()()()()()()()()()()()()()()()()()()()()()()()()()()()()()

 The speed of LIGHT in this CALCULATION =   137.03599917700001     
               SEWARD will generate:
                  Multipole Moment integrals up to order  2
                  Kinetic Energy integrals
                  Nuclear Attraction integrals (point charge)
                  One-Electron Hamiltonian integrals
                  Velocity integrals
                  Relativistic Douglas-Kroll-Hess integrals:
                    - Parametrization         : EXP
                    - DKH order of Hamiltonian: 2
                    - DKH order of Properties : 0
                         - multipole moment operators
                         - electric potential operators
                         - contact operators
                  External field from   414 point(s) added to the one-electron Hamiltonian
                  Orbital angular momentum around (-0.0000 -0.0000  0.0088 )
                  Velocity quadrupole around (-0.0000 -0.0000  0.0088 )
                  Atomic mean-field integrals
                  Two-Electron Repulsion integrals

                   Integrals are discarded if absolute value <: 0.10E-13
                   Integral cutoff threshold is set to       <: 0.10E-15

++    Symmetry information:
      ---------------------

                    Character Table for C1 

                             E  
                    a        1  x, y, xy, Rz, z, xz, Ry, yz, Rx, I
--


++    Basis set information:
      ----------------------


      Basis set label: NB.ANO-RCC.ROOS.21S18P13D6F4G2H.10S9P8D5F4G2H......

      Electronic valence basis set:
      ------------------
      Associated Effective Charge  41.000000 au
      Associated Actual Charge     41.000000 au
      Nuclear Model: Point charge

      Shell  nPrim  nBasis  Cartesian Spherical Contaminant
         s      21      10        X                  
         p      18       9        X                  
         d      13       8                 X         
         f       6       5                 X         
         g       4       4                 X         
         h       2       2                 X         
--


++    Molecular structure info:
      -------------------------

                    ************************************************ 
                    **** Cartesian Coordinates / Bohr, Angstrom **** 
                    ************************************************ 

     Center  Label                x              y              z                     x              y              z
        1      NB              -0.000000      -0.000000       0.008754             -0.000000      -0.000000       0.004632
--


++    Operator info:
      --------------


  Net charge from external field:   -39.268449999999902     
--


            Nuclear Potential Energy              0.00000000 au

                    Nuclear-External Field Potential Energy   -1250.35300538 au
                    External Field Potential Energy            5352.12300462 au 


            Total Nuclear Potential Energy          -1250.35300538 au


      Basis set specifications :
      Symmetry species         a  
      Basis functions          170

 Sorry, Molden does not know how to handle
 functions with angular momentum larger than g
Note: The following floating-point exceptions are signalling: IEEE_UNDERFLOW_FLAG IEEE_DENORMAL
--- Stop Module: seward at Tue Mar 25 16:52:57 2025 /rc=_RC_ALL_IS_WELL_ ---
*** files: niobium_so_cf.GssOrb xmldump
    saved to directory /home4/s4752295/Internship/Initial_simulations/Point_charge_model/1_electron/Madelung_charges_9_active_space/Nb
--- Module seward spent 10 seconds ---

*** symbolic link created: INPORB -> niobium_so_cf.GssOrb
--- Start Module: scf at Tue Mar 25 16:52:57 2025 ---

()()()()()()()()()()()()()()()()()()()()()()()()()()()()()()()()()()()()()()()()()()()()()()()()()()

                                                &SCF

                                   only a single process is used
                       available to each process: 4.1 GB of memory, 1 thread?
                                            pid: 1188027
()()()()()()()()()()()()()()()()()()()()()()()()()()()()()()()()()()()()()()()()()()()()()()()()()()

++    Input section:
      --------------

      Header of the integral files:
      
       Integrals generated by seward 4.2.0  , Tue Mar 25 16:52:48 2025


      Cartesian coordinates in Angstrom:
      -----------------------------------------------------
      No.  Label        X            Y            Z        
      -----------------------------------------------------
       1   NB        -0.00000000  -0.00000000   0.00463220
      -----------------------------------------------------
      Nuclear repulsion energy =-1250.35300538
--

++    Orbital specifications:
      -----------------------

      Symmetry species               1
                                     a
      Frozen orbitals                0
      Occupied orbitals              9
      Secondary orbitals           161
      Deleted orbitals               0
      Total number of orbitals     170
      Number of basis functions    170
--

      Molecular charge                          23.000

++    Optimization specifications:
      ----------------------------

      SCF Algorithm: Conventional
      Minimized density differences are used
      Number of density matrices in core                5
      Maximum number of NDDO SCF iterations            50
      Maximum number of HF SCF iterations             100
      Threshold for SCF energy change            0.10E-08
      Threshold for density matrix               0.10E-03
      Threshold for Fock matrix                  0.15E-03
      Threshold for linear dependence            0.10E-08
      Threshold at which DIIS is turned on       0.15E+00
      Threshold at which QNR/C2DIIS is turned on 0.75E-01
      Threshold for Norm(delta) (QNR/C2DIIS)     0.20E-04
      DIIS extrapolation of the SCF procedure
      All orbitals punched on: SCFORB
--

      Detected guessorb starting orbitals                                             


++ Convergence information
                                   SCF        iterations: Energy and convergence statistics

Iter     Tot. SCF        One-elec.       Two-elec.     Energy      Max Dij or  Max Fij      DNorm      TNorm      AccCon     Time
         Energy          Energy          Energy        Change      Delta Norm                                                in Sec.

 The total and one-electron energies are shifted by a value of      4000. a.u.

   1  -187.476721295   460.400027130   602.476256953   0.00E+00    0.58E+00*   0.28E+01*    0.60E+01   0.31E+03   None         1.
   2  -196.628906045   416.055741169   637.668358163  -0.92E+01*   0.51E-01*   0.55E+00*    0.22E+01   0.32E+03   EDIIS        1.
   3  -196.697495443   418.377030045   635.278479891  -0.69E-01*   0.87E-02*   0.45E-01*    0.11E+00   0.31E+03   EDIIS        1.
   4  -196.698167242   418.164729828   635.490108308  -0.67E-03*   0.12E-02*   0.44E-02*    0.95E-02   0.31E+03   c2DIIS       1.
   5  -196.698180579   418.180875241   635.473949558  -0.13E-04*   0.24E-03*   0.13E-02*    0.88E-03   0.31E+03   QNRc2DIIS    1.
   6  -196.698181731   418.181003296   635.473820351  -0.12E-05*   0.11E-03*   0.43E-03*    0.66E-04   0.31E+03   QNRc2DIIS    1.
   7  -196.698181859   418.180992111   635.473831408  -0.13E-06*   0.67E-06    0.62E-05     0.22E-04   0.31E+03   QNRc2DIIS    1.
   8  -196.698181859   418.180998038   635.473825481  -0.17E-10    0.24E-07    0.14E-06     0.45E-03   0.31E+03   QNRc2DIIS    1.

       Convergence after  8 Macro Iterations
--

 *****************************************************************************************************************************
 *                                                                                                                           *
 *                                             SCF/KS-DFT Program, Final results                                             *
 *                                                                                                                           *
 *                                                                                                                           *
 *                                                                                                                           *
 *                                                       Final Results                                                       *
 *                                                                                                                           *
 *****************************************************************************************************************************

::    Total SCF energy                              -4196.6981818586
      One-electron energy                           -3581.8190019623
      Two-electron energy                             635.4738254813
      Nuclear repulsion energy                      -1250.3530053776
      Kinetic energy (interpolated)                  3873.0801195619
      Virial theorem                                    1.0835557366
      Total spin, S(S+1)                                0.0000000000
      Total spin, S                                     0.0000000000
      Max non-diagonal density matrix element           0.0000000253
      Max non-diagonal Fock matrix element              0.0000000111


      All orbitals with orbital energies smaller than  E(LUMO)+0.5 are printed

++    Molecular orbitals:
      -------------------

      Title: SCF orbitals

      Molecular orbitals for symmetry species 1: a  

          Orbital            1         2         3         4         5         6         7         8         9        10    
          Energy         -707.0260 -105.9150  -95.0895  -95.0894  -95.0454  -17.6579  -13.5047  -13.5031  -12.6046   -6.3373
          Occ. No.          2.0000    2.0000    2.0000    2.0000    2.0000    2.0000    2.0000    2.0000    2.0000    0.0000

        1 NB     1s         1.0000   -0.0000    0.0000    0.0000   -0.0001    0.0001   -0.0000    0.0000    0.0000    0.0000
        2 NB     2s         0.0000    0.9995    0.0002    0.0000   -0.0300    0.0108    0.0000    0.0000   -0.0076    0.0000
        3 NB     3s        -0.0000   -0.0122   -0.0000   -0.0000    0.0035    0.9155    0.0009    0.0000   -0.3629   -0.0000
        4 NB     4s         0.0000    0.0029    0.0000    0.0000   -0.0007   -0.0813   -0.0002   -0.0000    0.0577    0.0000
        5 NB     5s        -0.0000   -0.0007   -0.0000    0.0000    0.0002    0.0180    0.0000   -0.0000   -0.0134   -0.0000
        6 NB     6s         0.0000    0.0009    0.0000    0.0000   -0.0002   -0.0220   -0.0000   -0.0000    0.0165    0.0000
        7 NB     7s        -0.0000   -0.0024   -0.0000   -0.0000    0.0006    0.0534    0.0001   -0.0000   -0.0411   -0.0000
        8 NB     8s         0.0000    0.0023    0.0000    0.0000   -0.0005   -0.0428   -0.0001   -0.0000    0.0339   -0.0000
        9 NB     9s        -0.0000   -0.0029   -0.0000   -0.0000    0.0007    0.0439    0.0001    0.0000   -0.0357    0.0000
       10 NB    10s         0.0001    0.0029    0.0000    0.0000   -0.0005   -0.0239   -0.0000    0.0000    0.0177    0.0000
       11 NB     2px        0.0001    0.0300   -0.0090   -0.0000    0.9994    0.0023   -0.0001   -0.0000    0.0131    0.0000
       12 NB     3px       -0.0001    0.0025    0.0001    0.0000   -0.0138    0.3803   -0.0041   -0.0000    0.8583    0.0000
       13 NB     4px        0.0000   -0.0006   -0.0000   -0.0000    0.0030   -0.0252    0.0004    0.0000   -0.0926   -0.0000
       14 NB     5px       -0.0000    0.0002    0.0000    0.0000   -0.0010    0.0073   -0.0001   -0.0000    0.0289   -0.0000
       15 NB     6px        0.0000   -0.0005   -0.0000   -0.0000    0.0026   -0.0160    0.0003    0.0000   -0.0696   -0.0000
       16 NB     7px       -0.0000    0.0005    0.0000    0.0000   -0.0024    0.0113   -0.0002   -0.0000    0.0564    0.0000
       17 NB     8px        0.0000   -0.0006   -0.0000   -0.0000    0.0030   -0.0094    0.0002    0.0000   -0.0586    0.0000
       18 NB     9px       -0.0000    0.0005    0.0000    0.0000   -0.0028    0.0055   -0.0002   -0.0000    0.0453    0.0000
       19 NB    10px        0.0001   -0.0005   -0.0000   -0.0000    0.0023   -0.0024    0.0001    0.0000   -0.0235   -0.0000
       20 NB     2py        0.0000    0.0000   -0.0000    0.9999    0.0000    0.0000   -0.0000    0.0133    0.0000    0.0003
       21 NB     3py       -0.0000   -0.0000    0.0000   -0.0134   -0.0000    0.0000   -0.0000    0.9633    0.0000    0.0119
       22 NB     4py        0.0000    0.0000   -0.0000    0.0029    0.0000   -0.0000    0.0000   -0.0981   -0.0000   -0.0022
       23 NB     5py       -0.0000   -0.0000    0.0000   -0.0010   -0.0000    0.0000   -0.0000    0.0305    0.0000    0.0008
       24 NB     6py        0.0000    0.0000   -0.0000    0.0025    0.0000   -0.0000    0.0000   -0.0730   -0.0000   -0.0019
       25 NB     7py       -0.0000   -0.0000    0.0000   -0.0023   -0.0000    0.0000   -0.0000    0.0585    0.0000    0.0016
       26 NB     8py        0.0000    0.0000   -0.0000    0.0029    0.0000   -0.0000    0.0000   -0.0594   -0.0000   -0.0017
       27 NB     9py       -0.0000   -0.0000    0.0000   -0.0027   -0.0000    0.0000   -0.0000    0.0444    0.0000    0.0012
       28 NB    10py        0.0000    0.0000   -0.0000    0.0023    0.0000   -0.0000    0.0000   -0.0215   -0.0000   -0.0003
       29 NB     2pz        0.0000    0.0001    0.9998    0.0000    0.0090    0.0000    0.0133    0.0000    0.0001    0.0000
       30 NB     3pz       -0.0000    0.0000   -0.0134   -0.0000   -0.0001    0.0008    0.9632    0.0000    0.0039    0.0000
       31 NB     4pz        0.0000   -0.0000    0.0029    0.0000    0.0000   -0.0001   -0.0981   -0.0000   -0.0004   -0.0000
       32 NB     5pz       -0.0000    0.0000   -0.0010   -0.0000   -0.0000    0.0000    0.0304    0.0000    0.0001    0.0000
       33 NB     6pz        0.0000   -0.0000    0.0025    0.0000    0.0000   -0.0001   -0.0730   -0.0000   -0.0003   -0.0000
       34 NB     7pz       -0.0000    0.0000   -0.0023   -0.0000   -0.0000    0.0000    0.0585    0.0000    0.0003    0.0000
       35 NB     8pz        0.0000   -0.0000    0.0029    0.0000    0.0000   -0.0000   -0.0593   -0.0000   -0.0003   -0.0000
       36 NB     9pz       -0.0000    0.0000   -0.0027   -0.0000   -0.0000    0.0000    0.0444    0.0000    0.0002    0.0000
       37 NB    10pz        0.0000   -0.0000    0.0023    0.0000    0.0000   -0.0000   -0.0215   -0.0000   -0.0001   -0.0000
       38 NB     3d2-      -0.0000    0.0000   -0.0000    0.0022    0.0000    0.0000   -0.0000    0.2148    0.0000   -0.0513
       39 NB     4d2-       0.0000   -0.0000    0.0000   -0.0004   -0.0000   -0.0000    0.0000   -0.0123   -0.0000    0.0039
       40 NB     5d2-      -0.0000    0.0000   -0.0000    0.0004    0.0000    0.0000   -0.0000    0.0113    0.0000   -0.0038
       41 NB     6d2-       0.0000   -0.0000    0.0000   -0.0004   -0.0000   -0.0000    0.0000   -0.0088   -0.0000    0.0032
       42 NB     7d2-      -0.0000    0.0000   -0.0000    0.0004    0.0000    0.0000   -0.0000    0.0068    0.0000   -0.0029
       43 NB     8d2-       0.0000   -0.0000    0.0000   -0.0005   -0.0000   -0.0000    0.0000   -0.0053   -0.0000    0.0037
       44 NB     9d2-      -0.0000    0.0000   -0.0000    0.0005    0.0000   -0.0000   -0.0000    0.0020    0.0000   -0.0032
       45 NB    10d2-      -0.0000    0.0000   -0.0000    0.0007    0.0000   -0.0000    0.0000   -0.0011    0.0000   -0.0036
       46 NB     3d1-       0.0000   -0.0000   -0.0000    0.0000    0.0000   -0.0000    0.0000   -0.0009   -0.0000    0.9745
       47 NB     4d1-      -0.0000   -0.0000    0.0000   -0.0000   -0.0000    0.0000    0.0000   -0.0000    0.0000   -0.0916
       48 NB     5d1-       0.0000   -0.0000   -0.0000    0.0000    0.0000   -0.0000   -0.0000    0.0001   -0.0000    0.0925
       49 NB     6d1-      -0.0000    0.0000    0.0000   -0.0000   -0.0000    0.0000    0.0000   -0.0001    0.0000   -0.0808
       50 NB     7d1-       0.0000   -0.0000   -0.0000    0.0000    0.0000   -0.0000   -0.0000    0.0002   -0.0000    0.0725
       51 NB     8d1-      -0.0000   -0.0000    0.0000   -0.0000    0.0000    0.0000    0.0000   -0.0003    0.0000   -0.0913
       52 NB     9d1-       0.0000    0.0000   -0.0000    0.0000   -0.0000   -0.0000   -0.0000    0.0002   -0.0000    0.0741
       53 NB    10d1-       0.0000    0.0000   -0.0000    0.0000   -0.0000   -0.0000    0.0000   -0.0001   -0.0000    0.0661
       54 NB     3d0        0.0000    0.0001    0.0000    0.0000   -0.0014   -0.0185    0.0023    0.0000   -0.1564   -0.0000
       55 NB     4d0       -0.0000   -0.0000   -0.0000   -0.0000    0.0002    0.0004   -0.0001   -0.0000    0.0101    0.0000
       56 NB     5d0        0.0000    0.0000    0.0000    0.0000   -0.0002   -0.0002    0.0000    0.0000   -0.0096   -0.0000
       57 NB     6d0       -0.0000   -0.0000   -0.0000   -0.0000    0.0002   -0.0001    0.0000   -0.0000    0.0077    0.0000
       58 NB     7d0        0.0000    0.0000    0.0000    0.0000   -0.0002    0.0003   -0.0001   -0.0000   -0.0062   -0.0000
       59 NB     8d0       -0.0000   -0.0000   -0.0000   -0.0000    0.0003   -0.0010    0.0002    0.0000    0.0056    0.0000
       60 NB     9d0        0.0000    0.0000    0.0000    0.0000   -0.0003    0.0011   -0.0001   -0.0000   -0.0030   -0.0000
       61 NB    10d0        0.0000    0.0000    0.0000    0.0000   -0.0004    0.0010    0.0000    0.0000   -0.0009   -0.0000
       62 NB     3d1+      -0.0000   -0.0000    0.0022    0.0000    0.0000   -0.0001    0.2154    0.0000    0.0025   -0.0000
       63 NB     4d1+       0.0000    0.0000   -0.0004   -0.0000   -0.0000   -0.0000   -0.0123   -0.0000   -0.0002    0.0000
       64 NB     5d1+      -0.0000   -0.0000    0.0004    0.0000    0.0000    0.0000    0.0113    0.0000    0.0002   -0.0000
       65 NB     6d1+       0.0000    0.0000   -0.0004   -0.0000   -0.0000   -0.0000   -0.0088   -0.0000   -0.0001    0.0000
       66 NB     7d1+      -0.0000   -0.0000    0.0004    0.0000    0.0000    0.0000    0.0068    0.0000    0.0001   -0.0000
       67 NB     8d1+       0.0000    0.0000   -0.0005   -0.0000   -0.0000   -0.0000   -0.0053   -0.0000   -0.0001    0.0000
       68 NB     9d1+      -0.0000   -0.0000    0.0005    0.0000    0.0000   -0.0000    0.0019    0.0000    0.0000   -0.0000
       69 NB    10d1+      -0.0000   -0.0000    0.0007    0.0000    0.0000   -0.0000   -0.0011   -0.0000   -0.0000   -0.0000
       70 NB     3d2+      -0.0000   -0.0002   -0.0000   -0.0000    0.0024    0.0322   -0.0002   -0.0000    0.2717   -0.0000
       71 NB     4d2+       0.0000    0.0000    0.0000    0.0000   -0.0004   -0.0007    0.0000    0.0000   -0.0176    0.0000
       72 NB     5d2+      -0.0000   -0.0000   -0.0000   -0.0000    0.0004    0.0003   -0.0000   -0.0000    0.0165   -0.0000
       73 NB     6d2+       0.0000    0.0000    0.0000    0.0000   -0.0004    0.0002    0.0001    0.0000   -0.0133    0.0000
       74 NB     7d2+      -0.0000   -0.0000   -0.0000   -0.0000    0.0004   -0.0006   -0.0001   -0.0000    0.0107   -0.0000
       75 NB     8d2+       0.0000    0.0000    0.0000    0.0000   -0.0006    0.0017    0.0002    0.0000   -0.0097    0.0000
       76 NB     9d2+      -0.0000   -0.0000   -0.0000   -0.0000    0.0005   -0.0019   -0.0001   -0.0000    0.0053   -0.0000
       77 NB    10d2+      -0.0000   -0.0000   -0.0000   -0.0000    0.0007   -0.0018    0.0000    0.0000    0.0015   -0.0000
       78 NB     4f3-      -0.0000   -0.0000    0.0000   -0.0000   -0.0000    0.0000   -0.0000    0.0015    0.0000   -0.0019
       79 NB     5f3-      -0.0000   -0.0000    0.0000   -0.0000   -0.0000    0.0000   -0.0000    0.0020    0.0000   -0.0023
       80 NB     6f3-       0.0000   -0.0000   -0.0000    0.0000    0.0000   -0.0000    0.0000   -0.0022   -0.0000    0.0023
       81 NB     7f3-      -0.0000    0.0000    0.0000   -0.0000   -0.0000    0.0000   -0.0000    0.0023    0.0000   -0.0020
       82 NB     8f3-      -0.0000    0.0000    0.0000   -0.0000   -0.0000    0.0000   -0.0000    0.0016    0.0000   -0.0013
       83 NB     4f2-       0.0000    0.0000    0.0000   -0.0000   -0.0000   -0.0000    0.0000   -0.0009   -0.0000    0.0101
       84 NB     5f2-       0.0000    0.0000    0.0000   -0.0000   -0.0000   -0.0000    0.0000   -0.0012   -0.0000    0.0115
       85 NB     6f2-       0.0000   -0.0000   -0.0000    0.0000    0.0000   -0.0000   -0.0000    0.0013    0.0000   -0.0116
       86 NB     7f2-      -0.0000    0.0000    0.0000   -0.0000   -0.0000   -0.0000    0.0000   -0.0012   -0.0000    0.0111
       87 NB     8f2-      -0.0000    0.0000    0.0000   -0.0000   -0.0000   -0.0000    0.0000   -0.0007   -0.0000    0.0102
       88 NB     4f1-       0.0000    0.0000   -0.0000    0.0000    0.0000   -0.0000    0.0000   -0.0004   -0.0000    0.0005
       89 NB     5f1-       0.0000    0.0000   -0.0000    0.0000   -0.0000    0.0000    0.0000   -0.0005   -0.0000    0.0006
       90 NB     6f1-      -0.0000    0.0000    0.0000   -0.0000    0.0000    0.0000   -0.0000    0.0006    0.0000   -0.0006
       91 NB     7f1-       0.0000   -0.0000   -0.0000    0.0000   -0.0000   -0.0000    0.0000   -0.0006   -0.0000    0.0005
       92 NB     8f1-       0.0000   -0.0000   -0.0000    0.0000    0.0000    0.0000    0.0000   -0.0004   -0.0000    0.0004
       93 NB     4f0       -0.0000    0.0000    0.0000    0.0000    0.0000    0.0001   -0.0010   -0.0000    0.0006    0.0000
       94 NB     5f0       -0.0000   -0.0000    0.0000    0.0000    0.0000    0.0002   -0.0013   -0.0000    0.0007    0.0000
       95 NB     6f0        0.0000    0.0000   -0.0000   -0.0000   -0.0000   -0.0003    0.0015    0.0000   -0.0007   -0.0000
       96 NB     7f0        0.0000    0.0000    0.0000    0.0000    0.0000    0.0003   -0.0015   -0.0000    0.0007    0.0000
       97 NB     8f0        0.0000    0.0000    0.0000    0.0000    0.0000    0.0002   -0.0010   -0.0000    0.0004    0.0000
       98 NB     4f1+       0.0000   -0.0000    0.0000    0.0000    0.0000   -0.0003    0.0007    0.0000   -0.0010   -0.0000
       99 NB     5f1+       0.0000   -0.0000    0.0000    0.0000    0.0000   -0.0004    0.0008    0.0000   -0.0013   -0.0000
      100 NB     6f1+      -0.0000    0.0000   -0.0000   -0.0000   -0.0000    0.0005   -0.0009   -0.0000    0.0013    0.0000
      101 NB     7f1+       0.0000   -0.0000    0.0000    0.0000    0.0000   -0.0005    0.0009    0.0000   -0.0013   -0.0000
      102 NB     8f1+       0.0000   -0.0000    0.0000    0.0000    0.0000   -0.0004    0.0005    0.0000   -0.0009   -0.0000
      103 NB     4f2+      -0.0000    0.0000   -0.0000   -0.0000    0.0000    0.0001    0.0013    0.0000    0.0005   -0.0000
      104 NB     5f2+      -0.0000    0.0000   -0.0000   -0.0000    0.0000    0.0001    0.0017    0.0000    0.0006   -0.0000
      105 NB     6f2+       0.0000   -0.0000    0.0000    0.0000   -0.0000   -0.0002   -0.0019   -0.0000   -0.0006    0.0000
      106 NB     7f2+       0.0000    0.0000   -0.0000   -0.0000    0.0000    0.0003    0.0019    0.0000    0.0005   -0.0000
      107 NB     8f2+       0.0000    0.0000   -0.0000   -0.0000    0.0000    0.0002    0.0013    0.0000    0.0003   -0.0000
      108 NB     4f3+      -0.0000    0.0000    0.0000    0.0000   -0.0000    0.0004    0.0006    0.0000    0.0014   -0.0000
      109 NB     5f3+      -0.0000    0.0000    0.0000    0.0000   -0.0000    0.0005    0.0007    0.0000    0.0017   -0.0000
      110 NB     6f3+       0.0000   -0.0000   -0.0000   -0.0000    0.0000   -0.0007   -0.0008   -0.0000   -0.0018    0.0000
      111 NB     7f3+      -0.0000    0.0000    0.0000    0.0000   -0.0000    0.0008    0.0007    0.0000    0.0017   -0.0000
      112 NB     8f3+      -0.0000    0.0000    0.0000    0.0000   -0.0000    0.0006    0.0004    0.0000    0.0012   -0.0000
      113 NB     5g4-      -0.0000   -0.0000   -0.0000    0.0000    0.0000    0.0000   -0.0000    0.0005    0.0000   -0.0005
      114 NB     6g4-       0.0000    0.0000    0.0000   -0.0000   -0.0000    0.0000    0.0000   -0.0008   -0.0000    0.0005
      115 NB     7g4-      -0.0000   -0.0000   -0.0000    0.0000    0.0000    0.0000   -0.0000    0.0012    0.0000   -0.0005
      116 NB     8g4-       0.0000   -0.0000    0.0000   -0.0000   -0.0000   -0.0000    0.0000   -0.0015   -0.0000    0.0004
      117 NB     5g3-       0.0000    0.0000    0.0000   -0.0000   -0.0000   -0.0000    0.0000   -0.0011   -0.0000   -0.0001
      118 NB     6g3-      -0.0000    0.0000   -0.0000    0.0000    0.0000    0.0000   -0.0000    0.0012    0.0000   -0.0001
      119 NB     7g3-       0.0000   -0.0000    0.0000   -0.0000   -0.0000    0.0000    0.0000   -0.0014   -0.0000   -0.0001
      120 NB     8g3-      -0.0000   -0.0000   -0.0000    0.0000    0.0000   -0.0000   -0.0000    0.0015    0.0000    0.0008
      121 NB     5g2-      -0.0000    0.0000    0.0000   -0.0000    0.0000   -0.0000    0.0000   -0.0002   -0.0000    0.0002
      122 NB     6g2-       0.0000   -0.0000   -0.0000    0.0000    0.0000    0.0000   -0.0000    0.0003    0.0000   -0.0002
      123 NB     7g2-      -0.0000    0.0000    0.0000   -0.0000   -0.0000   -0.0000    0.0000   -0.0004   -0.0000    0.0002
      124 NB     8g2-       0.0000   -0.0000   -0.0000    0.0000    0.0000    0.0000   -0.0000    0.0005    0.0000   -0.0001
      125 NB     5g1-      -0.0000    0.0000   -0.0000    0.0000   -0.0000    0.0000   -0.0000    0.0002    0.0000   -0.0001
      126 NB     6g1-       0.0000   -0.0000    0.0000   -0.0000   -0.0000   -0.0000    0.0000   -0.0003   -0.0000    0.0001
      127 NB     7g1-      -0.0000   -0.0000   -0.0000    0.0000    0.0000    0.0000   -0.0000    0.0005    0.0000   -0.0001
      128 NB     8g1-       0.0000    0.0000    0.0000   -0.0000   -0.0000    0.0000    0.0000   -0.0006   -0.0000   -0.0001
      129 NB     5g0        0.0000    0.0000   -0.0000   -0.0000    0.0000   -0.0001   -0.0007   -0.0000   -0.0002   -0.0000
      130 NB     6g0       -0.0000    0.0000    0.0000    0.0000   -0.0000    0.0002    0.0008    0.0000    0.0001    0.0000
      131 NB     7g0        0.0000   -0.0000   -0.0000   -0.0000    0.0000   -0.0002   -0.0009   -0.0000    0.0000   -0.0000
      132 NB     8g0        0.0000    0.0000    0.0000    0.0000   -0.0000    0.0003    0.0009    0.0000   -0.0002    0.0000
      133 NB     5g1+      -0.0000    0.0000   -0.0000   -0.0000    0.0000    0.0005   -0.0005   -0.0000    0.0004    0.0000
      134 NB     6g1+       0.0000   -0.0000    0.0000    0.0000   -0.0000   -0.0007    0.0007    0.0000   -0.0005   -0.0000
      135 NB     7g1+      -0.0000    0.0000   -0.0000   -0.0000    0.0000    0.0009   -0.0010   -0.0000    0.0006    0.0000
      136 NB     8g1+       0.0000   -0.0000    0.0000    0.0000   -0.0000   -0.0011    0.0012    0.0000   -0.0006   -0.0000
      137 NB     5g2+      -0.0000   -0.0000    0.0000    0.0000   -0.0000    0.0001    0.0004    0.0000    0.0002    0.0000
      138 NB     6g2+       0.0000   -0.0000   -0.0000   -0.0000    0.0000   -0.0002   -0.0005   -0.0000   -0.0001    0.0000
      139 NB     7g2+      -0.0000    0.0000    0.0000    0.0000   -0.0000    0.0003    0.0007    0.0000   -0.0001    0.0000
      140 NB     8g2+      -0.0000   -0.0000   -0.0000   -0.0000    0.0000   -0.0004   -0.0008   -0.0000    0.0003   -0.0000
      141 NB     5g3+      -0.0000    0.0000    0.0000    0.0000    0.0000    0.0006    0.0004    0.0000    0.0005   -0.0000
      142 NB     6g3+       0.0000   -0.0000   -0.0000   -0.0000   -0.0000   -0.0008   -0.0006   -0.0000   -0.0006    0.0000
      143 NB     7g3+      -0.0000    0.0000    0.0000    0.0000    0.0000    0.0011    0.0009    0.0000    0.0008   -0.0000
      144 NB     8g3+       0.0000   -0.0000   -0.0000   -0.0000   -0.0000   -0.0013   -0.0011   -0.0000   -0.0009    0.0000
      145 NB     5g4+       0.0000    0.0000    0.0000    0.0000    0.0000   -0.0001    0.0007    0.0000   -0.0003    0.0000
      146 NB     6g4+      -0.0000    0.0000   -0.0000   -0.0000   -0.0000    0.0002   -0.0008   -0.0000    0.0001    0.0000
      147 NB     7g4+       0.0000   -0.0000    0.0000    0.0000    0.0000   -0.0003    0.0010    0.0000    0.0002    0.0000
      148 NB     8g4+       0.0000    0.0000   -0.0000   -0.0000   -0.0000    0.0005   -0.0011   -0.0000   -0.0005   -0.0000
      149 NB     6h5-       0.0000    0.0000   -0.0000    0.0000    0.0000    0.0000   -0.0000    0.0003    0.0000   -0.0000
      150 NB     7h5-      -0.0000   -0.0000    0.0000   -0.0000   -0.0000    0.0000    0.0000   -0.0003    0.0000    0.0001
      151 NB     6h4-       0.0000    0.0000    0.0000   -0.0000   -0.0000   -0.0000    0.0000   -0.0004   -0.0000    0.0002
      152 NB     7h4-      -0.0000   -0.0000   -0.0000    0.0000    0.0000   -0.0000   -0.0000    0.0004    0.0000   -0.0003
      153 NB     6h3-      -0.0000    0.0000    0.0000   -0.0000    0.0000   -0.0000    0.0000   -0.0001   -0.0000   -0.0002
      154 NB     7h3-       0.0000   -0.0000   -0.0000    0.0000   -0.0000    0.0000   -0.0000    0.0001    0.0000    0.0001
      155 NB     6h2-      -0.0000   -0.0000   -0.0000    0.0000    0.0000    0.0000   -0.0000    0.0005    0.0000   -0.0001
      156 NB     7h2-       0.0000    0.0000    0.0000   -0.0000   -0.0000   -0.0000    0.0000   -0.0005   -0.0000    0.0002
      157 NB     6h1-       0.0000   -0.0000    0.0000   -0.0000   -0.0000    0.0000    0.0000   -0.0000    0.0000   -0.0003
      158 NB     7h1-      -0.0000    0.0000   -0.0000    0.0000    0.0000    0.0000   -0.0000    0.0000    0.0000    0.0002
      159 NB     6h0        0.0000   -0.0000    0.0000    0.0000   -0.0000   -0.0004    0.0002    0.0000   -0.0004    0.0000
      160 NB     7h0       -0.0000    0.0000   -0.0000   -0.0000    0.0000    0.0005   -0.0002   -0.0000    0.0004   -0.0000
      161 NB     6h1+       0.0000   -0.0000    0.0000    0.0000   -0.0000   -0.0003   -0.0003   -0.0000   -0.0003    0.0000
      162 NB     7h1+      -0.0000    0.0000    0.0000   -0.0000    0.0000    0.0003    0.0003    0.0000    0.0003   -0.0000
      163 NB     6h2+      -0.0000    0.0000   -0.0000   -0.0000    0.0000    0.0003   -0.0002   -0.0000    0.0002    0.0000
      164 NB     7h2+       0.0000   -0.0000    0.0000    0.0000   -0.0000   -0.0003    0.0002    0.0000   -0.0002   -0.0000
      165 NB     6h3+      -0.0000    0.0000    0.0000    0.0000    0.0000    0.0002    0.0003    0.0000    0.0003   -0.0000
      166 NB     7h3+       0.0000   -0.0000   -0.0000   -0.0000   -0.0000   -0.0002   -0.0004   -0.0000   -0.0003    0.0000
      167 NB     6h4+      -0.0000    0.0000    0.0000    0.0000    0.0000    0.0007    0.0002    0.0000    0.0006    0.0000
      168 NB     7h4+       0.0000   -0.0000   -0.0000   -0.0000   -0.0000   -0.0007   -0.0002   -0.0000   -0.0006   -0.0000
      169 NB     6h5+       0.0000   -0.0000    0.0000    0.0000   -0.0000   -0.0003    0.0005    0.0000   -0.0003   -0.0000
      170 NB     7h5+      -0.0000    0.0000   -0.0000   -0.0000    0.0000    0.0003   -0.0005   -0.0000    0.0003    0.0000

          Orbital           11        12        13    
          Energy           -6.3360   -5.9033   -5.9012
          Occ. No.          0.0000    0.0000    0.0000

        1 NB     1s        -0.0000    0.0000   -0.0000
        2 NB     2s         0.0000    0.0000   -0.0000
        3 NB     3s         0.0002   -0.0000    0.0000
        4 NB     4s        -0.0000   -0.0001   -0.0000
        5 NB     5s         0.0000    0.0000    0.0000
        6 NB     6s        -0.0000   -0.0000    0.0000
        7 NB     7s         0.0000    0.0000    0.0000
        8 NB     8s        -0.0000   -0.0000    0.0000
        9 NB     9s         0.0000   -0.0000    0.0000
       10 NB    10s        -0.0000    0.0000   -0.0000
       11 NB     2px       -0.0000    0.0000    0.0000
       12 NB     3px       -0.0006    0.0016    0.0000
       13 NB     4px        0.0001   -0.0004   -0.0000
       14 NB     5px       -0.0000    0.0001   -0.0000
       15 NB     6px        0.0001   -0.0003    0.0000
       16 NB     7px       -0.0001    0.0002    0.0000
       17 NB     8px        0.0001   -0.0002    0.0000
       18 NB     9px       -0.0001    0.0001    0.0000
       19 NB    10px        0.0000   -0.0001   -0.0000
       20 NB     2py        0.0000    0.0000   -0.0055
       21 NB     3py        0.0000    0.0000   -0.2051
       22 NB     4py       -0.0000   -0.0000    0.0382
       23 NB     5py        0.0000    0.0000   -0.0122
       24 NB     6py       -0.0000   -0.0000    0.0300
       25 NB     7py        0.0000    0.0000   -0.0248
       26 NB     8py       -0.0000   -0.0000    0.0252
       27 NB     9py        0.0000    0.0000   -0.0194
       28 NB    10py       -0.0000   -0.0000    0.0077
       29 NB     2pz       -0.0003   -0.0055   -0.0000
       30 NB     3pz       -0.0103   -0.2057   -0.0000
       31 NB     4pz        0.0019    0.0384    0.0000
       32 NB     5pz       -0.0006   -0.0122   -0.0000
       33 NB     6pz        0.0017    0.0302    0.0000
       34 NB     7pz       -0.0014   -0.0250   -0.0000
       35 NB     8pz        0.0015    0.0253    0.0000
       36 NB     9pz       -0.0011   -0.0195   -0.0000
       37 NB    10pz        0.0002    0.0077    0.0000
       38 NB     3d2-      -0.0000   -0.0000    0.9489
       39 NB     4d2-       0.0000    0.0000   -0.0920
       40 NB     5d2-      -0.0000   -0.0000    0.0931
       41 NB     6d2-       0.0000    0.0000   -0.0811
       42 NB     7d2-      -0.0000   -0.0000    0.0734
       43 NB     8d2-       0.0000    0.0000   -0.0939
       44 NB     9d2-      -0.0000   -0.0000    0.0776
       45 NB    10d2-      -0.0000   -0.0000    0.0719
       46 NB     3d1-       0.0000   -0.0000    0.0519
       47 NB     4d1-      -0.0000    0.0000   -0.0060
       48 NB     5d1-       0.0000   -0.0000    0.0061
       49 NB     6d1-      -0.0000    0.0000   -0.0055
       50 NB     7d1-       0.0000   -0.0000    0.0050
       51 NB     8d1-      -0.0000    0.0000   -0.0064
       52 NB     9d1-       0.0000   -0.0000    0.0049
       53 NB    10d1-       0.0000   -0.0000    0.0037
       54 NB     3d0        0.8442   -0.0298   -0.0000
       55 NB     4d0       -0.0794    0.0037    0.0000
       56 NB     5d0        0.0803   -0.0038   -0.0000
       57 NB     6d0       -0.0701    0.0034    0.0000
       58 NB     7d0        0.0628   -0.0031   -0.0000
       59 NB     8d0       -0.0792    0.0040    0.0000
       60 NB     9d0        0.0642   -0.0030   -0.0000
       61 NB    10d0        0.0573   -0.0021   -0.0000
       62 NB     3d1+       0.0392    0.9494    0.0000
       63 NB     4d1+      -0.0028   -0.0919   -0.0000
       64 NB     5d1+       0.0027    0.0930    0.0000
       65 NB     6d1+      -0.0022   -0.0810   -0.0000
       66 NB     7d1+       0.0020    0.0733    0.0000
       67 NB     8d1+      -0.0026   -0.0938   -0.0000
       68 NB     9d1+       0.0023    0.0775    0.0000
       69 NB    10d1+       0.0028    0.0719    0.0000
       70 NB     3d2+       0.4879   -0.0278   -0.0000
       71 NB     4d2+      -0.0459    0.0032    0.0000
       72 NB     5d2+       0.0463   -0.0032   -0.0000
       73 NB     6d2+      -0.0405    0.0029    0.0000
       74 NB     7d2+       0.0363   -0.0026   -0.0000
       75 NB     8d2+      -0.0457    0.0034    0.0000
       76 NB     9d2+       0.0371   -0.0026   -0.0000
       77 NB    10d2+       0.0331   -0.0020   -0.0000
       78 NB     4f3-      -0.0000   -0.0000    0.0136
       79 NB     5f3-      -0.0000   -0.0000    0.0160
       80 NB     6f3-       0.0000    0.0000   -0.0164
       81 NB     7f3-      -0.0000   -0.0000    0.0156
       82 NB     8f3-      -0.0000   -0.0000    0.0137
       83 NB     4f2-       0.0000    0.0000   -0.0007
       84 NB     5f2-       0.0000    0.0000   -0.0010
       85 NB     6f2-      -0.0000   -0.0000    0.0011
       86 NB     7f2-       0.0000    0.0000   -0.0009
       87 NB     8f2-       0.0000    0.0000   -0.0002
       88 NB     4f1-       0.0000    0.0000   -0.0035
       89 NB     5f1-       0.0000    0.0000   -0.0041
       90 NB     6f1-      -0.0000   -0.0000    0.0042
       91 NB     7f1-       0.0000    0.0000   -0.0040
       92 NB     8f1-       0.0000    0.0000   -0.0035
       93 NB     4f0       -0.0011   -0.0087   -0.0000
       94 NB     5f0       -0.0013   -0.0102   -0.0000
       95 NB     6f0        0.0013    0.0105    0.0000
       96 NB     7f0       -0.0011   -0.0100   -0.0000
       97 NB     8f0       -0.0007   -0.0087   -0.0000
       98 NB     4f1+       0.0079    0.0008    0.0000
       99 NB     5f1+       0.0090    0.0010    0.0000
      100 NB     6f1+      -0.0091   -0.0011   -0.0000
      101 NB     7f1+       0.0087    0.0009    0.0000
      102 NB     8f1+       0.0080    0.0004    0.0000
      103 NB     4f2+       0.0014    0.0112    0.0000
      104 NB     5f2+       0.0017    0.0132    0.0000
      105 NB     6f2+      -0.0017   -0.0135   -0.0000
      106 NB     7f2+       0.0015    0.0129    0.0000
      107 NB     8f2+       0.0010    0.0113    0.0000
      108 NB     4f3+       0.0062    0.0005    0.0000
      109 NB     5f3+       0.0070    0.0006    0.0000
      110 NB     6f3+      -0.0071   -0.0007   -0.0000
      111 NB     7f3+       0.0068    0.0006    0.0000
      112 NB     8f3+       0.0062    0.0001    0.0000
      113 NB     5g4-      -0.0000   -0.0000    0.0001
      114 NB     6g4-       0.0000    0.0000   -0.0006
      115 NB     7g4-      -0.0000   -0.0000    0.0002
      116 NB     8g4-       0.0000   -0.0000    0.0011
      117 NB     5g3-      -0.0000    0.0000   -0.0014
      118 NB     6g3-      -0.0000   -0.0000    0.0015
      119 NB     7g3-      -0.0000    0.0000   -0.0016
      120 NB     8g3-       0.0000   -0.0000    0.0017
      121 NB     5g2-       0.0000    0.0000   -0.0000
      122 NB     6g2-      -0.0000   -0.0000    0.0002
      123 NB     7g2-       0.0000    0.0000   -0.0000
      124 NB     8g2-      -0.0000    0.0000   -0.0005
      125 NB     5g1-      -0.0000   -0.0000    0.0009
      126 NB     6g1-       0.0000    0.0000   -0.0010
      127 NB     7g1-      -0.0000   -0.0000    0.0013
      128 NB     8g1-      -0.0000    0.0000   -0.0014
      129 NB     5g0        0.0002   -0.0006   -0.0000
      130 NB     6g0       -0.0000    0.0006    0.0000
      131 NB     7g0        0.0002   -0.0006   -0.0000
      132 NB     8g0       -0.0005    0.0005    0.0000
      133 NB     5g1+      -0.0004   -0.0002   -0.0000
      134 NB     6g1+       0.0005    0.0006    0.0000
      135 NB     7g1+      -0.0005   -0.0003   -0.0000
      136 NB     8g1+       0.0004   -0.0007   -0.0000
      137 NB     5g2+      -0.0000    0.0010    0.0000
      138 NB     6g2+      -0.0001   -0.0011   -0.0000
      139 NB     7g2+      -0.0000    0.0013    0.0000
      140 NB     8g2+       0.0003   -0.0014   -0.0000
      141 NB     5g3+       0.0003    0.0001    0.0000
      142 NB     6g3+      -0.0004   -0.0005   -0.0000
      143 NB     7g3+       0.0004    0.0002    0.0000
      144 NB     8g3+      -0.0003    0.0007    0.0000
      145 NB     5g4+      -0.0001    0.0011    0.0000
      146 NB     6g4+      -0.0000   -0.0012   -0.0000
      147 NB     7g4+      -0.0001    0.0014    0.0000
      148 NB     8g4+       0.0006   -0.0014   -0.0000
      149 NB     6h5-      -0.0000    0.0000   -0.0001
      150 NB     7h5-       0.0000    0.0000   -0.0000
      151 NB     6h4-       0.0000    0.0000   -0.0009
      152 NB     7h4-      -0.0000   -0.0000    0.0008
      153 NB     6h3-      -0.0000   -0.0000    0.0001
      154 NB     7h3-       0.0000   -0.0000    0.0000
      155 NB     6h2-      -0.0000   -0.0000    0.0008
      156 NB     7h2-       0.0000    0.0000   -0.0008
      157 NB     6h1-      -0.0000    0.0000   -0.0000
      158 NB     7h1-       0.0000   -0.0000    0.0001
      159 NB     6h0       -0.0002   -0.0001   -0.0000
      160 NB     7h0        0.0002   -0.0001   -0.0000
      161 NB     6h1+      -0.0001   -0.0006   -0.0000
      162 NB     7h1+       0.0002    0.0006    0.0000
      163 NB     6h2+      -0.0003    0.0000    0.0000
      164 NB     7h2+       0.0002    0.0000    0.0000
      165 NB     6h3+       0.0001    0.0005    0.0000
      166 NB     7h3+      -0.0001   -0.0005   -0.0000
      167 NB     6h4+      -0.0001   -0.0001   -0.0000
      168 NB     7h4+       0.0000   -0.0000   -0.0000
      169 NB     6h5+       0.0001    0.0009    0.0000
      170 NB     7h5+      -0.0002   -0.0008   -0.0000
--


++    Molecular charges:
      ------------------

      Mulliken charges per centre and basis function type
      ---------------------------------------------------

                NB    
      1s       2.0000
      2s       2.0000
      2px      1.9998
      2pz      1.9999
      2py      1.9999
      3s       1.9399
      3px      1.7631
      3pz      1.8557
      3py      1.8562
      4s       0.0199
      3d2+     0.1497
      3d1+     0.0928
      3d0      0.0496
      3d1-     0.0000
      3d2-     0.0923
      4px      0.0185
      4pz      0.0193
      4py      0.0193
      5s       0.0010
      4d2+     0.0006
      4d1+     0.0003
      4d0      0.0002
      4d1-     0.0000
      4d2-     0.0003
      5px      0.0018
      5pz      0.0019
      5py      0.0019
      6s       0.0015
      4f3+     0.0000
      4f2+     0.0000
      4f1+     0.0000
      4f0      0.0000
      4f1-     0.0000
      4f2-     0.0000
      4f3-     0.0000
      5d2+     0.0005
      5d1+     0.0003
      5d0      0.0002
      5d1-     0.0000
      5d2-     0.0003
      6px      0.0102
      6pz      0.0107
      6py      0.0107
      7s       0.0091
      5f3+     0.0000
      5f2+     0.0000
      5f1+     0.0000
      5f0      0.0000
      5f1-     0.0000
      5f2-     0.0000
      5f3-     0.0000
      6d2+     0.0004
      6d1+     0.0002
      6d0      0.0001
      6d1-     0.0000
      6d2-     0.0002
      7px      0.0066
      7pz      0.0068
      7py      0.0069
      5g4+     0.0000
      5g3+     0.0000
      5g2+     0.0000
      5g1+     0.0000
      5g0      0.0000
      5g1-     0.0000
      5g2-     0.0000
      5g3-     0.0000
      5g4-     0.0000
      6f3+     0.0000
      6f2+     0.0000
      6f1+     0.0000
      6f0      0.0000
      6f1-     0.0000
      6f2-     0.0000
      6f3-     0.0000
      6g4+     0.0000
      6g3+     0.0000
      6g2+     0.0000
      6g1+     0.0000
      6g0      0.0000
      6g1-     0.0000
      6g2-     0.0000
      6g3-     0.0000
      6g4-     0.0000
      6h5+     0.0000
      6h4+     0.0000
      6h3+     0.0000
      6h2+     0.0000
      6h1+     0.0000
      6h0      0.0000
      6h1-     0.0000
      6h2-     0.0000
      6h3-     0.0000
      6h4-     0.0000
      6h5-     0.0000
      7d2+     0.0002
      7d1+     0.0001
      7d0      0.0001
      7d1-     0.0000
      7d2-     0.0001
      7f3+     0.0000
      7f2+     0.0000
      7f1+     0.0000
      7f0      0.0000
      7f1-     0.0000
      7f2-     0.0000
      7f3-     0.0000
      7g4+     0.0000
      7g3+     0.0000
      7g2+     0.0000
      7g1+     0.0000
      7g0      0.0000
      7g1-     0.0000
      7g2-     0.0000
      7g3-     0.0000
      7g4-     0.0000
      7h5+     0.0000
      7h4+     0.0000
      7h3+     0.0000
      7h2+     0.0000
      7h1+     0.0000
      7h0      0.0000
      7h1-     0.0000
      7h2-     0.0000
      7h3-     0.0000
      7h4-     0.0000
      7h5-     0.0000
      8s       0.0060
      8px      0.0071
      8pz      0.0071
      8py      0.0071
      8d2+     0.0002
      8d1+     0.0001
      8d0      0.0001
      8d1-     0.0000
      8d2-     0.0001
      8f3+     0.0000
      8f2+     0.0000
      8f1+     0.0000
      8f0      0.0000
      8f1-     0.0000
      8f2-     0.0000
      8f3-     0.0000
      8g4+     0.0000
      8g3+     0.0000
      8g2+     0.0000
      8g1+     0.0000
      8g0      0.0000
      8g1-     0.0000
      8g2-     0.0000
      8g3-     0.0000
      8g4-     0.0000
      9s       0.0064
      9px      0.0042
      9pz      0.0040
      9py      0.0040
      9d2+     0.0001
      9d1+     0.0000
      9d0      0.0000
      9d1-     0.0000
      9d2-     0.0000
     10s       0.0018
     10px      0.0011
     10pz      0.0009
     10py      0.0009
     10d2+     0.0000
     10d1+     0.0000
     10d0      0.0000
     10d1-     0.0000
     10d2-     0.0000
      Total   18.0000

      N-E     23.0000

      Total electronic charge=   18.000000

      Total            charge=   23.000000
--

 Sorry, Molden does not know how to handle
 functions with angular momentum larger than g

++    Static properties:
      ------------------


      LoProp Charges per center


                   NB    
      Nuclear     41.0000
      Electronic -18.0000

      Total       23.0000
--


++    Molecular properties:
      ---------------------

      Charge (e):
                      =   23.0000
      Dipole Moment (Debye):
      Origin of the operator (Ang)=    0.0000    0.0000    0.0000
                   X= -1.4350E+00               Y= -1.9597E-13               Z=  5.0749E-01           Total=  1.5221E+00
      Center of Charge (Ang)
                     X=   -0.01298960               Y=   -0.00000000               Z=    0.00459380
      Quadrupole Moment (Debye*Ang):
      Origin of the operator (Ang)=   -0.0000   -0.0000    0.0046
                  XX= -7.2480E-01              XY=  2.3689E-15              XZ=  2.0836E-04              YY= -7.3751E-01
                  YZ= -1.4377E-15              ZZ= -7.3748E-01
      In traceless form (Debye*Ang)
                  XX=  1.2690E-02              XY=  3.5533E-15              XZ=  3.1254E-04              YY= -6.3735E-03
                  YZ= -2.1565E-15              ZZ= -6.3161E-03
--

 Sorry, Molden does not know how to handle
 functions with angular momentum larger than g
 ###############################################################################
 ###############################################################################
 ###                                                                         ###
 ###                                                                         ###
 ###    WARNING: RunFile label nBas                                          ###
 ###    was used       62 times                                              ###
 ###                                                                         ###
 ###                                                                         ###
 ###############################################################################
 ###############################################################################
Note: The following floating-point exceptions are signalling: IEEE_UNDERFLOW_FLAG IEEE_DENORMAL
--- Stop Module: scf at Tue Mar 25 16:53:05 2025 /rc=_RC_ALL_IS_WELL_ ---
*** files: niobium_so_cf.LprOrb niobium_so_cf.ScfOrb xmldump
    saved to directory /home4/s4752295/Internship/Initial_simulations/Point_charge_model/1_electron/Madelung_charges_9_active_space/Nb
--- Module scf spent 7 seconds ---

*** symbolic link created: INPORB -> niobium_so_cf.ScfOrb
--- Start Module: rasscf at Tue Mar 25 16:53:05 2025 ---

()()()()()()()()()()()()()()()()()()()()()()()()()()()()()()()()()()()()()()()()()()()()()()()()()()

                                              &RASSCF

                                   only a single process is used
                       available to each process: 4.1 GB of memory, 1 thread?
                                            pid: 1188035
()()()()()()()()()()()()()()()()()()()()()()()()()()()()()()()()()()()()()()()()()()()()()()()()()()


      Header of the ONEINT file:
      --------------------------
      
      Integrals generated by seward 4.2.0  , Tue Mar 25 16:52:48 2025


      OrdInt status: non-squared


      Cartesian coordinates in Angstrom:
      -----------------------------------------------------
      No.  Label        X            Y            Z        
      -----------------------------------------------------
       1   NB        -0.00000000  -0.00000000   0.00463220
      -----------------------------------------------------
      Nuclear repulsion energy =-1250.35300538

++    Wave function specifications:
      -----------------------------

      Number of closed shell electrons          18
      Number of electrons in active shells       1
      Max number of holes in RAS1 space          0
      Max nr of electrons in RAS3 space          0
      Number of inactive orbitals                9
      Number of active orbitals                  9
      Number of secondary orbitals             152
      Spin quantum number                      0.5
      State symmetry                             1
--

++    Orbital specifications:
      -----------------------

      Symmetry species                           1
                                                 a
      Frozen orbitals                            0
      Inactive orbitals                          9
      Active orbitals                            9
      RAS1 orbitals                              0
      RAS2 orbitals                              9
      RAS3 orbitals                              0
      Secondary orbitals                       152
      Deleted orbitals                           0
      Number of basis functions                170
--

++    CI expansion specifications:
      ----------------------------

      Number of CSFs                             9
      Number of determinants                     9
      Number of root(s) required                 9
      Root chosen for geometry opt.              9
      CI roots used                              1     2     3     4     5     6     7     8     9
      weights                                0.111 0.111 0.111 0.111 0.111 0.111 0.111 0.111 0.111
      highest root included in the CI            9
      max. size of the explicit Hamiltonian      9
--

++    Optimization specifications:
      ----------------------------

      RASSCF algorithm: Conventional
      Maximum number of macro iterations       200
      Maximum number of SX iterations          100
      Threshold for RASSCF energy            0.100E-07
      Threshold for max MO rotation          0.100E+00
      Threshold for max BLB element          0.100E-03
      Level shift parameter                  0.500E+00
      Make Quasi-Newton update
--

      The MO-coefficients are taken from the file:
      INPORB                                                                                                                          
      Title: SCF orbitals                                                                  

      Total molecular charge   22.00

      ************************************************************************************************************************
      *                                                                                                                      *
      *                                            Wave function control section                                             *
      *                                                                                                                      *
      ************************************************************************************************************************


                                         RASSCF iterations: Energy and convergence statistics
                                         ----------------------------------------------------

      Iter CI   SX   CI       RASSCF       Energy    max ROT     max BLB   max BLB  Level Ln srch  Step   QN   Walltime
          iter iter root      energy       change     param      element    value   shift minimum  type update hh:mm:ss
 Nr of preliminary CI iterations:   1
      Total energies have been shifted. Add                -4000.00 au
        1   1    5    0  -197.49164686    0.00E+00  -0.84E-02    7  22 1 -0.34E+00*  0.00   0.00    SX    NO    0:00:03
        2   1    4    0  -197.51127938   -0.20E-01* -0.16E-02    8 168 1  0.27E-01*  0.00   0.00    SX    NO    0:00:01
        3   1    4    0  -197.51137513   -0.96E-04*  0.96E-03    8 168 1 -0.22E-02*  0.00   0.00    SX    NO    0:00:01
        4   1    4    0  -197.51137962   -0.45E-05*  0.63E-03   11  32 1  0.58E-03*  0.00   0.00    SX    NO    0:00:01
        5   1    4    0  -197.51138047   -0.85E-06* -0.26E-03   12  22 1 -0.36E-03*  0.00   0.65    QN   YES    0:00:01
        6   1    3    0  -197.51138084   -0.37E-06* -0.18E-04   12  22 1  0.18E-04   0.00   0.99    QN   YES    0:00:01
        7   1    3    0  -197.51138084   -0.25E-08   0.11E-04   18  23 1 -0.89E-05   0.00   0.84    QN   YES    0:00:01
      Convergence after  7 iterations
        8   1    3    0  -197.51138084   -0.10E-08   0.11E-04   18  23 1 -0.75E-05   0.00   0.84    QN   YES    0:00:01

      ************************************************************************************************************************
                                                      Wave function printout:
                       occupation of active orbitals, and spin coupling of open shells (u,d: Spin up or down)
      ************************************************************************************************************************

      Note: transformation to natural orbitals
      has been made, which may change the order of the CSFs.

      printout of CI-coefficients larger than  0.05 for root  1
      energy=   -4203.084104
      conf/sym  111111111     Coeff  Weight
             1  u00000000   0.64361 0.41424
             2  0u0000000   0.05624 0.00316
[...]
         3   15       8.58415543E-05  4.38695567E-15  4.21360984E+08  2.45149486E-12  4.21360984E+08
         3   17       6.13240303E-04  3.72827371E-13  3.02350509E+09  2.13960086E-12  3.02350509E+09
         4    6       2.94743999E-04  8.92563921E+03  1.06776904E-13  1.75653395E+06  1.76545959E+06
         4    8       2.89243403E-04  3.72844760E-16  1.74949382E+06  1.09935429E-13  1.74949382E+06
         4   12       8.12929184E-05  7.56957250E+05  4.03917564E-13  3.36697153E+08  3.37454110E+08
         4   14       1.13311787E-03  4.93621722E+09  9.55423808E-14  6.23661876E+08  5.55987909E+09
         4   16       8.58415543E-05  4.38695567E-15  4.21360984E+08  2.45149486E-12  4.21360984E+08
         4   18       6.13240303E-04  3.72827371E-13  3.02350509E+09  2.13960086E-12  3.02350509E+09
         5    9       2.28318930E-04  4.91964964E+01  4.59729491E-14  1.03155206E+06  1.03160126E+06
         5   11       3.57577765E-03  7.83506952E+06  5.86653913E-10  1.37292679E+10  1.37371029E+10
         5   13       5.79329754E-04  2.32633383E+09  2.99946455E-11  3.21102752E+08  2.64743658E+09
         5   15       9.19945352E-05  4.25262135E-11  4.20566112E+08  2.60390862E-11  4.20566112E+08
         5   17       2.04452232E-05  4.44178800E-10  9.38981218E+07  5.50061997E-12  9.38981218E+07
         6   10       2.28318930E-04  4.91964964E+01  4.59729491E-14  1.03155206E+06  1.03160126E+06
         6   12       3.57577765E-03  7.83506952E+06  5.86653913E-10  1.37292679E+10  1.37371029E+10
         6   14       5.79329754E-04  2.32633383E+09  2.99946455E-11  3.21102752E+08  2.64743658E+09
         6   16       9.19945352E-05  4.25262135E-11  4.20566112E+08  2.60390862E-11  4.20566112E+08
         6   18       2.04452232E-05  4.44178800E-10  9.38981218E+07  5.50061997E-12  9.38981218E+07
         7    9       2.29442646E-04  5.82690231E-18  1.02504026E+06  4.49649010E-14  1.02504026E+06
         7   11       3.45776280E-03  6.14159878E-16  1.32785958E+10  6.09467377E-10  1.32785958E+10
         7   13       9.84010910E-05  1.19734433E-10  4.49516763E+08  1.98826792E-11  4.49516763E+08
         7   15       4.39228844E-04  1.59039478E+09  2.35336515E-11  4.16891771E+08  2.00728655E+09
         7   17       2.04036320E-03  9.28626772E+09  6.03369684E-12  8.11343761E+07  9.36740210E+09
         8   10       2.29442646E-04  5.82690231E-18  1.02504026E+06  4.49649010E-14  1.02504026E+06
         8   12       3.45776280E-03  6.14159878E-16  1.32785958E+10  6.09467377E-10  1.32785958E+10
         8   14       9.84010910E-05  1.19734433E-10  4.49516763E+08  1.98826792E-11  4.49516763E+08
         8   16       4.39228844E-04  1.59039478E+09  2.35336515E-11  4.16891771E+08  2.00728655E+09
         8   18       2.04036320E-03  9.28626772E+09  6.03369684E-12  8.11343761E+07  9.36740210E+09
         9   11       3.75107758E-03  1.34380009E+10  7.13489754E-14  1.10055515E+06  1.34391015E+10
         9   13       2.25769348E-04  3.82615596E+06  2.12669948E-12  9.64037888E+08  9.67864044E+08
         9   15       1.49952962E-04  2.51768386E-13  6.43105968E+08  4.62860539E-12  6.43105968E+08
         9   17       1.09322375E-03  4.56214556E-12  4.71079235E+09  3.01208557E-12  4.71079235E+09
        10   12       3.75107758E-03  1.34380009E+10  7.13489754E-14  1.10055515E+06  1.34391015E+10
        10   14       2.25769348E-04  3.82615596E+06  2.12669948E-12  9.64037888E+08  9.67864044E+08
        10   16       1.49952962E-04  2.51768386E-13  6.43105968E+08  4.62860539E-12  6.43105968E+08
        10   18       1.09322375E-03  4.56214556E-12  4.71079235E+09  3.01208557E-12  4.71079235E+09
        11   13       2.41640487E-04  3.47932708E+04  2.87864645E-14  7.59444936E+06  7.62924263E+06
        11   15       2.28193108E-04  2.29013274E-15  7.23914820E+06  1.25370899E-16  7.23914820E+06
        11   17       1.63562033E-04  1.02525391E-14  5.47889850E+06  2.44449364E-14  5.47889850E+06
        12   14       2.41640487E-04  3.47932708E+04  2.87864645E-14  7.59444936E+06  7.62924263E+06
        12   16       2.28193108E-04  2.29013274E-15  7.23914820E+06  1.25370899E-16  7.23914820E+06
        12   18       1.63562033E-04  1.02525391E-14  5.47889850E+06  2.44449364E-14  5.47889850E+06
        13   15       1.61997617E-03  1.36729946E-19  2.92091631E+02  8.25000059E-19  2.92091631E+02
        13   17       1.64483840E-02  2.11968754E-17  4.68296587E+05  7.04426990E-16  4.68296587E+05
        14   16       1.61997617E-03  1.36729946E-19  2.92091631E+02  8.25000059E-19  2.92091631E+02
        14   18       1.64483840E-02  2.11968754E-17  4.68296587E+05  7.04426990E-16  4.68296587E+05
        15   17       2.89613528E-02  2.49942128E+05  7.28040415E-17  4.48593039E+05  6.98535168E+05
        16   18       2.89613528E-02  2.49942128E+05  7.28040415E-17  4.48593039E+05  6.98535168E+05
     -----------------------------------------------------------------------------------------------
--

++ Velocity transition strengths (SO states):
   ------------------------------------------
    for osc. strength at least    1.0000000000000001E-005

      From   To        Osc. strength     Einstein coefficients Ax, Ay, Az (sec-1)    Total A (sec-1)
     -----------------------------------------------------------------------------------------------
         1    3       9.94202254E-04  7.45425527E-21  5.12138197E+01  2.04411057E-18  5.12138197E+01
         1    5       4.86624926E-02  5.90554816E-16  2.93192020E+08  1.79156006E-11  2.93192020E+08
         1    7       4.81321133E-02  2.13235768E+02  1.83279578E-11  2.92830421E+08  2.92830634E+08
         1    9       2.57022900E-04  3.90349699E-19  5.39190988E+06  1.98420731E-14  5.39190988E+06
         1   11       5.26846543E-05  4.32730009E-15  2.18748158E+08  2.96595244E-13  2.18748158E+08
         1   15       5.64157641E-05  2.76782515E+08  2.45214894E-15  1.97035676E+05  2.76979551E+08
         2    4       9.94202254E-04  7.45425527E-21  5.12138197E+01  2.04411057E-18  5.12138197E+01
         2    6       4.86624926E-02  5.90554816E-16  2.93192020E+08  1.79156006E-11  2.93192020E+08
         2    8       4.81321133E-02  2.13235768E+02  1.83279578E-11  2.92830421E+08  2.92830634E+08
         2   10       2.57022900E-04  3.90349699E-19  5.39190988E+06  1.98420731E-14  5.39190988E+06
         2   12       5.26846543E-05  4.32730009E-15  2.18748158E+08  2.96595244E-13  2.18748158E+08
         2   16       5.64157641E-05  2.76782515E+08  2.45214894E-15  1.97035676E+05  2.76979551E+08
         3    5       4.84143136E-02  1.02180290E+04  1.81011555E-11  2.89983172E+08  2.89993390E+08
         3    7       4.85665634E-02  1.92155367E-17  2.93756736E+08  1.80810681E-11  2.93756736E+08
         3    9       2.47335389E-04  2.34905806E+03  5.88104305E-16  5.17008441E+06  5.17243347E+06
         3   11       3.60239849E-05  1.33508013E+05  6.40159074E-14  1.49405766E+08  1.49539274E+08
         3   13       5.32252723E-05  2.61058313E+08  5.67978105E-16  1.03491401E+05  2.61161805E+08
         4    6       4.84143136E-02  1.02180290E+04  1.81011555E-11  2.89983172E+08  2.89993390E+08
         4    8       4.85665634E-02  1.92155367E-17  2.93756736E+08  1.80810681E-11  2.93756736E+08
         4   10       2.47335389E-04  2.34905806E+03  5.88104305E-16  5.17008441E+06  5.17243347E+06
         4   12       3.60239849E-05  1.33508013E+05  6.40159074E-14  1.49405766E+08  1.49539274E+08
         4   14       5.32252723E-05  2.61058313E+08  5.67978105E-16  1.03491401E+05  2.61161805E+08
         5    9       2.11456850E-01  1.32735210E+04  4.22945022E-11  9.55404269E+08  9.55417542E+08
         5   11       3.99926938E-03  5.53290990E+06  6.69565157E-10  1.53585561E+10  1.53640890E+10
         5   13       4.67964185E-05  6.26348193E+07  1.01518335E-11  1.51217448E+08  2.13852267E+08
         5   15       3.54867487E-05  1.42117474E-12  1.62233287E+08  9.26586384E-12  1.62233287E+08
         6   10       2.11456850E-01  1.32735210E+04  4.22945022E-11  9.55404269E+08  9.55417542E+08
         6   12       3.99926938E-03  5.53290990E+06  6.69565157E-10  1.53585561E+10  1.53640890E+10
         6   14       4.67964185E-05  6.26348193E+07  1.01518335E-11  1.51217448E+08  2.13852267E+08
         6   16       3.54867487E-05  1.42117474E-12  1.62233287E+08  9.26586384E-12  1.62233287E+08
         7    9       2.11821378E-01  5.82630779E-16  9.46320131E+08  4.19951201E-11  9.46320131E+08
         7   11       3.94264610E-03  1.32427308E-13  1.51407106E+10  6.78049668E-10  1.51407106E+10
         7   13       3.38167473E-05  3.27126452E-12  1.54482511E+08  1.00517978E-11  1.54482511E+08
         7   15       4.52410260E-05  4.53494502E+07  1.04093085E-11  1.61403864E+08  2.06753314E+08
         7   17       4.98904769E-05  2.10371949E+08  1.33991768E-12  1.86783401E+07  2.29050290E+08
         8   10       2.11821378E-01  5.82630779E-16  9.46320131E+08  4.19951201E-11  9.46320131E+08
         8   12       3.94264610E-03  1.32427308E-13  1.51407106E+10  6.78049668E-10  1.51407106E+10
         8   14       3.38167473E-05  3.27126452E-12  1.54482511E+08  1.00517978E-11  1.54482511E+08
         8   16       4.52410260E-05  4.53494502E+07  1.04093085E-11  1.61403864E+08  2.06753314E+08
         8   18       4.98904769E-05  2.10371949E+08  1.33991768E-12  1.86783401E+07  2.29050290E+08
         9   11       2.57567525E-03  9.22693383E+09  5.65939249E-14  1.04949813E+06  9.22798333E+09
         9   17       1.62709391E-05  2.47843186E-15  7.01130776E+07  1.57287290E-15  7.01130776E+07
        10   12       2.57567525E-03  9.22693383E+09  5.65939249E-14  1.04949813E+06  9.22798333E+09
        10   18       1.62709391E-05  2.47843186E-15  7.01130776E+07  1.57287290E-15  7.01130776E+07
        11   13       1.51740692E-05  2.45848240E+01  4.35279169E-16  4.79063417E+05  4.79088002E+05
        11   15       1.48229880E-05  1.87957466E-18  4.70242861E+05  7.34201119E-16  4.70242861E+05
        12   14       1.51740692E-05  2.45848240E+01  4.35279169E-16  4.79063417E+05  4.79088002E+05
        12   16       1.48229880E-05  1.87957466E-18  4.70242861E+05  7.34201119E-16  4.70242861E+05
        13   15       6.44530856E-03  1.56257602E-20  1.16213267E+03  1.34836514E-16  1.16213267E+03
        13   17       1.20122746E-01  4.49458956E-19  3.41998750E+06  4.82914855E-15  3.41998750E+06
        14   16       6.44530856E-03  1.56257602E-20  1.16213267E+03  1.34836514E-16  1.16213267E+03
        14   18       1.20122746E-01  4.49458956E-19  3.41998750E+06  4.82914855E-15  3.41998750E+06
        15   17       1.24006126E-01  2.99864377E+02  4.55761971E-15  2.99068408E+06  2.99098394E+06
        16   18       1.24006126E-01  2.99864377E+02  4.55761971E-15  2.99068408E+06  2.99098394E+06
     -----------------------------------------------------------------------------------------------
--

++ Length and velocity gauge comparison (SO states):

 --------------------------------------------------
 A comparison between the dipole oscillator strengths in 
 length and velocity gauge will be performed

 All dipole oscillator differences above the tolerance of   0.10000000000000001       will be printed 

 Due to basis set deficiency these oscillator may be problematic 

 The tolerance is defined as ABS(1-O_l/O_v) 
 O_l : dipole oscillator strength in length gauge
 O_p : dipole oscillator strength in velocity gauge
 --------------------------------------------------

  Problematic transitions have been found

      From   To       Difference (%) Osc. st. (len.) Osc. st. (vel.)
     ---------------------------------------------------------------
         1    3      --------------- below threshold  9.94202254E-04
         1    5            99.400765  2.91602810E-04  4.86624926E-02
         1    7            99.391230  2.93013832E-04  4.81321133E-02
         1    9      --------------- below threshold  2.57022900E-04
         1   11           101.194822  1.05998797E-04  5.26846543E-05
         1   13      ---------------  1.21151728E-04 below threshold
         1   15          1946.733470  1.15468033E-03  5.64157641E-05
         1   17      ---------------  6.88277684E-04 below threshold
         2    4      --------------- below threshold  9.94202254E-04
         2    6            99.400765  2.91602810E-04  4.86624926E-02
         2    8            99.391230  2.93013832E-04  4.81321133E-02
         2   10      --------------- below threshold  2.57022900E-04
         2   12           101.194822  1.05998797E-04  5.26846543E-05
         2   14      ---------------  1.21151728E-04 below threshold
         2   16          1946.733470  1.15468033E-03  5.64157641E-05
         2   18      ---------------  6.88277684E-04 below threshold
         3    5            99.391205  2.94743999E-04  4.84143136E-02
         3    7            99.404439  2.89243403E-04  4.85665634E-02
         3    9      --------------- below threshold  2.47335389E-04
         3   11           125.663315  8.12929184E-05  3.60239849E-05
         3   13          2028.909481  1.13311787E-03  5.32252723E-05
         3   15      ---------------  8.58415543E-05 below threshold
         3   17      ---------------  6.13240303E-04 below threshold
         4    6            99.391205  2.94743999E-04  4.84143136E-02
         4    8            99.404439  2.89243403E-04  4.85665634E-02
         4   10      --------------- below threshold  2.47335389E-04
         4   12           125.663315  8.12929184E-05  3.60239849E-05
         4   14          2028.909481  1.13311787E-03  5.32252723E-05
         4   16      ---------------  8.58415543E-05 below threshold
         4   18      ---------------  6.13240303E-04 below threshold
         5    9            99.892026  2.28318930E-04  2.11456850E-01
         5   11            10.589228  3.57577765E-03  3.99926938E-03
         5   13          1137.978828  5.79329754E-04  4.67964185E-05
         5   15           159.236302  9.19945352E-05  3.54867487E-05
         5   17      ---------------  2.04452232E-05 below threshold
         6   10            99.892026  2.28318930E-04  2.11456850E-01
         6   12            10.589228  3.57577765E-03  3.99926938E-03
         6   14          1137.978828  5.79329754E-04  4.67964185E-05
         6   16           159.236302  9.19945352E-05  3.54867487E-05
         6   18      ---------------  2.04452232E-05 below threshold
         7    9            99.891681  2.29442646E-04  2.11821378E-01
         7   11            12.298423  3.45776280E-03  3.94264610E-03
         7   13           190.983312  9.84010910E-05  3.38167473E-05
         7   15           870.864020  4.39228844E-04  4.52410260E-05
         7   17          3989.684710  2.04036320E-03  4.98904769E-05
         8   10            99.891681  2.29442646E-04  2.11821378E-01
         8   12            12.298423  3.45776280E-03  3.94264610E-03
         8   14           190.983312  9.84010910E-05  3.38167473E-05
         8   16           870.864020  4.39228844E-04  4.52410260E-05
         8   18          3989.684710  2.04036320E-03  4.98904769E-05
         9   11            45.634725  3.75107758E-03  2.57567525E-03
         9   13      ---------------  2.25769348E-04 below threshold
         9   15      ---------------  1.49952962E-04 below threshold
         9   17          6618.873116  1.09322375E-03  1.62709391E-05
        10   12            45.634725  3.75107758E-03  2.57567525E-03
        10   14      ---------------  2.25769348E-04 below threshold
        10   16      ---------------  1.49952962E-04 below threshold
        10   18          6618.873116  1.09322375E-03  1.62709391E-05
        11   13          1492.456737  2.41640487E-04  1.51740692E-05
        11   15          1439.454176  2.28193108E-04  1.48229880E-05
        11   17      ---------------  1.63562033E-04 below threshold
        12   14          1492.456737  2.41640487E-04  1.51740692E-05
        12   16          1439.454176  2.28193108E-04  1.48229880E-05
        12   18      ---------------  1.63562033E-04 below threshold
        13   15            74.865809  1.61997617E-03  6.44530856E-03
        13   17            86.307020  1.64483840E-02  1.20122746E-01
        14   16            74.865809  1.61997617E-03  6.44530856E-03
        14   18            86.307020  1.64483840E-02  1.20122746E-01
        15   17            76.645224  2.89613528E-02  1.24006126E-01
        16   18            76.645224  2.89613528E-02  1.24006126E-01
     ---------------------------------------------------------------

 Number of problematic transitions =                    70

--

 Electric-dipole - electric-octupole not included
++ I/O STATISTICS
 
  I. General I/O information
  - - - - - - - - - - - - - - - - - - - - - - - - - - - - - - - - - - - - - - - - - - -
  Unit  Name          Flsize      Write/Read            MBytes           Write/Read
                      (MBytes)       Calls              In/Out           Time, sec.
  - - - - - - - - - - - - - - - - - - - - - - - - - - - - - - - - - - - - - - - - - - -
   1  SCRATCH           0.00 .       9/      45 .      0.0/      0.0 .       0/       0
   2  ANNI              0.00 .       0/       0 .      0.0/      0.0 .       0/       0
   3  RUNFILE          14.69 .     322/   10733 .      2.3/     77.8 .       0/       0
   4  ONEINT            5.14 .       0/   22237 .      0.0/   3722.5 .       0/       0
   5  JOBIPH            5.91 .       0/      92 .      0.0/      0.7 .       0/       0
   6  ORDINT          403.03 .       1/    3225 .      0.0/    806.0 .       0/       0
  - - - - - - - - - - - - - - - - - - - - - - - - - - - - - - - - - - - - - - - - - - -
   *  TOTAL           428.78 .     332/   36332 .      2.3/   4607.0 .       0/       0
  - - - - - - - - - - - - - - - - - - - - - - - - - - - - - - - - - - - - - - - - - - -
 
  II. I/O Access Patterns
  - - - - - - - - - - - - - - - - - - - -
  Unit  Name               % of random
                         Write/Read calls
  - - - - - - - - - - - - - - - - - - - -
   1  SCRATCH             88.9/ 100.0
   2  ANNI                 0.0/   0.0
   3  RUNFILE             28.6/  10.8
   4  ONEINT               0.0/  17.4
   5  JOBIPH               0.0/  76.1
   6  ORDINT             100.0/   0.1
  - - - - - - - - - - - - - - - - - - - -
--
--- Stop Module: rassi at Tue Mar 25 16:53:35 2025 /rc=_RC_ALL_IS_WELL_ ---
*** files: xmldump
    saved to directory /home4/s4752295/Internship/Initial_simulations/Point_charge_model/1_electron/Madelung_charges_9_active_space/Nb
--- Module rassi spent 3 seconds ---

.##################.
.# Happy landing! #.
.##################.

    Timing: Wall=46.24 User=35.85 System=7.22

###############################################################################
Hbrk Cluster
Job 15899248 for user s4752295
Finished at: Tue Mar 25 16:53:39 CET 2025

Job details:
============

Job ID                         : 15899248
Name                           : Nb_no_SO
User                           : s4752295
Partition                      : regularmedium
Nodes                          : node70
Number of Nodes                : 1
Cores                          : 1
Number of Tasks                : 1
State                          : COMPLETED  
Submit                         : 2025-03-25T16:51:17
Start                          : 2025-03-25T16:52:42
End                            : 2025-03-25T16:53:35
Reserved walltime              : 15:00:00
Used walltime                  : 00:00:53
Used CPU time                  : 00:00:44 (Efficiency: 83.72%)
% User (Computation)           : 83.15%
% System (I/O)                 : 16.85%
Total memory reserved          : 25000M
Maximum memory used            : 1.62G

Acknowledgements:
=================

Please see this page for information about acknowledging Hbrk in your publications:

https://wiki.hpc.rug.nl/habrok/introduction/scientific_output

################################################################################
