   This run of MOLCAS is using the pymolcas driver

                             OPE
                             OPE          NMOL  CASOP  ENMOLC A   SO
                 OPE        NMOLC        AS  OP EN  MO LC     AS  OP
                OPENM       OL CA        SO  PE NM  OL CA     SOP EN
                OP EN      MO   LC       AS  OP ENMOL  CASO   PENMOL
                OP  EN     MO   LC       AS  OP EN     MO     LC ASO
               OP   E  NMOL  C  AS       OP  EN MO     LC     AS  OP
               OP  E   NMO   LC AS        OPEN  MO     LCASOP EN   M
               O  PEN   MO  LCA  SO
            OPE   NMO   L   CAS    OP
        OPENMOL  CASOP     ENMOL   CASOPE
     OPENMOLCA   SOPENMOLCASOPEN   MOLCASOPE
    OPENMOLCAS   OP           EN   MOL    CAS
    OPENMOLCAS       OP  ENM        O     LCA
    OPENMOLCAS    OPEN  MOLCASO     P  E  NMO
    OPENMOLCAS     OP               E  N  MOL
    OPENMOLCA   SO           PENM   O  L  CAS    OPEN    MO    LCAS
    OPENMOLCA   SOP           ENM   O  L  CAS   OP  EN  MOLC  AS   O
    OPENMOLCA   SOPE           NM      O  LCA   S      OP  EN MO
    OPENMOLC                AS         O  PEN   M      OL  CA  SOPE
    OPENMO        LCASOPE  NMOL        C  ASO   P      ENMOLC     AS
    OPE     NMO      LCA  SO     P     E   NM   OL  CA SO  PE N   MO
          OPENMOLCA            SOPE   NMO        LCAS  O    P  ENMO
     OPENMOLCASOPENMOLCASOPENMOLCASOPENMOLCA
        OPENMOLCASOPENMOLCASOPENMOLCASOPE
            OPENMOLCASOPENMOLCASOPENM
               OPENMOLCASOPENMOLCA        version: o91e1abe7de707b ?
                   OPENMOLCASO
                       OPE                tag:

 OpenMolcas is free software; you can redistribute it and/or modify it
 under the terms of the GNU Lesser General Public License version 2.1.
 OpenMolcas is distributed in the hope that it will be useful, but it
 is provided "as is" and without any express or implied warranties.
 For more details see the full text of the license in the file
 LICENSE or in <http://www.gnu.org/licenses/>.

                 Copyright (C) The OpenMolcas Authors
           For the author list and the recommended citation,
                   consult the file CONTRIBUTORS.md

           *************************************************
           * pymolcas version py2.10                       *
           *   build 3068ae8b88c9345ec6cfef6fef7f1169      *
           *   (after the EMIL interpreter by V. Veryazov) *
           *************************************************

configuration info
------------------
Host name: login1 (Linux)
C Compiler ID: GNU
C flags: -std=gnu99
Fortran Compiler ID: GNU
Fortran flags: -fno-aggressive-loop-optimizations -cpp -fdefault-integer-8 -fmax-stack-var-size=1048576
Definitions: _MOLCAS_;_I8_;_LINUX_;_MKL_
Parallel: OFF (GA=OFF)


   -----------------------------------------------------------------------------------------------------------------------------------
  |
  |           Project: tantalum_so_cf
  |    Submitted from: /home4/s4752295/Internship/Initial_simulations/Point_charge_model/1_electron/Madelung_charges_9_active_space/Ta
  |      Scratch area: /tmp/tantalum_so_cf
  |   Save outputs to: /home4/s4752295/Internship/Initial_simulations/Point_charge_model/1_electron/Madelung_charges_9_active_space/Ta
  |            Molcas: /home4/s4752295/Internship/Molcas/recomp_try/OpenMolcas-master/build
  |
  | Scratch area is empty
  |
  |    MOLCAS_DRIVER = /home4/s4752295/Internship/Molcas/bin/pymolcas
  |    MOLCAS_NPROCS = 1
  |    MOLCAS_SOURCE = /home4/s4752295/Internship/Molcas/recomp_try/OpenMolcas-master
  | MOLCAS_STRUCTURE = 0
  |
   -----------------------------------------------------------------------------------------------------------------------------------

++ ---------   Input file   ---------

&SEWARD
AMFi

CLIG
$R

Basis Set
Ta.ANO-rcc.Roos.24s21p15d11f4g2h.11s10p9d8f4g2h.
Spherical d
Ta            -1.0658140267135469e-14   -3.5527134223784897e-15 0.008753588724385739
End of Basis

Xfield

414
-8.00440216,-3.08,1.778238      -0.625931
-8.00440216,-0.0,-3.556478      -0.625931
-8.00440216,3.08,1.778238       -0.625931
-7.99069214,0.0,0.0     1.892092
5.31835938,-3.08,-1.778238      2.515516
5.31835938,0.0,3.556478 2.515516
5.31835938,3.08,-1.778238       2.515516
7.12597656,-6.16,0.0    0.004632
7.12597656,-3.08,-5.334716      0.004632
7.12597656,-3.08,5.334716       0.004632
7.12597656,3.08,-5.334716       0.004632
7.12597656,3.08,5.334716        0.004632
7.12597656,6.16,0.0     0.004632
8.25830078,-3.08,1.778238       -2.519484
8.25830078,-0.0,-3.556478       -2.519484
8.25830078,3.08,1.778238        -2.519484
-5.86621094,-0.0,-0.0   -3.142907
-9.95019532,-6.16,-3.556478     -0.625931
-9.95019532,0.0,7.112954        -0.625931
-9.95019532,6.16,-3.556478      -0.625931
-13.21875,-6.16,0.0     1.892092
-13.21875,-3.08,-5.334716       1.892092
-13.21875,-3.08,5.334716        1.892092
-13.21875,3.08,-5.334716        1.892092
-13.21875,3.08,5.334716 1.892092
-13.21875,6.16,0.0      1.892092
50.34375,-6.16,3.556478 2.515516
50.34375,-0.0,-7.112954 2.515516
50.34375,6.16,3.556478  2.515516
7.27734376,-6.16,-3.556478      -2.519484
7.27734376,0.0,7.112954 -2.519484
7.27734376,6.16,-3.556478       -2.519484
-6.46484376,-6.16,-0.0  -3.142907
-6.46484376,-3.08,-5.334716     -3.142907
-6.46484376,-3.08,5.334716      -3.142907
-6.46484376,3.08,-5.334716      -3.142907
-6.46484376,3.08,5.334716       -3.142907
-6.46484376,6.16,-0.0   -3.142907
-19.046875,-6.16,7.112954       -0.625931
-19.046875,6.16,7.112954        -0.625931
-19.046875,-9.24,1.778238       -0.625931
-19.046875,9.24,1.778238        -0.625931
-19.046875,-3.08,-8.891194      -0.625931
-19.046875,3.08,-8.891194       -0.625931
12.015625,-3.08,-1.778238       4.409069
12.015625,3.08,-1.778238        4.409069
12.015625,0.0,3.556478  4.409069
-350.5,-0.0,-0.0        -5.030367
-350.5,0.0,0.0  5.039632
27.03515624,-6.16,-7.112954     2.515516
27.03515624,6.16,-7.112954      2.515516
27.03515624,-9.24,-1.778238     2.515516
27.03515624,9.24,-1.778238      2.515516
27.03515624,-3.08,8.891194      2.515516
27.03515624,3.08,8.891194       2.515516
38.078125,-9.24,-5.334716       0.004632
38.078125,-9.24,5.334716        0.004632
38.078125,9.24,-5.334716        0.004632
38.078125,9.24,5.334716 0.004632
38.078125,-0.0,-10.669432       0.004632
38.078125,0.0,10.669432 0.004632
96.15625,-6.16,7.112954 -2.519484
96.15625,6.16,7.112954  -2.519484
96.15625,-9.24,1.778238 -2.519484
96.15625,9.24,1.778238  -2.519484
96.15625,-3.08,-8.891194        -2.519484
96.15625,3.08,-8.891194 -2.519484
-291.75,-9.24,-5.334716 1.892092
-291.75,-9.24,5.334716  1.892092
-291.75,9.24,-5.334716  1.892092
-291.75,9.24,5.334716   1.892092
-291.75,-0.0,-10.669432 1.892092
-291.75,0.0,10.669432   1.892092
-235.5,-6.16,3.556478   4.409069
-235.5,-0.0,-7.112954   4.409069
-235.5,6.16,3.556478    4.409069
-178.0,-6.16,-0.0       -5.030367
-178.0,-3.08,-5.334716  -5.030367
-178.0,-3.08,5.334716   -5.030367
-178.0,3.08,-5.334716   -5.030367
-178.0,-6.16,0.0        5.039632
-178.0,6.16,-0.0        -5.030367
-178.0,3.08,5.334716    -5.030367
-178.0,-3.08,-5.334716  5.039632
-178.0,-3.08,5.334716   5.039632
-178.0,3.08,-5.334716   5.039632
-178.0,6.16,0.0 5.039632
-178.0,3.08,5.334716    5.039632
-93.25,-3.08,-1.778238  -5.660931
-93.25,0.0,3.556478     -5.660931
-93.25,3.08,-1.778238   -5.660931
1.765625,-12.319998,0.0 0.004632
1.765625,-6.16,-10.669432       0.004632
1.765625,-6.16,10.669432        0.004632
1.765625,6.16,-10.669432        0.004632
1.765625,12.319998,0.0  0.004632
1.765625,6.16,10.669432 0.004632
135.875,-9.24,5.334716  -3.142907
135.875,-9.24,-5.334716 -3.142907
135.875,9.24,-5.334716  -3.142907
135.875,9.24,5.334716   -3.142907
135.875,-0.0,-10.669432 -3.142907
135.875,0.0,10.669432   -3.142907
172.75,-12.319998,-3.556478     -0.625931
172.75,-9.24,-8.891194  -0.625931
172.75,-3.08,12.44767   -0.625931
172.75,9.24,-8.891194   -0.625931
172.75,12.319998,-3.556478      -0.625931
172.75,3.08,12.44767    -0.625931
2.39453124,-12.319998,0.0       1.892092
2.39453124,-6.16,-10.669432     1.892092
2.39453124,-6.16,10.669432      1.892092
2.39453124,6.16,-10.669432      1.892092
2.39453124,12.319998,0.0        1.892092
2.39453124,6.16,10.669432       1.892092
67.6875,-6.16,-7.112954 4.409069
67.6875,6.16,-7.112954  4.409069
67.6875,-9.24,-1.778238 4.409069
67.6875,9.24,-1.778238  4.409069
67.6875,-3.08,8.891194  4.409069
67.6875,3.08,8.891194   4.409069
324.8125,-6.16,3.556478 -5.660931
324.8125,-0.0,-7.112954 -5.660931
324.8125,6.16,3.556478  -5.660931
0.6875,-12.319998,3.556478      2.515516
0.6875,-3.08,-12.44767  2.515516
0.6875,-9.24,8.891194   2.515516
0.6875,3.08,-12.44767   2.515516
0.6875,12.319998,3.556478       2.515516
0.6875,9.24,8.891194    2.515516
-188.375,-12.319998,-3.556478   -2.519484
-188.375,-9.24,-8.891194        -2.519484
-188.375,-3.08,12.44767 -2.519484
-188.375,9.24,-8.891194 -2.519484
-188.375,3.08,12.44767  -2.519484
-188.375,12.319998,-3.556478    -2.519484
-44.140625,-12.319998,-0.0      -3.142907
-44.140625,-6.16,-10.669432     -3.142907
-44.140625,-6.16,10.669432      -3.142907
-44.140625,6.16,-10.669432      -3.142907
-44.140625,6.16,10.669432       -3.142907
-44.140625,12.319998,-0.0       -3.142907
1213.0,0.0,0.0  6.927092
646.5,-12.319998,7.112954       -0.625931
646.5,12.319998,7.112954        -0.625931
646.5,-0.0,-14.22591    -0.625931
-10.84375,-9.24,5.334716        -5.030367
-10.84375,-9.24,-5.334716       -5.030367
-10.84375,-9.24,5.334716        5.039632
-10.84375,-9.24,-5.334716       5.039632
-10.84375,9.24,-5.334716        -5.030367
-10.84375,9.24,5.334716 -5.030367
-10.84375,9.24,-5.334716        5.039632
-10.84375,9.24,5.334716 5.039632
-10.84375,-0.0,-10.669432       -5.030367
-10.84375,0.0,10.669432 -5.030367
-10.84375,-0.0,-10.669432       5.039632
-10.84375,0.0,10.669432 5.039632
183.625,-6.16,-7.112954 -5.660931
183.625,6.16,-7.112954  -5.660931
183.625,-9.24,-1.778238 -5.660931
183.625,9.24,-1.778238  -5.660931
183.625,-3.08,8.891194  -5.660931
183.625,3.08,8.891194   -5.660931
601.0,-12.319998,-7.112954      2.515516
601.0,12.319998,-7.112954       2.515516
601.0,0.0,14.22591      2.515516
-1034.5,-12.319998,7.112954     -2.519484
-1034.5,12.319998,7.112954      -2.519484
-1034.5,-0.0,-14.22591  -2.519484
107.125,-6.16,0.0       6.927092
107.125,-3.08,-5.334716 6.927092
107.125,-3.08,5.334716  6.927092
107.125,3.08,-5.334716  6.927092
107.125,3.08,5.334716   6.927092
107.125,6.16,0.0        6.927092
-110.5,-3.08,1.778238   7.550516
-110.5,0.0,-3.556478    7.550516
-110.5,3.08,1.778238    7.550516
31.0625,-3.08,-1.778238 -7.554483
31.0625,3.08,-1.778238  -7.554483
31.0625,-0.0,3.556478   -7.554483
-249.75,-15.399998,1.778238     -0.625931
-249.75,-9.24,12.44767  -0.625931
-249.75,-6.16,-14.22591 -0.625931
-249.75,6.16,-14.22591  -0.625931
-249.75,15.399998,1.778238      -0.625931
-249.75,9.24,12.44767   -0.625931
-134.875,-12.319998,3.556478    4.409069
-134.875,-9.24,8.891194 4.409069
-134.875,-3.08,-12.44767        4.409069
-134.875,3.08,-12.44767 4.409069
-134.875,9.24,8.891194  4.409069
-134.875,12.319998,3.556478     4.409069
98.3125,-12.319998,-0.0 -5.030367
98.3125,-6.16,-10.669432        -5.030367
98.3125,-6.16,10.669432 -5.030367
98.3125,-12.319998,0.0  5.039632
98.3125,-6.16,-10.669432        5.039632
98.3125,6.16,-10.669432 -5.030367
98.3125,6.16,10.669432  -5.030367
98.3125,12.319998,-0.0  -5.030367
98.3125,-6.16,10.669432 5.039632
98.3125,6.16,-10.669432 5.039632
98.3125,12.319998,0.0   5.039632
98.3125,6.16,10.669432  5.039632
361.5,-15.399998,-1.778238      2.515516
361.5,-9.24,-12.44767   2.515516
361.5,-6.16,14.22591    2.515516
361.5,9.24,-12.44767    2.515516
361.5,15.399998,-1.778238       2.515516
361.5,6.16,14.22591     2.515516
-46.6875,-15.399998,-5.334716   0.004632
-46.6875,-15.399998,5.334716    0.004632
-46.6875,-12.319998,-10.669432  0.004632
-46.6875,-12.319998,10.669432   0.004632
-46.6875,-3.08,-16.004148       0.004632
-46.6875,3.08,-16.004148        0.004632
-46.6875,-3.08,16.004148        0.004632
-46.6875,12.319998,-10.669432   0.004632
-46.6875,3.08,16.004148 0.004632
-46.6875,15.399998,-5.334716    0.004632
-46.6875,15.399998,5.334716     0.004632
-46.6875,12.319998,10.669432    0.004632
-286.25,-15.399998,1.778238     -2.519484
-286.25,-9.24,12.44767  -2.519484
-286.25,-6.16,-14.22591 -2.519484
-286.25,6.16,-14.22591  -2.519484
-286.25,15.399998,1.778238      -2.519484
-286.25,9.24,12.44767   -2.519484
6064.0,-0.0,-0.0        -8.177907
-232.0,-6.16,-3.556478  7.550516
-232.0,0.0,7.112954     7.550516
-232.0,6.16,-3.556478   7.550516
-1207.0,-6.16,3.556478  -7.554483
-1207.0,-0.0,-7.112954  -7.554483
-1207.0,6.16,3.556478   -7.554483
97.8125,-15.399998,5.334716     1.892092
97.8125,-15.399998,-5.334716    1.892092
97.8125,-12.319998,-10.669432   1.892092
97.8125,-12.319998,10.669432    1.892092
97.8125,-3.08,-16.004148        1.892092
97.8125,3.08,-16.004148 1.892092
97.8125,-3.08,16.004148 1.892092
97.8125,12.319998,-10.669432    1.892092
97.8125,3.08,16.004148  1.892092
97.8125,15.399998,-5.334716     1.892092
97.8125,15.399998,5.334716      1.892092
97.8125,12.319998,10.669432     1.892092
-1010.0,-12.319998,-7.112954    4.409069
-1010.0,12.319998,-7.112954     4.409069
-1010.0,0.0,14.22591    4.409069
51.640625,-12.319998,3.556478   -5.660931
51.640625,-3.08,-12.44767       -5.660931
51.640625,-9.24,8.891194        -5.660931
51.640625,3.08,-12.44767        -5.660931
51.640625,9.24,8.891194 -5.660931
51.640625,12.319998,3.556478    -5.660931
-116.375,-12.319998,-10.669432  -3.142907
-116.375,-15.399998,5.334716    -3.142907
-116.375,-15.399998,-5.334716   -3.142907
-116.375,-12.319998,10.669432   -3.142907
-116.375,-3.08,-16.004148       -3.142907
-116.375,3.08,-16.004148        -3.142907
-116.375,-3.08,16.004148        -3.142907
-116.375,15.399998,-5.334716    -3.142907
-116.375,12.319998,-10.669432   -3.142907
-116.375,3.08,16.004148 -3.142907
-116.375,15.399998,5.334716     -3.142907
-116.375,12.319998,10.669432    -3.142907
130.8125,-9.24,-5.334716        6.927092
130.8125,-9.24,5.334716 6.927092
130.8125,9.24,-5.334716 6.927092
130.8125,9.24,5.334716  6.927092
130.8125,-0.0,-10.669432        6.927092
130.8125,0.0,10.669432  6.927092
-166.5,-6.16,-0.0       -8.177907
-166.5,-3.08,5.334716   -8.177907
-166.5,-3.08,-5.334716  -8.177907
-166.5,3.08,-5.334716   -8.177907
-166.5,6.16,-0.0        -8.177907
-166.5,3.08,5.334716    -8.177907
-181.8125,-6.16,7.112954        7.550516
-181.8125,6.16,7.112954 7.550516
-181.8125,-9.24,1.778238        7.550516
-181.8125,9.24,1.778238 7.550516
-181.8125,-3.08,-8.891194       7.550516
-181.8125,3.08,-8.891194        7.550516
-91.375,-6.16,-7.112954 -7.554483
-91.375,6.16,-7.112954  -7.554483
-91.375,-9.24,-1.778238 -7.554483
-91.375,9.24,-1.778238  -7.554483
-91.375,-3.08,8.891194  -7.554483
-91.375,3.08,8.891194   -7.554483
-1000.5,0.0,17.782386   -0.625931
-1000.5,-15.399998,-8.891194    -0.625931
-1000.5,15.399998,-8.891194     -0.625931
-539.5,-15.399998,-1.778238     4.409069
-539.5,-9.24,-12.44767  4.409069
-539.5,-6.16,14.22591   4.409069
-539.5,9.24,-12.44767   4.409069
-539.5,15.399998,-1.778238      4.409069
-539.5,6.16,14.22591    4.409069
620.75,-12.319998,-7.112954     -5.660931
620.75,12.319998,-7.112954      -5.660931
620.75,0.0,14.22591     -5.660931
1174.0,-0.0,-17.782386  2.515516
1174.0,-15.399998,8.891194      2.515516
1174.0,15.399998,8.891194       2.515516
-187.75,-18.479998,-0.0 0.004632
-187.75,9.24,-16.004148 0.004632
-187.75,-9.24,16.004148 0.004632
-187.75,18.479998,-0.0  0.004632
-187.75,-9.24,-16.004148        0.004632
-187.75,9.24,16.004148  0.004632
-771.5,0.0,17.782386    -2.519484
-771.5,-15.399998,-8.891194     -2.519484
-771.5,15.399998,-8.891194      -2.519484
456.0,-12.319998,0.0    6.927092
456.0,-6.16,-10.669432  6.927092
456.0,-6.16,10.669432   6.927092
456.0,6.16,-10.669432   6.927092
456.0,12.319998,0.0     6.927092
456.0,6.16,10.669432    6.927092
423.75,-18.479998,-3.556478     -0.625931
423.75,-6.16,17.782386  -0.625931
423.75,-12.319998,-14.22591     -0.625931
423.75,12.319998,-14.22591      -0.625931
423.75,6.16,17.782386   -0.625931
423.75,18.479998,-3.556478      -0.625931
223.875,-18.479998,0.0  1.892092
223.875,-9.24,-16.004148        1.892092
223.875,-9.24,16.004148 1.892092
223.875,9.24,-16.004148 1.892092
223.875,18.479998,0.0   1.892092
223.875,9.24,16.004148  1.892092
-8.640625,-15.399998,5.334716   -5.030367
-8.640625,-15.399998,-5.334716  -5.030367
-8.640625,-12.319998,-10.669432 -5.030367
-8.640625,-12.319998,10.669432  -5.030367
-8.640625,-15.399998,5.334716   5.039632
-8.640625,3.08,-16.004148       -5.030367
-8.640625,-3.08,-16.004148      -5.030367
-8.640625,-15.399998,-5.334716  5.039632
-8.640625,-12.319998,-10.669432 5.039632
-8.640625,-3.08,16.004148       -5.030367
-8.640625,3.08,-16.004148       5.039632
-8.640625,-12.319998,10.669432  5.039632
-8.640625,-3.08,-16.004148      5.039632
-8.640625,12.319998,-10.669432  -5.030367
-8.640625,3.08,16.004148        -5.030367
-8.640625,15.399998,-5.334716   -5.030367
-8.640625,15.399998,5.334716    -5.030367
-8.640625,12.319998,10.669432   -5.030367
-8.640625,-3.08,16.004148       5.039632
-8.640625,12.319998,-10.669432  5.039632
-8.640625,15.399998,-5.334716   5.039632
-8.640625,3.08,16.004148        5.039632
-8.640625,15.399998,5.334716    5.039632
-8.640625,12.319998,10.669432   5.039632
-1.375,-15.399998,-1.778238     -5.660931
-1.375,-9.24,-12.44767  -5.660931
-1.375,-6.16,14.22591   -5.660931
-1.375,9.24,-12.44767   -5.660931
-1.375,6.16,14.22591    -5.660931
-1.375,15.399998,-1.778238      -5.660931
232.0,-3.08,1.778238    9.444068
232.0,0.0,-3.556478     9.444068
232.0,3.08,1.778238     9.444068
102.625,-18.479998,3.556478     2.515516
102.625,-6.16,-17.782386        2.515516
102.625,6.16,-17.782386 2.515516
102.625,-12.319998,14.22591     2.515516
102.625,18.479998,3.556478      2.515516
102.625,12.319998,14.22591      2.515516
313.75,-18.479998,-3.556478     -2.519484
313.75,-6.16,17.782386  -2.519484
313.75,-12.319998,-14.22591     -2.519484
313.75,12.319998,-14.22591      -2.519484
313.75,18.479998,-3.556478      -2.519484
313.75,6.16,17.782386   -2.519484
439.25,-18.479998,-0.0  -3.142907
439.25,-9.24,-16.004148 -3.142907
439.25,-9.24,16.004148  -3.142907
439.25,9.24,-16.004148  -3.142907
439.25,18.479998,-0.0   -3.142907
439.25,9.24,16.004148   -3.142907
17.29101562,-9.24,-5.334716     -8.177907
17.29101562,-9.24,5.334716      -8.177907
17.29101562,9.24,5.334716       -8.177907
17.29101562,9.24,-5.334716      -8.177907
17.29101562,-0.0,-10.669432     -8.177907
17.29101562,0.0,10.669432       -8.177907
503.75,-9.24,-8.891194  7.550516
503.75,-12.319998,-3.556478     7.550516
503.75,-3.08,12.44767   7.550516
503.75,9.24,-8.891194   7.550516
503.75,3.08,12.44767    7.550516
503.75,12.319998,-3.556478      7.550516
-696.0,-9.24,8.891194   -7.554483
-696.0,-12.319998,3.556478      -7.554483
-696.0,-3.08,-12.44767  -7.554483
-696.0,3.08,-12.44767   -7.554483
-696.0,12.319998,3.556478       -7.554483
-696.0,9.24,8.891194    -7.554483
142.53125,-15.399998,12.44767   -0.625931
142.53125,-18.479998,7.112954   -0.625931
142.53125,-3.08,-19.560626      -0.625931
142.53125,3.08,-19.560626       -0.625931
142.53125,18.479998,7.112954    -0.625931
142.53125,15.399998,12.44767    -0.625931
-967.5,-0.0,-17.782386  4.409069
-967.5,-15.399998,8.891194      4.409069
-967.5,15.399998,8.891194       4.409069

End of input

&SCF
Occupied
9
Iterations
   50  100
End of Input

&RASSCF
LumOrb
Symmetry
1
Spin
2
Nactel
1 0 0
CIRoot
9 9 1
inactive
9
ras2
9
End of Input

>>> COPY tantalum_so_cf.JobIph $SLURM_SUBMIT_DIR/tantalum_so_cf.doublet.JobIph

>>> COPY $SLURM_SUBMIT_DIR/tantalum_so_cf.doublet.JobIph ./JOB002

&RASSI
NROFJobIph
1 All
SpinOrbit
End of Input

EOF

-- ----------------------------------

--- Start Module: seward at Thu Mar 27 00:10:25 2025 ---

()()()()()()()()()()()()()()()()()()()()()()()()()()()()()()()()()()()()()()()()()()()()()()()()()()

                                              &SEWARD

                                   only a single process is used
                       available to each process: 4.1 GB of memory, 1 thread?
                                            pid: 3975770
()()()()()()()()()()()()()()()()()()()()()()()()()()()()()()()()()()()()()()()()()()()()()()()()()()

 The speed of LIGHT in this CALCULATION =   137.03599917700001     
               SEWARD will generate:
                  Multipole Moment integrals up to order  2
                  Kinetic Energy integrals
                  Nuclear Attraction integrals (point charge)
                  One-Electron Hamiltonian integrals
                  Velocity integrals
                  Relativistic Douglas-Kroll-Hess integrals:
                    - Parametrization         : EXP
                    - DKH order of Hamiltonian: 2
                    - DKH order of Properties : 0
                         - multipole moment operators
                         - electric potential operators
                         - contact operators
                  External field from   414 point(s) added to the one-electron Hamiltonian
                  Orbital angular momentum around (-0.0000 -0.0000  0.0088 )
                  Velocity quadrupole around (-0.0000 -0.0000  0.0088 )
                  Atomic mean-field integrals
                  Two-Electron Repulsion integrals

                   Integrals are discarded if absolute value <: 0.10E-13
                   Integral cutoff threshold is set to       <: 0.10E-15

++    Symmetry information:
      ---------------------

                    Character Table for C1 

                             E  
                    a        1  x, y, xy, Rz, z, xz, Ry, yz, Rx, I
--


++    Basis set information:
      ----------------------


      Basis set label: TA.ANO-RCC.ROOS.24S21P15D11F4G2H.11S10P9D8F4G2H......

      Electronic valence basis set:
      ------------------
      Associated Effective Charge  73.000000 au
      Associated Actual Charge     73.000000 au
      Nuclear Model: Point charge

      Shell  nPrim  nBasis  Cartesian Spherical Contaminant
         s      24      11        X                  
         p      21      10        X                  
         d      15       9                 X         
         f      11       8                 X         
         g       4       4                 X         
         h       2       2                 X         
--


++    Molecular structure info:
      -------------------------

                    ************************************************ 
                    **** Cartesian Coordinates / Bohr, Angstrom **** 
                    ************************************************ 

     Center  Label                x              y              z                     x              y              z
        1      TA              -0.000000      -0.000000       0.008754             -0.000000      -0.000000       0.004632
--


++    Operator info:
      --------------


  Net charge from external field:   -39.268449999999902     
--


            Nuclear Potential Energy              0.00000000 au

                    Nuclear-External Field Potential Energy    -333.93740806 au
                    External Field Potential Energy             802.81845069 au 


            Total Nuclear Potential Energy           -333.93740806 au


      Basis set specifications :
      Symmetry species         a  
      Basis functions          200

 Sorry, Molden does not know how to handle
 functions with angular momentum larger than g
Note: The following floating-point exceptions are signalling: IEEE_UNDERFLOW_FLAG IEEE_DENORMAL
--- Stop Module: seward at Thu Mar 27 00:10:44 2025 /rc=_RC_ALL_IS_WELL_ ---
*** files: tantalum_so_cf.GssOrb xmldump
    saved to directory /home4/s4752295/Internship/Initial_simulations/Point_charge_model/1_electron/Madelung_charges_9_active_space/Ta
--- Module seward spent 18 seconds ---

*** symbolic link created: INPORB -> tantalum_so_cf.GssOrb
--- Start Module: scf at Thu Mar 27 00:10:44 2025 ---

()()()()()()()()()()()()()()()()()()()()()()()()()()()()()()()()()()()()()()()()()()()()()()()()()()

                                                &SCF

                                   only a single process is used
                       available to each process: 4.1 GB of memory, 1 thread?
                                            pid: 3975776
()()()()()()()()()()()()()()()()()()()()()()()()()()()()()()()()()()()()()()()()()()()()()()()()()()

++    Input section:
      --------------

      Header of the integral files:
      
       Integrals generated by seward 4.2.0  , Thu Mar 27 00:10:26 2025


      Cartesian coordinates in Angstrom:
      -----------------------------------------------------
      No.  Label        X            Y            Z        
      -----------------------------------------------------
       1   TA        -0.00000000  -0.00000000   0.00463220
      -----------------------------------------------------
      Nuclear repulsion energy = -333.93740806
--

++    Orbital specifications:
      -----------------------

      Symmetry species               1
                                     a
      Frozen orbitals                0
      Occupied orbitals              9
      Secondary orbitals           191
      Deleted orbitals               0
      Total number of orbitals     200
      Number of basis functions    200
--

      Molecular charge                          55.000

++    Optimization specifications:
      ----------------------------

      SCF Algorithm: Conventional
      Minimized density differences are used
      Number of density matrices in core                5
      Maximum number of NDDO SCF iterations            50
      Maximum number of HF SCF iterations             100
      Threshold for SCF energy change            0.10E-08
      Threshold for density matrix               0.10E-03
      Threshold for Fock matrix                  0.15E-03
      Threshold for linear dependence            0.10E-08
      Threshold at which DIIS is turned on       0.15E+00
      Threshold at which QNR/C2DIIS is turned on 0.75E-01
      Threshold for Norm(delta) (QNR/C2DIIS)     0.20E-04
      DIIS extrapolation of the SCF procedure
      All orbitals punched on: SCFORB
--

      Detected guessorb starting orbitals                                             


++ Convergence information
                                   SCF        iterations: Energy and convergence statistics

Iter     Tot. SCF        One-elec.       Two-elec.     Energy      Max Dij or  Max Fij      DNorm      TNorm      AccCon     Time
         Energy          Energy          Energy        Change      Delta Norm                                                in Sec.

 The total and one-electron energies are shifted by a value of     12000. a.u.

   1  -776.932073317 -1689.664840568  1246.670175314   0.00E+00    0.23E+00*   0.88E+01*    0.60E+01   0.64E+03   None         1.
   2  -787.783816729 -1744.776769093  1290.930360429  -0.11E+02*   0.16E-02*   0.19E+00*    0.90E+00   0.65E+03   EDIIS        1.
   3  -787.786685250 -1744.271505731  1290.422228545  -0.29E-02*   0.65E-04    0.36E-02*    0.94E-02   0.65E+03   EDIIS        1.
   4  -787.786685953 -1744.281286130  1290.432008241  -0.70E-06*   0.17E-05    0.39E-04     0.78E-04   0.65E+03   c2DIIS       1.
   5  -787.786685953 -1744.281193335  1290.431915446  -0.26E-09    0.79E-07    0.21E-05     0.43E-05   0.65E+03   QNRc2DIIS    1.

       Convergence after  5 Macro Iterations
--

 *****************************************************************************************************************************
 *                                                                                                                           *
 *                                             SCF/KS-DFT Program, Final results                                             *
 *                                                                                                                           *
 *                                                                                                                           *
 *                                                                                                                           *
 *                                                       Final Results                                                       *
 *                                                                                                                           *
 *****************************************************************************************************************************

::    Total SCF energy                             -12787.7866859532
      One-electron energy                          -13744.2811933351
      Two-electron energy                            1290.4319154461
      Nuclear repulsion energy                       -333.9374080643
      Kinetic energy (interpolated)                 18441.9700235105
      Virial theorem                                    0.6934067602
      Total spin, S(S+1)                                0.0000000000
      Total spin, S                                     0.0000000000
      Max non-diagonal density matrix element           0.0000000961
      Max non-diagonal Fock matrix element              0.0000000000


      All orbitals with orbital energies smaller than  E(LUMO)+0.5 are printed

++    Molecular orbitals:
      -------------------

      Title: SCF orbitals

      Molecular orbitals for symmetry species 1: a  

          Some orbital energies have been scaled by powers of 10, the power is written right after the orbital index


          Orbital            1 (1)     2         3         4         5         6         7         8         9        10    
          Energy         -262.8321 -569.9921 -518.6037 -518.6037 -518.6036 -218.8703 -202.9051 -202.9051 -202.9047 -183.5394
          Occ. No.          2.0000    2.0000    2.0000    2.0000    2.0000    2.0000    2.0000    2.0000    2.0000    0.0000

        1 TA     1s         1.0000    0.0001    0.0000    0.0000   -0.0000   -0.0000   -0.0000   -0.0000    0.0000    0.0000
        2 TA     2s        -0.0001    0.9999    0.0000    0.0000   -0.0001    0.0124    0.0000    0.0000   -0.0000    0.0000
        3 TA     3s         0.0000   -0.0119   -0.0000   -0.0000    0.0000    0.9951    0.0000    0.0000   -0.0014    0.0000
        4 TA     4s        -0.0000    0.0034    0.0000    0.0000   -0.0000   -0.0806   -0.0000   -0.0000    0.0002   -0.0000
        5 TA     5s         0.0000   -0.0012   -0.0000   -0.0000    0.0000    0.0234    0.0000    0.0000   -0.0001    0.0000
        6 TA     6s        -0.0000    0.0003    0.0000    0.0000   -0.0000   -0.0063   -0.0000   -0.0000    0.0000    0.0000
        7 TA     7s         0.0000   -0.0006   -0.0000   -0.0000    0.0000    0.0107    0.0000    0.0000   -0.0000    0.0000
        8 TA     8s        -0.0000    0.0013    0.0000    0.0000   -0.0000   -0.0229   -0.0000   -0.0000    0.0001    0.0000
        9 TA     9s         0.0000   -0.0016   -0.0000   -0.0000    0.0000    0.0269    0.0000    0.0000   -0.0001    0.0000
       10 TA    10s        -0.0000    0.0012    0.0000    0.0000   -0.0000   -0.0179   -0.0000   -0.0000    0.0000    0.0000
       11 TA    11s         0.0000   -0.0024   -0.0000   -0.0000    0.0000    0.0308    0.0000    0.0000   -0.0001    0.0000
       12 TA     2px        0.0000    0.0001   -0.0014   -0.0000    0.9999    0.0000   -0.0000   -0.0000    0.0143   -0.0000
       13 TA     3px       -0.0000    0.0000    0.0000    0.0000   -0.0138    0.0014   -0.0013   -0.0000    0.9931   -0.0000
       14 TA     4px        0.0000   -0.0000   -0.0000   -0.0000    0.0038   -0.0001    0.0001    0.0000   -0.0916    0.0000
       15 TA     5px       -0.0000    0.0000    0.0000    0.0000   -0.0012    0.0000   -0.0000   -0.0000    0.0250   -0.0000
       16 TA     6px        0.0000   -0.0000   -0.0000   -0.0000    0.0005   -0.0000    0.0000    0.0000   -0.0107    0.0000
       17 TA     7px       -0.0000    0.0000    0.0000    0.0000   -0.0017    0.0000   -0.0000   -0.0000    0.0330   -0.0000
       18 TA     8px        0.0000   -0.0000   -0.0000   -0.0000    0.0017   -0.0000    0.0000    0.0000   -0.0304    0.0000
       19 TA     9px       -0.0000    0.0000    0.0000    0.0000   -0.0017    0.0000   -0.0000   -0.0000    0.0283   -0.0000
       20 TA    10px        0.0000   -0.0000   -0.0000   -0.0000    0.0019   -0.0000    0.0000    0.0000   -0.0281    0.0000
       21 TA    11px       -0.0000    0.0000    0.0000    0.0000   -0.0027    0.0000   -0.0000   -0.0000    0.0299   -0.0000
       22 TA     2py       -0.0000   -0.0000   -0.0010    0.9999   -0.0000    0.0000   -0.0000    0.0143   -0.0000    0.0000
       23 TA     3py        0.0000    0.0000    0.0000   -0.0138    0.0000    0.0000   -0.0001    0.9931   -0.0000    0.0000
       24 TA     4py       -0.0000   -0.0000   -0.0000    0.0038   -0.0000   -0.0000    0.0000   -0.0916    0.0000   -0.0000
       25 TA     5py        0.0000    0.0000    0.0000   -0.0012    0.0000    0.0000   -0.0000    0.0250   -0.0000    0.0000
       26 TA     6py       -0.0000   -0.0000   -0.0000    0.0005   -0.0000   -0.0000    0.0000   -0.0107    0.0000   -0.0000
       27 TA     7py        0.0000    0.0000    0.0000   -0.0017    0.0000    0.0000   -0.0000    0.0330   -0.0000    0.0000
       28 TA     8py       -0.0000   -0.0000   -0.0000    0.0017   -0.0000   -0.0000    0.0000   -0.0304    0.0000   -0.0000
       29 TA     9py        0.0000    0.0000    0.0000   -0.0017    0.0000    0.0000   -0.0000    0.0283   -0.0000    0.0000
       30 TA    10py       -0.0000   -0.0000   -0.0000    0.0019   -0.0000   -0.0000    0.0000   -0.0281    0.0000   -0.0000
       31 TA    11py        0.0000    0.0000    0.0000   -0.0027    0.0000    0.0000   -0.0000    0.0299   -0.0000    0.0000
       32 TA     2pz        0.0000    0.0000    0.9999    0.0010    0.0014    0.0000    0.0143    0.0000    0.0000   -0.0000
       33 TA     3pz       -0.0000    0.0000   -0.0138   -0.0000   -0.0000    0.0000    0.9931    0.0001    0.0013   -0.0000
       34 TA     4pz        0.0000   -0.0000    0.0038    0.0000    0.0000   -0.0000   -0.0916   -0.0000   -0.0001    0.0000
       35 TA     5pz       -0.0000    0.0000   -0.0012   -0.0000   -0.0000    0.0000    0.0250    0.0000    0.0000   -0.0000
       36 TA     6pz        0.0000   -0.0000    0.0005    0.0000    0.0000   -0.0000   -0.0107   -0.0000   -0.0000    0.0000
       37 TA     7pz       -0.0000    0.0000   -0.0017   -0.0000   -0.0000    0.0000    0.0330    0.0000    0.0000   -0.0000
       38 TA     8pz        0.0000   -0.0000    0.0017    0.0000    0.0000   -0.0000   -0.0304   -0.0000   -0.0000    0.0000
       39 TA     9pz       -0.0000    0.0000   -0.0017   -0.0000   -0.0000    0.0000    0.0283    0.0000    0.0000   -0.0000
       40 TA    10pz        0.0000   -0.0000    0.0019    0.0000    0.0000   -0.0000   -0.0281   -0.0000   -0.0000    0.0000
       41 TA    11pz       -0.0000    0.0000   -0.0027   -0.0000   -0.0000    0.0000    0.0299    0.0000    0.0000   -0.0000
       42 TA     3d2-      -0.0000   -0.0000   -0.0000    0.0000   -0.0000    0.0000   -0.0000    0.0010   -0.0000   -0.0017
       43 TA     4d2-       0.0000    0.0000    0.0000   -0.0000    0.0000   -0.0000    0.0000   -0.0000    0.0000    0.0002
       44 TA     5d2-      -0.0000   -0.0000   -0.0000    0.0000   -0.0000    0.0000   -0.0000    0.0000   -0.0000   -0.0000
       45 TA     6d2-       0.0000    0.0000    0.0000   -0.0000    0.0000   -0.0000    0.0000   -0.0000    0.0000    0.0000
       46 TA     7d2-      -0.0000   -0.0000   -0.0000    0.0000   -0.0000    0.0000   -0.0000    0.0000   -0.0000   -0.0001
       47 TA     8d2-       0.0000    0.0000    0.0000   -0.0000    0.0000   -0.0000    0.0000   -0.0000    0.0000    0.0001
       48 TA     9d2-      -0.0000   -0.0000   -0.0000    0.0000   -0.0000    0.0000   -0.0000    0.0000   -0.0000   -0.0001
       49 TA    10d2-       0.0000    0.0000    0.0000   -0.0000    0.0000   -0.0000    0.0000   -0.0000    0.0000    0.0001
       50 TA    11d2-      -0.0000   -0.0000   -0.0000    0.0000   -0.0000    0.0000    0.0000   -0.0000    0.0000   -0.0001
       51 TA     3d1-      -0.0000   -0.0000   -0.0000    0.0000   -0.0000   -0.0000   -0.0000    0.0000    0.0000    0.9916
       52 TA     4d1-       0.0000    0.0000    0.0000   -0.0000    0.0000    0.0000    0.0000   -0.0000   -0.0000   -0.0962
       53 TA     5d1-      -0.0000   -0.0000   -0.0000    0.0000   -0.0000   -0.0000   -0.0000    0.0000    0.0000    0.0177
       54 TA     6d1-       0.0000    0.0000    0.0000   -0.0000    0.0000    0.0000   -0.0000    0.0000   -0.0000   -0.0276
       55 TA     7d1-      -0.0000   -0.0000    0.0000   -0.0000    0.0000   -0.0000   -0.0000    0.0000    0.0000    0.0322
       56 TA     8d1-       0.0000    0.0000    0.0000   -0.0000    0.0000    0.0000   -0.0000    0.0000   -0.0000   -0.0415
       57 TA     9d1-      -0.0000   -0.0000    0.0000   -0.0000    0.0000   -0.0000   -0.0000    0.0000    0.0000    0.0342
       58 TA    10d1-       0.0000    0.0000    0.0000   -0.0000    0.0000    0.0000   -0.0000    0.0000   -0.0000   -0.0406
       59 TA    11d1-      -0.0000   -0.0000   -0.0000    0.0000   -0.0000   -0.0000   -0.0000    0.0000   -0.0000    0.0297
       60 TA     3d0        0.0000    0.0000    0.0000    0.0000   -0.0000    0.0000    0.0000    0.0000   -0.0006   -0.0002
       61 TA     4d0       -0.0000   -0.0000   -0.0000   -0.0000    0.0000    0.0000   -0.0000   -0.0000    0.0000    0.0000
       62 TA     5d0        0.0000    0.0000    0.0000    0.0000   -0.0000   -0.0000    0.0000    0.0000   -0.0000   -0.0000
       63 TA     6d0       -0.0000   -0.0000   -0.0000   -0.0000    0.0000    0.0000   -0.0000   -0.0000    0.0000    0.0000
       64 TA     7d0        0.0000    0.0000    0.0000    0.0000   -0.0000   -0.0000   -0.0000   -0.0000   -0.0000   -0.0000
       65 TA     8d0       -0.0000   -0.0000   -0.0000   -0.0000    0.0000    0.0000   -0.0000   -0.0000    0.0000    0.0000
       66 TA     9d0        0.0000    0.0000    0.0000    0.0000   -0.0000   -0.0000   -0.0000   -0.0000   -0.0000   -0.0000
       67 TA    10d0       -0.0000   -0.0000   -0.0000   -0.0000    0.0000    0.0000   -0.0000   -0.0000    0.0000    0.0000
       68 TA    11d0        0.0000    0.0000    0.0000    0.0000   -0.0000   -0.0000   -0.0000   -0.0000    0.0000   -0.0000
       69 TA     3d1+      -0.0000   -0.0000    0.0000    0.0000    0.0000   -0.0000    0.0010    0.0000    0.0000    0.0000
       70 TA     4d1+       0.0000    0.0000   -0.0000   -0.0000   -0.0000   -0.0000   -0.0000   -0.0000   -0.0000   -0.0000
       71 TA     5d1+      -0.0000   -0.0000    0.0000    0.0000    0.0000    0.0000    0.0000    0.0000    0.0000    0.0000
       72 TA     6d1+       0.0000    0.0000   -0.0000   -0.0000   -0.0000   -0.0000   -0.0000   -0.0000   -0.0000   -0.0000
       73 TA     7d1+      -0.0000   -0.0000    0.0000    0.0000    0.0000    0.0000    0.0000    0.0000    0.0000    0.0000
       74 TA     8d1+       0.0000    0.0000   -0.0000   -0.0000   -0.0000   -0.0000   -0.0000   -0.0000   -0.0000   -0.0000
       75 TA     9d1+      -0.0000   -0.0000    0.0000    0.0000    0.0000    0.0000    0.0000    0.0000    0.0000    0.0000
       76 TA    10d1+       0.0000    0.0000   -0.0000   -0.0000   -0.0000   -0.0000   -0.0000   -0.0000   -0.0000   -0.0000
       77 TA    11d1+      -0.0000   -0.0000    0.0000    0.0000    0.0000    0.0000   -0.0000   -0.0000   -0.0000    0.0000
       78 TA     3d2+      -0.0000   -0.0000   -0.0000   -0.0000    0.0000   -0.0000   -0.0000   -0.0000    0.0010   -0.0001
       79 TA     4d2+       0.0000    0.0000    0.0000    0.0000   -0.0000   -0.0000    0.0000    0.0000   -0.0000    0.0000
       80 TA     5d2+      -0.0000   -0.0000   -0.0000   -0.0000    0.0000    0.0000   -0.0000   -0.0000    0.0000   -0.0000
       81 TA     6d2+       0.0000    0.0000    0.0000    0.0000   -0.0000   -0.0000    0.0000    0.0000   -0.0000    0.0000
       82 TA     7d2+      -0.0000   -0.0000   -0.0000   -0.0000    0.0000    0.0000   -0.0000   -0.0000    0.0000   -0.0000
       83 TA     8d2+       0.0000    0.0000    0.0000    0.0000   -0.0000   -0.0000   -0.0000   -0.0000   -0.0000    0.0000
       84 TA     9d2+      -0.0000   -0.0000   -0.0000   -0.0000    0.0000    0.0000   -0.0000   -0.0000    0.0000   -0.0000
       85 TA    10d2+       0.0000    0.0000    0.0000    0.0000   -0.0000   -0.0000   -0.0000   -0.0000   -0.0000    0.0000
       86 TA    11d2+      -0.0000   -0.0000   -0.0000   -0.0000    0.0000    0.0000    0.0000    0.0000   -0.0000   -0.0000
       87 TA     4f3-       0.0000   -0.0000    0.0000   -0.0000    0.0000   -0.0000    0.0000   -0.0000    0.0000   -0.0000
       88 TA     5f3-      -0.0000    0.0000   -0.0000    0.0000   -0.0000    0.0000   -0.0000    0.0000   -0.0000    0.0000
       89 TA     6f3-       0.0000   -0.0000    0.0000   -0.0000    0.0000   -0.0000    0.0000   -0.0000    0.0000   -0.0000
       90 TA     7f3-      -0.0000    0.0000   -0.0000    0.0000   -0.0000    0.0000   -0.0000    0.0000   -0.0000    0.0000
       91 TA     8f3-       0.0000   -0.0000    0.0000   -0.0000    0.0000   -0.0000    0.0000   -0.0000    0.0000   -0.0000
       92 TA     9f3-      -0.0000    0.0000   -0.0000    0.0000   -0.0000    0.0000   -0.0000    0.0000   -0.0000    0.0000
       93 TA    10f3-       0.0000   -0.0000    0.0000   -0.0000    0.0000   -0.0000    0.0000   -0.0000    0.0000   -0.0000
       94 TA    11f3-      -0.0000    0.0000   -0.0000    0.0000   -0.0000    0.0000   -0.0000    0.0000   -0.0000    0.0000
       95 TA     4f2-      -0.0000   -0.0000    0.0000   -0.0000    0.0000    0.0000    0.0000   -0.0000   -0.0000    0.0001
       96 TA     5f2-       0.0000    0.0000    0.0000   -0.0000   -0.0000   -0.0000   -0.0000    0.0000    0.0000   -0.0001
       97 TA     6f2-      -0.0000   -0.0000    0.0000   -0.0000    0.0000    0.0000   -0.0000    0.0000   -0.0000    0.0001
       98 TA     7f2-       0.0000    0.0000    0.0000   -0.0000    0.0000   -0.0000   -0.0000    0.0000    0.0000   -0.0001
       99 TA     8f2-      -0.0000   -0.0000    0.0000   -0.0000    0.0000    0.0000   -0.0000    0.0000   -0.0000    0.0000
      100 TA     9f2-       0.0000    0.0000    0.0000   -0.0000    0.0000   -0.0000   -0.0000    0.0000    0.0000   -0.0000
      101 TA    10f2-      -0.0000   -0.0000    0.0000   -0.0000    0.0000    0.0000   -0.0000    0.0000   -0.0000    0.0000
      102 TA    11f2-       0.0000    0.0000    0.0000   -0.0000    0.0000    0.0000   -0.0000    0.0000   -0.0000   -0.0000
      103 TA     4f1-      -0.0000    0.0000   -0.0000    0.0000   -0.0000   -0.0000   -0.0000    0.0000    0.0000    0.0000
      104 TA     5f1-      -0.0000   -0.0000    0.0000   -0.0000    0.0000    0.0000    0.0000   -0.0000   -0.0000   -0.0000
      105 TA     6f1-       0.0000   -0.0000   -0.0000    0.0000   -0.0000   -0.0000   -0.0000    0.0000    0.0000    0.0000
      106 TA     7f1-      -0.0000    0.0000    0.0000   -0.0000    0.0000    0.0000    0.0000   -0.0000   -0.0000   -0.0000
      107 TA     8f1-       0.0000   -0.0000   -0.0000    0.0000   -0.0000   -0.0000   -0.0000    0.0000    0.0000    0.0000
      108 TA     9f1-      -0.0000    0.0000    0.0000   -0.0000    0.0000    0.0000    0.0000   -0.0000   -0.0000   -0.0000
      109 TA    10f1-      -0.0000   -0.0000   -0.0000    0.0000   -0.0000    0.0000   -0.0000    0.0000    0.0000    0.0000
      110 TA    11f1-       0.0000   -0.0000    0.0000   -0.0000    0.0000   -0.0000    0.0000   -0.0000   -0.0000   -0.0000
      111 TA     4f0       -0.0000    0.0000    0.0000    0.0000    0.0000    0.0000    0.0000    0.0000    0.0000   -0.0000
      112 TA     5f0       -0.0000    0.0000   -0.0000   -0.0000   -0.0000   -0.0000   -0.0000   -0.0000   -0.0000    0.0000
      113 TA     6f0       -0.0000    0.0000    0.0000    0.0000    0.0000   -0.0000    0.0000    0.0000   -0.0000   -0.0000
      114 TA     7f0       -0.0000    0.0000   -0.0000   -0.0000    0.0000   -0.0000   -0.0000   -0.0000   -0.0000    0.0000
      115 TA     8f0       -0.0000    0.0000    0.0000    0.0000    0.0000   -0.0000    0.0000    0.0000   -0.0000   -0.0000
      116 TA     9f0       -0.0000    0.0000   -0.0000   -0.0000    0.0000   -0.0000   -0.0000   -0.0000   -0.0000    0.0000
      117 TA    10f0       -0.0000    0.0000    0.0000    0.0000    0.0000   -0.0000    0.0000    0.0000   -0.0000   -0.0000
      118 TA    11f0       -0.0000    0.0000   -0.0000   -0.0000    0.0000   -0.0000   -0.0000   -0.0000   -0.0000    0.0000
      119 TA     4f1+       0.0000   -0.0000   -0.0000   -0.0000    0.0000   -0.0000   -0.0000   -0.0000    0.0000   -0.0000
      120 TA     5f1+      -0.0000    0.0000    0.0000    0.0000   -0.0000    0.0000    0.0000    0.0000   -0.0000    0.0000
      121 TA     6f1+       0.0000   -0.0000    0.0000    0.0000    0.0000   -0.0000   -0.0000   -0.0000    0.0000   -0.0000
      122 TA     7f1+      -0.0000   -0.0000    0.0000    0.0000   -0.0000    0.0000   -0.0000   -0.0000   -0.0000    0.0000
      123 TA     8f1+       0.0000   -0.0000    0.0000    0.0000    0.0000    0.0000   -0.0000   -0.0000    0.0000   -0.0000
      124 TA     9f1+       0.0000   -0.0000    0.0000    0.0000   -0.0000    0.0000   -0.0000   -0.0000   -0.0000    0.0000
      125 TA    10f1+       0.0000   -0.0000    0.0000    0.0000    0.0000    0.0000   -0.0000   -0.0000    0.0000   -0.0000
      126 TA    11f1+       0.0000   -0.0000    0.0000    0.0000   -0.0000    0.0000   -0.0000   -0.0000   -0.0000    0.0000
      127 TA     4f2+      -0.0000    0.0000   -0.0000   -0.0000   -0.0000    0.0000   -0.0000   -0.0000   -0.0000    0.0000
      128 TA     5f2+      -0.0000    0.0000    0.0000    0.0000    0.0000   -0.0000    0.0000    0.0000    0.0000   -0.0000
      129 TA     6f2+      -0.0000    0.0000   -0.0000   -0.0000    0.0000   -0.0000   -0.0000   -0.0000   -0.0000    0.0000
      130 TA     7f2+      -0.0000    0.0000    0.0000    0.0000    0.0000   -0.0000    0.0000    0.0000   -0.0000   -0.0000
      131 TA     8f2+      -0.0000    0.0000   -0.0000   -0.0000    0.0000   -0.0000   -0.0000   -0.0000   -0.0000    0.0000
      132 TA     9f2+      -0.0000    0.0000    0.0000    0.0000    0.0000   -0.0000    0.0000    0.0000   -0.0000   -0.0000
      133 TA    10f2+      -0.0000    0.0000   -0.0000   -0.0000    0.0000   -0.0000   -0.0000   -0.0000   -0.0000    0.0000
      134 TA    11f2+      -0.0000    0.0000    0.0000    0.0000    0.0000   -0.0000    0.0000    0.0000   -0.0000   -0.0000
      135 TA     4f3+      -0.0000    0.0000    0.0000    0.0000   -0.0000    0.0000    0.0000    0.0000   -0.0000   -0.0000
      136 TA     5f3+       0.0000   -0.0000    0.0000    0.0000    0.0000   -0.0000   -0.0000   -0.0000    0.0000    0.0000
      137 TA     6f3+      -0.0000    0.0000    0.0000    0.0000   -0.0000    0.0000   -0.0000   -0.0000   -0.0000   -0.0000
      138 TA     7f3+       0.0000    0.0000    0.0000    0.0000    0.0000   -0.0000   -0.0000   -0.0000    0.0000    0.0000
      139 TA     8f3+      -0.0000    0.0000    0.0000    0.0000   -0.0000   -0.0000   -0.0000   -0.0000   -0.0000   -0.0000
      140 TA     9f3+      -0.0000    0.0000    0.0000    0.0000    0.0000   -0.0000   -0.0000   -0.0000    0.0000    0.0000
      141 TA    10f3+      -0.0000    0.0000    0.0000    0.0000   -0.0000   -0.0000   -0.0000   -0.0000   -0.0000   -0.0000
      142 TA    11f3+      -0.0000    0.0000    0.0000    0.0000    0.0000   -0.0000   -0.0000   -0.0000    0.0000    0.0000
      143 TA     5g4-      -0.0000    0.0000   -0.0000    0.0000   -0.0000   -0.0000   -0.0000    0.0000   -0.0000    0.0000
      144 TA     6g4-       0.0000    0.0000    0.0000   -0.0000    0.0000    0.0000    0.0000   -0.0000    0.0000   -0.0000
      145 TA     7g4-      -0.0000   -0.0000    0.0000   -0.0000    0.0000   -0.0000   -0.0000    0.0000   -0.0000    0.0000
      146 TA     8g4-       0.0000    0.0000    0.0000   -0.0000    0.0000    0.0000   -0.0000    0.0000   -0.0000    0.0000
      147 TA     5g3-       0.0000    0.0000    0.0000   -0.0000   -0.0000   -0.0000   -0.0000    0.0000   -0.0000   -0.0000
      148 TA     6g3-      -0.0000   -0.0000   -0.0000    0.0000   -0.0000    0.0000    0.0000   -0.0000   -0.0000    0.0000
      149 TA     7g3-       0.0000    0.0000   -0.0000    0.0000    0.0000   -0.0000    0.0000   -0.0000    0.0000   -0.0000
      150 TA     8g3-      -0.0000   -0.0000   -0.0000    0.0000   -0.0000    0.0000    0.0000   -0.0000   -0.0000    0.0000
      151 TA     5g2-       0.0000   -0.0000    0.0000   -0.0000   -0.0000   -0.0000    0.0000   -0.0000    0.0000   -0.0000
      152 TA     6g2-      -0.0000    0.0000   -0.0000    0.0000   -0.0000    0.0000   -0.0000    0.0000   -0.0000    0.0000
      153 TA     7g2-       0.0000   -0.0000   -0.0000    0.0000   -0.0000   -0.0000    0.0000   -0.0000    0.0000   -0.0000
      154 TA     8g2-      -0.0000    0.0000   -0.0000    0.0000   -0.0000    0.0000    0.0000   -0.0000    0.0000    0.0000
      155 TA     5g1-      -0.0000    0.0000   -0.0000    0.0000   -0.0000    0.0000   -0.0000    0.0000   -0.0000    0.0000
      156 TA     6g1-       0.0000   -0.0000    0.0000   -0.0000    0.0000   -0.0000    0.0000   -0.0000    0.0000   -0.0000
      157 TA     7g1-      -0.0000    0.0000    0.0000   -0.0000    0.0000    0.0000   -0.0000    0.0000   -0.0000    0.0000
      158 TA     8g1-       0.0000   -0.0000    0.0000   -0.0000    0.0000   -0.0000   -0.0000    0.0000   -0.0000   -0.0000
      159 TA     5g0        0.0000   -0.0000   -0.0000   -0.0000    0.0000   -0.0000    0.0000    0.0000    0.0000   -0.0000
      160 TA     6g0       -0.0000    0.0000    0.0000    0.0000   -0.0000   -0.0000    0.0000   -0.0000   -0.0000    0.0000
      161 TA     7g0       -0.0000    0.0000    0.0000    0.0000   -0.0000   -0.0000   -0.0000   -0.0000    0.0000   -0.0000
      162 TA     8g0       -0.0000    0.0000    0.0000    0.0000   -0.0000   -0.0000   -0.0000   -0.0000    0.0000    0.0000
      163 TA     5g1+      -0.0000    0.0000   -0.0000   -0.0000    0.0000    0.0000   -0.0000   -0.0000    0.0000    0.0000
      164 TA     6g1+       0.0000   -0.0000    0.0000    0.0000   -0.0000    0.0000    0.0000    0.0000   -0.0000   -0.0000
      165 TA     7g1+       0.0000   -0.0000    0.0000    0.0000   -0.0000    0.0000   -0.0000   -0.0000    0.0000    0.0000
      166 TA     8g1+       0.0000   -0.0000    0.0000    0.0000   -0.0000    0.0000   -0.0000   -0.0000    0.0000   -0.0000
      167 TA     5g2+      -0.0000    0.0000    0.0000    0.0000   -0.0000    0.0000    0.0000    0.0000   -0.0000    0.0000
      168 TA     6g2+       0.0000   -0.0000   -0.0000   -0.0000    0.0000    0.0000   -0.0000   -0.0000    0.0000   -0.0000
      169 TA     7g2+       0.0000   -0.0000   -0.0000   -0.0000    0.0000    0.0000    0.0000    0.0000   -0.0000    0.0000
      170 TA     8g2+       0.0000   -0.0000   -0.0000   -0.0000    0.0000    0.0000    0.0000    0.0000   -0.0000   -0.0000
      171 TA     5g3+      -0.0000    0.0000    0.0000    0.0000    0.0000    0.0000    0.0000    0.0000    0.0000    0.0000
      172 TA     6g3+       0.0000   -0.0000   -0.0000   -0.0000   -0.0000    0.0000   -0.0000   -0.0000   -0.0000   -0.0000
      173 TA     7g3+       0.0000   -0.0000   -0.0000   -0.0000   -0.0000    0.0000    0.0000    0.0000    0.0000    0.0000
      174 TA     8g3+       0.0000   -0.0000   -0.0000   -0.0000   -0.0000    0.0000    0.0000    0.0000    0.0000    0.0000
      175 TA     5g4+       0.0000   -0.0000    0.0000    0.0000    0.0000   -0.0000    0.0000    0.0000    0.0000    0.0000
      176 TA     6g4+      -0.0000    0.0000   -0.0000   -0.0000   -0.0000   -0.0000   -0.0000   -0.0000   -0.0000   -0.0000
      177 TA     7g4+      -0.0000    0.0000   -0.0000   -0.0000   -0.0000   -0.0000    0.0000    0.0000    0.0000    0.0000
      178 TA     8g4+      -0.0000    0.0000   -0.0000   -0.0000   -0.0000   -0.0000    0.0000    0.0000    0.0000   -0.0000
      179 TA     6h5-      -0.0000   -0.0000    0.0000   -0.0000   -0.0000   -0.0000   -0.0000    0.0000   -0.0000    0.0000
      180 TA     7h5-       0.0000    0.0000    0.0000   -0.0000    0.0000    0.0000   -0.0000    0.0000    0.0000   -0.0000
      181 TA     6h4-       0.0000   -0.0000   -0.0000    0.0000   -0.0000   -0.0000    0.0000   -0.0000    0.0000    0.0000
      182 TA     7h4-      -0.0000    0.0000   -0.0000    0.0000   -0.0000    0.0000    0.0000   -0.0000    0.0000   -0.0000
      183 TA     6h3-      -0.0000   -0.0000   -0.0000    0.0000   -0.0000   -0.0000    0.0000   -0.0000   -0.0000    0.0000
      184 TA     7h3-       0.0000    0.0000   -0.0000    0.0000    0.0000    0.0000    0.0000   -0.0000    0.0000   -0.0000
      185 TA     6h2-       0.0000    0.0000   -0.0000    0.0000   -0.0000    0.0000    0.0000   -0.0000    0.0000   -0.0000
      186 TA     7h2-      -0.0000    0.0000   -0.0000    0.0000   -0.0000    0.0000    0.0000   -0.0000    0.0000    0.0000
      187 TA     6h1-       0.0000   -0.0000    0.0000   -0.0000   -0.0000   -0.0000   -0.0000    0.0000   -0.0000    0.0000
      188 TA     7h1-      -0.0000    0.0000    0.0000   -0.0000    0.0000    0.0000   -0.0000    0.0000    0.0000   -0.0000
      189 TA     6h0        0.0000   -0.0000   -0.0000   -0.0000   -0.0000    0.0000    0.0000    0.0000    0.0000    0.0000
      190 TA     7h0        0.0000   -0.0000   -0.0000   -0.0000   -0.0000    0.0000    0.0000    0.0000    0.0000    0.0000
      191 TA     6h1+      -0.0000    0.0000    0.0000    0.0000   -0.0000   -0.0000   -0.0000   -0.0000    0.0000    0.0000
      192 TA     7h1+      -0.0000    0.0000    0.0000    0.0000   -0.0000   -0.0000   -0.0000   -0.0000    0.0000   -0.0000
      193 TA     6h2+      -0.0000    0.0000    0.0000    0.0000    0.0000   -0.0000   -0.0000   -0.0000   -0.0000   -0.0000
      194 TA     7h2+      -0.0000    0.0000    0.0000    0.0000    0.0000   -0.0000   -0.0000   -0.0000   -0.0000    0.0000
      195 TA     6h3+       0.0000   -0.0000    0.0000    0.0000    0.0000    0.0000   -0.0000   -0.0000   -0.0000   -0.0000
      196 TA     7h3+       0.0000   -0.0000    0.0000    0.0000    0.0000    0.0000   -0.0000   -0.0000   -0.0000    0.0000
      197 TA     6h4+      -0.0000    0.0000   -0.0000   -0.0000    0.0000   -0.0000    0.0000    0.0000   -0.0000    0.0000
      198 TA     7h4+      -0.0000    0.0000   -0.0000   -0.0000    0.0000   -0.0000    0.0000    0.0000   -0.0000    0.0000
      199 TA     6h5+      -0.0000    0.0000    0.0000    0.0000   -0.0000   -0.0000   -0.0000   -0.0000    0.0000   -0.0000
      200 TA     7h5+      -0.0000    0.0000    0.0000    0.0000   -0.0000   -0.0000   -0.0000   -0.0000    0.0000    0.0000

          Orbital           11        12        13        14    
          Energy         -183.5394 -183.5392 -183.5392 -183.5391
          Occ. No.          0.0000    0.0000    0.0000    0.0000

        1 TA     1s        -0.0000    0.0000    0.0000    0.0000
        2 TA     2s        -0.0000   -0.0000   -0.0000    0.0000
        3 TA     3s        -0.0000   -0.0000   -0.0000    0.0000
        4 TA     4s         0.0000   -0.0000   -0.0000   -0.0000
        5 TA     5s        -0.0000   -0.0000   -0.0000    0.0000
        6 TA     6s        -0.0000   -0.0000   -0.0000   -0.0000
        7 TA     7s        -0.0000   -0.0000   -0.0000    0.0000
        8 TA     8s        -0.0000    0.0000    0.0000   -0.0000
        9 TA     9s        -0.0000    0.0000    0.0000    0.0000
       10 TA    10s        -0.0000    0.0000    0.0000   -0.0000
       11 TA    11s        -0.0000    0.0000    0.0000    0.0000
       12 TA     2px        0.0000    0.0000    0.0000   -0.0000
       13 TA     3px        0.0000    0.0000    0.0000   -0.0011
       14 TA     4px       -0.0000   -0.0000   -0.0000    0.0002
       15 TA     5px        0.0000    0.0000    0.0000   -0.0000
       16 TA     6px       -0.0000   -0.0000   -0.0000    0.0000
       17 TA     7px        0.0000    0.0000    0.0000   -0.0001
       18 TA     8px       -0.0000   -0.0000   -0.0000    0.0001
       19 TA     9px        0.0000    0.0000    0.0000   -0.0000
       20 TA    10px       -0.0000   -0.0000   -0.0000    0.0000
       21 TA    11px        0.0000    0.0000    0.0000   -0.0000
       22 TA     2py        0.0000    0.0000   -0.0000   -0.0000
       23 TA     3py        0.0000    0.0000   -0.0009   -0.0000
       24 TA     4py       -0.0000   -0.0000    0.0001    0.0000
       25 TA     5py        0.0000    0.0000   -0.0000   -0.0000
       26 TA     6py       -0.0000   -0.0000    0.0000    0.0000
       27 TA     7py        0.0000    0.0000   -0.0000   -0.0000
       28 TA     8py       -0.0000   -0.0000    0.0000    0.0000
       29 TA     9py        0.0000    0.0000   -0.0000   -0.0000
       30 TA    10py       -0.0000   -0.0000    0.0000    0.0000
       31 TA    11py        0.0000    0.0000   -0.0000   -0.0000
       32 TA     2pz        0.0000   -0.0000   -0.0000   -0.0000
       33 TA     3pz        0.0000   -0.0009   -0.0000   -0.0000
       34 TA     4pz       -0.0000    0.0001    0.0000    0.0000
       35 TA     5pz        0.0000   -0.0000   -0.0000   -0.0000
       36 TA     6pz       -0.0000    0.0000    0.0000    0.0000
       37 TA     7pz        0.0000   -0.0000   -0.0000   -0.0000
       38 TA     8pz       -0.0000    0.0000    0.0000    0.0000
       39 TA     9pz        0.0000   -0.0000   -0.0000   -0.0000
       40 TA    10pz       -0.0000    0.0000    0.0000    0.0000
       41 TA    11pz        0.0000   -0.0000   -0.0000   -0.0000
       42 TA     3d2-      -0.0000   -0.0001    0.9916    0.0000
       43 TA     4d2-       0.0000    0.0000   -0.0962   -0.0000
       44 TA     5d2-      -0.0000   -0.0000    0.0177    0.0000
       45 TA     6d2-       0.0000    0.0000   -0.0276   -0.0000
       46 TA     7d2-      -0.0000   -0.0000    0.0322    0.0000
       47 TA     8d2-       0.0000    0.0000   -0.0415   -0.0000
       48 TA     9d2-      -0.0000   -0.0000    0.0342    0.0000
       49 TA    10d2-       0.0000    0.0000   -0.0406   -0.0000
       50 TA    11d2-      -0.0000   -0.0000    0.0297    0.0000
       51 TA     3d1-       0.0002   -0.0000    0.0017   -0.0000
       52 TA     4d1-      -0.0000    0.0000   -0.0002    0.0000
       53 TA     5d1-       0.0000   -0.0000    0.0000   -0.0000
       54 TA     6d1-      -0.0000    0.0000   -0.0000    0.0000
       55 TA     7d1-       0.0000   -0.0000    0.0001   -0.0000
       56 TA     8d1-      -0.0000    0.0000   -0.0001    0.0000
       57 TA     9d1-       0.0000   -0.0000    0.0001   -0.0000
       58 TA    10d1-      -0.0000    0.0000   -0.0001    0.0000
       59 TA    11d1-       0.0000   -0.0000    0.0001   -0.0000
       60 TA     3d0        0.8587    0.0020    0.0000   -0.4958
       61 TA     4d0       -0.0833   -0.0002   -0.0000    0.0481
       62 TA     5d0        0.0154    0.0000    0.0000   -0.0089
       63 TA     6d0       -0.0239   -0.0001   -0.0000    0.0138
       64 TA     7d0        0.0279    0.0001    0.0000   -0.0161
       65 TA     8d0       -0.0359   -0.0001   -0.0000    0.0207
       66 TA     9d0        0.0296    0.0001    0.0000   -0.0171
       67 TA    10d0       -0.0351   -0.0001   -0.0000    0.0203
       68 TA    11d0        0.0258    0.0001    0.0000   -0.0149
       69 TA     3d1+      -0.0010    0.9916    0.0001    0.0023
       70 TA     4d1+       0.0001   -0.0962   -0.0000   -0.0002
       71 TA     5d1+      -0.0000    0.0177    0.0000    0.0000
       72 TA     6d1+       0.0000   -0.0276   -0.0000   -0.0001
       73 TA     7d1+      -0.0000    0.0322    0.0000    0.0001
       74 TA     8d1+       0.0000   -0.0415   -0.0000   -0.0001
       75 TA     9d1+      -0.0000    0.0342    0.0000    0.0001
       76 TA    10d1+       0.0000   -0.0406   -0.0000   -0.0001
       77 TA    11d1+      -0.0000    0.0297    0.0000    0.0001
       78 TA     3d2+       0.4958   -0.0015   -0.0000    0.8587
       79 TA     4d2+      -0.0481    0.0001    0.0000   -0.0833
       80 TA     5d2+       0.0089   -0.0000   -0.0000    0.0154
       81 TA     6d2+      -0.0138    0.0000    0.0000   -0.0239
       82 TA     7d2+       0.0161   -0.0000   -0.0000    0.0279
       83 TA     8d2+      -0.0207    0.0001    0.0000   -0.0359
       84 TA     9d2+       0.0171   -0.0001   -0.0000    0.0296
       85 TA    10d2+      -0.0203    0.0001    0.0000   -0.0351
       86 TA    11d2+       0.0149   -0.0000   -0.0000    0.0258
       87 TA     4f3-      -0.0000   -0.0000    0.0001    0.0000
       88 TA     5f3-       0.0000    0.0000   -0.0001   -0.0000
       89 TA     6f3-      -0.0000   -0.0000    0.0001    0.0000
       90 TA     7f3-       0.0000    0.0000   -0.0001   -0.0000
       91 TA     8f3-      -0.0000   -0.0000    0.0001    0.0000
       92 TA     9f3-       0.0000    0.0000   -0.0000   -0.0000
       93 TA    10f3-      -0.0000   -0.0000    0.0000    0.0000
       94 TA    11f3-       0.0000    0.0000   -0.0000   -0.0000
       95 TA     4f2-       0.0000   -0.0000    0.0000   -0.0000
       96 TA     5f2-      -0.0000    0.0000   -0.0000    0.0000
       97 TA     6f2-       0.0000   -0.0000    0.0000   -0.0000
       98 TA     7f2-      -0.0000    0.0000   -0.0000    0.0000
       99 TA     8f2-       0.0000   -0.0000    0.0000   -0.0000
      100 TA     9f2-      -0.0000    0.0000   -0.0000    0.0000
      101 TA    10f2-       0.0000   -0.0000    0.0000   -0.0000
      102 TA    11f2-      -0.0000    0.0000   -0.0000    0.0000
      103 TA     4f1-       0.0000    0.0000   -0.0000   -0.0000
      104 TA     5f1-      -0.0000   -0.0000    0.0000    0.0000
      105 TA     6f1-       0.0000    0.0000   -0.0000   -0.0000
      106 TA     7f1-      -0.0000   -0.0000    0.0000    0.0000
      107 TA     8f1-       0.0000    0.0000   -0.0000   -0.0000
      108 TA     9f1-      -0.0000   -0.0000    0.0000    0.0000
      109 TA    10f1-       0.0000    0.0000   -0.0000   -0.0000
      110 TA    11f1-      -0.0000   -0.0000    0.0000    0.0000
      111 TA     4f0        0.0000   -0.0001   -0.0000   -0.0000
      112 TA     5f0       -0.0000    0.0001    0.0000    0.0000
      113 TA     6f0        0.0000   -0.0000   -0.0000   -0.0000
      114 TA     7f0       -0.0000    0.0000    0.0000    0.0000
      115 TA     8f0        0.0000   -0.0000   -0.0000   -0.0000
      116 TA     9f0       -0.0000    0.0000    0.0000    0.0000
      117 TA    10f0        0.0000   -0.0000   -0.0000   -0.0000
      118 TA    11f0       -0.0000    0.0000    0.0000    0.0000
      119 TA     4f1+       0.0001    0.0000    0.0000   -0.0001
      120 TA     5f1+      -0.0001   -0.0000   -0.0000    0.0001
      121 TA     6f1+       0.0000    0.0000    0.0000   -0.0000
      122 TA     7f1+      -0.0000   -0.0000   -0.0000    0.0000
      123 TA     8f1+       0.0000    0.0000    0.0000   -0.0000
      124 TA     9f1+      -0.0000   -0.0000   -0.0000    0.0000
      125 TA    10f1+       0.0000    0.0000    0.0000   -0.0000
      126 TA    11f1+      -0.0000   -0.0000   -0.0000    0.0000
      127 TA     4f2+      -0.0000    0.0001    0.0000    0.0000
      128 TA     5f2+       0.0000   -0.0001   -0.0000   -0.0000
      129 TA     6f2+      -0.0000    0.0001    0.0000    0.0000
      130 TA     7f2+       0.0000   -0.0001   -0.0000   -0.0000
      131 TA     8f2+      -0.0000    0.0000    0.0000    0.0000
      132 TA     9f2+       0.0000   -0.0000   -0.0000   -0.0000
      133 TA    10f2+      -0.0000    0.0000    0.0000    0.0000
      134 TA    11f2+       0.0000   -0.0000   -0.0000   -0.0000
      135 TA     4f3+       0.0001   -0.0000   -0.0000    0.0001
      136 TA     5f3+      -0.0000    0.0000    0.0000   -0.0001
      137 TA     6f3+       0.0000   -0.0000   -0.0000    0.0001
      138 TA     7f3+      -0.0000    0.0000    0.0000   -0.0001
      139 TA     8f3+       0.0000   -0.0000   -0.0000    0.0000
      140 TA     9f3+      -0.0000    0.0000    0.0000   -0.0000
      141 TA    10f3+       0.0000   -0.0000   -0.0000    0.0000
      142 TA    11f3+      -0.0000    0.0000    0.0000   -0.0000
      143 TA     5g4-       0.0000    0.0000   -0.0000   -0.0000
      144 TA     6g4-      -0.0000   -0.0000    0.0000   -0.0000
      145 TA     7g4-       0.0000    0.0000   -0.0000   -0.0000
      146 TA     8g4-       0.0000   -0.0000    0.0000   -0.0000
      147 TA     5g3-      -0.0000    0.0000   -0.0000    0.0000
      148 TA     6g3-       0.0000   -0.0000    0.0000    0.0000
      149 TA     7g3-      -0.0000   -0.0000    0.0000    0.0000
      150 TA     8g3-       0.0000   -0.0000    0.0000   -0.0000
      151 TA     5g2-      -0.0000   -0.0000    0.0000    0.0000
      152 TA     6g2-       0.0000    0.0000   -0.0000   -0.0000
      153 TA     7g2-      -0.0000   -0.0000    0.0000    0.0000
      154 TA     8g2-       0.0000    0.0000   -0.0000    0.0000
      155 TA     5g1-       0.0000   -0.0000    0.0000    0.0000
      156 TA     6g1-      -0.0000    0.0000   -0.0000   -0.0000
      157 TA     7g1-       0.0000    0.0000   -0.0000    0.0000
      158 TA     8g1-      -0.0000    0.0000   -0.0000    0.0000
      159 TA     5g0        0.0000    0.0000    0.0000   -0.0000
      160 TA     6g0       -0.0000   -0.0000   -0.0000    0.0000
      161 TA     7g0        0.0000    0.0000    0.0000   -0.0000
      162 TA     8g0       -0.0000    0.0000    0.0000    0.0000
      163 TA     5g1+      -0.0000    0.0000    0.0000    0.0000
      164 TA     6g1+       0.0000   -0.0000   -0.0000   -0.0000
      165 TA     7g1+      -0.0000    0.0000    0.0000   -0.0000
      166 TA     8g1+       0.0000   -0.0000   -0.0000   -0.0000
      167 TA     5g2+      -0.0000   -0.0000   -0.0000    0.0000
      168 TA     6g2+       0.0000    0.0000    0.0000   -0.0000
      169 TA     7g2+      -0.0000   -0.0000   -0.0000    0.0000
      170 TA     8g2+       0.0000   -0.0000   -0.0000   -0.0000
      171 TA     5g3+      -0.0000   -0.0000   -0.0000   -0.0000
      172 TA     6g3+       0.0000    0.0000    0.0000    0.0000
      173 TA     7g3+      -0.0000   -0.0000   -0.0000   -0.0000
      174 TA     8g3+      -0.0000    0.0000    0.0000   -0.0000
      175 TA     5g4+      -0.0000    0.0000    0.0000   -0.0000
      176 TA     6g4+       0.0000   -0.0000   -0.0000    0.0000
      177 TA     7g4+      -0.0000   -0.0000   -0.0000   -0.0000
      178 TA     8g4+       0.0000   -0.0000   -0.0000    0.0000
      179 TA     6h5-       0.0000   -0.0000    0.0000   -0.0000
      180 TA     7h5-      -0.0000    0.0000   -0.0000    0.0000
      181 TA     6h4-       0.0000    0.0000   -0.0000   -0.0000
      182 TA     7h4-      -0.0000    0.0000   -0.0000    0.0000
      183 TA     6h3-       0.0000    0.0000   -0.0000   -0.0000
      184 TA     7h3-      -0.0000   -0.0000    0.0000    0.0000
      185 TA     6h2-      -0.0000   -0.0000    0.0000    0.0000
      186 TA     7h2-       0.0000   -0.0000    0.0000    0.0000
      187 TA     6h1-       0.0000   -0.0000    0.0000    0.0000
      188 TA     7h1-      -0.0000    0.0000   -0.0000    0.0000
      189 TA     6h0       -0.0000    0.0000    0.0000   -0.0000
      190 TA     7h0       -0.0000   -0.0000   -0.0000   -0.0000
      191 TA     6h1+      -0.0000   -0.0000   -0.0000    0.0000
      192 TA     7h1+       0.0000   -0.0000   -0.0000   -0.0000
      193 TA     6h2+       0.0000   -0.0000   -0.0000   -0.0000
      194 TA     7h2+      -0.0000    0.0000    0.0000    0.0000
      195 TA     6h3+       0.0000    0.0000    0.0000   -0.0000
      196 TA     7h3+      -0.0000   -0.0000   -0.0000    0.0000
      197 TA     6h4+      -0.0000    0.0000    0.0000    0.0000
      198 TA     7h4+      -0.0000   -0.0000   -0.0000   -0.0000
      199 TA     6h5+       0.0000    0.0000    0.0000    0.0000
      200 TA     7h5+      -0.0000    0.0000    0.0000   -0.0000
--


++    Molecular charges:
      ------------------

      Mulliken charges per centre and basis function type
      ---------------------------------------------------

                TA    
      1s       2.0000
      2s       2.0000
      2px      2.0000
      2pz      2.0000
      2py      2.0000
      3s       1.9806
      3px      1.9727
      3pz      1.9727
      3py      1.9727
      4s       0.0130
      3d2+     0.0000
      3d1+     0.0000
      3d0      0.0000
      3d1-     0.0000
      3d2-     0.0000
      4px      0.0168
      4pz      0.0168
      4py      0.0168
      5s       0.0011
      4d2+     0.0000
      4d1+     0.0000
      4d0      0.0000
      4d1-     0.0000
      4d2-     0.0000
      5px      0.0013
      5pz      0.0013
      5py      0.0013
      6s       0.0001
      4f3+     0.0000
      4f2+     0.0000
      4f1+     0.0000
      4f0      0.0000
      4f1-     0.0000
      4f2-     0.0000
      4f3-     0.0000
      5d2+     0.0000
      5d1+     0.0000
      5d0      0.0000
      5d1-     0.0000
      5d2-     0.0000
      6px      0.0002
      6pz      0.0002
      6py      0.0002
      7s       0.0002
      5f3+     0.0000
      5f2+     0.0000
      5f1+     0.0000
      5f0      0.0000
      5f1-     0.0000
      5f2-     0.0000
      5f3-     0.0000
      6d2+     0.0000
      6d1+     0.0000
      6d0      0.0000
      6d1-     0.0000
      6d2-     0.0000
      7px      0.0022
      7pz      0.0022
      7py      0.0022
      5g4+     0.0000
      5g3+     0.0000
      5g2+     0.0000
      5g1+     0.0000
      5g0      0.0000
      5g1-     0.0000
      5g2-     0.0000
      5g3-     0.0000
      5g4-     0.0000
      6f3+     0.0000
      6f2+     0.0000
      6f1+     0.0000
      6f0      0.0000
      6f1-     0.0000
      6f2-     0.0000
      6f3-     0.0000
      6g4+     0.0000
      6g3+     0.0000
      6g2+     0.0000
      6g1+     0.0000
      6g0      0.0000
      6g1-     0.0000
      6g2-     0.0000
      6g3-     0.0000
      6g4-     0.0000
      6h5+     0.0000
      6h4+     0.0000
      6h3+     0.0000
      6h2+     0.0000
      6h1+     0.0000
      6h0      0.0000
      6h1-     0.0000
      6h2-     0.0000
      6h3-     0.0000
      6h4-     0.0000
      6h5-     0.0000
      7d2+     0.0000
      7d1+     0.0000
      7d0      0.0000
      7d1-     0.0000
      7d2-     0.0000
      7f3+     0.0000
      7f2+     0.0000
      7f1+     0.0000
      7f0      0.0000
      7f1-     0.0000
      7f2-     0.0000
      7f3-     0.0000
      7g4+     0.0000
      7g3+     0.0000
      7g2+     0.0000
      7g1+     0.0000
      7g0      0.0000
      7g1-     0.0000
      7g2-     0.0000
      7g3-     0.0000
      7g4-     0.0000
      7h5+     0.0000
      7h4+     0.0000
      7h3+     0.0000
      7h2+     0.0000
      7h1+     0.0000
      7h0      0.0000
      7h1-     0.0000
      7h2-     0.0000
      7h3-     0.0000
      7h4-     0.0000
      7h5-     0.0000
      8s       0.0011
      8px      0.0019
      8pz      0.0019
      8py      0.0019
      8d2+     0.0000
      8d1+     0.0000
      8d0      0.0000
      8d1-     0.0000
      8d2-     0.0000
      8f3+     0.0000
      8f2+     0.0000
      8f1+     0.0000
      8f0      0.0000
      8f1-     0.0000
      8f2-     0.0000
      8f3-     0.0000
      8g4+     0.0000
      8g3+     0.0000
      8g2+     0.0000
      8g1+     0.0000
      8g0      0.0000
      8g1-     0.0000
      8g2-     0.0000
      8g3-     0.0000
      8g4-     0.0000
      9s       0.0014
      9px      0.0016
      9pz      0.0016
      9py      0.0016
      9d2+     0.0000
      9d1+     0.0000
      9d0      0.0000
      9d1-     0.0000
      9d2-     0.0000
      9f3+     0.0000
      9f2+     0.0000
      9f1+     0.0000
      9f0      0.0000
      9f1-     0.0000
      9f2-     0.0000
      9f3-     0.0000
     10s       0.0006
     10px      0.0016
     10pz      0.0016
     10py      0.0016
     10d2+     0.0000
     10d1+     0.0000
     10d0      0.0000
     10d1-     0.0000
     10d2-     0.0000
     10f3+     0.0000
     10f2+     0.0000
     10f1+     0.0000
     10f0      0.0000
     10f1-     0.0000
     10f2-     0.0000
     10f3-     0.0000
     11s       0.0019
     11px      0.0018
     11pz      0.0018
     11py      0.0018
     11d2+     0.0000
     11d1+     0.0000
     11d0      0.0000
     11d1-     0.0000
     11d2-     0.0000
     11f3+     0.0000
     11f2+     0.0000
     11f1+     0.0000
     11f0      0.0000
     11f1-     0.0000
     11f2-     0.0000
     11f3-     0.0000
      Total   18.0000

      N-E     55.0000

      Total electronic charge=   18.000000

      Total            charge=   55.000000
--

 Sorry, Molden does not know how to handle
 functions with angular momentum larger than g

++    Static properties:
      ------------------


      LoProp Charges per center


                   TA    
      Nuclear     73.0000
      Electronic -18.0000

      Total       55.0000
--


++    Molecular properties:
      ---------------------

      Charge (e):
                      =   55.0000
      Dipole Moment (Debye):
      Origin of the operator (Ang)=    0.0000    0.0000    0.0000
                   X= -2.6332E-03               Y= -5.1566E-13               Z=  1.2237E+00           Total=  1.2237E+00
      Center of Charge (Ang)
                     X=   -0.00000997               Y=   -0.00000000               Z=    0.00463220
      Quadrupole Moment (Debye*Ang):
      Origin of the operator (Ang)=   -0.0000   -0.0000    0.0046
                  XX= -1.7033E-01              XY= -3.2627E-16              XZ=  2.1280E-09              YY= -1.7033E-01
                  YZ=  2.6299E-16              ZZ= -1.7033E-01
      In traceless form (Debye*Ang)
                  XX=  1.4523E-06              XY= -4.8940E-16              XZ=  3.1919E-09              YY= -7.2614E-07
                  YZ=  3.9448E-16              ZZ= -7.2617E-07
--

 Sorry, Molden does not know how to handle
 functions with angular momentum larger than g
 ###############################################################################
 ###############################################################################
 ###                                                                         ###
 ###                                                                         ###
 ###    WARNING: RunFile label nBas                                          ###
 ###    was used       62 times                                              ###
 ###                                                                         ###
 ###                                                                         ###
 ###############################################################################
 ###############################################################################
Note: The following floating-point exceptions are signalling: IEEE_UNDERFLOW_FLAG IEEE_DENORMAL
--- Stop Module: scf at Thu Mar 27 00:10:52 2025 /rc=_RC_ALL_IS_WELL_ ---
*** files: tantalum_so_cf.LprOrb tantalum_so_cf.ScfOrb xmldump
    saved to directory /home4/s4752295/Internship/Initial_simulations/Point_charge_model/1_electron/Madelung_charges_9_active_space/Ta
--- Module scf spent 7 seconds ---

*** symbolic link created: INPORB -> tantalum_so_cf.ScfOrb
--- Start Module: rasscf at Thu Mar 27 00:10:52 2025 ---

()()()()()()()()()()()()()()()()()()()()()()()()()()()()()()()()()()()()()()()()()()()()()()()()()()

                                              &RASSCF

                                   only a single process is used
                       available to each process: 4.1 GB of memory, 1 thread?
                                            pid: 3975783
()()()()()()()()()()()()()()()()()()()()()()()()()()()()()()()()()()()()()()()()()()()()()()()()()()


      Header of the ONEINT file:
      --------------------------
      
      Integrals generated by seward 4.2.0  , Thu Mar 27 00:10:26 2025


      OrdInt status: non-squared


      Cartesian coordinates in Angstrom:
      -----------------------------------------------------
      No.  Label        X            Y            Z        
      -----------------------------------------------------
       1   TA        -0.00000000  -0.00000000   0.00463220
      -----------------------------------------------------
      Nuclear repulsion energy = -333.93740806

++    Wave function specifications:
      -----------------------------

      Number of closed shell electrons          18
      Number of electrons in active shells       1
      Max number of holes in RAS1 space          0
      Max nr of electrons in RAS3 space          0
      Number of inactive orbitals                9
      Number of active orbitals                  9
      Number of secondary orbitals             182
      Spin quantum number                      0.5
      State symmetry                             1
--

++    Orbital specifications:
      -----------------------

      Symmetry species                           1
                                                 a
      Frozen orbitals                            0
      Inactive orbitals                          9
      Active orbitals                            9
      RAS1 orbitals                              0
      RAS2 orbitals                              9
      RAS3 orbitals                              0
      Secondary orbitals                       182
      Deleted orbitals                           0
      Number of basis functions                200
--

++    CI expansion specifications:
      ----------------------------

      Number of CSFs                             9
      Number of determinants                     9
      Number of root(s) required                 9
      Root chosen for geometry opt.              9
      CI roots used                              1     2     3     4     5     6     7     8     9
      weights                                0.111 0.111 0.111 0.111 0.111 0.111 0.111 0.111 0.111
      highest root included in the CI            9
      max. size of the explicit Hamiltonian      9
--

++    Optimization specifications:
      ----------------------------

      RASSCF algorithm: Conventional
      Maximum number of macro iterations       200
      Maximum number of SX iterations          100
      Threshold for RASSCF energy            0.100E-07
      Threshold for max MO rotation          0.100E+00
      Threshold for max BLB element          0.100E-03
      Level shift parameter                  0.500E+00
      Make Quasi-Newton update
--

      The MO-coefficients are taken from the file:
      INPORB                                                                                                                          
      Title: SCF orbitals                                                                  

      Total molecular charge   54.00

      ************************************************************************************************************************
      *                                                                                                                      *
      *                                            Wave function control section                                             *
      *                                                                                                                      *
[...]
::    SO-RASSI State    8     Total energy: -12971.37271086
::    SO-RASSI State    9     Total energy: -12971.37264577
::    SO-RASSI State   10     Total energy: -12971.37264577
::    SO-RASSI State   11     Total energy: -12896.76161316
::    SO-RASSI State   12     Total energy: -12896.76161316
::    SO-RASSI State   13     Total energy: -12890.84893008
::    SO-RASSI State   14     Total energy: -12890.84893008
::    SO-RASSI State   15     Total energy: -12890.84893004
::    SO-RASSI State   16     Total energy: -12890.84893004
::    SO-RASSI State   17     Total energy: -12890.84731617
::    SO-RASSI State   18     Total energy: -12890.84731617


   Eigenvalues of complex Hamiltonian:
   -----------------------------------
  (Shifted by EMIN (a.u.) =     -12971.3729050869)

 SO State       Relative EMIN(au)   Rel lowest level(eV)    D:o, cm**(-1)     J-value

     1             0.0000000000        0.0000000000              0.0000         2.1
     2             0.0000000000        0.0000000000              0.0000         2.1
     3             0.0000000007        0.0000000193              0.0002         2.1
     4             0.0000000007        0.0000000193              0.0002         2.1
     5             0.0001942197        0.0052849873             42.6263         2.1
     6             0.0001942197        0.0052849873             42.6263         2.1
     7             0.0001942262        0.0052851645             42.6277         2.1
     8             0.0001942262        0.0052851645             42.6277         2.1
     9             0.0002593217        0.0070565024             56.9145         2.1
    10             0.0002593217        0.0070565024             56.9145         2.1
    11            74.6112919232     2030.2766828347       16375285.7904         0.5
    12            74.6112919232     2030.2766828347       16375285.7904         0.5
    13            80.5239750076     2191.1689859944       17672969.7307         1.2
    14            80.5239750076     2191.1689859944       17672969.7307         1.2
    15            80.5239750432     2191.1689869623       17672969.7385         1.2
    16            80.5239750432     2191.1689869623       17672969.7385         1.2
    17            80.5255889170     2191.2129027060       17673323.9429         1.2
    18            80.5255889170     2191.2129027060       17673323.9429         1.2


 Weights of the five most important spin-orbit-free states for each spin-orbit state.

 SO State  Total energy (au)           Spin-free states, spin, and weights
 -------------------------------------------------------------------------------------------------------
    1         0.000000       1 0.5  1.0000    9 0.5  0.0000    8 0.5  0.0000    7 0.5  0.0000    6 0.5  0.0000
    2         0.000000       1 0.5  1.0000    9 0.5  0.0000    8 0.5  0.0000    7 0.5  0.0000    6 0.5  0.0000
    3         0.000000       2 0.5  1.0000    9 0.5  0.0000    8 0.5  0.0000    7 0.5  0.0000    6 0.5  0.0000
    4         0.000000       2 0.5  1.0000    9 0.5  0.0000    8 0.5  0.0000    7 0.5  0.0000    6 0.5  0.0000
    5         0.000194       3 0.5  1.0000    9 0.5  0.0000    8 0.5  0.0000    7 0.5  0.0000    6 0.5  0.0000
    6         0.000194       3 0.5  1.0000    9 0.5  0.0000    8 0.5  0.0000    7 0.5  0.0000    6 0.5  0.0000
    7         0.000194       4 0.5  1.0000    9 0.5  0.0000    8 0.5  0.0000    7 0.5  0.0000    6 0.5  0.0000
    8         0.000194       4 0.5  1.0000    9 0.5  0.0000    8 0.5  0.0000    7 0.5  0.0000    6 0.5  0.0000
    9         0.000259       5 0.5  1.0000    9 0.5  0.0000    8 0.5  0.0000    7 0.5  0.0000    6 0.5  0.0000
   10         0.000259       5 0.5  1.0000    9 0.5  0.0000    8 0.5  0.0000    7 0.5  0.0000    6 0.5  0.0000
   11        74.611292       6 0.5  1.0000    9 0.5  0.0000    8 0.5  0.0000    7 0.5  0.0000    5 0.5  0.0000
   12        74.611292       6 0.5  1.0000    9 0.5  0.0000    8 0.5  0.0000    7 0.5  0.0000    5 0.5  0.0000
   13        80.523975       7 0.5  1.0000    9 0.5  0.0000    8 0.5  0.0000    6 0.5  0.0000    5 0.5  0.0000
   14        80.523975       7 0.5  1.0000    9 0.5  0.0000    8 0.5  0.0000    6 0.5  0.0000    5 0.5  0.0000
   15        80.523975       8 0.5  1.0000    9 0.5  0.0000    7 0.5  0.0000    6 0.5  0.0000    5 0.5  0.0000
   16        80.523975       8 0.5  1.0000    9 0.5  0.0000    7 0.5  0.0000    6 0.5  0.0000    5 0.5  0.0000
   17        80.525589       9 0.5  1.0000    8 0.5  0.0000    7 0.5  0.0000    6 0.5  0.0000    5 0.5  0.0000
   18        80.525589       9 0.5  1.0000    8 0.5  0.0000    7 0.5  0.0000    6 0.5  0.0000    5 0.5  0.0000
 -------------------------------------------------------------------------------------------------------


      ****************************************************************************************************
      *                                                                                                  *
      *                                    Special properties section                                    *
      *                                                                                                  *
      ****************************************************************************************************


++ Dipole transition strengths (SO states):
   ----------------------------------------
    for osc. strength at least    1.0000000000000001E-005

      From   To        Osc. strength     Einstein coefficients Ax, Ay, Az (sec-1)    Total A (sec-1)
     -----------------------------------------------------------------------------------------------
         1   13       1.33442795E-02  6.51161273E-02  2.78006471E+12  6.44062700E+04  2.78006478E+12
         1   15       1.33442833E-02  8.23841629E+06  6.44049374E+04  2.78005725E+12  2.78006556E+12
         2   14       1.33442795E-02  6.51161273E-02  2.78006471E+12  6.44062700E+04  2.78006478E+12
         2   16       1.33442833E-02  8.23841629E+06  6.44049374E+04  2.78005725E+12  2.78006556E+12
         3   13       1.33444077E-02  2.88557474E+06  6.44056311E+04  2.78008854E+12  2.78009149E+12
         3   15       1.33441578E-02  1.81947027E-01  2.78003936E+12  6.44054495E+04  2.78003942E+12
         4   14       1.33444077E-02  2.88557474E+06  6.44056311E+04  2.78008854E+12  2.78009149E+12
         4   16       1.33441578E-02  1.81947027E-01  2.78003936E+12  6.44054495E+04  2.78003942E+12
         5   13       1.33398712E-02  2.77912915E+12  1.02228006E-02  3.81422805E+06  2.77913297E+12
         5   17       1.33454970E-02  6.40976384E+06  3.79778835E+04  2.78041000E+12  2.78041645E+12
         6   14       1.33398712E-02  2.77912915E+12  1.02228006E-02  3.81422805E+06  2.77913297E+12
         6   18       1.33454970E-02  6.40976384E+06  3.79778835E+04  2.78041000E+12  2.78041645E+12
         7   15       1.33398725E-02  2.77912500E+12  1.34099661E-03  8.22841350E+06  2.77913323E+12
         7   17       1.33454933E-02  6.59058038E-02  2.78041565E+12  3.79778299E+04  2.78041569E+12
         8   16       1.33398725E-02  2.77912500E+12  1.34099661E-03  8.22841350E+06  2.77913323E+12
         8   18       1.33454933E-02  6.59058038E-02  2.78041565E+12  3.79778299E+04  2.78041569E+12
         9   13       4.44933891E-03  2.58756111E+06  3.44235718E+00  9.26939229E+11  9.26941817E+11
         9   15       4.44958571E-03  9.62588472E-04  9.26993234E+11  3.44020657E+00  9.26993234E+11
         9   17       1.77852995E-02  3.70539641E+12  1.13786377E-03  7.70387042E+06  3.70540412E+12
        10   14       4.44933891E-03  2.58756111E+06  3.44235718E+00  9.26939229E+11  9.26941817E+11
        10   16       4.44958571E-03  9.62588472E-04  9.26993234E+11  3.44020657E+00  9.26993234E+11
        10   18       1.77852995E-02  3.70539641E+12  1.13786377E-03  7.70387042E+06  3.70540412E+12
        11   13       1.77682383E-01  2.93844132E+05  7.40917141E-01  1.99582431E+11  1.99582725E+11
        11   15       1.77682383E-01  1.51295832E-06  1.99582727E+11  7.40915684E-01  1.99582727E+11
        11   17       1.77671208E-01  1.99678841E+11  3.44865792E-08  2.94010438E+05  1.99679135E+11
        12   14       1.77682383E-01  2.93844132E+05  7.40917141E-01  1.99582431E+11  1.99582725E+11
        12   16       1.77682383E-01  1.51295832E-06  1.99582727E+11  7.40915684E-01  1.99582727E+11
        12   18       1.77671208E-01  1.99678841E+11  3.44865792E-08  2.94010438E+05  1.99679135E+11
     -----------------------------------------------------------------------------------------------
--

++ Velocity transition strengths (SO states):
   ------------------------------------------
    for osc. strength at least    1.0000000000000001E-005

      From   To        Osc. strength     Einstein coefficients Ax, Ay, Az (sec-1)    Total A (sec-1)
     -----------------------------------------------------------------------------------------------
         1    5       4.31084293E-05  4.74640923E-17  5.22467941E-02  7.25518560E-11  5.22467941E-02
         1    7       4.31068935E-05  1.08010248E-08  7.25422173E-11  5.22484253E-02  5.22484362E-02
         1   13       1.31008365E-02  6.39286813E-02  2.72935679E+12  6.32315103E+04  2.72935685E+12
         1   15       1.31008402E-02  8.08815577E+06  6.32302015E+04  2.72934946E+12  2.72935762E+12
         2    6       4.31084293E-05  4.74640923E-17  5.22467941E-02  7.25518560E-11  5.22467941E-02
         2    8       4.31068935E-05  1.08010248E-08  7.25422173E-11  5.22484253E-02  5.22484362E-02
         2   14       1.31008365E-02  6.39286813E-02  2.72935679E+12  6.32315103E+04  2.72935685E+12
         2   16       1.31008402E-02  8.08815577E+06  6.32302015E+04  2.72934946E+12  2.72935762E+12
         3    5       4.31097157E-05  1.08673585E-08  7.25540775E-11  5.22479606E-02  5.22479715E-02
         3    7       4.31057565E-05  1.96609153E-17  5.22466764E-02  7.25330677E-11  5.22466765E-02
         3   13       1.31009624E-02  2.83294154E+06  6.32308829E+04  2.72938017E+12  2.72938307E+12
         3   15       1.31007170E-02  1.78628256E-01  2.72933189E+12  6.32307046E+04  2.72933196E+12
         4    6       4.31097157E-05  1.08673585E-08  7.25540775E-11  5.22479606E-02  5.22479715E-02
         4    8       4.31057565E-05  1.96609153E-17  5.22466764E-02  7.25330677E-11  5.22466765E-02
         4   14       1.31009624E-02  2.83294154E+06  6.32308829E+04  2.72938017E+12  2.72938307E+12
         4   16       1.31007170E-02  1.78628256E-01  2.72933189E+12  6.32307046E+04  2.72933196E+12
         5    9       3.85862145E-04  1.08963934E-08  7.17709194E-10  5.25449922E-02  5.25450038E-02
         5   13       1.30965216E-02  2.72844099E+12  1.00362401E-02  3.74466315E+06  2.72844474E+12
         5   17       1.31020283E-02  6.29285001E+06  3.72851634E+04  2.72969505E+12  2.72970139E+12
         6   10       3.85862145E-04  1.08963934E-08  7.17709194E-10  5.25449922E-02  5.25450038E-02
         6   14       1.30965216E-02  2.72844099E+12  1.00362401E-02  3.74466315E+06  2.72844474E+12
         6   18       1.31020283E-02  6.29285001E+06  3.72851634E+04  2.72969505E+12  2.72970139E+12
         7    9       3.85907430E-04  1.68465608E-16  5.25406573E-02  7.17623858E-10  5.25406580E-02
         7   15       1.30965228E-02  2.72843692E+12  1.31659708E-03  8.07832963E+06  2.72844500E+12
         7   17       1.31020247E-02  6.47036537E-02  2.72970060E+12  3.72851106E+04  2.72970064E+12
         8   10       3.85907430E-04  1.68465608E-16  5.25406573E-02  7.17623858E-10  5.25406580E-02
         8   16       1.30965228E-02  2.72843692E+12  1.31659708E-03  8.07832963E+06  2.72844500E+12
         8   18       1.31020247E-02  6.47036537E-02  2.72970060E+12  3.72851106E+04  2.72970064E+12
         9   13       4.36815339E-03  2.54036375E+06  3.37955593E+00  9.10028859E+11  9.10031400E+11
         9   15       4.36839568E-03  9.44805355E-04  9.10081879E+11  3.37744813E+00  9.10081879E+11
         9   17       1.74608811E-02  3.63781960E+12  1.11695948E-03  7.56336237E+06  3.63782716E+12
        10   14       4.36815339E-03  2.54036375E+06  3.37955593E+00  9.10028859E+11  9.10031400E+11
        10   16       4.36839568E-03  9.44805355E-04  9.10081879E+11  3.37744813E+00  9.10081879E+11
        10   18       1.74608811E-02  3.63781960E+12  1.11695948E-03  7.56336237E+06  3.63782716E+12
        11   13       1.52322031E-01  2.51903340E+05  6.35169312E-01  1.71096912E+11  1.71097164E+11
        11   15       1.52322031E-01  1.29721424E-06  1.71097166E+11  6.35168066E-01  1.71097166E+11
        11   17       1.52314076E-01  1.71181388E+11  2.95508732E-08  2.52052034E+05  1.71181640E+11
        12   14       1.52322031E-01  2.51903340E+05  6.35169312E-01  1.71096912E+11  1.71097164E+11
        12   16       1.52322031E-01  1.29721424E-06  1.71097166E+11  6.35168066E-01  1.71097166E+11
        12   18       1.52314076E-01  1.71181388E+11  2.95508732E-08  2.52052034E+05  1.71181640E+11
        13   17       3.39943060E-04  5.99338062E-06  1.05612837E-10  2.84495412E+01  2.84495472E+01
        14   18       3.39943060E-04  5.99338062E-06  1.05612837E-10  2.84495412E+01  2.84495472E+01
        15   17       3.39950332E-04  1.00773909E-16  2.84489016E+01  1.05610082E-10  2.84489016E+01
        16   18       3.39950332E-04  1.00773909E-16  2.84489016E+01  1.05610082E-10  2.84489016E+01
     -----------------------------------------------------------------------------------------------
--

++ Length and velocity gauge comparison (SO states):

 --------------------------------------------------
 A comparison between the dipole oscillator strengths in 
 length and velocity gauge will be performed

 All dipole oscillator differences above the tolerance of   0.10000000000000001       will be printed 

 Due to basis set deficiency these oscillator may be problematic 

 The tolerance is defined as ABS(1-O_l/O_v) 
 O_l : dipole oscillator strength in length gauge
 O_p : dipole oscillator strength in velocity gauge
 --------------------------------------------------

  Problematic transitions have been found

      From   To       Difference (%) Osc. st. (len.) Osc. st. (vel.)
     ---------------------------------------------------------------
         1    5      --------------- below threshold  4.31084293E-05
         1    7      --------------- below threshold  4.31068935E-05
         2    6      --------------- below threshold  4.31084293E-05
         2    8      --------------- below threshold  4.31068935E-05
         3    5      --------------- below threshold  4.31097157E-05
         3    7      --------------- below threshold  4.31057565E-05
         4    6      --------------- below threshold  4.31097157E-05
         4    8      --------------- below threshold  4.31057565E-05
         5    9      --------------- below threshold  3.85862145E-04
         6   10      --------------- below threshold  3.85862145E-04
         7    9      --------------- below threshold  3.85907430E-04
         8   10      --------------- below threshold  3.85907430E-04
        11   13            16.649168  1.77682383E-01  1.52322031E-01
        11   15            16.649168  1.77682383E-01  1.52322031E-01
        11   17            16.647924  1.77671208E-01  1.52314076E-01
        12   14            16.649168  1.77682383E-01  1.52322031E-01
        12   16            16.649168  1.77682383E-01  1.52322031E-01
        12   18            16.647924  1.77671208E-01  1.52314076E-01
        13   17      --------------- below threshold  3.39943060E-04
        14   18      --------------- below threshold  3.39943060E-04
        15   17      --------------- below threshold  3.39950332E-04
        16   18      --------------- below threshold  3.39950332E-04
     ---------------------------------------------------------------

 Number of problematic transitions =                    22

--

 Electric-dipole - electric-octupole not included
++ Total transition strengths for the second-order expansion of the wave vector (SO states):
   -----------------------------------------------------------------------------------------
    for osc. strength at least    1.0000000000000001E-005

      From   To        Osc. strength
     -------------------------------
         1   11       5.64978592E-05
         2   12       5.64978592E-05
         3   11       5.64978592E-05
         4   12       5.64978592E-05
         5   11       5.64907445E-05
         6   12       5.64907445E-05
         7   11       5.64907441E-05
         8   12       5.64907441E-05
         9   11       5.64883573E-05
        10   12       5.64883573E-05
     -------------------------------
--

++ I/O STATISTICS
 
  I. General I/O information
  - - - - - - - - - - - - - - - - - - - - - - - - - - - - - - - - - - - - - - - - - - -
  Unit  Name          Flsize      Write/Read            MBytes           Write/Read
                      (MBytes)       Calls              In/Out           Time, sec.
  - - - - - - - - - - - - - - - - - - - - - - - - - - - - - - - - - - - - - - - - - - -
   1  SCRATCH           0.00 .       9/      45 .      0.0/      0.0 .       0/       0
   2  ANNI              0.00 .       0/       0 .      0.0/      0.0 .       0/       0
   3  RUNFILE          15.31 .     322/   10301 .      2.3/     74.7 .       0/       0
   4  ONEINT            6.58 .       0/   28767 .      0.0/   3777.9 .       0/       0
   5  JOBIPH            7.70 .       0/      92 .      0.0/      0.9 .       0/       0
   6  ORDINT          771.03 .       1/    6169 .      0.0/   1542.0 .       0/       0
  - - - - - - - - - - - - - - - - - - - - - - - - - - - - - - - - - - - - - - - - - - -
   *  TOTAL           800.62 .     332/   45374 .      2.3/   5395.5 .       0/       0
  - - - - - - - - - - - - - - - - - - - - - - - - - - - - - - - - - - - - - - - - - - -
 
  II. I/O Access Patterns
  - - - - - - - - - - - - - - - - - - - -
  Unit  Name               % of random
                         Write/Read calls
  - - - - - - - - - - - - - - - - - - - -
   1  SCRATCH             88.9/ 100.0
   2  ANNI                 0.0/   0.0
   3  RUNFILE             28.6/  10.8
   4  ONEINT               0.0/  13.4
   5  JOBIPH               0.0/  76.1
   6  ORDINT             100.0/   0.0
  - - - - - - - - - - - - - - - - - - - -
--
--- Stop Module: rassi at Thu Mar 27 00:11:34 2025 /rc=_RC_ALL_IS_WELL_ ---
*** files: xmldump
    saved to directory /home4/s4752295/Internship/Initial_simulations/Point_charge_model/1_electron/Madelung_charges_9_active_space/Ta
--- Module rassi spent 3 seconds ---

.##################.
.# Happy landing! #.
.##################.

    Timing: Wall=66.04 User=56.16 System=8.78

###############################################################################
Hbrk Cluster
Job 15913435 for user s4752295
Finished at: Thu Mar 27 00:11:38 CET 2025

Job details:
============

Job ID                         : 15913435
Name                           : Ta_no_SO
User                           : s4752295
Partition                      : regularmedium
Nodes                          : node99
Number of Nodes                : 1
Cores                          : 1
Number of Tasks                : 1
State                          : COMPLETED  
Submit                         : 2025-03-27T00:10:17
Start                          : 2025-03-27T00:10:22
End                            : 2025-03-27T00:11:34
Reserved walltime              : 15:00:00
Used walltime                  : 00:01:12
Used CPU time                  : 00:01:06 (Efficiency: 91.72%)
% User (Computation)           : 86.38%
% System (I/O)                 : 13.62%
Total memory reserved          : 25000M
Maximum memory used            : 3.06G

Acknowledgements:
=================

Please see this page for information about acknowledging Hbrk in your publications:

https://wiki.hpc.rug.nl/habrok/introduction/scientific_output

################################################################################
