   This run of MOLCAS is using the pymolcas driver

                             OPE
                             OPE          NMOL  CASOP  ENMOLC A   SO
                 OPE        NMOLC        AS  OP EN  MO LC     AS  OP
                OPENM       OL CA        SO  PE NM  OL CA     SOP EN
                OP EN      MO   LC       AS  OP ENMOL  CASO   PENMOL
                OP  EN     MO   LC       AS  OP EN     MO     LC ASO
               OP   E  NMOL  C  AS       OP  EN MO     LC     AS  OP
               OP  E   NMO   LC AS        OPEN  MO     LCASOP EN   M
               O  PEN   MO  LCA  SO
            OPE   NMO   L   CAS    OP
        OPENMOL  CASOP     ENMOL   CASOPE
     OPENMOLCA   SOPENMOLCASOPEN   MOLCASOPE
    OPENMOLCAS   OP           EN   MOL    CAS
    OPENMOLCAS       OP  ENM        O     LCA
    OPENMOLCAS    OPEN  MOLCASO     P  E  NMO
    OPENMOLCAS     OP               E  N  MOL
    OPENMOLCA   SO           PENM   O  L  CAS    OPEN    MO    LCAS
    OPENMOLCA   SOP           ENM   O  L  CAS   OP  EN  MOLC  AS   O
    OPENMOLCA   SOPE           NM      O  LCA   S      OP  EN MO
    OPENMOLC                AS         O  PEN   M      OL  CA  SOPE
    OPENMO        LCASOPE  NMOL        C  ASO   P      ENMOLC     AS
    OPE     NMO      LCA  SO     P     E   NM   OL  CA SO  PE N   MO
          OPENMOLCA            SOPE   NMO        LCAS  O    P  ENMO
     OPENMOLCASOPENMOLCASOPENMOLCASOPENMOLCA
        OPENMOLCASOPENMOLCASOPENMOLCASOPE
            OPENMOLCASOPENMOLCASOPENM
               OPENMOLCASOPENMOLCA        version: o91e1abe7de707b ?
                   OPENMOLCASO
                       OPE                tag:

 OpenMolcas is free software; you can redistribute it and/or modify it
 under the terms of the GNU Lesser General Public License version 2.1.
 OpenMolcas is distributed in the hope that it will be useful, but it
 is provided "as is" and without any express or implied warranties.
 For more details see the full text of the license in the file
 LICENSE or in <http://www.gnu.org/licenses/>.

                 Copyright (C) The OpenMolcas Authors
           For the author list and the recommended citation,
                   consult the file CONTRIBUTORS.md

           *************************************************
           * pymolcas version py2.10                       *
           *   build 3068ae8b88c9345ec6cfef6fef7f1169      *
           *   (after the EMIL interpreter by V. Veryazov) *
           *************************************************

configuration info
------------------
Host name: login1 (Linux)
C Compiler ID: GNU
C flags: -std=gnu99
Fortran Compiler ID: GNU
Fortran flags: -fno-aggressive-loop-optimizations -cpp -fdefault-integer-8 -fmax-stack-var-size=1048576
Definitions: _MOLCAS_;_I8_;_LINUX_;_MKL_
Parallel: OFF (GA=OFF)


   -----------------------------------------------------------------------------------------------------------------------------------
  |
  |           Project: tantalum_so_cf
  |    Submitted from: /home4/s4752295/Internship/Initial_simulations/Point_charge_model/1_electron/Madelung_charges_9_active_space/Ta
  |      Scratch area: /tmp/tantalum_so_cf
  |   Save outputs to: /home4/s4752295/Internship/Initial_simulations/Point_charge_model/1_electron/Madelung_charges_9_active_space/Ta
  |            Molcas: /home4/s4752295/Internship/Molcas/recomp_try/OpenMolcas-master/build
  |
  | Scratch area is empty
  |
  |    MOLCAS_DRIVER = /home4/s4752295/Internship/Molcas/bin/pymolcas
  |    MOLCAS_NPROCS = 1
  |    MOLCAS_SOURCE = /home4/s4752295/Internship/Molcas/recomp_try/OpenMolcas-master
  | MOLCAS_STRUCTURE = 0
  |
   -----------------------------------------------------------------------------------------------------------------------------------

++ ---------   Input file   ---------

&SEWARD
AMFi

CLIG
$R

Basis Set
Ta.ANO-rcc.Roos.24s21p15d11f4g2h.11s10p9d8f4g2h.
Spherical d
Ta            -1.0658140267135469e-14   -3.5527134223784897e-15 0.008753588724385739
End of Basis

Xfield

414
-0.400220108,-0.15400000000000003,0.0889119     -0.625931
-0.400220108,-0.0,-0.1778239    -0.625931
-0.400220108,0.15400000000000003,0.0889119      -0.625931
-0.39953460700000004,0.0,0.0    1.892092
0.26591796900000003,-0.15400000000000003,-0.0889119     2.515516
0.26591796900000003,0.0,0.1778239       2.515516
0.26591796900000003,0.15400000000000003,-0.0889119      2.515516
0.356298828,-0.30800000000000005,0.0    0.004632
0.356298828,-0.15400000000000003,-0.2667358     0.004632
0.356298828,-0.15400000000000003,0.2667358      0.004632
0.356298828,0.15400000000000003,-0.2667358      0.004632
0.356298828,0.15400000000000003,0.2667358       0.004632
0.356298828,0.30800000000000005,0.0     0.004632
0.41291503900000004,-0.15400000000000003,0.0889119      -2.519484
0.41291503900000004,-0.0,-0.1778239     -2.519484
0.41291503900000004,0.15400000000000003,0.0889119       -2.519484
-0.29331054700000003,-0.0,-0.0  -3.142907
-0.4975097660000001,-0.30800000000000005,-0.1778239     -0.625931
-0.4975097660000001,0.0,0.3556477       -0.625931
-0.4975097660000001,0.30800000000000005,-0.1778239      -0.625931
-0.6609375000000001,-0.30800000000000005,0.0    1.892092
-0.6609375000000001,-0.15400000000000003,-0.2667358     1.892092
-0.6609375000000001,-0.15400000000000003,0.2667358      1.892092
-0.6609375000000001,0.15400000000000003,-0.2667358      1.892092
-0.6609375000000001,0.15400000000000003,0.2667358       1.892092
-0.6609375000000001,0.30800000000000005,0.0     1.892092
2.5171875000000004,-0.30800000000000005,0.1778239       2.515516
2.5171875000000004,-0.0,-0.3556477      2.515516
2.5171875000000004,0.30800000000000005,0.1778239        2.515516
0.363867188,-0.30800000000000005,-0.1778239     -2.519484
0.363867188,0.0,0.3556477       -2.519484
0.363867188,0.30800000000000005,-0.1778239      -2.519484
-0.32324218800000004,-0.30800000000000005,-0.0  -3.142907
-0.32324218800000004,-0.15400000000000003,-0.2667358    -3.142907
-0.32324218800000004,-0.15400000000000003,0.2667358     -3.142907
-0.32324218800000004,0.15400000000000003,-0.2667358     -3.142907
-0.32324218800000004,0.15400000000000003,0.2667358      -3.142907
-0.32324218800000004,0.30800000000000005,-0.0   -3.142907
-0.95234375,-0.30800000000000005,0.3556477      -0.625931
-0.95234375,0.30800000000000005,0.3556477       -0.625931
-0.95234375,-0.462,0.0889119    -0.625931
-0.95234375,0.462,0.0889119     -0.625931
-0.95234375,-0.15400000000000003,-0.44455970000000006   -0.625931
-0.95234375,0.15400000000000003,-0.44455970000000006    -0.625931
0.60078125,-0.15400000000000003,-0.0889119      4.409069
0.60078125,0.15400000000000003,-0.0889119       4.409069
0.60078125,0.0,0.1778239        4.409069
-17.525000000000002,-0.0,-0.0   -5.030367
-17.525000000000002,0.0,0.0     5.039632
1.351757812,-0.30800000000000005,-0.3556477     2.515516
1.351757812,0.30800000000000005,-0.3556477      2.515516
1.351757812,-0.462,-0.0889119   2.515516
1.351757812,0.462,-0.0889119    2.515516
1.351757812,-0.15400000000000003,0.44455970000000006    2.515516
1.351757812,0.15400000000000003,0.44455970000000006     2.515516
1.9039062500000001,-0.462,-0.2667358    0.004632
1.9039062500000001,-0.462,0.2667358     0.004632
1.9039062500000001,0.462,-0.2667358     0.004632
1.9039062500000001,0.462,0.2667358      0.004632
1.9039062500000001,-0.0,-0.5334716      0.004632
1.9039062500000001,0.0,0.5334716        0.004632
4.807812500000001,-0.30800000000000005,0.3556477        -2.519484
4.807812500000001,0.30800000000000005,0.3556477 -2.519484
4.807812500000001,-0.462,0.0889119      -2.519484
4.807812500000001,0.462,0.0889119       -2.519484
4.807812500000001,-0.15400000000000003,-0.44455970000000006     -2.519484
4.807812500000001,0.15400000000000003,-0.44455970000000006      -2.519484
-14.5875,-0.462,-0.2667358      1.892092
-14.5875,-0.462,0.2667358       1.892092
-14.5875,0.462,-0.2667358       1.892092
-14.5875,0.462,0.2667358        1.892092
-14.5875,-0.0,-0.5334716        1.892092
-14.5875,0.0,0.5334716  1.892092
-11.775,-0.30800000000000005,0.1778239  4.409069
-11.775,-0.0,-0.3556477 4.409069
-11.775,0.30800000000000005,0.1778239   4.409069
-8.9,-0.30800000000000005,-0.0  -5.030367
-8.9,-0.15400000000000003,-0.2667358    -5.030367
-8.9,-0.15400000000000003,0.2667358     -5.030367
-8.9,0.15400000000000003,-0.2667358     -5.030367
-8.9,-0.30800000000000005,0.0   5.039632
-8.9,0.30800000000000005,-0.0   -5.030367
-8.9,0.15400000000000003,0.2667358      -5.030367
-8.9,-0.15400000000000003,-0.2667358    5.039632
-8.9,-0.15400000000000003,0.2667358     5.039632
-8.9,0.15400000000000003,-0.2667358     5.039632
-8.9,0.30800000000000005,0.0    5.039632
-8.9,0.15400000000000003,0.2667358      5.039632
-4.6625000000000005,-0.15400000000000003,-0.0889119     -5.660931
-4.6625000000000005,0.0,0.1778239       -5.660931
-4.6625000000000005,0.15400000000000003,-0.0889119      -5.660931
0.08828125,-0.6159999,0.0       0.004632
0.08828125,-0.30800000000000005,-0.5334716      0.004632
0.08828125,-0.30800000000000005,0.5334716       0.004632
0.08828125,0.30800000000000005,-0.5334716       0.004632
0.08828125,0.6159999,0.0        0.004632
0.08828125,0.30800000000000005,0.5334716        0.004632
6.79375,-0.462,0.2667358        -3.142907
6.79375,-0.462,-0.2667358       -3.142907
6.79375,0.462,-0.2667358        -3.142907
6.79375,0.462,0.2667358 -3.142907
6.79375,-0.0,-0.5334716 -3.142907
6.79375,0.0,0.5334716   -3.142907
8.637500000000001,-0.6159999,-0.1778239 -0.625931
8.637500000000001,-0.462,-0.44455970000000006   -0.625931
8.637500000000001,-0.15400000000000003,0.6223835000000001       -0.625931
8.637500000000001,0.462,-0.44455970000000006    -0.625931
8.637500000000001,0.6159999,-0.1778239  -0.625931
8.637500000000001,0.15400000000000003,0.6223835000000001        -0.625931
0.11972656200000001,-0.6159999,0.0      1.892092
0.11972656200000001,-0.30800000000000005,-0.5334716     1.892092
0.11972656200000001,-0.30800000000000005,0.5334716      1.892092
0.11972656200000001,0.30800000000000005,-0.5334716      1.892092
0.11972656200000001,0.6159999,0.0       1.892092
0.11972656200000001,0.30800000000000005,0.5334716       1.892092
3.3843750000000004,-0.30800000000000005,-0.3556477      4.409069
3.3843750000000004,0.30800000000000005,-0.3556477       4.409069
3.3843750000000004,-0.462,-0.0889119    4.409069
3.3843750000000004,0.462,-0.0889119     4.409069
3.3843750000000004,-0.15400000000000003,0.44455970000000006     4.409069
3.3843750000000004,0.15400000000000003,0.44455970000000006      4.409069
16.240625,-0.30800000000000005,0.1778239        -5.660931
16.240625,-0.0,-0.3556477       -5.660931
16.240625,0.30800000000000005,0.1778239 -5.660931
0.034375,-0.6159999,0.1778239   2.515516
0.034375,-0.15400000000000003,-0.6223835000000001       2.515516
0.034375,-0.462,0.44455970000000006     2.515516
0.034375,0.15400000000000003,-0.6223835000000001        2.515516
0.034375,0.6159999,0.1778239    2.515516
0.034375,0.462,0.44455970000000006      2.515516
-9.418750000000001,-0.6159999,-0.1778239        -2.519484
-9.418750000000001,-0.462,-0.44455970000000006  -2.519484
-9.418750000000001,-0.15400000000000003,0.6223835000000001      -2.519484
-9.418750000000001,0.462,-0.44455970000000006   -2.519484
-9.418750000000001,0.15400000000000003,0.6223835000000001       -2.519484
-9.418750000000001,0.6159999,-0.1778239 -2.519484
-2.20703125,-0.6159999,-0.0     -3.142907
-2.20703125,-0.30800000000000005,-0.5334716     -3.142907
-2.20703125,-0.30800000000000005,0.5334716      -3.142907
-2.20703125,0.30800000000000005,-0.5334716      -3.142907
-2.20703125,0.30800000000000005,0.5334716       -3.142907
-2.20703125,0.6159999,-0.0      -3.142907
60.650000000000006,0.0,0.0      6.927092
32.325,-0.6159999,0.3556477     -0.625931
32.325,0.6159999,0.3556477      -0.625931
32.325,-0.0,-0.7112955000000001 -0.625931
-0.5421875,-0.462,0.2667358     -5.030367
-0.5421875,-0.462,-0.2667358    -5.030367
-0.5421875,-0.462,0.2667358     5.039632
-0.5421875,-0.462,-0.2667358    5.039632
-0.5421875,0.462,-0.2667358     -5.030367
-0.5421875,0.462,0.2667358      -5.030367
-0.5421875,0.462,-0.2667358     5.039632
-0.5421875,0.462,0.2667358      5.039632
-0.5421875,-0.0,-0.5334716      -5.030367
-0.5421875,0.0,0.5334716        -5.030367
-0.5421875,-0.0,-0.5334716      5.039632
-0.5421875,0.0,0.5334716        5.039632
9.18125,-0.30800000000000005,-0.3556477 -5.660931
9.18125,0.30800000000000005,-0.3556477  -5.660931
9.18125,-0.462,-0.0889119       -5.660931
9.18125,0.462,-0.0889119        -5.660931
9.18125,-0.15400000000000003,0.44455970000000006        -5.660931
9.18125,0.15400000000000003,0.44455970000000006 -5.660931
30.05,-0.6159999,-0.3556477     2.515516
30.05,0.6159999,-0.3556477      2.515516
30.05,0.0,0.7112955000000001    2.515516
-51.725,-0.6159999,0.3556477    -2.519484
-51.725,0.6159999,0.3556477     -2.519484
-51.725,-0.0,-0.7112955000000001        -2.519484
5.35625,-0.30800000000000005,0.0        6.927092
5.35625,-0.15400000000000003,-0.2667358 6.927092
5.35625,-0.15400000000000003,0.2667358  6.927092
5.35625,0.15400000000000003,-0.2667358  6.927092
5.35625,0.15400000000000003,0.2667358   6.927092
5.35625,0.30800000000000005,0.0 6.927092
-5.525,-0.15400000000000003,0.0889119   7.550516
-5.525,0.0,-0.1778239   7.550516
-5.525,0.15400000000000003,0.0889119    7.550516
1.553125,-0.15400000000000003,-0.0889119        -7.554483
1.553125,0.15400000000000003,-0.0889119 -7.554483
1.553125,-0.0,0.1778239 -7.554483
-12.4875,-0.7699999000000001,0.0889119  -0.625931
-12.4875,-0.462,0.6223835000000001      -0.625931
-12.4875,-0.30800000000000005,-0.7112955000000001       -0.625931
-12.4875,0.30800000000000005,-0.7112955000000001        -0.625931
-12.4875,0.7699999000000001,0.0889119   -0.625931
-12.4875,0.462,0.6223835000000001       -0.625931
-6.74375,-0.6159999,0.1778239   4.409069
-6.74375,-0.462,0.44455970000000006     4.409069
-6.74375,-0.15400000000000003,-0.6223835000000001       4.409069
-6.74375,0.15400000000000003,-0.6223835000000001        4.409069
-6.74375,0.462,0.44455970000000006      4.409069
-6.74375,0.6159999,0.1778239    4.409069
4.915625,-0.6159999,-0.0        -5.030367
4.915625,-0.30800000000000005,-0.5334716        -5.030367
4.915625,-0.30800000000000005,0.5334716 -5.030367
4.915625,-0.6159999,0.0 5.039632
4.915625,-0.30800000000000005,-0.5334716        5.039632
4.915625,0.30800000000000005,-0.5334716 -5.030367
4.915625,0.30800000000000005,0.5334716  -5.030367
4.915625,0.6159999,-0.0 -5.030367
4.915625,-0.30800000000000005,0.5334716 5.039632
4.915625,0.30800000000000005,-0.5334716 5.039632
4.915625,0.6159999,0.0  5.039632
4.915625,0.30800000000000005,0.5334716  5.039632
18.075,-0.7699999000000001,-0.0889119   2.515516
18.075,-0.462,-0.6223835000000001       2.515516
18.075,-0.30800000000000005,0.7112955000000001  2.515516
18.075,0.462,-0.6223835000000001        2.515516
18.075,0.7699999000000001,-0.0889119    2.515516
18.075,0.30800000000000005,0.7112955000000001   2.515516
-2.334375,-0.7699999000000001,-0.2667358        0.004632
-2.334375,-0.7699999000000001,0.2667358 0.004632
-2.334375,-0.6159999,-0.5334716 0.004632
-2.334375,-0.6159999,0.5334716  0.004632
-2.334375,-0.15400000000000003,-0.8002074000000001      0.004632
-2.334375,0.15400000000000003,-0.8002074000000001       0.004632
-2.334375,-0.15400000000000003,0.8002074000000001       0.004632
-2.334375,0.6159999,-0.5334716  0.004632
-2.334375,0.15400000000000003,0.8002074000000001        0.004632
-2.334375,0.7699999000000001,-0.2667358 0.004632
-2.334375,0.7699999000000001,0.2667358  0.004632
-2.334375,0.6159999,0.5334716   0.004632
-14.3125,-0.7699999000000001,0.0889119  -2.519484
-14.3125,-0.462,0.6223835000000001      -2.519484
-14.3125,-0.30800000000000005,-0.7112955000000001       -2.519484
-14.3125,0.30800000000000005,-0.7112955000000001        -2.519484
-14.3125,0.7699999000000001,0.0889119   -2.519484
-14.3125,0.462,0.6223835000000001       -2.519484
303.2,-0.0,-0.0 -8.177907
-11.600000000000001,-0.30800000000000005,-0.1778239     7.550516
-11.600000000000001,0.0,0.3556477       7.550516
-11.600000000000001,0.30800000000000005,-0.1778239      7.550516
-60.35,-0.30800000000000005,0.1778239   -7.554483
-60.35,-0.0,-0.3556477  -7.554483
-60.35,0.30800000000000005,0.1778239    -7.554483
4.890625,-0.7699999000000001,0.2667358  1.892092
4.890625,-0.7699999000000001,-0.2667358 1.892092
4.890625,-0.6159999,-0.5334716  1.892092
4.890625,-0.6159999,0.5334716   1.892092
4.890625,-0.15400000000000003,-0.8002074000000001       1.892092
4.890625,0.15400000000000003,-0.8002074000000001        1.892092
4.890625,-0.15400000000000003,0.8002074000000001        1.892092
4.890625,0.6159999,-0.5334716   1.892092
4.890625,0.15400000000000003,0.8002074000000001 1.892092
4.890625,0.7699999000000001,-0.2667358  1.892092
4.890625,0.7699999000000001,0.2667358   1.892092
4.890625,0.6159999,0.5334716    1.892092
-50.5,-0.6159999,-0.3556477     4.409069
-50.5,0.6159999,-0.3556477      4.409069
-50.5,0.0,0.7112955000000001    4.409069
2.58203125,-0.6159999,0.1778239 -5.660931
2.58203125,-0.15400000000000003,-0.6223835000000001     -5.660931
2.58203125,-0.462,0.44455970000000006   -5.660931
2.58203125,0.15400000000000003,-0.6223835000000001      -5.660931
2.58203125,0.462,0.44455970000000006    -5.660931
2.58203125,0.6159999,0.1778239  -5.660931
-5.8187500000000005,-0.6159999,-0.5334716       -3.142907
-5.8187500000000005,-0.7699999000000001,0.2667358       -3.142907
-5.8187500000000005,-0.7699999000000001,-0.2667358      -3.142907
-5.8187500000000005,-0.6159999,0.5334716        -3.142907
-5.8187500000000005,-0.15400000000000003,-0.8002074000000001    -3.142907
-5.8187500000000005,0.15400000000000003,-0.8002074000000001     -3.142907
-5.8187500000000005,-0.15400000000000003,0.8002074000000001     -3.142907
-5.8187500000000005,0.7699999000000001,-0.2667358       -3.142907
-5.8187500000000005,0.6159999,-0.5334716        -3.142907
-5.8187500000000005,0.15400000000000003,0.8002074000000001      -3.142907
-5.8187500000000005,0.7699999000000001,0.2667358        -3.142907
-5.8187500000000005,0.6159999,0.5334716 -3.142907
6.540625,-0.462,-0.2667358      6.927092
6.540625,-0.462,0.2667358       6.927092
6.540625,0.462,-0.2667358       6.927092
6.540625,0.462,0.2667358        6.927092
6.540625,-0.0,-0.5334716        6.927092
6.540625,0.0,0.5334716  6.927092
-8.325000000000001,-0.30800000000000005,-0.0    -8.177907
-8.325000000000001,-0.15400000000000003,0.2667358       -8.177907
-8.325000000000001,-0.15400000000000003,-0.2667358      -8.177907
-8.325000000000001,0.15400000000000003,-0.2667358       -8.177907
-8.325000000000001,0.30800000000000005,-0.0     -8.177907
-8.325000000000001,0.15400000000000003,0.2667358        -8.177907
-9.090625000000001,-0.30800000000000005,0.3556477       7.550516
-9.090625000000001,0.30800000000000005,0.3556477        7.550516
-9.090625000000001,-0.462,0.0889119     7.550516
-9.090625000000001,0.462,0.0889119      7.550516
-9.090625000000001,-0.15400000000000003,-0.44455970000000006    7.550516
-9.090625000000001,0.15400000000000003,-0.44455970000000006     7.550516
-4.5687500000000005,-0.30800000000000005,-0.3556477     -7.554483
-4.5687500000000005,0.30800000000000005,-0.3556477      -7.554483
-4.5687500000000005,-0.462,-0.0889119   -7.554483
-4.5687500000000005,0.462,-0.0889119    -7.554483
-4.5687500000000005,-0.15400000000000003,0.44455970000000006    -7.554483
-4.5687500000000005,0.15400000000000003,0.44455970000000006     -7.554483
-50.025000000000006,0.0,0.8891193       -0.625931
-50.025000000000006,-0.7699999000000001,-0.44455970000000006    -0.625931
-50.025000000000006,0.7699999000000001,-0.44455970000000006     -0.625931
-26.975,-0.7699999000000001,-0.0889119  4.409069
-26.975,-0.462,-0.6223835000000001      4.409069
-26.975,-0.30800000000000005,0.7112955000000001 4.409069
-26.975,0.462,-0.6223835000000001       4.409069
-26.975,0.7699999000000001,-0.0889119   4.409069
-26.975,0.30800000000000005,0.7112955000000001  4.409069
31.0375,-0.6159999,-0.3556477   -5.660931
31.0375,0.6159999,-0.3556477    -5.660931
31.0375,0.0,0.7112955000000001  -5.660931
58.7,-0.0,-0.8891193    2.515516
58.7,-0.7699999000000001,0.44455970000000006    2.515516
58.7,0.7699999000000001,0.44455970000000006     2.515516
-9.387500000000001,-0.9239999,-0.0      0.004632
-9.387500000000001,0.462,-0.8002074000000001    0.004632
-9.387500000000001,-0.462,0.8002074000000001    0.004632
-9.387500000000001,0.9239999,-0.0       0.004632
-9.387500000000001,-0.462,-0.8002074000000001   0.004632
-9.387500000000001,0.462,0.8002074000000001     0.004632
-38.575,0.0,0.8891193   -2.519484
-38.575,-0.7699999000000001,-0.44455970000000006        -2.519484
-38.575,0.7699999000000001,-0.44455970000000006 -2.519484
22.8,-0.6159999,0.0     6.927092
22.8,-0.30800000000000005,-0.5334716    6.927092
22.8,-0.30800000000000005,0.5334716     6.927092
22.8,0.30800000000000005,-0.5334716     6.927092
22.8,0.6159999,0.0      6.927092
22.8,0.30800000000000005,0.5334716      6.927092
21.1875,-0.9239999,-0.1778239   -0.625931
21.1875,-0.30800000000000005,0.8891193  -0.625931
21.1875,-0.6159999,-0.7112955000000001  -0.625931
21.1875,0.6159999,-0.7112955000000001   -0.625931
21.1875,0.30800000000000005,0.8891193   -0.625931
21.1875,0.9239999,-0.1778239    -0.625931
11.193750000000001,-0.9239999,0.0       1.892092
11.193750000000001,-0.462,-0.8002074000000001   1.892092
11.193750000000001,-0.462,0.8002074000000001    1.892092
11.193750000000001,0.462,-0.8002074000000001    1.892092
11.193750000000001,0.9239999,0.0        1.892092
11.193750000000001,0.462,0.8002074000000001     1.892092
-0.43203125000000003,-0.7699999000000001,0.2667358      -5.030367
-0.43203125000000003,-0.7699999000000001,-0.2667358     -5.030367
-0.43203125000000003,-0.6159999,-0.5334716      -5.030367
-0.43203125000000003,-0.6159999,0.5334716       -5.030367
-0.43203125000000003,-0.7699999000000001,0.2667358      5.039632
-0.43203125000000003,0.15400000000000003,-0.8002074000000001    -5.030367
-0.43203125000000003,-0.15400000000000003,-0.8002074000000001   -5.030367
-0.43203125000000003,-0.7699999000000001,-0.2667358     5.039632
-0.43203125000000003,-0.6159999,-0.5334716      5.039632
-0.43203125000000003,-0.15400000000000003,0.8002074000000001    -5.030367
-0.43203125000000003,0.15400000000000003,-0.8002074000000001    5.039632
-0.43203125000000003,-0.6159999,0.5334716       5.039632
-0.43203125000000003,-0.15400000000000003,-0.8002074000000001   5.039632
-0.43203125000000003,0.6159999,-0.5334716       -5.030367
-0.43203125000000003,0.15400000000000003,0.8002074000000001     -5.030367
-0.43203125000000003,0.7699999000000001,-0.2667358      -5.030367
-0.43203125000000003,0.7699999000000001,0.2667358       -5.030367
-0.43203125000000003,0.6159999,0.5334716        -5.030367
-0.43203125000000003,-0.15400000000000003,0.8002074000000001    5.039632
-0.43203125000000003,0.6159999,-0.5334716       5.039632
-0.43203125000000003,0.7699999000000001,-0.2667358      5.039632
-0.43203125000000003,0.15400000000000003,0.8002074000000001     5.039632
-0.43203125000000003,0.7699999000000001,0.2667358       5.039632
-0.43203125000000003,0.6159999,0.5334716        5.039632
-0.06875,-0.7699999000000001,-0.0889119 -5.660931
-0.06875,-0.462,-0.6223835000000001     -5.660931
-0.06875,-0.30800000000000005,0.7112955000000001        -5.660931
-0.06875,0.462,-0.6223835000000001      -5.660931
-0.06875,0.30800000000000005,0.7112955000000001 -5.660931
-0.06875,0.7699999000000001,-0.0889119  -5.660931
11.600000000000001,-0.15400000000000003,0.0889119       9.444068
11.600000000000001,0.0,-0.1778239       9.444068
11.600000000000001,0.15400000000000003,0.0889119        9.444068
5.1312500000000005,-0.9239999,0.1778239 2.515516
5.1312500000000005,-0.30800000000000005,-0.8891193      2.515516
5.1312500000000005,0.30800000000000005,-0.8891193       2.515516
5.1312500000000005,-0.6159999,0.7112955000000001        2.515516
5.1312500000000005,0.9239999,0.1778239  2.515516
5.1312500000000005,0.6159999,0.7112955000000001 2.515516
15.6875,-0.9239999,-0.1778239   -2.519484
15.6875,-0.30800000000000005,0.8891193  -2.519484
15.6875,-0.6159999,-0.7112955000000001  -2.519484
15.6875,0.6159999,-0.7112955000000001   -2.519484
15.6875,0.9239999,-0.1778239    -2.519484
15.6875,0.30800000000000005,0.8891193   -2.519484
21.962500000000002,-0.9239999,-0.0      -3.142907
21.962500000000002,-0.462,-0.8002074000000001   -3.142907
21.962500000000002,-0.462,0.8002074000000001    -3.142907
21.962500000000002,0.462,-0.8002074000000001    -3.142907
21.962500000000002,0.9239999,-0.0       -3.142907
21.962500000000002,0.462,0.8002074000000001     -3.142907
0.864550781,-0.462,-0.2667358   -8.177907
0.864550781,-0.462,0.2667358    -8.177907
0.864550781,0.462,0.2667358     -8.177907
0.864550781,0.462,-0.2667358    -8.177907
0.864550781,-0.0,-0.5334716     -8.177907
0.864550781,0.0,0.5334716       -8.177907
25.1875,-0.462,-0.44455970000000006     7.550516
25.1875,-0.6159999,-0.1778239   7.550516
25.1875,-0.15400000000000003,0.6223835000000001 7.550516
25.1875,0.462,-0.44455970000000006      7.550516
25.1875,0.15400000000000003,0.6223835000000001  7.550516
25.1875,0.6159999,-0.1778239    7.550516
-34.800000000000004,-0.462,0.44455970000000006  -7.554483
-34.800000000000004,-0.6159999,0.1778239        -7.554483
-34.800000000000004,-0.15400000000000003,-0.6223835000000001    -7.554483
-34.800000000000004,0.15400000000000003,-0.6223835000000001     -7.554483
-34.800000000000004,0.6159999,0.1778239 -7.554483
-34.800000000000004,0.462,0.44455970000000006   -7.554483
7.1265625,-0.7699999000000001,0.6223835000000001        -0.625931
7.1265625,-0.9239999,0.3556477  -0.625931
7.1265625,-0.15400000000000003,-0.9780313       -0.625931
7.1265625,0.15400000000000003,-0.9780313        -0.625931
7.1265625,0.9239999,0.3556477   -0.625931
7.1265625,0.7699999000000001,0.6223835000000001 -0.625931
-48.375,-0.0,-0.8891193 4.409069
-48.375,-0.7699999000000001,0.44455970000000006 4.409069
-48.375,0.7699999000000001,0.44455970000000006  4.409069

End of input

&SCF
Occupied
9
Iterations
   50  100
End of Input

&RASSCF
LumOrb
Symmetry
1
Spin
2
Nactel
1 0 0
CIRoot
9 9 1
inactive
9
ras2
9
End of Input

>>> COPY tantalum_so_cf.JobIph $SLURM_SUBMIT_DIR/tantalum_so_cf.doublet.JobIph

>>> COPY $SLURM_SUBMIT_DIR/tantalum_so_cf.doublet.JobIph ./JOB002

&RASSI
NROFJobIph
1 All
SpinOrbit
End of Input

EOF

-- ----------------------------------

--- Start Module: seward at Tue Mar 25 14:17:39 2025 ---

()()()()()()()()()()()()()()()()()()()()()()()()()()()()()()()()()()()()()()()()()()()()()()()()()()

                                              &SEWARD

                                   only a single process is used
                       available to each process: 4.1 GB of memory, 1 thread?
                                            pid: 955374
()()()()()()()()()()()()()()()()()()()()()()()()()()()()()()()()()()()()()()()()()()()()()()()()()()

 The speed of LIGHT in this CALCULATION =   137.03599917700001     
               SEWARD will generate:
                  Multipole Moment integrals up to order  2
                  Kinetic Energy integrals
                  Nuclear Attraction integrals (point charge)
                  One-Electron Hamiltonian integrals
                  Velocity integrals
                  Relativistic Douglas-Kroll-Hess integrals:
                    - Parametrization         : EXP
                    - DKH order of Hamiltonian: 2
                    - DKH order of Properties : 0
                         - multipole moment operators
                         - electric potential operators
                         - contact operators
                  External field from   414 point(s) added to the one-electron Hamiltonian
                  Orbital angular momentum around (-0.0000 -0.0000  0.0088 )
                  Velocity quadrupole around (-0.0000 -0.0000  0.0088 )
                  Atomic mean-field integrals
                  Two-Electron Repulsion integrals

                   Integrals are discarded if absolute value <: 0.10E-13
                   Integral cutoff threshold is set to       <: 0.10E-15

++    Symmetry information:
      ---------------------

                    Character Table for C1 

                             E  
                    a        1  x, y, xy, Rz, z, xz, Ry, yz, Rx, I
--


++    Basis set information:
      ----------------------


      Basis set label: TA.ANO-RCC.ROOS.24S21P15D11F4G2H.11S10P9D8F4G2H......

      Electronic valence basis set:
      ------------------
      Associated Effective Charge  73.000000 au
      Associated Actual Charge     73.000000 au
      Nuclear Model: Point charge

      Shell  nPrim  nBasis  Cartesian Spherical Contaminant
         s      24      11        X                  
         p      21      10        X                  
         d      15       9                 X         
         f      11       8                 X         
         g       4       4                 X         
         h       2       2                 X         
--


++    Molecular structure info:
      -------------------------

                    ************************************************ 
                    **** Cartesian Coordinates / Bohr, Angstrom **** 
                    ************************************************ 

     Center  Label                x              y              z                     x              y              z
        1      TA              -0.000000      -0.000000       0.008754             -0.000000      -0.000000       0.004632
--


++    Operator info:
      --------------


  Net charge from external field:   -39.268449999999902     
--


            Nuclear Potential Energy              0.00000000 au

                    Nuclear-External Field Potential Energy   -6678.44218932 au
                    External Field Potential Energy           16056.36901386 au 


            Total Nuclear Potential Energy          -6678.44218932 au


      Basis set specifications :
      Symmetry species         a  
      Basis functions          200

 Sorry, Molden does not know how to handle
 functions with angular momentum larger than g
Note: The following floating-point exceptions are signalling: IEEE_UNDERFLOW_FLAG IEEE_DENORMAL
--- Stop Module: seward at Tue Mar 25 14:18:01 2025 /rc=_RC_ALL_IS_WELL_ ---
*** files: tantalum_so_cf.GssOrb xmldump
    saved to directory /home4/s4752295/Internship/Initial_simulations/Point_charge_model/1_electron/Madelung_charges_9_active_space/Ta
--- Module seward spent 21 seconds ---

*** symbolic link created: INPORB -> tantalum_so_cf.GssOrb
--- Start Module: scf at Tue Mar 25 14:18:01 2025 ---

()()()()()()()()()()()()()()()()()()()()()()()()()()()()()()()()()()()()()()()()()()()()()()()()()()

                                                &SCF

                                   only a single process is used
                       available to each process: 4.1 GB of memory, 1 thread?
                                            pid: 955382
()()()()()()()()()()()()()()()()()()()()()()()()()()()()()()()()()()()()()()()()()()()()()()()()()()

++    Input section:
      --------------

      Header of the integral files:
      
       Integrals generated by seward 4.2.0  , Tue Mar 25 14:17:40 2025


      Cartesian coordinates in Angstrom:
      -----------------------------------------------------
      No.  Label        X            Y            Z        
      -----------------------------------------------------
       1   TA        -0.00000000  -0.00000000   0.00463220
      -----------------------------------------------------
      Nuclear repulsion energy =-6678.44218932
--

++    Orbital specifications:
      -----------------------

      Symmetry species               1
                                     a
      Frozen orbitals                0
      Occupied orbitals              9
      Secondary orbitals           191
      Deleted orbitals               0
      Total number of orbitals     200
      Number of basis functions    200
--

      Molecular charge                          55.000

++    Optimization specifications:
      ----------------------------

      SCF Algorithm: Conventional
      Minimized density differences are used
      Number of density matrices in core                5
      Maximum number of NDDO SCF iterations            50
      Maximum number of HF SCF iterations             100
      Threshold for SCF energy change            0.10E-08
      Threshold for density matrix               0.10E-03
      Threshold for Fock matrix                  0.15E-03
      Threshold for linear dependence            0.10E-08
      Threshold at which DIIS is turned on       0.15E+00
      Threshold at which QNR/C2DIIS is turned on 0.75E-01
      Threshold for Norm(delta) (QNR/C2DIIS)     0.20E-04
      DIIS extrapolation of the SCF procedure
      All orbitals punched on: SCFORB
--

      Detected guessorb starting orbitals                                             


++ Convergence information
                                   SCF        iterations: Energy and convergence statistics

Iter     Tot. SCF        One-elec.       Two-elec.     Energy      Max Dij or  Max Fij      DNorm      TNorm      AccCon     Time
         Energy          Energy          Energy        Change      Delta Norm                                                in Sec.

 The total and one-electron energies are shifted by a value of     17000. a.u.

   1  -556.919952226  4874.852061777  1246.670175314   0.00E+00    0.79E+00*   0.96E+01*    0.60E+01   0.64E+03   None         1.
   2  -587.370802477  4796.578781483  1294.492605358  -0.30E+02*   0.34E-01*   0.15E+01*    0.26E+01   0.65E+03   EDIIS        1.
   3  -587.480533611  4798.011724627  1292.949931081  -0.11E+00*   0.59E-02*   0.66E-01*    0.79E-01   0.65E+03   EDIIS        1.
   4  -587.481084939  4797.911916039  1293.049188340  -0.55E-03*   0.64E-03*   0.72E-02*    0.77E-02   0.65E+03   EDIIS        1.
   5  -587.481096758  4797.916060281  1293.045032279  -0.12E-04*   0.86E-04    0.20E-02*    0.34E-03   0.65E+03   c2DIIS       1.
   6  -587.481097252  4797.915610682  1293.045481384  -0.49E-06*   0.89E-05    0.14E-03     0.13E-04   0.65E+03   QNRc2DIIS    1.
   7  -587.481097256  4797.915654661  1293.045437401  -0.44E-08*   0.24E-05    0.33E-04     0.72E-03   0.65E+03   QNRc2DIIS    1.
   8  -587.481097256  4797.915648427  1293.045443635  -0.20E-09    0.29E-07    0.55E-06     0.23E-03   0.65E+03   QNRc2DIIS    1.

       Convergence after  8 Macro Iterations
--

 *****************************************************************************************************************************
 *                                                                                                                           *
 *                                             SCF/KS-DFT Program, Final results                                             *
 *                                                                                                                           *
 *                                                                                                                           *
 *                                                                                                                           *
 *                                                       Final Results                                                       *
 *                                                                                                                           *
 *****************************************************************************************************************************

::    Total SCF energy                             -17587.4810972562
      One-electron energy                          -12202.0843515726
      Two-electron energy                            1293.0454436348
      Nuclear repulsion energy                      -6678.4421893184
      Kinetic energy (interpolated)                 18380.8353738962
      Virial theorem                                    0.9568379641
      Total spin, S(S+1)                                0.0000000000
      Total spin, S                                     0.0000000000
      Max non-diagonal density matrix element           0.0000000489
      Max non-diagonal Fock matrix element              0.0000000122


      All orbitals with orbital energies smaller than  E(LUMO)+0.5 are printed

++    Molecular orbitals:
      -------------------

      Title: SCF orbitals

      Molecular orbitals for symmetry species 1: a  

          Some orbital energies have been scaled by powers of 10, the power is written right after the orbital index


          Orbital            1 (1)     2         3         4         5         6         7         8         9        10    
          Energy         -254.2052 -483.2298 -431.8860 -431.8845 -431.4248 -135.8307 -118.6399 -118.6032 -114.4454  -97.7116
          Occ. No.          2.0000    2.0000    2.0000    2.0000    2.0000    2.0000    2.0000    2.0000    2.0000    0.0000

        1 TA     1s         1.0000    0.0002    0.0000   -0.0000   -0.0002   -0.0000   -0.0000   -0.0000    0.0001    0.0000
        2 TA     2s        -0.0002    0.9988    0.0006   -0.0000   -0.0472    0.0097    0.0001   -0.0000   -0.0078    0.0000
        3 TA     3s         0.0001   -0.0118   -0.0001   -0.0000    0.0045    0.9088    0.0034   -0.0000   -0.3771    0.0000
        4 TA     4s        -0.0000    0.0034    0.0000    0.0000   -0.0011   -0.0665   -0.0004   -0.0000    0.0402   -0.0000
        5 TA     5s         0.0000   -0.0012   -0.0000    0.0000    0.0004    0.0189    0.0002   -0.0000   -0.0129   -0.0000
        6 TA     6s        -0.0000    0.0003    0.0000   -0.0000   -0.0001   -0.0051   -0.0000    0.0000    0.0035    0.0000
        7 TA     7s         0.0000   -0.0006   -0.0000   -0.0000    0.0002    0.0086    0.0001    0.0000   -0.0061    0.0000
        8 TA     8s        -0.0000    0.0013    0.0000   -0.0000   -0.0004   -0.0182   -0.0002    0.0000    0.0132    0.0000
        9 TA     9s         0.0000   -0.0016   -0.0000    0.0000    0.0005    0.0209    0.0002   -0.0000   -0.0158   -0.0000
       10 TA    10s        -0.0000    0.0012    0.0000   -0.0000   -0.0004   -0.0135   -0.0002    0.0000    0.0110    0.0000
       11 TA    11s         0.0000   -0.0025   -0.0000   -0.0000    0.0007    0.0231    0.0003    0.0000   -0.0213    0.0000
       12 TA     2px        0.0002    0.0473   -0.0221   -0.0000    0.9985    0.0019   -0.0001    0.0000    0.0107   -0.0000
       13 TA     3px       -0.0001    0.0033    0.0003    0.0000   -0.0143    0.4058   -0.0114   -0.0000    0.7974   -0.0000
       14 TA     4px        0.0000   -0.0009   -0.0001   -0.0000    0.0040   -0.0274    0.0008    0.0000   -0.0782    0.0000
       15 TA     5px       -0.0000    0.0003    0.0000    0.0000   -0.0013    0.0065   -0.0002    0.0000    0.0214    0.0000
       16 TA     6px        0.0000   -0.0001   -0.0000   -0.0000    0.0006   -0.0027    0.0001   -0.0000   -0.0092   -0.0000
       17 TA     7px       -0.0000    0.0004    0.0000    0.0000   -0.0018    0.0077   -0.0003    0.0000    0.0283   -0.0000
       18 TA     8px        0.0000   -0.0005   -0.0000   -0.0000    0.0018   -0.0062    0.0002    0.0000   -0.0261    0.0000
       19 TA     9px       -0.0000    0.0005    0.0000    0.0000   -0.0018    0.0049   -0.0002   -0.0000    0.0244   -0.0000
       20 TA    10px        0.0000   -0.0005   -0.0000   -0.0000    0.0020   -0.0036    0.0002   -0.0000   -0.0239    0.0000
       21 TA    11px       -0.0001    0.0008    0.0001    0.0000   -0.0029    0.0001   -0.0002   -0.0000    0.0254   -0.0000
       22 TA     2py       -0.0000   -0.0000   -0.0000    0.9999   -0.0000    0.0000   -0.0000    0.0119   -0.0000    0.0008
       23 TA     3py        0.0000    0.0000    0.0000   -0.0133    0.0000    0.0000   -0.0000    0.9514    0.0000    0.0300
       24 TA     4py       -0.0000   -0.0000   -0.0000    0.0037   -0.0000   -0.0000    0.0000   -0.0805    0.0000   -0.0012
       25 TA     5py        0.0000    0.0000    0.0000   -0.0012    0.0000    0.0000   -0.0000    0.0218    0.0000    0.0006
       26 TA     6py       -0.0000    0.0000   -0.0000    0.0005   -0.0000   -0.0000    0.0000   -0.0093   -0.0000   -0.0003
       27 TA     7py        0.0000    0.0000    0.0000   -0.0017    0.0000    0.0000   -0.0000    0.0287   -0.0000    0.0009
       28 TA     8py       -0.0000   -0.0000   -0.0000    0.0017   -0.0000   -0.0000    0.0000   -0.0263    0.0000   -0.0010
       29 TA     9py        0.0000    0.0000    0.0000   -0.0017    0.0000    0.0000   -0.0000    0.0243   -0.0000    0.0011
       30 TA    10py       -0.0000   -0.0000   -0.0000    0.0019   -0.0000   -0.0000    0.0000   -0.0238    0.0000   -0.0013
       31 TA    11py        0.0000    0.0000    0.0000   -0.0027    0.0000    0.0000   -0.0000    0.0251   -0.0000    0.0019
       32 TA     2pz        0.0000    0.0004    0.9996    0.0000    0.0221    0.0000    0.0119    0.0000    0.0001   -0.0000
       33 TA     3pz       -0.0000    0.0000   -0.0133   -0.0000   -0.0003    0.0020    0.9501    0.0000    0.0098   -0.0000
       34 TA     4pz        0.0000   -0.0000    0.0037    0.0000    0.0001   -0.0002   -0.0806   -0.0000   -0.0011    0.0000
       35 TA     5pz       -0.0000    0.0000   -0.0012   -0.0000   -0.0000    0.0001    0.0218    0.0000    0.0003    0.0000
       36 TA     6pz        0.0000   -0.0000    0.0005    0.0000    0.0000   -0.0000   -0.0093   -0.0000   -0.0001   -0.0000
       37 TA     7pz       -0.0000    0.0000   -0.0017   -0.0000   -0.0000    0.0001    0.0287    0.0000    0.0004   -0.0000
       38 TA     8pz        0.0000   -0.0000    0.0017    0.0000    0.0000   -0.0001   -0.0263   -0.0000   -0.0004    0.0000
       39 TA     9pz       -0.0000    0.0000   -0.0017   -0.0000   -0.0000    0.0001    0.0243    0.0000    0.0003   -0.0000
       40 TA    10pz        0.0000   -0.0000    0.0019    0.0000    0.0000   -0.0001   -0.0237   -0.0000   -0.0003    0.0000
       41 TA    11pz       -0.0000    0.0000   -0.0027   -0.0000   -0.0001    0.0001    0.0250    0.0000    0.0003   -0.0000
       42 TA     3d2-      -0.0000   -0.0000   -0.0000    0.0046   -0.0000    0.0000   -0.0000    0.2899    0.0000   -0.0914
       43 TA     4d2-       0.0000    0.0000    0.0000   -0.0012    0.0000   -0.0000    0.0000   -0.0131    0.0000    0.0080
       44 TA     5d2-      -0.0000    0.0000   -0.0000    0.0003   -0.0000    0.0000   -0.0000    0.0018   -0.0000   -0.0014
       45 TA     6d2-       0.0000   -0.0000    0.0000   -0.0004    0.0000   -0.0000    0.0000   -0.0027    0.0000    0.0022
       46 TA     7d2-      -0.0000   -0.0000   -0.0000    0.0005   -0.0000    0.0000   -0.0000    0.0027   -0.0000   -0.0025
       47 TA     8d2-       0.0000    0.0000    0.0000   -0.0007    0.0000   -0.0000    0.0000   -0.0025   -0.0000    0.0031
       48 TA     9d2-      -0.0000   -0.0000   -0.0000    0.0007   -0.0000   -0.0000   -0.0000    0.0008   -0.0000   -0.0024
       49 TA    10d2-       0.0000    0.0000    0.0000   -0.0010    0.0000    0.0000   -0.0000    0.0013    0.0000    0.0025
       50 TA    11d2-      -0.0000   -0.0000   -0.0000    0.0011   -0.0000   -0.0000    0.0000   -0.0047   -0.0000   -0.0017
       51 TA     3d1-      -0.0000   -0.0000   -0.0000    0.0000   -0.0000    0.0000    0.0000   -0.0019    0.0000    0.9870
       52 TA     4d1-       0.0000    0.0000    0.0000   -0.0000    0.0000   -0.0000   -0.0000    0.0014   -0.0000   -0.0880
       53 TA     5d1-      -0.0000   -0.0000   -0.0000    0.0000   -0.0000    0.0000    0.0000   -0.0002    0.0000    0.0162
       54 TA     6d1-       0.0000    0.0000    0.0000   -0.0000    0.0000   -0.0000   -0.0000    0.0003   -0.0000   -0.0252
       55 TA     7d1-      -0.0000   -0.0000   -0.0000    0.0000   -0.0000    0.0000    0.0000   -0.0003    0.0000    0.0293
       56 TA     8d1-       0.0000    0.0000    0.0000   -0.0000    0.0000   -0.0000   -0.0000    0.0002   -0.0000   -0.0378
       57 TA     9d1-      -0.0000   -0.0000   -0.0000    0.0000   -0.0000    0.0000   -0.0000    0.0001    0.0000    0.0312
       58 TA    10d1-       0.0000    0.0000    0.0000   -0.0000    0.0000    0.0000    0.0000   -0.0005   -0.0000   -0.0367
       59 TA    11d1-      -0.0000   -0.0000   -0.0000    0.0000   -0.0000   -0.0000   -0.0000    0.0007    0.0000    0.0270
       60 TA     3d0        0.0000    0.0003    0.0001    0.0000   -0.0030   -0.0219    0.0067    0.0000   -0.2249    0.0000
       61 TA     4d0       -0.0000   -0.0001   -0.0000   -0.0000    0.0008    0.0014   -0.0013   -0.0000    0.0133   -0.0000
       62 TA     5d0        0.0000    0.0000    0.0000    0.0000   -0.0002   -0.0002    0.0002    0.0000   -0.0021    0.0000
       63 TA     6d0       -0.0000   -0.0000   -0.0000   -0.0000    0.0003    0.0002   -0.0003   -0.0000    0.0032   -0.0000
       64 TA     7d0        0.0000    0.0000    0.0000    0.0000   -0.0003   -0.0002    0.0003    0.0000   -0.0035    0.0000
       65 TA     8d0       -0.0000   -0.0000   -0.0000   -0.0000    0.0004    0.0000   -0.0002   -0.0000    0.0038   -0.0000
       66 TA     9d0        0.0000    0.0000    0.0000    0.0000   -0.0004    0.0003   -0.0000   -0.0000   -0.0023    0.0000
       67 TA    10d0       -0.0000   -0.0000   -0.0000   -0.0000    0.0006   -0.0010    0.0003    0.0000    0.0013   -0.0000
       68 TA    11d0        0.0000    0.0001    0.0000    0.0000   -0.0006    0.0018   -0.0006   -0.0000    0.0021    0.0000
       69 TA     3d1+      -0.0000   -0.0000    0.0046    0.0000    0.0002   -0.0008    0.2937    0.0000    0.0107    0.0000
       70 TA     4d1+       0.0000    0.0000   -0.0012   -0.0000   -0.0000   -0.0002   -0.0133   -0.0000   -0.0008   -0.0000
       71 TA     5d1+      -0.0000   -0.0000    0.0003    0.0000    0.0000    0.0000    0.0019    0.0000    0.0001    0.0000
       72 TA     6d1+       0.0000    0.0000   -0.0004   -0.0000   -0.0000   -0.0001   -0.0027   -0.0000   -0.0002   -0.0000
       73 TA     7d1+      -0.0000   -0.0000    0.0005    0.0000    0.0000    0.0001    0.0028    0.0000    0.0002    0.0000
       74 TA     8d1+       0.0000    0.0000   -0.0007   -0.0000   -0.0000   -0.0001   -0.0025   -0.0000   -0.0003   -0.0000
       75 TA     9d1+      -0.0000   -0.0000    0.0007    0.0000    0.0000    0.0001    0.0008    0.0000    0.0002    0.0000
       76 TA    10d1+       0.0000    0.0000   -0.0010   -0.0000   -0.0000   -0.0001    0.0014    0.0000   -0.0001   -0.0000
       77 TA    11d1+      -0.0000   -0.0000    0.0011    0.0000    0.0000    0.0000   -0.0050   -0.0000   -0.0002    0.0000
       78 TA     3d2+      -0.0000   -0.0005   -0.0001   -0.0000    0.0051    0.0387   -0.0016   -0.0000    0.3965    0.0000
       79 TA     4d2+       0.0000    0.0001    0.0000    0.0000   -0.0013   -0.0027   -0.0007   -0.0000   -0.0231   -0.0000
       80 TA     5d2+      -0.0000   -0.0000   -0.0000   -0.0000    0.0003    0.0003    0.0001    0.0000    0.0037    0.0000
       81 TA     6d2+       0.0000    0.0000    0.0000    0.0000   -0.0004   -0.0005   -0.0002    0.0000   -0.0055   -0.0000
       82 TA     7d2+      -0.0000   -0.0000   -0.0000   -0.0000    0.0005    0.0004    0.0002    0.0000    0.0060    0.0000
       83 TA     8d2+       0.0000    0.0001    0.0000    0.0000   -0.0007   -0.0001   -0.0001   -0.0000   -0.0066   -0.0000
       84 TA     9d2+      -0.0000   -0.0001   -0.0000   -0.0000    0.0007   -0.0005    0.0000    0.0000    0.0040    0.0000
       85 TA    10d2+       0.0000    0.0001    0.0000    0.0000   -0.0010    0.0017    0.0001    0.0000   -0.0021   -0.0000
       86 TA    11d2+      -0.0000   -0.0001   -0.0000   -0.0000    0.0011   -0.0034   -0.0003   -0.0000   -0.0038    0.0000
       87 TA     4f3-       0.0000    0.0000    0.0000   -0.0001    0.0000    0.0000   -0.0000    0.0015   -0.0000   -0.0064
       88 TA     5f3-      -0.0000    0.0000   -0.0000    0.0001   -0.0000   -0.0000    0.0000   -0.0021    0.0000    0.0050
       89 TA     6f3-       0.0000   -0.0000    0.0000   -0.0001    0.0000    0.0000   -0.0000    0.0024    0.0000   -0.0041
       90 TA     7f3-      -0.0000    0.0000   -0.0000    0.0001   -0.0000   -0.0000    0.0000   -0.0030   -0.0000    0.0039
       91 TA     8f3-       0.0000   -0.0000    0.0000   -0.0001    0.0000    0.0000   -0.0000    0.0035    0.0000   -0.0033
       92 TA     9f3-      -0.0000    0.0000   -0.0000    0.0001   -0.0000    0.0000    0.0000   -0.0036   -0.0000    0.0024
       93 TA    10f3-       0.0000   -0.0000    0.0000   -0.0001    0.0000   -0.0000   -0.0000    0.0031    0.0000   -0.0016
       94 TA    11f3-      -0.0000    0.0000   -0.0000    0.0002   -0.0000    0.0000    0.0000   -0.0021   -0.0000    0.0006
       95 TA     4f2-      -0.0000   -0.0000    0.0000   -0.0000    0.0000   -0.0000    0.0000   -0.0024    0.0000    0.0258
       96 TA     5f2-       0.0000    0.0000   -0.0000    0.0000   -0.0000    0.0000   -0.0000    0.0021    0.0000   -0.0213
       97 TA     6f2-      -0.0000   -0.0000    0.0000   -0.0000    0.0000   -0.0000    0.0000   -0.0019   -0.0000    0.0179
       98 TA     7f2-       0.0000    0.0000   -0.0000    0.0000   -0.0000    0.0000   -0.0000    0.0019    0.0000   -0.0178
       99 TA     8f2-      -0.0000   -0.0000    0.0000   -0.0000    0.0000   -0.0000    0.0000   -0.0018   -0.0000    0.0165
      100 TA     9f2-       0.0000    0.0000   -0.0000    0.0000   -0.0000   -0.0000   -0.0000    0.0014   -0.0000   -0.0134
      101 TA    10f2-      -0.0000   -0.0000    0.0000   -0.0000    0.0000    0.0000    0.0000   -0.0009    0.0000    0.0103
      102 TA    11f2-       0.0000    0.0000   -0.0000    0.0000   -0.0000   -0.0000    0.0000   -0.0001   -0.0000   -0.0076
      103 TA     4f1-      -0.0000    0.0000   -0.0000    0.0000   -0.0000    0.0000    0.0000   -0.0004    0.0000    0.0019
      104 TA     5f1-      -0.0000   -0.0000    0.0000   -0.0000    0.0000   -0.0000   -0.0000    0.0005   -0.0000   -0.0015
      105 TA     6f1-       0.0000    0.0000   -0.0000    0.0000   -0.0000    0.0000    0.0000   -0.0006    0.0000    0.0012
      106 TA     7f1-      -0.0000   -0.0000    0.0000   -0.0000    0.0000   -0.0000   -0.0000    0.0007   -0.0000   -0.0011
      107 TA     8f1-       0.0000    0.0000   -0.0000    0.0000   -0.0000    0.0000    0.0000   -0.0009    0.0000    0.0010
      108 TA     9f1-      -0.0000   -0.0000    0.0000   -0.0000    0.0000   -0.0000   -0.0000    0.0009   -0.0000   -0.0007
      109 TA    10f1-      -0.0000    0.0000   -0.0000    0.0000   -0.0000    0.0000    0.0000   -0.0008    0.0000    0.0005
      110 TA    11f1-       0.0000   -0.0000    0.0000   -0.0000    0.0000   -0.0000   -0.0000    0.0005    0.0000   -0.0002
      111 TA     4f0       -0.0000   -0.0000    0.0001    0.0000    0.0000   -0.0003   -0.0017   -0.0000    0.0023   -0.0000
      112 TA     5f0        0.0000    0.0000   -0.0001   -0.0000   -0.0000    0.0000    0.0019    0.0000   -0.0017    0.0000
      113 TA     6f0       -0.0000   -0.0000    0.0001    0.0000    0.0000    0.0001   -0.0020   -0.0000    0.0012   -0.0000
      114 TA     7f0        0.0000    0.0000   -0.0001   -0.0000   -0.0000   -0.0003    0.0023    0.0000   -0.0010    0.0000
      115 TA     8f0       -0.0000   -0.0000    0.0001    0.0000    0.0000    0.0005   -0.0026   -0.0000    0.0007   -0.0000
      116 TA     9f0        0.0000    0.0000   -0.0001   -0.0000   -0.0000   -0.0005    0.0025    0.0000   -0.0003    0.0000
      117 TA    10f0       -0.0000   -0.0000    0.0001    0.0000    0.0000    0.0004   -0.0022   -0.0000    0.0001   -0.0000
      118 TA    11f0        0.0000   -0.0000   -0.0001   -0.0000   -0.0000    0.0000    0.0013    0.0000    0.0002    0.0000
      119 TA     4f1+       0.0000   -0.0000    0.0000    0.0000    0.0001   -0.0001    0.0014    0.0000   -0.0035    0.0000
      120 TA     5f1+      -0.0000    0.0000   -0.0000   -0.0000   -0.0001    0.0003   -0.0012   -0.0000    0.0029   -0.0000
      121 TA     6f1+       0.0000   -0.0000    0.0000    0.0000    0.0001   -0.0004    0.0011    0.0000   -0.0025    0.0000
      122 TA     7f1+      -0.0000    0.0000   -0.0000   -0.0000   -0.0001    0.0006   -0.0012   -0.0000    0.0024   -0.0000
      123 TA     8f1+       0.0000   -0.0001    0.0000    0.0000    0.0001   -0.0008    0.0011    0.0000   -0.0023    0.0000
      124 TA     9f1+      -0.0000    0.0001   -0.0000   -0.0000   -0.0001    0.0009   -0.0009   -0.0000    0.0020   -0.0000
      125 TA    10f1+       0.0000   -0.0001    0.0000    0.0000    0.0001   -0.0009    0.0006    0.0000   -0.0017    0.0000
      126 TA    11f1+      -0.0000    0.0001   -0.0000   -0.0000   -0.0002    0.0008   -0.0000    0.0000    0.0017   -0.0000
      127 TA     4f2+      -0.0000    0.0000   -0.0001   -0.0000    0.0000   -0.0004    0.0017    0.0000    0.0020    0.0000
      128 TA     5f2+       0.0000   -0.0000    0.0001    0.0000   -0.0000    0.0001   -0.0021   -0.0000   -0.0014   -0.0000
      129 TA     6f2+      -0.0000    0.0000   -0.0001   -0.0000    0.0000    0.0001    0.0023    0.0000    0.0011    0.0000
      130 TA     7f2+       0.0000   -0.0000    0.0001    0.0000   -0.0000   -0.0003   -0.0028   -0.0000   -0.0009   -0.0000
      131 TA     8f2+      -0.0000    0.0000   -0.0001   -0.0000    0.0000    0.0005    0.0032    0.0000    0.0007    0.0000
      132 TA     9f2+       0.0000   -0.0000    0.0001    0.0000   -0.0000   -0.0005   -0.0032   -0.0000   -0.0004   -0.0000
      133 TA    10f2+      -0.0000    0.0000   -0.0001   -0.0000    0.0000    0.0005    0.0028    0.0000    0.0002    0.0000
      134 TA    11f2+       0.0000   -0.0000    0.0001    0.0000    0.0000   -0.0002   -0.0018   -0.0000    0.0000   -0.0000
      135 TA     4f3+      -0.0000    0.0001    0.0000    0.0000   -0.0001    0.0006    0.0013    0.0000    0.0051    0.0000
      136 TA     5f3+       0.0000   -0.0001   -0.0000   -0.0000    0.0001   -0.0008   -0.0012   -0.0000   -0.0042   -0.0000
      137 TA     6f3+      -0.0000    0.0001    0.0000    0.0000   -0.0001    0.0009    0.0011    0.0000    0.0036    0.0000
      138 TA     7f3+       0.0000   -0.0001   -0.0000   -0.0000    0.0001   -0.0011   -0.0011   -0.0000   -0.0036   -0.0000
      139 TA     8f3+      -0.0000    0.0001    0.0000    0.0000   -0.0001    0.0015    0.0011    0.0000    0.0034    0.0000
      140 TA     9f3+       0.0000   -0.0001   -0.0000   -0.0000    0.0001   -0.0016   -0.0009   -0.0000   -0.0029   -0.0000
      141 TA    10f3+      -0.0000    0.0001    0.0000    0.0000   -0.0002    0.0014    0.0006    0.0000    0.0025    0.0000
      142 TA    11f3+       0.0000   -0.0001   -0.0000   -0.0000    0.0002   -0.0012   -0.0000    0.0000   -0.0023   -0.0000
      143 TA     5g4-      -0.0000    0.0000   -0.0000    0.0000    0.0000   -0.0000    0.0000   -0.0003   -0.0000   -0.0002
      144 TA     6g4-       0.0000    0.0000    0.0000   -0.0000    0.0000   -0.0000   -0.0000    0.0003    0.0000    0.0002
      145 TA     7g4-      -0.0000   -0.0000   -0.0000    0.0000   -0.0000    0.0000    0.0000   -0.0002    0.0000   -0.0001
      146 TA     8g4-       0.0000    0.0000    0.0000   -0.0000    0.0000   -0.0000   -0.0000    0.0001   -0.0000    0.0001
      147 TA     5g3-       0.0000    0.0000    0.0000   -0.0000    0.0000   -0.0000    0.0000   -0.0008   -0.0000   -0.0011
      148 TA     6g3-      -0.0000   -0.0000   -0.0000    0.0000   -0.0000    0.0000   -0.0000    0.0008    0.0000    0.0011
      149 TA     7g3-      -0.0000    0.0000    0.0000   -0.0000    0.0000    0.0000    0.0000   -0.0006   -0.0000   -0.0009
      150 TA     8g3-       0.0000   -0.0000   -0.0000    0.0000   -0.0000   -0.0000   -0.0000    0.0005    0.0000    0.0006
      151 TA     5g2-       0.0000   -0.0000   -0.0000    0.0000   -0.0000   -0.0000   -0.0000    0.0001    0.0000    0.0001
      152 TA     6g2-      -0.0000    0.0000   -0.0000    0.0000    0.0000    0.0000    0.0000   -0.0001   -0.0000   -0.0001
      153 TA     7g2-       0.0000   -0.0000    0.0000   -0.0000   -0.0000   -0.0000   -0.0000    0.0001    0.0000    0.0000
      154 TA     8g2-      -0.0000    0.0000   -0.0000    0.0000   -0.0000    0.0000    0.0000   -0.0001    0.0000   -0.0000
      155 TA     5g1-      -0.0000    0.0000   -0.0000    0.0000    0.0000   -0.0000    0.0000   -0.0003   -0.0000    0.0003
      156 TA     6g1-       0.0000   -0.0000    0.0000   -0.0000   -0.0000   -0.0000   -0.0000    0.0003    0.0000   -0.0003
      157 TA     7g1-      -0.0000    0.0000   -0.0000    0.0000   -0.0000    0.0000    0.0000   -0.0002   -0.0000    0.0002
      158 TA     8g1-       0.0000   -0.0000    0.0000   -0.0000    0.0000   -0.0000   -0.0000    0.0002    0.0000   -0.0002
      159 TA     5g0        0.0000   -0.0000   -0.0000   -0.0000   -0.0000    0.0001   -0.0007   -0.0000   -0.0004    0.0000
      160 TA     6g0       -0.0000    0.0000    0.0000    0.0000   -0.0000   -0.0001    0.0007    0.0000    0.0004   -0.0000
      161 TA     7g0        0.0000   -0.0000   -0.0000   -0.0000    0.0000    0.0001   -0.0006   -0.0000   -0.0003    0.0000
      162 TA     8g0        0.0000    0.0000   -0.0000    0.0000   -0.0000   -0.0000    0.0004    0.0000    0.0002   -0.0000
      163 TA     5g1+      -0.0000    0.0000   -0.0000   -0.0000    0.0000    0.0001    0.0002    0.0000    0.0001   -0.0000
      164 TA     6g1+      -0.0000   -0.0000    0.0000    0.0000   -0.0000   -0.0001   -0.0002   -0.0000   -0.0001    0.0000
      165 TA     7g1+       0.0000    0.0000   -0.0000   -0.0000    0.0000    0.0001    0.0001    0.0000    0.0001   -0.0000
      166 TA     8g1+      -0.0000   -0.0000    0.0000    0.0000   -0.0000   -0.0001   -0.0001   -0.0000   -0.0001    0.0000
      167 TA     5g2+      -0.0000    0.0000    0.0000    0.0000   -0.0000   -0.0002   -0.0002   -0.0000    0.0006   -0.0000
      168 TA     6g2+       0.0000   -0.0000   -0.0000   -0.0000    0.0000    0.0002    0.0001    0.0000   -0.0006    0.0000
      169 TA     7g2+      -0.0000    0.0000    0.0000    0.0000   -0.0000   -0.0001   -0.0001   -0.0000    0.0005   -0.0000
      170 TA     8g2+      -0.0000   -0.0000   -0.0000   -0.0000    0.0000    0.0001    0.0001    0.0000   -0.0003    0.0000
      171 TA     5g3+      -0.0000    0.0000    0.0000    0.0000    0.0000    0.0001   -0.0002   -0.0000    0.0001    0.0000
      172 TA     6g3+       0.0000   -0.0000   -0.0000   -0.0000   -0.0000   -0.0001    0.0002    0.0000   -0.0001   -0.0000
      173 TA     7g3+      -0.0000    0.0000    0.0000    0.0000    0.0000    0.0001   -0.0001   -0.0000    0.0001    0.0000
      174 TA     8g3+      -0.0000   -0.0000   -0.0000   -0.0000   -0.0000   -0.0001    0.0001    0.0000   -0.0000   -0.0000
      175 TA     5g4+       0.0000   -0.0000    0.0000    0.0000    0.0000    0.0003    0.0003    0.0000   -0.0008   -0.0000
      176 TA     6g4+      -0.0000    0.0000   -0.0000   -0.0000   -0.0000   -0.0003   -0.0003   -0.0000    0.0008    0.0000
      177 TA     7g4+       0.0000   -0.0000    0.0000    0.0000    0.0000    0.0002    0.0003    0.0000   -0.0006   -0.0000
      178 TA     8g4+       0.0000    0.0000   -0.0000   -0.0000   -0.0000   -0.0001   -0.0002   -0.0000    0.0004    0.0000
      179 TA     6h5-      -0.0000   -0.0000    0.0000   -0.0000   -0.0000   -0.0000   -0.0000    0.0001   -0.0000    0.0000
      180 TA     7h5-       0.0000    0.0000   -0.0000    0.0000    0.0000    0.0000    0.0000   -0.0001    0.0000   -0.0000
      181 TA     6h4-      -0.0000   -0.0000   -0.0000    0.0000   -0.0000    0.0000    0.0000   -0.0001    0.0000   -0.0000
      182 TA     7h4-       0.0000    0.0000    0.0000   -0.0000    0.0000   -0.0000   -0.0000    0.0001    0.0000    0.0000
      183 TA     6h3-      -0.0000   -0.0000   -0.0000    0.0000   -0.0000   -0.0000    0.0000   -0.0000   -0.0000   -0.0001
      184 TA     7h3-       0.0000    0.0000    0.0000    0.0000    0.0000    0.0000   -0.0000    0.0000    0.0000    0.0001
      185 TA     6h2-      -0.0000    0.0000   -0.0000    0.0000   -0.0000    0.0000    0.0000   -0.0000   -0.0000    0.0001
      186 TA     7h2-      -0.0000   -0.0000    0.0000   -0.0000    0.0000   -0.0000   -0.0000    0.0000    0.0000   -0.0001
      187 TA     6h1-       0.0000   -0.0000    0.0000   -0.0000   -0.0000   -0.0000   -0.0000    0.0000   -0.0000   -0.0001
      188 TA     7h1-      -0.0000    0.0000   -0.0000    0.0000    0.0000    0.0000    0.0000   -0.0000    0.0000    0.0001
      189 TA     6h0        0.0000   -0.0000    0.0000    0.0000   -0.0000   -0.0000    0.0000    0.0000    0.0000    0.0000
      190 TA     7h0       -0.0000    0.0000   -0.0000   -0.0000    0.0000    0.0000   -0.0000   -0.0000   -0.0000    0.0000
      191 TA     6h1+      -0.0000    0.0000    0.0000    0.0000   -0.0000    0.0000   -0.0000   -0.0000    0.0000    0.0000
      192 TA     7h1+      -0.0000   -0.0000   -0.0000   -0.0000    0.0000   -0.0000    0.0000    0.0000   -0.0000    0.0000
      193 TA     6h2+      -0.0000    0.0000    0.0000    0.0000    0.0000    0.0000   -0.0001   -0.0000   -0.0000    0.0000
      194 TA     7h2+       0.0000   -0.0000   -0.0000   -0.0000   -0.0000   -0.0000    0.0001    0.0000    0.0000    0.0000
      195 TA     6h3+       0.0000   -0.0000    0.0000   -0.0000    0.0000   -0.0000   -0.0000    0.0000   -0.0001    0.0000
      196 TA     7h3+       0.0000    0.0000   -0.0000    0.0000    0.0000    0.0000    0.0000   -0.0000    0.0001    0.0000
      197 TA     6h4+      -0.0000    0.0000   -0.0000    0.0000    0.0000    0.0000    0.0000   -0.0000   -0.0000    0.0000
      198 TA     7h4+       0.0000   -0.0000    0.0000   -0.0000   -0.0000   -0.0001   -0.0001    0.0000    0.0000    0.0000
      199 TA     6h5+      -0.0000    0.0000    0.0000    0.0000   -0.0000    0.0000    0.0000   -0.0000    0.0001   -0.0000
      200 TA     7h5+      -0.0000   -0.0000   -0.0000   -0.0000   -0.0000   -0.0000   -0.0000    0.0000   -0.0001   -0.0000

          Orbital           11    
          Energy          -97.6733
          Occ. No.          0.0000

        1 TA     1s        -0.0000
        2 TA     2s         0.0000
        3 TA     3s         0.0014
        4 TA     4s        -0.0005
        5 TA     5s         0.0001
        6 TA     6s        -0.0000
        7 TA     7s         0.0001
        8 TA     8s        -0.0001
        9 TA     9s         0.0001
       10 TA    10s        -0.0001
       11 TA    11s         0.0001
       12 TA     2px       -0.0001
       13 TA     3px       -0.0039
       14 TA     4px        0.0004
       15 TA     5px       -0.0001
       16 TA     6px        0.0000
       17 TA     7px       -0.0002
       18 TA     8px        0.0002
       19 TA     9px       -0.0002
       20 TA    10px        0.0002
       21 TA    11px       -0.0002
       22 TA     2py        0.0000
       23 TA     3py       -0.0000
       24 TA     4py        0.0000
       25 TA     5py        0.0000
       26 TA     6py        0.0000
       27 TA     7py       -0.0000
       28 TA     8py       -0.0000
       29 TA     9py       -0.0000
       30 TA    10py        0.0000
       31 TA    11py       -0.0000
       32 TA     2pz       -0.0006
       33 TA     3pz       -0.0234
       34 TA     4pz        0.0007
       35 TA     5pz       -0.0004
       36 TA     6pz        0.0002
       37 TA     7pz       -0.0007
       38 TA     8pz        0.0007
       39 TA     9pz       -0.0008
       40 TA    10pz        0.0010
       41 TA    11pz       -0.0015
       42 TA     3d2-       0.0000
       43 TA     4d2-      -0.0000
       44 TA     5d2-       0.0000
       45 TA     6d2-      -0.0000
       46 TA     7d2-       0.0000
       47 TA     8d2-      -0.0000
       48 TA     9d2-       0.0000
       49 TA    10d2-      -0.0000
       50 TA    11d2-       0.0000
       51 TA     3d1-      -0.0000
       52 TA     4d1-       0.0000
       53 TA     5d1-      -0.0000
       54 TA     6d1-       0.0000
       55 TA     7d1-      -0.0000
       56 TA     8d1-       0.0000
       57 TA     9d1-      -0.0000
       58 TA    10d1-       0.0000
       59 TA    11d1-      -0.0000
       60 TA     3d0        0.8572
       61 TA     4d0       -0.0768
       62 TA     5d0        0.0141
       63 TA     6d0       -0.0220
       64 TA     7d0        0.0256
       65 TA     8d0       -0.0330
       66 TA     9d0        0.0273
       67 TA    10d0       -0.0321
       68 TA    11d0        0.0236
       69 TA     3d1+       0.0580
       70 TA     4d1+      -0.0051
       71 TA     5d1+       0.0009
       72 TA     6d1+      -0.0014
       73 TA     7d1+       0.0015
       74 TA     8d1+      -0.0018
       75 TA     9d1+       0.0014
       76 TA    10d1+      -0.0014
       77 TA    11d1+       0.0008
       78 TA     3d2+       0.4946
       79 TA     4d2+      -0.0441
       80 TA     5d2+       0.0081
       81 TA     6d2+      -0.0126
       82 TA     7d2+       0.0147
       83 TA     8d2+      -0.0190
       84 TA     9d2+       0.0157
       85 TA    10d2+      -0.0185
       86 TA    11d2+       0.0136
       87 TA     4f3-       0.0000
       88 TA     5f3-      -0.0000
       89 TA     6f3-       0.0000
       90 TA     7f3-      -0.0000
       91 TA     8f3-       0.0000
       92 TA     9f3-      -0.0000
       93 TA    10f3-       0.0000
       94 TA    11f3-      -0.0000
       95 TA     4f2-      -0.0000
       96 TA     5f2-       0.0000
       97 TA     6f2-      -0.0000
       98 TA     7f2-       0.0000
       99 TA     8f2-      -0.0000
      100 TA     9f2-       0.0000
      101 TA    10f2-      -0.0000
      102 TA    11f2-       0.0000
      103 TA     4f1-      -0.0000
      104 TA     5f1-       0.0000
      105 TA     6f1-      -0.0000
      106 TA     7f1-       0.0000
      107 TA     8f1-      -0.0000
      108 TA     9f1-       0.0000
      109 TA    10f1-      -0.0000
      110 TA    11f1-       0.0000
      111 TA     4f0       -0.0028
      112 TA     5f0        0.0022
      113 TA     6f0       -0.0018
      114 TA     7f0        0.0017
      115 TA     8f0       -0.0015
      116 TA     9f0        0.0011
      117 TA    10f0       -0.0007
      118 TA    11f0        0.0002
      119 TA     4f1+       0.0201
      120 TA     5f1+      -0.0166
      121 TA     6f1+       0.0140
      122 TA     7f1+      -0.0138
      123 TA     8f1+       0.0129
      124 TA     9f1+      -0.0105
      125 TA    10f1+       0.0081
      126 TA    11f1+      -0.0062
      127 TA     4f2+       0.0042
      128 TA     5f2+      -0.0033
      129 TA     6f2+       0.0026
      130 TA     7f2+      -0.0025
      131 TA     8f2+       0.0021
      132 TA     9f2+      -0.0015
      133 TA    10f2+       0.0010
      134 TA    11f2+      -0.0004
      135 TA     4f3+       0.0157
      136 TA     5f3+      -0.0130
      137 TA     6f3+       0.0109
      138 TA     7f3+      -0.0108
      139 TA     8f3+       0.0101
      140 TA     9f3+      -0.0082
      141 TA    10f3+       0.0063
      142 TA    11f3+      -0.0047
      143 TA     5g4-       0.0000
      144 TA     6g4-      -0.0000
      145 TA     7g4-       0.0000
      146 TA     8g4-      -0.0000
      147 TA     5g3-       0.0000
      148 TA     6g3-      -0.0000
      149 TA     7g3-       0.0000
      150 TA     8g3-      -0.0000
      151 TA     5g2-       0.0000
      152 TA     6g2-       0.0000
      153 TA     7g2-      -0.0000
      154 TA     8g2-       0.0000
      155 TA     5g1-      -0.0000
      156 TA     6g1-       0.0000
      157 TA     7g1-      -0.0000
      158 TA     8g1-       0.0000
      159 TA     5g0        0.0007
      160 TA     6g0       -0.0007
      161 TA     7g0        0.0005
      162 TA     8g0       -0.0004
      163 TA     5g1+      -0.0002
      164 TA     6g1+       0.0002
      165 TA     7g1+      -0.0002
      166 TA     8g1+       0.0001
      167 TA     5g2+      -0.0006
      168 TA     6g2+       0.0006
      169 TA     7g2+      -0.0005
      170 TA     8g2+       0.0003
      171 TA     5g3+       0.0001
      172 TA     6g3+      -0.0001
      173 TA     7g3+       0.0001
      174 TA     8g3+      -0.0001
      175 TA     5g4+      -0.0008
      176 TA     6g4+       0.0008
      177 TA     7g4+      -0.0006
      178 TA     8g4+       0.0004
      179 TA     6h5-      -0.0000
      180 TA     7h5-       0.0000
      181 TA     6h4-       0.0000
      182 TA     7h4-      -0.0000
      183 TA     6h3-       0.0000
      184 TA     7h3-      -0.0000
      185 TA     6h2-      -0.0000
      186 TA     7h2-       0.0000
      187 TA     6h1-       0.0000
      188 TA     7h1-      -0.0000
      189 TA     6h0       -0.0001
      190 TA     7h0        0.0001
      191 TA     6h1+       0.0000
      192 TA     7h1+      -0.0000
      193 TA     6h2+      -0.0001
      194 TA     7h2+       0.0001
      195 TA     6h3+      -0.0000
      196 TA     7h3+       0.0000
      197 TA     6h4+      -0.0000
      198 TA     7h4+       0.0001
      199 TA     6h5+      -0.0001
      200 TA     7h5+       0.0000
--


++    Molecular charges:
      ------------------

      Mulliken charges per centre and basis function type
      ---------------------------------------------------

                TA    
      1s       2.0000
      2s       1.9999
      2px      1.9996
      2pz      1.9998
      2py      1.9998
      3s       1.9365
      3px      1.6016
      3pz      1.8060
      3py      1.8107
      4s       0.0121
      3d2+     0.3174
      3d1+     0.1728
      3d0      0.1022
      3d1-     0.0000
      3d2-     0.1681
      4px      0.0138
      4pz      0.0130
      4py      0.0130
      5s       0.0010
      4d2+     0.0011
      4d1+     0.0004
      4d0      0.0004
      4d1-     0.0000
      4d2-     0.0003
      5px      0.0010
      5pz      0.0010
      5py      0.0010
      6s       0.0001
      4f3+     0.0001
      4f2+     0.0000
      4f1+     0.0000
      4f0      0.0000
      4f1-     0.0000
      4f2-     0.0000
      4f3-     0.0000
      5d2+     0.0000
      5d1+     0.0000
      5d0      0.0000
      5d1-     0.0000
      5d2-     0.0000
      6px      0.0002
      6pz      0.0002
      6py      0.0002
      7s       0.0002
      5f3+     0.0000
      5f2+     0.0000
      5f1+     0.0000
      5f0      0.0000
      5f1-     0.0000
      5f2-     0.0000
      5f3-     0.0000
      6d2+     0.0001
      6d1+     0.0000
      6d0      0.0000
      6d1-     0.0000
      6d2-     0.0000
      7px      0.0017
      7pz      0.0017
      7py      0.0017
      5g4+     0.0000
      5g3+     0.0000
      5g2+     0.0000
      5g1+     0.0000
      5g0      0.0000
      5g1-     0.0000
      5g2-     0.0000
      5g3-     0.0000
      5g4-     0.0000
      6f3+     0.0000
      6f2+     0.0000
      6f1+     0.0000
      6f0      0.0000
      6f1-     0.0000
      6f2-     0.0000
      6f3-     0.0000
      6g4+     0.0000
      6g3+     0.0000
      6g2+     0.0000
      6g1+     0.0000
      6g0      0.0000
      6g1-     0.0000
      6g2-     0.0000
      6g3-     0.0000
      6g4-     0.0000
      6h5+     0.0000
      6h4+     0.0000
      6h3+     0.0000
      6h2+     0.0000
      6h1+     0.0000
      6h0      0.0000
      6h1-     0.0000
      6h2-     0.0000
      6h3-     0.0000
      6h4-     0.0000
      6h5-     0.0000
      7d2+     0.0001
      7d1+     0.0000
      7d0      0.0000
      7d1-     0.0000
      7d2-     0.0000
      7f3+     0.0000
      7f2+     0.0000
      7f1+     0.0000
      7f0      0.0000
      7f1-     0.0000
      7f2-     0.0000
      7f3-     0.0000
      7g4+     0.0000
      7g3+     0.0000
      7g2+     0.0000
      7g1+     0.0000
      7g0      0.0000
      7g1-     0.0000
      7g2-     0.0000
      7g3-     0.0000
      7g4-     0.0000
      7h5+     0.0000
      7h4+     0.0000
      7h3+     0.0000
      7h2+     0.0000
      7h1+     0.0000
      7h0      0.0000
      7h1-     0.0000
      7h2-     0.0000
      7h3-     0.0000
      7h4-     0.0000
      7h5-     0.0000
      8s       0.0010
      8px      0.0015
      8pz      0.0014
      8py      0.0014
      8d2+     0.0001
      8d1+     0.0000
      8d0      0.0000
      8d1-     0.0000
      8d2-     0.0000
      8f3+     0.0000
      8f2+     0.0000
      8f1+     0.0000
      8f0      0.0000
      8f1-     0.0000
      8f2-     0.0000
      8f3-     0.0000
      8g4+     0.0000
      8g3+     0.0000
      8g2+     0.0000
      8g1+     0.0000
      8g0      0.0000
      8g1-     0.0000
      8g2-     0.0000
      8g3-     0.0000
      8g4-     0.0000
      9s       0.0014
      9px      0.0012
      9pz      0.0012
      9py      0.0012
      9d2+     0.0000
      9d1+     0.0000
      9d0      0.0000
      9d1-     0.0000
      9d2-     0.0000
      9f3+     0.0000
      9f2+     0.0000
      9f1+     0.0000
      9f0      0.0000
      9f1-     0.0000
      9f2-     0.0000
      9f3-     0.0000
     10s       0.0006
     10px      0.0012
     10pz      0.0011
     10py      0.0011
     10d2+     0.0000
     10d1+     0.0000
     10d0      0.0000
     10d1-     0.0000
     10d2-     0.0000
     10f3+     0.0000
     10f2+     0.0000
     10f1+     0.0000
     10f0      0.0000
     10f1-     0.0000
     10f2-     0.0000
     10f3-     0.0000
     11s       0.0020
     11px      0.0013
     11pz      0.0013
     11py      0.0013
     11d2+     0.0001
     11d1+     0.0001
     11d0      0.0000
     11d1-     0.0000
     11d2-     0.0000
     11f3+     0.0000
     11f2+     0.0000
     11f1+     0.0000
     11f0      0.0000
     11f1-     0.0000
     11f2-     0.0000
     11f3-     0.0000
      Total   18.0000

      N-E     55.0000

      Total electronic charge=   18.000000

      Total            charge=   55.000000
--

 Sorry, Molden does not know how to handle
 functions with angular momentum larger than g

++    Static properties:
      ------------------


      LoProp Charges per center


                   TA    
      Nuclear     73.0000
      Electronic -18.0000

      Total       55.0000
--


++    Molecular properties:
      ---------------------

      Charge (e):
                      =   55.0000
      Dipole Moment (Debye):
      Origin of the operator (Ang)=    0.0000    0.0000    0.0000
                   X= -8.9671E-01               Y= -5.1365E-13               Z=  1.2163E+00           Total=  1.5111E+00
      Center of Charge (Ang)
                     X=   -0.00339437               Y=   -0.00000000               Z=    0.00460406
      Quadrupole Moment (Debye*Ang):
      Origin of the operator (Ang)=   -0.0000   -0.0000    0.0046
                  XX= -1.6654E-01              XY=  9.2835E-17              XZ=  2.9383E-04              YY= -1.7246E-01
                  YZ=  6.2497E-16              ZZ= -1.7218E-01
      In traceless form (Debye*Ang)
                  XX=  5.7787E-03              XY=  1.3925E-16              XZ=  4.4075E-04              YY= -3.0996E-03
                  YZ=  9.3745E-16              ZZ= -2.6791E-03
--

 Sorry, Molden does not know how to handle
 functions with angular momentum larger than g
 ###############################################################################
 ###############################################################################
 ###                                                                         ###
 ###                                                                         ###
 ###    WARNING: RunFile label nBas                                          ###
 ###    was used       62 times                                              ###
 ###                                                                         ###
 ###                                                                         ###
 ###############################################################################
 ###############################################################################
Note: The following floating-point exceptions are signalling: IEEE_UNDERFLOW_FLAG IEEE_DENORMAL
--- Stop Module: scf at Tue Mar 25 14:18:15 2025 /rc=_RC_ALL_IS_WELL_ ---
*** files: tantalum_so_cf.LprOrb tantalum_so_cf.ScfOrb xmldump
    saved to directory /home4/s4752295/Internship/Initial_simulations/Point_charge_model/1_electron/Madelung_charges_9_active_space/Ta
--- Module scf spent 14 seconds ---

*** symbolic link created: INPORB -> tantalum_so_cf.ScfOrb
--- Start Module: rasscf at Tue Mar 25 14:18:16 2025 ---

()()()()()()()()()()()()()()()()()()()()()()()()()()()()()()()()()()()()()()()()()()()()()()()()()()

                                              &RASSCF

                                   only a single process is used
                       available to each process: 4.1 GB of memory, 1 thread?
                                            pid: 955385
()()()()()()()()()()()()()()()()()()()()()()()()()()()()()()()()()()()()()()()()()()()()()()()()()()


      Header of the ONEINT file:
      --------------------------
      
      Integrals generated by seward 4.2.0  , Tue Mar 25 14:17:40 2025


      OrdInt status: non-squared


      Cartesian coordinates in Angstrom:
      -----------------------------------------------------
      No.  Label        X            Y            Z        
      -----------------------------------------------------
       1   TA        -0.00000000  -0.00000000   0.00463220
      -----------------------------------------------------
      Nuclear repulsion energy =-6678.44218932

++    Wave function specifications:
      -----------------------------

      Number of closed shell electrons          18
      Number of electrons in active shells       1
      Max number of holes in RAS1 space          0
      Max nr of electrons in RAS3 space          0
      Number of inactive orbitals                9
      Number of active orbitals                  9
      Number of secondary orbitals             182
      Spin quantum number                      0.5
      State symmetry                             1
--

++    Orbital specifications:
      -----------------------

      Symmetry species                           1
                                                 a
      Frozen orbitals                            0
      Inactive orbitals                          9
      Active orbitals                            9
      RAS1 orbitals                              0
      RAS2 orbitals                              9
      RAS3 orbitals                              0
      Secondary orbitals                       182
      Deleted orbitals                           0
      Number of basis functions                200
--

++    CI expansion specifications:
      ----------------------------

      Number of CSFs                             9
      Number of determinants                     9
      Number of root(s) required                 9
      Root chosen for geometry opt.              9
      CI roots used                              1     2     3     4     5     6     7     8     9
      weights                                0.111 0.111 0.111 0.111 0.111 0.111 0.111 0.111 0.111
      highest root included in the CI            9
      max. size of the explicit Hamiltonian      9
--

++    Optimization specifications:
      ----------------------------

      RASSCF algorithm: Conventional
      Maximum number of macro iterations       200
      Maximum number of SX iterations          100
      Threshold for RASSCF energy            0.100E-07
      Threshold for max MO rotation          0.100E+00
      Threshold for max BLB element          0.100E-03
      Level shift parameter                  0.500E+00
      Make Quasi-Newton update
--

      The MO-coefficients are taken from the file:
[...]
      *                                    Special properties section                                    *
      *                                                                                                  *
      ****************************************************************************************************


++ Dipole transition strengths (SO states):
   ----------------------------------------
    for osc. strength at least    1.0000000000000001E-005

      From   To        Osc. strength     Einstein coefficients Ax, Ay, Az (sec-1)    Total A (sec-1)
     -----------------------------------------------------------------------------------------------
         1    5       6.58593477E-04  1.59685272E-14  1.39997900E+08  8.62187721E-13  1.39997900E+08
         1    7       6.58113666E-04  3.68849466E+06  9.44679170E-13  1.41749778E+08  1.45438272E+08
         1   11       7.92798835E-04  3.49179491E-14  1.20523181E+11  5.44952033E-12  1.20523181E+11
         1   15       1.09171874E-02  1.09777173E+10  6.05067810E-11  1.90244561E+12  1.91342333E+12
         1   17       1.23254386E-02  9.61056651E-12  2.17504264E+12  7.03933540E-11  2.17504264E+12
         2    6       6.58593477E-04  1.59685272E-14  1.39997900E+08  8.62187721E-13  1.39997900E+08
         2    8       6.58113666E-04  3.68849466E+06  9.44679170E-13  1.41749778E+08  1.45438272E+08
         2   12       7.92798835E-04  3.49179491E-14  1.20523181E+11  5.44952033E-12  1.20523181E+11
         2   16       1.09171874E-02  1.09777173E+10  6.05067810E-11  1.90244561E+12  1.91342333E+12
         2   18       1.23254386E-02  9.61056651E-12  2.17504264E+12  7.03933540E-11  2.17504264E+12
         3    5       6.86448726E-04  1.46780789E+06  8.13488283E-13  1.40148084E+08  1.41615892E+08
         3    7       6.23440895E-04  8.23907793E-15  1.33790363E+08  9.46391744E-13  1.33790363E+08
         3   11       6.29767352E-04  7.37395957E+08  2.66350942E-11  9.48950110E+10  9.56324070E+10
         3   15       1.14011797E-02  1.25852715E-11  1.99618415E+12  3.31983772E-11  1.99618415E+12
         3   17       8.96988543E-03  2.00891823E+10  4.82644430E-11  1.56117463E+12  1.58126381E+12
         4    6       6.86448726E-04  1.46780789E+06  8.13488283E-13  1.40148084E+08  1.41615892E+08
         4    8       6.23440895E-04  8.23907793E-15  1.33790363E+08  9.46391744E-13  1.33790363E+08
         4   12       6.29767352E-04  7.37395957E+08  2.66350942E-11  9.48950110E+10  9.56324070E+10
         4   16       1.14011797E-02  1.25852715E-11  1.99618415E+12  3.31983772E-11  1.99618415E+12
         4   18       8.96988543E-03  2.00891823E+10  4.82644430E-11  1.56117463E+12  1.58126381E+12
         5    9       1.06179440E-03  1.07203971E+05  1.75303024E-12  3.21962454E+08  3.22069658E+08
         5   11       1.42833433E-04  1.77819168E+09  1.53703458E-10  1.83421279E+10  2.01203195E+10
         5   17       4.94140474E-03  8.10035949E+11  6.56949577E-12  2.48388272E+09  8.12519831E+11
         6   10       1.06179440E-03  1.07203971E+05  1.75303024E-12  3.21962454E+08  3.22069658E+08
         6   12       1.42833433E-04  1.77819168E+09  1.53703458E-10  1.83421279E+10  2.01203195E+10
         6   18       4.94140474E-03  8.10035949E+11  6.56949577E-12  2.48388272E+09  8.12519831E+11
         7    9       1.08119102E-03  5.24299386E-16  3.17270482E+08  1.60353687E-12  3.17270482E+08
         7   11       1.73746871E-04  1.53216626E-11  2.44376729E+10  1.13838608E-10  2.44376729E+10
         7   15       3.95750953E-03  6.42336295E+11  1.21133588E-11  2.89973054E+09  6.45236025E+11
         8   10       1.08119102E-03  5.24299386E-16  3.17270482E+08  1.60353687E-12  3.17270482E+08
         8   12       1.73746871E-04  1.53216626E-11  2.44376729E+10  1.13838608E-10  2.44376729E+10
         8   16       3.95750953E-03  6.42336295E+11  1.21133588E-11  2.89973054E+09  6.45236025E+11
         9   11       1.23819464E-03  1.57359725E+11  2.45836648E-12  1.24753907E+09  1.58607264E+11
         9   15       7.01043764E-03  7.26346677E-13  1.04806435E+12  1.68350543E-10  1.04806435E+12
         9   17       6.23831760E-03  9.50223339E+08  1.73121727E-10  9.38600652E+11  9.39550875E+11
        10   12       1.23819464E-03  1.57359725E+11  2.45836648E-12  1.24753907E+09  1.58607264E+11
        10   16       7.01043764E-03  7.26346677E-13  1.04806435E+12  1.68350543E-10  1.04806435E+12
        10   18       6.23831760E-03  9.50223339E+08  1.73121727E-10  9.38600652E+11  9.39550875E+11
        11   13       1.34515001E-03  8.59748255E+08  3.79250626E-12  6.78090012E+05  8.60426345E+08
        11   15       1.56692128E-01  2.60949137E-13  1.29503128E+11  2.18813837E-11  1.29503128E+11
        11   17       1.55247303E-01  2.31045536E+08  2.49224799E-11  1.41174805E+11  1.41405851E+11
        12   14       1.34515001E-03  8.59748255E+08  3.79250626E-12  6.78090012E+05  8.60426345E+08
        12   16       1.56692128E-01  2.60949137E-13  1.29503128E+11  2.18813837E-11  1.29503128E+11
        12   18       1.55247303E-01  2.31045536E+08  2.49224799E-11  1.41174805E+11  1.41405851E+11
        13   17       1.12791741E-04  2.67223161E+06  2.73842683E-15  2.35858053E+04  2.69581742E+06
        14   18       1.12791741E-04  2.67223161E+06  2.73842683E-15  2.35858053E+04  2.69581742E+06
        15   17       9.24861485E-04  1.28143282E-19  1.89542788E+06  1.22978679E-15  1.89542788E+06
        16   18       9.24861485E-04  1.28143282E-19  1.89542788E+06  1.22978679E-15  1.89542788E+06
     -----------------------------------------------------------------------------------------------
--

++ Velocity transition strengths (SO states):
   ------------------------------------------
    for osc. strength at least    1.0000000000000001E-005

      From   To        Osc. strength     Einstein coefficients Ax, Ay, Az (sec-1)    Total A (sec-1)
     -----------------------------------------------------------------------------------------------
         1    5       1.11207538E-03  3.44210201E-14  2.36395842E+08  1.64322509E-12  2.36395842E+08
         1    7       1.10170669E-03  4.73163765E+06  1.68834245E-12  2.38738272E+08  2.43469910E+08
         1    9       1.34955231E-05  2.22584405E-16  1.38160676E+07  5.24971297E-15  1.38160676E+07
         1   11       7.66834588E-04  5.66235232E-14  1.16576440E+11  8.09138391E-13  1.16576440E+11
         1   15       1.04279155E-02  1.03821442E+10  5.85947797E-11  1.81729430E+12  1.82767645E+12
         1   17       1.17815573E-02  5.88684245E-12  2.07907235E+12  6.34068243E-11  2.07907235E+12
         2    6       1.11207538E-03  3.44210201E-14  2.36395842E+08  1.64322509E-12  2.36395842E+08
         2    8       1.10170669E-03  4.73163765E+06  1.68834245E-12  2.38738272E+08  2.43469910E+08
         2   10       1.34955231E-05  2.22584405E-16  1.38160676E+07  5.24971297E-15  1.38160676E+07
         2   12       7.66834588E-04  5.66235232E-14  1.16576440E+11  8.09138391E-13  1.16576440E+11
         2   16       1.04279155E-02  1.03821442E+10  5.85947797E-11  1.81729430E+12  1.82767645E+12
         2   18       1.17815573E-02  5.88684245E-12  2.07907235E+12  6.34068243E-11  2.07907235E+12
         3    5       1.13510843E-03  1.68384771E+06  1.60660861E-12  2.32492348E+08  2.34176196E+08
         3    7       1.07458042E-03  1.00127189E-14  2.30605669E+08  1.63844640E-12  2.30605669E+08
         3    9       1.93580370E-05  6.40422528E+05  4.45231993E-17  1.89100063E+07  1.95504289E+07
         3   11       6.11304987E-04  6.89171329E+08  1.67739436E-11  9.21399828E+10  9.28291541E+10
         3   15       1.09026592E-02  8.10424838E-12  1.90890695E+12  3.16847890E-11  1.90890695E+12
         3   17       8.54647030E-03  1.87532920E+10  4.50280857E-11  1.48787366E+12  1.50662696E+12
         4    6       1.13510843E-03  1.68384771E+06  1.60660861E-12  2.32492348E+08  2.34176196E+08
         4    8       1.07458042E-03  1.00127189E-14  2.30605669E+08  1.63844640E-12  2.30605669E+08
         4   10       1.93580370E-05  6.40422528E+05  4.45231993E-17  1.89100063E+07  1.95504289E+07
         4   12       6.11304987E-04  6.89171329E+08  1.67739436E-11  9.21399828E+10  9.28291541E+10
         4   16       1.09026592E-02  8.10424838E-12  1.90890695E+12  3.16847890E-11  1.90890695E+12
         4   18       8.54647030E-03  1.87532920E+10  4.50280857E-11  1.48787366E+12  1.50662696E+12
         5    9       2.43311624E-03  6.16762269E+05  3.95193206E-12  7.37412785E+08  7.38029547E+08
         5   11       1.98606303E-04  1.74074278E+09  1.79086103E-10  2.62361536E+10  2.79768964E+10
         5   15       1.00217199E-05  4.99360809E-09  1.63627171E+09  1.22338996E-11  1.63627171E+09
         5   17       5.02566288E-03  8.23689605E+11  6.78236728E-12  2.68774530E+09  8.26377351E+11
         6   10       2.43311624E-03  6.16762269E+05  3.95193206E-12  7.37412785E+08  7.38029547E+08
         6   12       1.98606303E-04  1.74074278E+09  1.79086103E-10  2.62361536E+10  2.79768964E+10
         6   16       1.00217199E-05  4.99360809E-09  1.63627171E+09  1.22338996E-11  1.63627171E+09
         6   18       5.02566288E-03  8.23689605E+11  6.78236728E-12  2.68774530E+09  8.26377351E+11
         7    9       2.48659738E-03  3.42451716E-15  7.29682988E+08  3.79659711E-12  7.29682988E+08
         7   11       2.41478671E-04  1.51133897E-11  3.39643372E+10  1.39690751E-10  3.39643372E+10
         7   15       4.05876928E-03  6.58220132E+11  1.35845128E-11  3.52767775E+09  6.61747809E+11
         7   17       1.04547893E-05  5.81696934E-09  1.71667268E+09  1.55824073E-11  1.71667268E+09
         8   10       2.48659738E-03  3.42451716E-15  7.29682988E+08  3.79659711E-12  7.29682988E+08
         8   12       2.41478671E-04  1.51133897E-11  3.39643372E+10  1.39690751E-10  3.39643372E+10
         8   16       4.05876928E-03  6.58220132E+11  1.35845128E-11  3.52767775E+09  6.61747809E+11
         8   18       1.04547893E-05  5.81696934E-09  1.71667268E+09  1.55824073E-11  1.71667268E+09
         9   11       8.53055487E-04  1.08166410E+11  5.77777365E-13  1.10660972E+09  1.09273020E+11
         9   15       6.49022373E-03  7.00349584E-15  9.70295449E+11  1.45772074E-10  9.70295449E+11
         9   17       5.75762121E-03  1.13119696E+09  1.66154025E-10  8.66025174E+11  8.67156371E+11
        10   12       8.53055487E-04  1.08166410E+11  5.77777365E-13  1.10660972E+09  1.09273020E+11
        10   16       6.49022373E-03  7.00349584E-15  9.70295449E+11  1.45772074E-10  9.70295449E+11
        10   18       5.75762121E-03  1.13119696E+09  1.66154025E-10  8.66025174E+11  8.67156371E+11
        11   13       1.57947001E-05  9.35843431E+06  3.34835894E-12  7.44694161E+05  1.01031285E+07
        11   15       1.30305563E-01  3.42475230E-14  1.07695497E+11  1.97523800E-11  1.07695497E+11
        11   17       1.30064026E-01  2.07147275E+08  1.90420214E-11  1.18261115E+11  1.18468262E+11
        12   14       1.57947001E-05  9.35843431E+06  3.34835894E-12  7.44694161E+05  1.01031285E+07
        12   16       1.30305563E-01  3.42475230E-14  1.07695497E+11  1.97523800E-11  1.07695497E+11
        12   18       1.30064026E-01  2.07147275E+08  1.90420214E-11  1.18261115E+11  1.18468262E+11
        13   15       1.75662319E-04  9.41583066E-16  2.09964871E+06  2.08885712E-15  2.09964871E+06
        13   17       1.17745177E-04  8.15446190E+01  6.40220407E-16  2.81413692E+06  2.81421847E+06
        14   16       1.75662319E-04  9.41583066E-16  2.09964871E+06  2.08885712E-15  2.09964871E+06
        14   18       1.17745177E-04  8.15446190E+01  6.40220407E-16  2.81413692E+06  2.81421847E+06
        15   17       7.79578958E-04  6.30507698E-19  1.59768879E+06  2.69548408E-15  1.59768879E+06
        16   18       7.79578958E-04  6.30507698E-19  1.59768879E+06  2.69548408E-15  1.59768879E+06
     -----------------------------------------------------------------------------------------------
--

++ Length and velocity gauge comparison (SO states):

 --------------------------------------------------
 A comparison between the dipole oscillator strengths in 
 length and velocity gauge will be performed

 All dipole oscillator differences above the tolerance of   0.10000000000000001       will be printed 

 Due to basis set deficiency these oscillator may be problematic 

 The tolerance is defined as ABS(1-O_l/O_v) 
 O_l : dipole oscillator strength in length gauge
 O_p : dipole oscillator strength in velocity gauge
 --------------------------------------------------

  Problematic transitions have been found

      From   To       Difference (%) Osc. st. (len.) Osc. st. (vel.)
     ---------------------------------------------------------------
         1    5            40.777983  6.58593477E-04  1.11207538E-03
         1    7            40.264167  6.58113666E-04  1.10170669E-03
         1    9      --------------- below threshold  1.34955231E-05
         2    6            40.777983  6.58593477E-04  1.11207538E-03
         2    8            40.264167  6.58113666E-04  1.10170669E-03
         2   10      --------------- below threshold  1.34955231E-05
         3    5            39.525713  6.86448726E-04  1.13510843E-03
         3    7            41.982854  6.23440895E-04  1.07458042E-03
         3    9      --------------- below threshold  1.93580370E-05
         4    6            39.525713  6.86448726E-04  1.13510843E-03
         4    8            41.982854  6.23440895E-04  1.07458042E-03
         4   10      --------------- below threshold  1.93580370E-05
         5    9            56.360720  1.06179440E-03  2.43311624E-03
         5   11            28.082124  1.42833433E-04  1.98606303E-04
         5   15      --------------- below threshold  1.00217199E-05
         6   10            56.360720  1.06179440E-03  2.43311624E-03
         6   12            28.082124  1.42833433E-04  1.98606303E-04
         6   16      --------------- below threshold  1.00217199E-05
         7    9            56.519257  1.08119102E-03  2.48659738E-03
         7   11            28.048771  1.73746871E-04  2.41478671E-04
         7   17      --------------- below threshold  1.04547893E-05
         8   10            56.519257  1.08119102E-03  2.48659738E-03
         8   12            28.048771  1.73746871E-04  2.41478671E-04
         8   18      --------------- below threshold  1.04547893E-05
         9   11            45.148195  1.23819464E-03  8.53055487E-04
        10   12            45.148195  1.23819464E-03  8.53055487E-04
        11   13          8416.464375  1.34515001E-03  1.57947001E-05
        11   15            20.249761  1.56692128E-01  1.30305563E-01
        11   17            19.362215  1.55247303E-01  1.30064026E-01
        12   14          8416.464375  1.34515001E-03  1.57947001E-05
        12   16            20.249761  1.56692128E-01  1.30305563E-01
        12   18            19.362215  1.55247303E-01  1.30064026E-01
        13   15      --------------- below threshold  1.75662319E-04
        14   16      --------------- below threshold  1.75662319E-04
        15   17            18.636025  9.24861485E-04  7.79578958E-04
        16   18            18.636025  9.24861485E-04  7.79578958E-04
     ---------------------------------------------------------------

 Number of problematic transitions =                    36

--

 Electric-dipole - electric-octupole not included
++ Total transition strengths for the second-order expansion of the wave vector (SO states):
   -----------------------------------------------------------------------------------------
    for osc. strength at least    1.0000000000000001E-005

      From   To        Osc. strength
     -------------------------------
         1    5       2.22298349E-05
         1    7       2.14266270E-05
         1   11       4.22268155E-05
         1   15       1.02579353E-05
         2    6       2.22298349E-05
         2    8       2.14266270E-05
         2   12       4.22268155E-05
         2   16       1.02579353E-05
         3    5       2.04965104E-05
         3    7       2.26185146E-05
         3   11       4.15714055E-05
         4    6       2.04965104E-05
         4    8       2.26185146E-05
         4   12       4.15714055E-05
         5    9       7.01504636E-05
         5   11       1.77585190E-05
         6   10       7.01504636E-05
         6   12       1.77585190E-05
         7    9       6.83940150E-05
         7   11       1.82911832E-05
         8   10       6.83940150E-05
         8   12       1.82911832E-05
         9   11       1.19819032E-05
        10   12       1.19819032E-05
     -------------------------------
--

++ I/O STATISTICS
 
  I. General I/O information
  - - - - - - - - - - - - - - - - - - - - - - - - - - - - - - - - - - - - - - - - - - -
  Unit  Name          Flsize      Write/Read            MBytes           Write/Read
                      (MBytes)       Calls              In/Out           Time, sec.
  - - - - - - - - - - - - - - - - - - - - - - - - - - - - - - - - - - - - - - - - - - -
   1  SCRATCH           0.00 .       9/      45 .      0.0/      0.0 .       0/       0
   2  ANNI              0.00 .       0/       0 .      0.0/      0.0 .       0/       0
   3  RUNFILE          15.31 .     322/   10733 .      2.3/     77.8 .       0/       0
   4  ONEINT            6.58 .       0/   28767 .      0.0/   3777.9 .       0/       0
   5  JOBIPH            7.70 .       0/      92 .      0.0/      0.9 .       0/       0
   6  ORDINT          771.03 .       1/    6169 .      0.0/   1542.0 .       0/       0
  - - - - - - - - - - - - - - - - - - - - - - - - - - - - - - - - - - - - - - - - - - -
   *  TOTAL           800.62 .     332/   45806 .      2.3/   5398.7 .       0/       0
  - - - - - - - - - - - - - - - - - - - - - - - - - - - - - - - - - - - - - - - - - - -
 
  II. I/O Access Patterns
  - - - - - - - - - - - - - - - - - - - -
  Unit  Name               % of random
                         Write/Read calls
  - - - - - - - - - - - - - - - - - - - -
   1  SCRATCH             88.9/ 100.0
   2  ANNI                 0.0/   0.0
   3  RUNFILE             28.6/  10.8
   4  ONEINT               0.0/  13.4
   5  JOBIPH               0.0/  76.1
   6  ORDINT             100.0/   0.0
  - - - - - - - - - - - - - - - - - - - -
--
--- Stop Module: rassi at Tue Mar 25 14:19:14 2025 /rc=_RC_ALL_IS_WELL_ ---
*** files: xmldump
    saved to directory /home4/s4752295/Internship/Initial_simulations/Point_charge_model/1_electron/Madelung_charges_9_active_space/Ta
--- Module rassi spent 5 seconds ---

.##################.
.# Happy landing! #.
.##################.

    Timing: Wall=93.72 User=75.19 System=13.78

###############################################################################
Hbrk Cluster
Job 15897333 for user s4752295
Finished at: Tue Mar 25 14:19:19 CET 2025

Job details:
============

Job ID                         : 15897333
Name                           : Ta_no_SO
User                           : s4752295
Partition                      : regularmedium
Nodes                          : node86
Number of Nodes                : 1
Cores                          : 1
Number of Tasks                : 1
State                          : COMPLETED  
Submit                         : 2025-03-25T14:17:24
Start                          : 2025-03-25T14:17:34
End                            : 2025-03-25T14:19:14
Reserved walltime              : 15:00:00
Used walltime                  : 00:01:40
Used CPU time                  : 00:01:30 (Efficiency: 90.42%)
% User (Computation)           : 84.45%
% System (I/O)                 : 15.55%
Total memory reserved          : 25000M
Maximum memory used            : 3.06G

Acknowledgements:
=================

Please see this page for information about acknowledging Hbrk in your publications:

https://wiki.hpc.rug.nl/habrok/introduction/scientific_output

################################################################################
