   This run of MOLCAS is using the pymolcas driver

                             OPE
                             OPE          NMOL  CASOP  ENMOLC A   SO
                 OPE        NMOLC        AS  OP EN  MO LC     AS  OP
                OPENM       OL CA        SO  PE NM  OL CA     SOP EN
                OP EN      MO   LC       AS  OP ENMOL  CASO   PENMOL
                OP  EN     MO   LC       AS  OP EN     MO     LC ASO
               OP   E  NMOL  C  AS       OP  EN MO     LC     AS  OP
               OP  E   NMO   LC AS        OPEN  MO     LCASOP EN   M
               O  PEN   MO  LCA  SO
            OPE   NMO   L   CAS    OP
        OPENMOL  CASOP     ENMOL   CASOPE
     OPENMOLCA   SOPENMOLCASOPEN   MOLCASOPE
    OPENMOLCAS   OP           EN   MOL    CAS
    OPENMOLCAS       OP  ENM        O     LCA
    OPENMOLCAS    OPEN  MOLCASO     P  E  NMO
    OPENMOLCAS     OP               E  N  MOL
    OPENMOLCA   SO           PENM   O  L  CAS    OPEN    MO    LCAS
    OPENMOLCA   SOP           ENM   O  L  CAS   OP  EN  MOLC  AS   O
    OPENMOLCA   SOPE           NM      O  LCA   S      OP  EN MO
    OPENMOLC                AS         O  PEN   M      OL  CA  SOPE
    OPENMO        LCASOPE  NMOL        C  ASO   P      ENMOLC     AS
    OPE     NMO      LCA  SO     P     E   NM   OL  CA SO  PE N   MO
          OPENMOLCA            SOPE   NMO        LCAS  O    P  ENMO
     OPENMOLCASOPENMOLCASOPENMOLCASOPENMOLCA
        OPENMOLCASOPENMOLCASOPENMOLCASOPE
            OPENMOLCASOPENMOLCASOPENM
               OPENMOLCASOPENMOLCA        version: o91e1abe7de707b ?
                   OPENMOLCASO
                       OPE                tag:

 OpenMolcas is free software; you can redistribute it and/or modify it
 under the terms of the GNU Lesser General Public License version 2.1.
 OpenMolcas is distributed in the hope that it will be useful, but it
 is provided "as is" and without any express or implied warranties.
 For more details see the full text of the license in the file
 LICENSE or in <http://www.gnu.org/licenses/>.

                 Copyright (C) The OpenMolcas Authors
           For the author list and the recommended citation,
                   consult the file CONTRIBUTORS.md

           *************************************************
           * pymolcas version py2.10                       *
           *   build 3068ae8b88c9345ec6cfef6fef7f1169      *
           *   (after the EMIL interpreter by V. Veryazov) *
           *************************************************

configuration info
------------------
Host name: login1 (Linux)
C Compiler ID: GNU
C flags: -std=gnu99
Fortran Compiler ID: GNU
Fortran flags: -fno-aggressive-loop-optimizations -cpp -fdefault-integer-8 -fmax-stack-var-size=1048576
Definitions: _MOLCAS_;_I8_;_LINUX_;_MKL_
Parallel: OFF (GA=OFF)


   -----------------------------------------------------------------------------------------------------------------------------------
  |
  |           Project: tantalum_so_cf
  |    Submitted from: /home4/s4752295/Internship/Initial_simulations/Point_charge_model/1_electron/Madelung_charges_9_active_space/Ta
  |      Scratch area: /tmp/tantalum_so_cf
  |   Save outputs to: /home4/s4752295/Internship/Initial_simulations/Point_charge_model/1_electron/Madelung_charges_9_active_space/Ta
  |            Molcas: /home4/s4752295/Internship/Molcas/recomp_try/OpenMolcas-master/build
  |
  | Scratch area is empty
  |
  |    MOLCAS_DRIVER = /home4/s4752295/Internship/Molcas/bin/pymolcas
  |    MOLCAS_NPROCS = 1
  |    MOLCAS_SOURCE = /home4/s4752295/Internship/Molcas/recomp_try/OpenMolcas-master
  | MOLCAS_STRUCTURE = 0
  |
   -----------------------------------------------------------------------------------------------------------------------------------

++ ---------   Input file   ---------

&SEWARD
AMFi

CLIG
$R

Basis Set
Ta.ANO-rcc.Roos.24s21p15d11f4g2h.11s10p9d8f4g2h.
Spherical d
Ta            -1.0658140267135469e-14   -3.5527134223784897e-15 0.008753588724385739
End of Basis

Xfield

414
-1.200660324,-0.46199999999999997,0.26673569999999996   -0.625931
-1.200660324,-0.0,-0.5334717    -0.625931
-1.200660324,0.46199999999999997,0.26673569999999996    -0.625931
-1.198603821,0.0,0.0    1.892092
0.797753907,-0.46199999999999997,-0.26673569999999996   2.515516
0.797753907,0.0,0.5334717       2.515516
0.797753907,0.46199999999999997,-0.26673569999999996    2.515516
1.068896484,-0.9239999999999999,0.0     0.004632
1.068896484,-0.46199999999999997,-0.8002074     0.004632
1.068896484,-0.46199999999999997,0.8002074      0.004632
1.068896484,0.46199999999999997,-0.8002074      0.004632
1.068896484,0.46199999999999997,0.8002074       0.004632
1.068896484,0.9239999999999999,0.0      0.004632
1.2387451170000001,-0.46199999999999997,0.26673569999999996     -2.519484
1.2387451170000001,-0.0,-0.5334717      -2.519484
1.2387451170000001,0.46199999999999997,0.26673569999999996      -2.519484
-0.879931641,-0.0,-0.0  -3.142907
-1.492529298,-0.9239999999999999,-0.5334717     -0.625931
-1.492529298,0.0,1.0669431      -0.625931
-1.492529298,0.9239999999999999,-0.5334717      -0.625931
-1.9828124999999999,-0.9239999999999999,0.0     1.892092
-1.9828124999999999,-0.46199999999999997,-0.8002074     1.892092
-1.9828124999999999,-0.46199999999999997,0.8002074      1.892092
-1.9828124999999999,0.46199999999999997,-0.8002074      1.892092
-1.9828124999999999,0.46199999999999997,0.8002074       1.892092
-1.9828124999999999,0.9239999999999999,0.0      1.892092
7.551562499999999,-0.9239999999999999,0.5334717 2.515516
7.551562499999999,-0.0,-1.0669431       2.515516
7.551562499999999,0.9239999999999999,0.5334717  2.515516
1.0916015639999999,-0.9239999999999999,-0.5334717       -2.519484
1.0916015639999999,0.0,1.0669431        -2.519484
1.0916015639999999,0.9239999999999999,-0.5334717        -2.519484
-0.9697265639999999,-0.9239999999999999,-0.0    -3.142907
-0.9697265639999999,-0.46199999999999997,-0.8002074     -3.142907
-0.9697265639999999,-0.46199999999999997,0.8002074      -3.142907
-0.9697265639999999,0.46199999999999997,-0.8002074      -3.142907
-0.9697265639999999,0.46199999999999997,0.8002074       -3.142907
-0.9697265639999999,0.9239999999999999,-0.0     -3.142907
-2.85703125,-0.9239999999999999,1.0669431       -0.625931
-2.85703125,0.9239999999999999,1.0669431        -0.625931
-2.85703125,-1.386,0.26673569999999996  -0.625931
-2.85703125,1.386,0.26673569999999996   -0.625931
-2.85703125,-0.46199999999999997,-1.3336791000000001    -0.625931
-2.85703125,0.46199999999999997,-1.3336791000000001     -0.625931
1.80234375,-0.46199999999999997,-0.26673569999999996    4.409069
1.80234375,0.46199999999999997,-0.26673569999999996     4.409069
1.80234375,0.0,0.5334717        4.409069
-52.574999999999996,-0.0,-0.0   -5.030367
-52.574999999999996,0.0,0.0     5.039632
4.055273435999999,-0.9239999999999999,-1.0669431        2.515516
4.055273435999999,0.9239999999999999,-1.0669431 2.515516
4.055273435999999,-1.386,-0.26673569999999996   2.515516
4.055273435999999,1.386,-0.26673569999999996    2.515516
4.055273435999999,-0.46199999999999997,1.3336791000000001       2.515516
4.055273435999999,0.46199999999999997,1.3336791000000001        2.515516
5.71171875,-1.386,-0.8002074    0.004632
5.71171875,-1.386,0.8002074     0.004632
5.71171875,1.386,-0.8002074     0.004632
5.71171875,1.386,0.8002074      0.004632
5.71171875,-0.0,-1.6004148      0.004632
5.71171875,0.0,1.6004148        0.004632
14.423437499999999,-0.9239999999999999,1.0669431        -2.519484
14.423437499999999,0.9239999999999999,1.0669431 -2.519484
14.423437499999999,-1.386,0.26673569999999996   -2.519484
14.423437499999999,1.386,0.26673569999999996    -2.519484
14.423437499999999,-0.46199999999999997,-1.3336791000000001     -2.519484
14.423437499999999,0.46199999999999997,-1.3336791000000001      -2.519484
-43.762499999999996,-1.386,-0.8002074   1.892092
-43.762499999999996,-1.386,0.8002074    1.892092
-43.762499999999996,1.386,-0.8002074    1.892092
-43.762499999999996,1.386,0.8002074     1.892092
-43.762499999999996,-0.0,-1.6004148     1.892092
-43.762499999999996,0.0,1.6004148       1.892092
-35.324999999999996,-0.9239999999999999,0.5334717       4.409069
-35.324999999999996,-0.0,-1.0669431     4.409069
-35.324999999999996,0.9239999999999999,0.5334717        4.409069
-26.7,-0.9239999999999999,-0.0  -5.030367
-26.7,-0.46199999999999997,-0.8002074   -5.030367
-26.7,-0.46199999999999997,0.8002074    -5.030367
-26.7,0.46199999999999997,-0.8002074    -5.030367
-26.7,-0.9239999999999999,0.0   5.039632
-26.7,0.9239999999999999,-0.0   -5.030367
-26.7,0.46199999999999997,0.8002074     -5.030367
-26.7,-0.46199999999999997,-0.8002074   5.039632
-26.7,-0.46199999999999997,0.8002074    5.039632
-26.7,0.46199999999999997,-0.8002074    5.039632
-26.7,0.9239999999999999,0.0    5.039632
-26.7,0.46199999999999997,0.8002074     5.039632
-13.987499999999999,-0.46199999999999997,-0.26673569999999996   -5.660931
-13.987499999999999,0.0,0.5334717       -5.660931
-13.987499999999999,0.46199999999999997,-0.26673569999999996    -5.660931
0.26484375,-1.8479997,0.0       0.004632
0.26484375,-0.9239999999999999,-1.6004148       0.004632
0.26484375,-0.9239999999999999,1.6004148        0.004632
0.26484375,0.9239999999999999,-1.6004148        0.004632
0.26484375,1.8479997,0.0        0.004632
0.26484375,0.9239999999999999,1.6004148 0.004632
20.381249999999998,-1.386,0.8002074     -3.142907
20.381249999999998,-1.386,-0.8002074    -3.142907
20.381249999999998,1.386,-0.8002074     -3.142907
20.381249999999998,1.386,0.8002074      -3.142907
20.381249999999998,-0.0,-1.6004148      -3.142907
20.381249999999998,0.0,1.6004148        -3.142907
25.912499999999998,-1.8479997,-0.5334717        -0.625931
25.912499999999998,-1.386,-1.3336791000000001   -0.625931
25.912499999999998,-0.46199999999999997,1.8671505       -0.625931
25.912499999999998,1.386,-1.3336791000000001    -0.625931
25.912499999999998,1.8479997,-0.5334717 -0.625931
25.912499999999998,0.46199999999999997,1.8671505        -0.625931
0.359179686,-1.8479997,0.0      1.892092
0.359179686,-0.9239999999999999,-1.6004148      1.892092
0.359179686,-0.9239999999999999,1.6004148       1.892092
0.359179686,0.9239999999999999,-1.6004148       1.892092
0.359179686,1.8479997,0.0       1.892092
0.359179686,0.9239999999999999,1.6004148        1.892092
10.153125,-0.9239999999999999,-1.0669431        4.409069
10.153125,0.9239999999999999,-1.0669431 4.409069
10.153125,-1.386,-0.26673569999999996   4.409069
10.153125,1.386,-0.26673569999999996    4.409069
10.153125,-0.46199999999999997,1.3336791000000001       4.409069
10.153125,0.46199999999999997,1.3336791000000001        4.409069
48.721875,-0.9239999999999999,0.5334717 -5.660931
48.721875,-0.0,-1.0669431       -5.660931
48.721875,0.9239999999999999,0.5334717  -5.660931
0.103125,-1.8479997,0.5334717   2.515516
0.103125,-0.46199999999999997,-1.8671505        2.515516
0.103125,-1.386,1.3336791000000001      2.515516
0.103125,0.46199999999999997,-1.8671505 2.515516
0.103125,1.8479997,0.5334717    2.515516
0.103125,1.386,1.3336791000000001       2.515516
-28.256249999999998,-1.8479997,-0.5334717       -2.519484
-28.256249999999998,-1.386,-1.3336791000000001  -2.519484
-28.256249999999998,-0.46199999999999997,1.8671505      -2.519484
-28.256249999999998,1.386,-1.3336791000000001   -2.519484
-28.256249999999998,0.46199999999999997,1.8671505       -2.519484
-28.256249999999998,1.8479997,-0.5334717        -2.519484
-6.62109375,-1.8479997,-0.0     -3.142907
-6.62109375,-0.9239999999999999,-1.6004148      -3.142907
-6.62109375,-0.9239999999999999,1.6004148       -3.142907
-6.62109375,0.9239999999999999,-1.6004148       -3.142907
-6.62109375,0.9239999999999999,1.6004148        -3.142907
-6.62109375,1.8479997,-0.0      -3.142907
181.95,0.0,0.0  6.927092
96.975,-1.8479997,1.0669431     -0.625931
96.975,1.8479997,1.0669431      -0.625931
96.975,-0.0,-2.1338865  -0.625931
-1.6265625,-1.386,0.8002074     -5.030367
-1.6265625,-1.386,-0.8002074    -5.030367
-1.6265625,-1.386,0.8002074     5.039632
-1.6265625,-1.386,-0.8002074    5.039632
-1.6265625,1.386,-0.8002074     -5.030367
-1.6265625,1.386,0.8002074      -5.030367
-1.6265625,1.386,-0.8002074     5.039632
-1.6265625,1.386,0.8002074      5.039632
-1.6265625,-0.0,-1.6004148      -5.030367
-1.6265625,0.0,1.6004148        -5.030367
-1.6265625,-0.0,-1.6004148      5.039632
-1.6265625,0.0,1.6004148        5.039632
27.54375,-0.9239999999999999,-1.0669431 -5.660931
27.54375,0.9239999999999999,-1.0669431  -5.660931
27.54375,-1.386,-0.26673569999999996    -5.660931
27.54375,1.386,-0.26673569999999996     -5.660931
27.54375,-0.46199999999999997,1.3336791000000001        -5.660931
27.54375,0.46199999999999997,1.3336791000000001 -5.660931
90.14999999999999,-1.8479997,-1.0669431 2.515516
90.14999999999999,1.8479997,-1.0669431  2.515516
90.14999999999999,0.0,2.1338865 2.515516
-155.17499999999998,-1.8479997,1.0669431        -2.519484
-155.17499999999998,1.8479997,1.0669431 -2.519484
-155.17499999999998,-0.0,-2.1338865     -2.519484
16.068749999999998,-0.9239999999999999,0.0      6.927092
16.068749999999998,-0.46199999999999997,-0.8002074      6.927092
16.068749999999998,-0.46199999999999997,0.8002074       6.927092
16.068749999999998,0.46199999999999997,-0.8002074       6.927092
16.068749999999998,0.46199999999999997,0.8002074        6.927092
16.068749999999998,0.9239999999999999,0.0       6.927092
-16.575,-0.46199999999999997,0.26673569999999996        7.550516
-16.575,0.0,-0.5334717  7.550516
-16.575,0.46199999999999997,0.26673569999999996 7.550516
4.659375,-0.46199999999999997,-0.26673569999999996      -7.554483
4.659375,0.46199999999999997,-0.26673569999999996       -7.554483
4.659375,-0.0,0.5334717 -7.554483
-37.4625,-2.3099997,0.26673569999999996 -0.625931
-37.4625,-1.386,1.8671505       -0.625931
-37.4625,-0.9239999999999999,-2.1338865 -0.625931
-37.4625,0.9239999999999999,-2.1338865  -0.625931
-37.4625,2.3099997,0.26673569999999996  -0.625931
-37.4625,1.386,1.8671505        -0.625931
-20.23125,-1.8479997,0.5334717  4.409069
-20.23125,-1.386,1.3336791000000001     4.409069
-20.23125,-0.46199999999999997,-1.8671505       4.409069
-20.23125,0.46199999999999997,-1.8671505        4.409069
-20.23125,1.386,1.3336791000000001      4.409069
-20.23125,1.8479997,0.5334717   4.409069
14.746875,-1.8479997,-0.0       -5.030367
14.746875,-0.9239999999999999,-1.6004148        -5.030367
14.746875,-0.9239999999999999,1.6004148 -5.030367
14.746875,-1.8479997,0.0        5.039632
14.746875,-0.9239999999999999,-1.6004148        5.039632
14.746875,0.9239999999999999,-1.6004148 -5.030367
14.746875,0.9239999999999999,1.6004148  -5.030367
14.746875,1.8479997,-0.0        -5.030367
14.746875,-0.9239999999999999,1.6004148 5.039632
14.746875,0.9239999999999999,-1.6004148 5.039632
14.746875,1.8479997,0.0 5.039632
14.746875,0.9239999999999999,1.6004148  5.039632
54.225,-2.3099997,-0.26673569999999996  2.515516
54.225,-1.386,-1.8671505        2.515516
54.225,-0.9239999999999999,2.1338865    2.515516
54.225,1.386,-1.8671505 2.515516
54.225,2.3099997,-0.26673569999999996   2.515516
54.225,0.9239999999999999,2.1338865     2.515516
-7.003125,-2.3099997,-0.8002074 0.004632
-7.003125,-2.3099997,0.8002074  0.004632
-7.003125,-1.8479997,-1.6004148 0.004632
-7.003125,-1.8479997,1.6004148  0.004632
-7.003125,-0.46199999999999997,-2.4006222       0.004632
-7.003125,0.46199999999999997,-2.4006222        0.004632
-7.003125,-0.46199999999999997,2.4006222        0.004632
-7.003125,1.8479997,-1.6004148  0.004632
-7.003125,0.46199999999999997,2.4006222 0.004632
-7.003125,2.3099997,-0.8002074  0.004632
-7.003125,2.3099997,0.8002074   0.004632
-7.003125,1.8479997,1.6004148   0.004632
-42.9375,-2.3099997,0.26673569999999996 -2.519484
-42.9375,-1.386,1.8671505       -2.519484
-42.9375,-0.9239999999999999,-2.1338865 -2.519484
-42.9375,0.9239999999999999,-2.1338865  -2.519484
-42.9375,2.3099997,0.26673569999999996  -2.519484
-42.9375,1.386,1.8671505        -2.519484
909.6,-0.0,-0.0 -8.177907
-34.8,-0.9239999999999999,-0.5334717    7.550516
-34.8,0.0,1.0669431     7.550516
-34.8,0.9239999999999999,-0.5334717     7.550516
-181.04999999999998,-0.9239999999999999,0.5334717       -7.554483
-181.04999999999998,-0.0,-1.0669431     -7.554483
-181.04999999999998,0.9239999999999999,0.5334717        -7.554483
14.671875,-2.3099997,0.8002074  1.892092
14.671875,-2.3099997,-0.8002074 1.892092
14.671875,-1.8479997,-1.6004148 1.892092
14.671875,-1.8479997,1.6004148  1.892092
14.671875,-0.46199999999999997,-2.4006222       1.892092
14.671875,0.46199999999999997,-2.4006222        1.892092
14.671875,-0.46199999999999997,2.4006222        1.892092
14.671875,1.8479997,-1.6004148  1.892092
14.671875,0.46199999999999997,2.4006222 1.892092
14.671875,2.3099997,-0.8002074  1.892092
14.671875,2.3099997,0.8002074   1.892092
14.671875,1.8479997,1.6004148   1.892092
-151.5,-1.8479997,-1.0669431    4.409069
-151.5,1.8479997,-1.0669431     4.409069
-151.5,0.0,2.1338865    4.409069
7.74609375,-1.8479997,0.5334717 -5.660931
7.74609375,-0.46199999999999997,-1.8671505      -5.660931
7.74609375,-1.386,1.3336791000000001    -5.660931
7.74609375,0.46199999999999997,-1.8671505       -5.660931
7.74609375,1.386,1.3336791000000001     -5.660931
7.74609375,1.8479997,0.5334717  -5.660931
-17.45625,-1.8479997,-1.6004148 -3.142907
-17.45625,-2.3099997,0.8002074  -3.142907
-17.45625,-2.3099997,-0.8002074 -3.142907
-17.45625,-1.8479997,1.6004148  -3.142907
-17.45625,-0.46199999999999997,-2.4006222       -3.142907
-17.45625,0.46199999999999997,-2.4006222        -3.142907
-17.45625,-0.46199999999999997,2.4006222        -3.142907
-17.45625,2.3099997,-0.8002074  -3.142907
-17.45625,1.8479997,-1.6004148  -3.142907
-17.45625,0.46199999999999997,2.4006222 -3.142907
-17.45625,2.3099997,0.8002074   -3.142907
-17.45625,1.8479997,1.6004148   -3.142907
19.621875,-1.386,-0.8002074     6.927092
19.621875,-1.386,0.8002074      6.927092
19.621875,1.386,-0.8002074      6.927092
19.621875,1.386,0.8002074       6.927092
19.621875,-0.0,-1.6004148       6.927092
19.621875,0.0,1.6004148 6.927092
-24.974999999999998,-0.9239999999999999,-0.0    -8.177907
-24.974999999999998,-0.46199999999999997,0.8002074      -8.177907
-24.974999999999998,-0.46199999999999997,-0.8002074     -8.177907
-24.974999999999998,0.46199999999999997,-0.8002074      -8.177907
-24.974999999999998,0.9239999999999999,-0.0     -8.177907
-24.974999999999998,0.46199999999999997,0.8002074       -8.177907
-27.271874999999998,-0.9239999999999999,1.0669431       7.550516
-27.271874999999998,0.9239999999999999,1.0669431        7.550516
-27.271874999999998,-1.386,0.26673569999999996  7.550516
-27.271874999999998,1.386,0.26673569999999996   7.550516
-27.271874999999998,-0.46199999999999997,-1.3336791000000001    7.550516
-27.271874999999998,0.46199999999999997,-1.3336791000000001     7.550516
-13.706249999999999,-0.9239999999999999,-1.0669431      -7.554483
-13.706249999999999,0.9239999999999999,-1.0669431       -7.554483
-13.706249999999999,-1.386,-0.26673569999999996 -7.554483
-13.706249999999999,1.386,-0.26673569999999996  -7.554483
-13.706249999999999,-0.46199999999999997,1.3336791000000001     -7.554483
-13.706249999999999,0.46199999999999997,1.3336791000000001      -7.554483
-150.075,0.0,2.6673579  -0.625931
-150.075,-2.3099997,-1.3336791000000001 -0.625931
-150.075,2.3099997,-1.3336791000000001  -0.625931
-80.925,-2.3099997,-0.26673569999999996 4.409069
-80.925,-1.386,-1.8671505       4.409069
-80.925,-0.9239999999999999,2.1338865   4.409069
-80.925,1.386,-1.8671505        4.409069
-80.925,2.3099997,-0.26673569999999996  4.409069
-80.925,0.9239999999999999,2.1338865    4.409069
93.1125,-1.8479997,-1.0669431   -5.660931
93.1125,1.8479997,-1.0669431    -5.660931
93.1125,0.0,2.1338865   -5.660931
176.1,-0.0,-2.6673579   2.515516
176.1,-2.3099997,1.3336791000000001     2.515516
176.1,2.3099997,1.3336791000000001      2.515516
-28.162499999999998,-2.7719997,-0.0     0.004632
-28.162499999999998,1.386,-2.4006222    0.004632
-28.162499999999998,-1.386,2.4006222    0.004632
-28.162499999999998,2.7719997,-0.0      0.004632
-28.162499999999998,-1.386,-2.4006222   0.004632
-28.162499999999998,1.386,2.4006222     0.004632
-115.725,0.0,2.6673579  -2.519484
-115.725,-2.3099997,-1.3336791000000001 -2.519484
-115.725,2.3099997,-1.3336791000000001  -2.519484
68.39999999999999,-1.8479997,0.0        6.927092
68.39999999999999,-0.9239999999999999,-1.6004148        6.927092
68.39999999999999,-0.9239999999999999,1.6004148 6.927092
68.39999999999999,0.9239999999999999,-1.6004148 6.927092
68.39999999999999,1.8479997,0.0 6.927092
68.39999999999999,0.9239999999999999,1.6004148  6.927092
63.5625,-2.7719997,-0.5334717   -0.625931
63.5625,-0.9239999999999999,2.6673579   -0.625931
63.5625,-1.8479997,-2.1338865   -0.625931
63.5625,1.8479997,-2.1338865    -0.625931
63.5625,0.9239999999999999,2.6673579    -0.625931
63.5625,2.7719997,-0.5334717    -0.625931
33.58125,-2.7719997,0.0 1.892092
33.58125,-1.386,-2.4006222      1.892092
33.58125,-1.386,2.4006222       1.892092
33.58125,1.386,-2.4006222       1.892092
33.58125,2.7719997,0.0  1.892092
33.58125,1.386,2.4006222        1.892092
-1.29609375,-2.3099997,0.8002074        -5.030367
-1.29609375,-2.3099997,-0.8002074       -5.030367
-1.29609375,-1.8479997,-1.6004148       -5.030367
-1.29609375,-1.8479997,1.6004148        -5.030367
-1.29609375,-2.3099997,0.8002074        5.039632
-1.29609375,0.46199999999999997,-2.4006222      -5.030367
-1.29609375,-0.46199999999999997,-2.4006222     -5.030367
-1.29609375,-2.3099997,-0.8002074       5.039632
-1.29609375,-1.8479997,-1.6004148       5.039632
-1.29609375,-0.46199999999999997,2.4006222      -5.030367
-1.29609375,0.46199999999999997,-2.4006222      5.039632
-1.29609375,-1.8479997,1.6004148        5.039632
-1.29609375,-0.46199999999999997,-2.4006222     5.039632
-1.29609375,1.8479997,-1.6004148        -5.030367
-1.29609375,0.46199999999999997,2.4006222       -5.030367
-1.29609375,2.3099997,-0.8002074        -5.030367
-1.29609375,2.3099997,0.8002074 -5.030367
-1.29609375,1.8479997,1.6004148 -5.030367
-1.29609375,-0.46199999999999997,2.4006222      5.039632
-1.29609375,1.8479997,-1.6004148        5.039632
-1.29609375,2.3099997,-0.8002074        5.039632
-1.29609375,0.46199999999999997,2.4006222       5.039632
-1.29609375,2.3099997,0.8002074 5.039632
-1.29609375,1.8479997,1.6004148 5.039632
-0.20625,-2.3099997,-0.26673569999999996        -5.660931
-0.20625,-1.386,-1.8671505      -5.660931
-0.20625,-0.9239999999999999,2.1338865  -5.660931
-0.20625,1.386,-1.8671505       -5.660931
-0.20625,0.9239999999999999,2.1338865   -5.660931
-0.20625,2.3099997,-0.26673569999999996 -5.660931
34.8,-0.46199999999999997,0.26673569999999996   9.444068
34.8,0.0,-0.5334717     9.444068
34.8,0.46199999999999997,0.26673569999999996    9.444068
15.393749999999999,-2.7719997,0.5334717 2.515516
15.393749999999999,-0.9239999999999999,-2.6673579       2.515516
15.393749999999999,0.9239999999999999,-2.6673579        2.515516
15.393749999999999,-1.8479997,2.1338865 2.515516
15.393749999999999,2.7719997,0.5334717  2.515516
15.393749999999999,1.8479997,2.1338865  2.515516
47.0625,-2.7719997,-0.5334717   -2.519484
47.0625,-0.9239999999999999,2.6673579   -2.519484
47.0625,-1.8479997,-2.1338865   -2.519484
47.0625,1.8479997,-2.1338865    -2.519484
47.0625,2.7719997,-0.5334717    -2.519484
47.0625,0.9239999999999999,2.6673579    -2.519484
65.8875,-2.7719997,-0.0 -3.142907
65.8875,-1.386,-2.4006222       -3.142907
65.8875,-1.386,2.4006222        -3.142907
65.8875,1.386,-2.4006222        -3.142907
65.8875,2.7719997,-0.0  -3.142907
65.8875,1.386,2.4006222 -3.142907
2.593652343,-1.386,-0.8002074   -8.177907
2.593652343,-1.386,0.8002074    -8.177907
2.593652343,1.386,0.8002074     -8.177907
2.593652343,1.386,-0.8002074    -8.177907
2.593652343,-0.0,-1.6004148     -8.177907
2.593652343,0.0,1.6004148       -8.177907
75.5625,-1.386,-1.3336791000000001      7.550516
75.5625,-1.8479997,-0.5334717   7.550516
75.5625,-0.46199999999999997,1.8671505  7.550516
75.5625,1.386,-1.3336791000000001       7.550516
75.5625,0.46199999999999997,1.8671505   7.550516
75.5625,1.8479997,-0.5334717    7.550516
-104.39999999999999,-1.386,1.3336791000000001   -7.554483
-104.39999999999999,-1.8479997,0.5334717        -7.554483
-104.39999999999999,-0.46199999999999997,-1.8671505     -7.554483
-104.39999999999999,0.46199999999999997,-1.8671505      -7.554483
-104.39999999999999,1.8479997,0.5334717 -7.554483
-104.39999999999999,1.386,1.3336791000000001    -7.554483
21.3796875,-2.3099997,1.8671505 -0.625931
21.3796875,-2.7719997,1.0669431 -0.625931
21.3796875,-0.46199999999999997,-2.9340938999999997     -0.625931
21.3796875,0.46199999999999997,-2.9340938999999997      -0.625931
21.3796875,2.7719997,1.0669431  -0.625931
21.3796875,2.3099997,1.8671505  -0.625931
-145.125,-0.0,-2.6673579        4.409069
-145.125,-2.3099997,1.3336791000000001  4.409069
-145.125,2.3099997,1.3336791000000001   4.409069

End of input

&SCF
Occupied
9
Iterations
   50  100
End of Input

&RASSCF
LumOrb
Symmetry
1
Spin
2
Nactel
1 0 0
CIRoot
9 9 1
inactive
9
ras2
9
End of Input

>>> COPY tantalum_so_cf.JobIph $SLURM_SUBMIT_DIR/tantalum_so_cf.doublet.JobIph

>>> COPY $SLURM_SUBMIT_DIR/tantalum_so_cf.doublet.JobIph ./JOB002

&RASSI
NROFJobIph
1 All
SpinOrbit
End of Input

EOF

-- ----------------------------------

--- Start Module: seward at Tue Mar 25 16:52:46 2025 ---

()()()()()()()()()()()()()()()()()()()()()()()()()()()()()()()()()()()()()()()()()()()()()()()()()()

                                              &SEWARD

                                   only a single process is used
                       available to each process: 4.1 GB of memory, 1 thread?
                                            pid: 3452147
()()()()()()()()()()()()()()()()()()()()()()()()()()()()()()()()()()()()()()()()()()()()()()()()()()

 The speed of LIGHT in this CALCULATION =   137.03599917700001     
               SEWARD will generate:
                  Multipole Moment integrals up to order  2
                  Kinetic Energy integrals
                  Nuclear Attraction integrals (point charge)
                  One-Electron Hamiltonian integrals
                  Velocity integrals
                  Relativistic Douglas-Kroll-Hess integrals:
                    - Parametrization         : EXP
                    - DKH order of Hamiltonian: 2
                    - DKH order of Properties : 0
                         - multipole moment operators
                         - electric potential operators
                         - contact operators
                  External field from   414 point(s) added to the one-electron Hamiltonian
                  Orbital angular momentum around (-0.0000 -0.0000  0.0088 )
                  Velocity quadrupole around (-0.0000 -0.0000  0.0088 )
                  Atomic mean-field integrals
                  Two-Electron Repulsion integrals

                   Integrals are discarded if absolute value <: 0.10E-13
                   Integral cutoff threshold is set to       <: 0.10E-15

++    Symmetry information:
      ---------------------

                    Character Table for C1 

                             E  
                    a        1  x, y, xy, Rz, z, xz, Ry, yz, Rx, I
--


++    Basis set information:
      ----------------------


      Basis set label: TA.ANO-RCC.ROOS.24S21P15D11F4G2H.11S10P9D8F4G2H......

      Electronic valence basis set:
      ------------------
      Associated Effective Charge  73.000000 au
      Associated Actual Charge     73.000000 au
      Nuclear Model: Point charge

      Shell  nPrim  nBasis  Cartesian Spherical Contaminant
         s      24      11        X                  
         p      21      10        X                  
         d      15       9                 X         
         f      11       8                 X         
         g       4       4                 X         
         h       2       2                 X         
--


++    Molecular structure info:
      -------------------------

                    ************************************************ 
                    **** Cartesian Coordinates / Bohr, Angstrom **** 
                    ************************************************ 

     Center  Label                x              y              z                     x              y              z
        1      TA              -0.000000      -0.000000       0.008754             -0.000000      -0.000000       0.004632
--


++    Operator info:
      --------------


  Net charge from external field:   -39.268449999999902     
--


            Nuclear Potential Energy              0.00000000 au

                    Nuclear-External Field Potential Energy   -2226.23827787 au
                    External Field Potential Energy            5352.12300462 au 


            Total Nuclear Potential Energy          -2226.23827787 au


      Basis set specifications :
      Symmetry species         a  
      Basis functions          200

 Sorry, Molden does not know how to handle
 functions with angular momentum larger than g
Note: The following floating-point exceptions are signalling: IEEE_UNDERFLOW_FLAG IEEE_DENORMAL
--- Stop Module: seward at Tue Mar 25 16:53:07 2025 /rc=_RC_ALL_IS_WELL_ ---
*** files: tantalum_so_cf.GssOrb xmldump
    saved to directory /home4/s4752295/Internship/Initial_simulations/Point_charge_model/1_electron/Madelung_charges_9_active_space/Ta
--- Module seward spent 20 seconds ---

*** symbolic link created: INPORB -> tantalum_so_cf.GssOrb
--- Start Module: scf at Tue Mar 25 16:53:07 2025 ---

()()()()()()()()()()()()()()()()()()()()()()()()()()()()()()()()()()()()()()()()()()()()()()()()()()

                                                &SCF

                                   only a single process is used
                       available to each process: 4.1 GB of memory, 1 thread?
                                            pid: 3452178
()()()()()()()()()()()()()()()()()()()()()()()()()()()()()()()()()()()()()()()()()()()()()()()()()()

++    Input section:
      --------------

      Header of the integral files:
      
       Integrals generated by seward 4.2.0  , Tue Mar 25 16:52:47 2025


      Cartesian coordinates in Angstrom:
      -----------------------------------------------------
      No.  Label        X            Y            Z        
      -----------------------------------------------------
       1   TA        -0.00000000  -0.00000000   0.00463220
      -----------------------------------------------------
      Nuclear repulsion energy =-2226.23827787
--

++    Orbital specifications:
      -----------------------

      Symmetry species               1
                                     a
      Frozen orbitals                0
      Occupied orbitals              9
      Secondary orbitals           191
      Deleted orbitals               0
      Total number of orbitals     200
      Number of basis functions    200
--

      Molecular charge                          55.000

++    Optimization specifications:
      ----------------------------

      SCF Algorithm: Conventional
      Minimized density differences are used
      Number of density matrices in core                5
      Maximum number of NDDO SCF iterations            50
      Maximum number of HF SCF iterations             100
      Threshold for SCF energy change            0.10E-08
      Threshold for density matrix               0.10E-03
      Threshold for Fock matrix                  0.15E-03
      Threshold for linear dependence            0.10E-08
      Threshold at which DIIS is turned on       0.15E+00
      Threshold at which QNR/C2DIIS is turned on 0.75E-01
      Threshold for Norm(delta) (QNR/C2DIIS)     0.20E-04
      DIIS extrapolation of the SCF procedure
      All orbitals punched on: SCFORB
--

      Detected guessorb starting orbitals                                             


++ Convergence information
                                   SCF        iterations: Energy and convergence statistics

Iter     Tot. SCF        One-elec.       Two-elec.     Energy      Max Dij or  Max Fij      DNorm      TNorm      AccCon     Time
         Energy          Energy          Energy        Change      Delta Norm                                                in Sec.

 The total and one-electron energies are shifted by a value of     14000. a.u.

   1  -202.638208692   776.929893861  1246.670175314   0.00E+00    0.21E+00*   0.88E+01*    0.60E+01   0.64E+03   None         1.
   2  -213.757945211   721.508928089  1290.971404567  -0.11E+02*   0.66E-02*   0.21E+00*    0.96E+00   0.65E+03   EDIIS        1.
   3  -213.762908073   722.036847475  1290.438522320  -0.50E-02*   0.77E-03*   0.13E-01*    0.22E-01   0.65E+03   EDIIS        1.
   4  -213.762924110   722.024587720  1290.450766037  -0.16E-04*   0.32E-04    0.11E-02*    0.96E-03   0.65E+03   c2DIIS       1.
   5  -213.762924232   722.024865304  1290.450488332  -0.12E-06*   0.45E-05    0.69E-04     0.66E-04   0.65E+03   QNRc2DIIS    1.
   6  -213.762924233   722.024871073  1290.450482561  -0.10E-08*   0.16E-05    0.17E-04     0.10E-04   0.65E+03   QNRc2DIIS    1.
   7  -213.762924233   722.024870855  1290.450482780  -0.64E-10    0.27E-07    0.34E-06     0.54E-02   0.65E+03   QNRc2DIIS    1.

       Convergence after  7 Macro Iterations
--

 *****************************************************************************************************************************
 *                                                                                                                           *
 *                                             SCF/KS-DFT Program, Final results                                             *
 *                                                                                                                           *
 *                                                                                                                           *
 *                                                                                                                           *
 *                                                       Final Results                                                       *
 *                                                                                                                           *
 *****************************************************************************************************************************

::    Total SCF energy                             -14213.7629242334
      One-electron energy                          -13277.9751291454
      Two-electron energy                            1290.4504827795
      Nuclear repulsion energy                      -2226.2382778675
      Kinetic energy (interpolated)                 18440.9136087702
      Virial theorem                                    0.7707732505
      Total spin, S(S+1)                                0.0000000000
      Total spin, S                                     0.0000000000
      Max non-diagonal density matrix element           0.0000000483
      Max non-diagonal Fock matrix element              0.0000001225


      All orbitals with orbital energies smaller than  E(LUMO)+0.5 are printed

++    Molecular orbitals:
      -------------------

      Title: SCF orbitals

      Molecular orbitals for symmetry species 1: a  

          Some orbital energies have been scaled by powers of 10, the power is written right after the orbital index


          Orbital            1 (1)     2         3         4         5         6         7         8         9        10    
          Energy         -260.2411 -544.0736 -492.6886 -492.6886 -492.6756 -193.0116 -177.0459 -177.0459 -176.8959 -157.6562
          Occ. No.          2.0000    2.0000    2.0000    2.0000    2.0000    2.0000    2.0000    2.0000    2.0000    0.0000

        1 TA     1s         1.0000    0.0001    0.0000    0.0000   -0.0000   -0.0000   -0.0000   -0.0000    0.0000    0.0000
        2 TA     2s        -0.0001    0.9999    0.0000    0.0000   -0.0048    0.0123    0.0000    0.0000   -0.0012   -0.0000
        3 TA     3s         0.0000   -0.0119   -0.0000   -0.0000    0.0005    0.9931    0.0003    0.0000   -0.0623   -0.0000
        4 TA     4s        -0.0000    0.0034    0.0000    0.0000   -0.0001   -0.0802   -0.0000   -0.0000    0.0087    0.0000
        5 TA     5s         0.0000   -0.0012   -0.0000   -0.0000    0.0000    0.0233    0.0000   -0.0000   -0.0026   -0.0000
        6 TA     6s        -0.0000    0.0003    0.0000   -0.0000   -0.0000   -0.0063   -0.0000    0.0000    0.0007   -0.0000
        7 TA     7s         0.0000   -0.0006   -0.0000   -0.0000    0.0000    0.0106    0.0000    0.0000   -0.0012    0.0000
        8 TA     8s        -0.0000    0.0013    0.0000    0.0000   -0.0000   -0.0228   -0.0000    0.0000    0.0026   -0.0000
        9 TA     9s         0.0000   -0.0016   -0.0000    0.0000    0.0001    0.0267    0.0000   -0.0000   -0.0030   -0.0000
       10 TA    10s        -0.0000    0.0012    0.0000    0.0000   -0.0000   -0.0178   -0.0000   -0.0000    0.0020    0.0000
       11 TA    11s         0.0000   -0.0024   -0.0000   -0.0000    0.0001    0.0306    0.0000    0.0000   -0.0033   -0.0000
       12 TA     2px        0.0000    0.0048   -0.0089   -0.0000    0.9998    0.0004   -0.0001   -0.0000    0.0143    0.0000
       13 TA     3px       -0.0000    0.0004    0.0001    0.0000   -0.0138    0.0632   -0.0070   -0.0000    0.9897    0.0000
       14 TA     4px        0.0000   -0.0001   -0.0000   -0.0000    0.0038   -0.0032    0.0006    0.0000   -0.0916   -0.0000
       15 TA     5px       -0.0000    0.0000    0.0000    0.0000   -0.0012    0.0008   -0.0002   -0.0000    0.0250    0.0000
       16 TA     6px        0.0000   -0.0000   -0.0000   -0.0000    0.0005   -0.0003    0.0001    0.0000   -0.0107   -0.0000
       17 TA     7px       -0.0000    0.0000    0.0000    0.0000   -0.0017    0.0009   -0.0002   -0.0000    0.0330    0.0000
       18 TA     8px        0.0000   -0.0000   -0.0000   -0.0000    0.0017   -0.0008    0.0002    0.0000   -0.0304   -0.0000
       19 TA     9px       -0.0000    0.0000    0.0000    0.0000   -0.0017    0.0008   -0.0002   -0.0000    0.0283    0.0000
       20 TA    10px        0.0000   -0.0001   -0.0000   -0.0000    0.0019   -0.0007    0.0002    0.0000   -0.0281   -0.0000
       21 TA    11px       -0.0000    0.0001    0.0000    0.0000   -0.0027    0.0005   -0.0002   -0.0000    0.0299    0.0000
       22 TA     2py       -0.0000   -0.0000   -0.0000    0.9999   -0.0000    0.0000   -0.0000    0.0143   -0.0000    0.0000
       23 TA     3py        0.0000    0.0000    0.0000   -0.0137    0.0000    0.0000   -0.0000    0.9922   -0.0000    0.0007
       24 TA     4py       -0.0000   -0.0000   -0.0000    0.0038   -0.0000   -0.0000    0.0000   -0.0912    0.0000   -0.0001
       25 TA     5py        0.0000    0.0000    0.0000   -0.0012    0.0000    0.0000   -0.0000    0.0249   -0.0000    0.0000
       26 TA     6py       -0.0000   -0.0000   -0.0000    0.0005   -0.0000   -0.0000    0.0000   -0.0107    0.0000   -0.0000
       27 TA     7py        0.0000    0.0000    0.0000   -0.0017    0.0000    0.0000   -0.0000    0.0329   -0.0000    0.0000
       28 TA     8py       -0.0000   -0.0000   -0.0000    0.0017   -0.0000   -0.0000    0.0000   -0.0303    0.0000   -0.0000
       29 TA     9py        0.0000    0.0000    0.0000   -0.0017    0.0000    0.0000   -0.0000    0.0282   -0.0000    0.0000
       30 TA    10py       -0.0000   -0.0000   -0.0000    0.0019   -0.0000   -0.0000    0.0000   -0.0280    0.0000   -0.0000
       31 TA    11py        0.0000    0.0000    0.0000   -0.0027    0.0000    0.0000   -0.0000    0.0298   -0.0000    0.0000
       32 TA     2pz        0.0000    0.0000    0.9998    0.0000    0.0089    0.0000    0.0143    0.0000    0.0001    0.0000
       33 TA     3pz       -0.0000    0.0000   -0.0137   -0.0000   -0.0001    0.0002    0.9922    0.0000    0.0070    0.0000
       34 TA     4pz        0.0000   -0.0000    0.0038    0.0000    0.0000   -0.0000   -0.0912   -0.0000   -0.0007   -0.0000
       35 TA     5pz       -0.0000    0.0000   -0.0012   -0.0000   -0.0000    0.0000    0.0249    0.0000    0.0002    0.0000
       36 TA     6pz        0.0000   -0.0000    0.0005    0.0000    0.0000   -0.0000   -0.0107   -0.0000   -0.0001   -0.0000
       37 TA     7pz       -0.0000    0.0000   -0.0017   -0.0000   -0.0000    0.0000    0.0329    0.0000    0.0002    0.0000
       38 TA     8pz        0.0000   -0.0000    0.0017    0.0000    0.0000   -0.0000   -0.0303   -0.0000   -0.0002   -0.0000
       39 TA     9pz       -0.0000    0.0000   -0.0017   -0.0000   -0.0000    0.0000    0.0282    0.0000    0.0002    0.0000
       40 TA    10pz        0.0000   -0.0000    0.0019    0.0000    0.0000   -0.0000   -0.0280   -0.0000   -0.0002   -0.0000
       41 TA    11pz       -0.0000    0.0000   -0.0027   -0.0000   -0.0000    0.0000    0.0298    0.0000    0.0002    0.0000
       42 TA     3d2-      -0.0000   -0.0000   -0.0000    0.0005   -0.0000    0.0000   -0.0000    0.0421   -0.0000   -0.0190
       43 TA     4d2-       0.0000    0.0000    0.0000   -0.0001    0.0000   -0.0000    0.0000   -0.0013    0.0000    0.0018
       44 TA     5d2-      -0.0000   -0.0000   -0.0000    0.0000   -0.0000    0.0000   -0.0000    0.0002   -0.0000   -0.0003
       45 TA     6d2-       0.0000    0.0000    0.0000   -0.0000    0.0000   -0.0000    0.0000   -0.0003    0.0000    0.0005
       46 TA     7d2-      -0.0000   -0.0000   -0.0000    0.0000   -0.0000    0.0000   -0.0000    0.0003   -0.0000   -0.0006
       47 TA     8d2-       0.0000    0.0000    0.0000   -0.0001    0.0000   -0.0000    0.0000   -0.0002    0.0000    0.0008
       48 TA     9d2-      -0.0000   -0.0000   -0.0000    0.0001   -0.0000    0.0000   -0.0000    0.0001   -0.0000   -0.0007
       49 TA    10d2-       0.0000    0.0000    0.0000   -0.0001    0.0000   -0.0000    0.0000   -0.0000    0.0000    0.0008
       50 TA    11d2-      -0.0000   -0.0000   -0.0000    0.0001   -0.0000    0.0000    0.0000   -0.0002   -0.0000   -0.0006
       51 TA     3d1-      -0.0000   -0.0000   -0.0000    0.0000   -0.0000   -0.0000   -0.0000    0.0001    0.0000    0.9914
       52 TA     4d1-       0.0000    0.0000    0.0000   -0.0000    0.0000    0.0000    0.0000   -0.0000   -0.0000   -0.0959
       53 TA     5d1-      -0.0000   -0.0000   -0.0000    0.0000   -0.0000   -0.0000    0.0000   -0.0000    0.0000    0.0177
       54 TA     6d1-       0.0000    0.0000    0.0000   -0.0000    0.0000    0.0000    0.0000   -0.0000   -0.0000   -0.0275
       55 TA     7d1-      -0.0000   -0.0000    0.0000   -0.0000    0.0000   -0.0000   -0.0000    0.0000    0.0000    0.0321
       56 TA     8d1-       0.0000    0.0000    0.0000   -0.0000    0.0000   -0.0000    0.0000   -0.0000   -0.0000   -0.0413
       57 TA     9d1-      -0.0000   -0.0000   -0.0000    0.0000   -0.0000   -0.0000    0.0000   -0.0000    0.0000    0.0341
       58 TA    10d1-       0.0000    0.0000    0.0000   -0.0000    0.0000    0.0000   -0.0000    0.0000   -0.0000   -0.0404
       59 TA    11d1-      -0.0000   -0.0000   -0.0000    0.0000   -0.0000   -0.0000   -0.0000    0.0000   -0.0000    0.0297
       60 TA     3d0        0.0000    0.0000    0.0000    0.0000   -0.0003    0.0002    0.0003    0.0000   -0.0253   -0.0000
       61 TA     4d0       -0.0000   -0.0000   -0.0000   -0.0000    0.0001    0.0000   -0.0000   -0.0000    0.0007    0.0000
       62 TA     5d0        0.0000    0.0000    0.0000    0.0000   -0.0000    0.0000    0.0000    0.0000   -0.0001   -0.0000
       63 TA     6d0       -0.0000   -0.0000   -0.0000   -0.0000    0.0000    0.0000   -0.0000   -0.0000    0.0001    0.0000
       64 TA     7d0        0.0000    0.0000    0.0000    0.0000   -0.0000   -0.0000   -0.0000   -0.0000   -0.0001   -0.0000
       65 TA     8d0       -0.0000   -0.0000   -0.0000   -0.0000    0.0000    0.0000    0.0000    0.0000    0.0001    0.0000
       66 TA     9d0        0.0000    0.0000    0.0000    0.0000   -0.0000   -0.0000    0.0000    0.0000   -0.0001   -0.0000
       67 TA    10d0       -0.0000   -0.0000   -0.0000   -0.0000    0.0001    0.0000   -0.0000   -0.0000    0.0000    0.0000
       68 TA    11d0        0.0000    0.0000    0.0000    0.0000   -0.0001   -0.0000   -0.0000   -0.0000    0.0001   -0.0000
       69 TA     3d1+      -0.0000   -0.0000    0.0005    0.0000    0.0000   -0.0000    0.0421    0.0000    0.0005   -0.0000
       70 TA     4d1+       0.0000    0.0000   -0.0001   -0.0000   -0.0000   -0.0000   -0.0013   -0.0000   -0.0000    0.0000
       71 TA     5d1+      -0.0000   -0.0000    0.0000    0.0000    0.0000    0.0000    0.0002    0.0000    0.0000   -0.0000
       72 TA     6d1+       0.0000    0.0000   -0.0000   -0.0000   -0.0000   -0.0000   -0.0003   -0.0000   -0.0000    0.0000
       73 TA     7d1+      -0.0000   -0.0000    0.0000    0.0000    0.0000    0.0000    0.0003    0.0000    0.0000   -0.0000
       74 TA     8d1+       0.0000    0.0000   -0.0001   -0.0000   -0.0000   -0.0000   -0.0002   -0.0000   -0.0000    0.0000
       75 TA     9d1+      -0.0000   -0.0000    0.0001    0.0000    0.0000    0.0000    0.0001    0.0000    0.0000   -0.0000
       76 TA    10d1+       0.0000    0.0000   -0.0001   -0.0000   -0.0000   -0.0000   -0.0000   -0.0000   -0.0000    0.0000
       77 TA    11d1+      -0.0000   -0.0000    0.0001    0.0000    0.0000    0.0000   -0.0002   -0.0000   -0.0000   -0.0000
       78 TA     3d2+      -0.0000   -0.0000   -0.0000   -0.0000    0.0005   -0.0004   -0.0003   -0.0000    0.0438   -0.0000
       79 TA     4d2+       0.0000    0.0000    0.0000    0.0000   -0.0001   -0.0001    0.0000    0.0000   -0.0013    0.0000
       80 TA     5d2+      -0.0000   -0.0000   -0.0000   -0.0000    0.0000   -0.0000   -0.0000   -0.0000    0.0002   -0.0000
       81 TA     6d2+       0.0000    0.0000    0.0000    0.0000   -0.0000   -0.0000    0.0000    0.0000   -0.0002    0.0000
       82 TA     7d2+      -0.0000   -0.0000   -0.0000   -0.0000    0.0000    0.0000   -0.0000   -0.0000    0.0002   -0.0000
       83 TA     8d2+       0.0000    0.0000    0.0000    0.0000   -0.0001   -0.0000    0.0000    0.0000   -0.0002    0.0000
       84 TA     9d2+      -0.0000   -0.0000   -0.0000   -0.0000    0.0001    0.0000    0.0000    0.0000    0.0001   -0.0000
       85 TA    10d2+       0.0000    0.0000    0.0000    0.0000   -0.0001   -0.0000   -0.0000   -0.0000   -0.0000    0.0000
       86 TA    11d2+      -0.0000   -0.0000   -0.0000   -0.0000    0.0001    0.0000    0.0000    0.0000   -0.0002   -0.0000
       87 TA     4f3-       0.0000   -0.0000    0.0000   -0.0000    0.0000   -0.0000    0.0000   -0.0001    0.0000   -0.0001
       88 TA     5f3-      -0.0000    0.0000   -0.0000    0.0000   -0.0000    0.0000   -0.0000    0.0001   -0.0000    0.0001
       89 TA     6f3-       0.0000   -0.0000    0.0000   -0.0000    0.0000   -0.0000    0.0000   -0.0001    0.0000   -0.0001
       90 TA     7f3-      -0.0000    0.0000   -0.0000    0.0000   -0.0000    0.0000   -0.0000    0.0001   -0.0000    0.0001
       91 TA     8f3-       0.0000   -0.0000    0.0000   -0.0000    0.0000   -0.0000    0.0000   -0.0001    0.0000   -0.0000
       92 TA     9f3-      -0.0000    0.0000   -0.0000    0.0000   -0.0000    0.0000   -0.0000    0.0000   -0.0000    0.0000
       93 TA    10f3-       0.0000   -0.0000    0.0000   -0.0000    0.0000   -0.0000    0.0000   -0.0000    0.0000   -0.0000
       94 TA    11f3-      -0.0000    0.0000   -0.0000    0.0000   -0.0000    0.0000   -0.0000    0.0000   -0.0000    0.0000
       95 TA     4f2-      -0.0000   -0.0000    0.0000   -0.0000    0.0000    0.0000    0.0000   -0.0000   -0.0000    0.0036
       96 TA     5f2-       0.0000    0.0000   -0.0000    0.0000   -0.0000   -0.0000   -0.0000    0.0000    0.0000   -0.0029
       97 TA     6f2-      -0.0000   -0.0000    0.0000   -0.0000    0.0000    0.0000    0.0000   -0.0000   -0.0000    0.0023
       98 TA     7f2-       0.0000    0.0000   -0.0000    0.0000   -0.0000   -0.0000   -0.0000    0.0000    0.0000   -0.0022
       99 TA     8f2-      -0.0000   -0.0000    0.0000   -0.0000    0.0000    0.0000    0.0000   -0.0000   -0.0000    0.0020
      100 TA     9f2-       0.0000    0.0000   -0.0000    0.0000   -0.0000   -0.0000    0.0000   -0.0000    0.0000   -0.0015
      101 TA    10f2-      -0.0000   -0.0000    0.0000   -0.0000    0.0000    0.0000   -0.0000    0.0000   -0.0000    0.0011
      102 TA    11f2-       0.0000    0.0000   -0.0000    0.0000    0.0000    0.0000    0.0000   -0.0000   -0.0000   -0.0008
      103 TA     4f1-      -0.0000    0.0000   -0.0000    0.0000   -0.0000   -0.0000   -0.0000    0.0000    0.0000    0.0000
      104 TA     5f1-      -0.0000   -0.0000    0.0000   -0.0000    0.0000    0.0000    0.0000   -0.0000   -0.0000   -0.0000
      105 TA     6f1-       0.0000   -0.0000   -0.0000    0.0000   -0.0000   -0.0000   -0.0000    0.0000    0.0000    0.0000
      106 TA     7f1-      -0.0000    0.0000    0.0000   -0.0000    0.0000   -0.0000    0.0000   -0.0000   -0.0000   -0.0000
      107 TA     8f1-       0.0000   -0.0000   -0.0000    0.0000   -0.0000   -0.0000   -0.0000    0.0000    0.0000    0.0000
      108 TA     9f1-      -0.0000    0.0000    0.0000   -0.0000    0.0000   -0.0000    0.0000   -0.0000   -0.0000   -0.0000
      109 TA    10f1-      -0.0000    0.0000   -0.0000    0.0000   -0.0000    0.0000   -0.0000    0.0000    0.0000    0.0000
      110 TA    11f1-       0.0000   -0.0000    0.0000   -0.0000    0.0000   -0.0000    0.0000   -0.0000   -0.0000   -0.0000
      111 TA     4f0       -0.0000    0.0000    0.0000    0.0000    0.0000   -0.0000    0.0001    0.0000    0.0000    0.0000
      112 TA     5f0       -0.0000    0.0000   -0.0000   -0.0000   -0.0000   -0.0000   -0.0001   -0.0000   -0.0000   -0.0000
      113 TA     6f0        0.0000   -0.0000    0.0000    0.0000    0.0000    0.0000    0.0000    0.0000    0.0000    0.0000
      114 TA     7f0        0.0000   -0.0000   -0.0000   -0.0000   -0.0000    0.0000   -0.0000   -0.0000   -0.0000    0.0000
      115 TA     8f0       -0.0000    0.0000    0.0000    0.0000    0.0000   -0.0000    0.0000    0.0000    0.0000   -0.0000
      116 TA     9f0       -0.0000    0.0000   -0.0000   -0.0000   -0.0000   -0.0000   -0.0000   -0.0000    0.0000    0.0000
      117 TA    10f0        0.0000   -0.0000    0.0000    0.0000    0.0000    0.0000    0.0000    0.0000   -0.0000   -0.0000
      118 TA    11f0        0.0000   -0.0000   -0.0000   -0.0000   -0.0000    0.0000   -0.0000   -0.0000   -0.0000    0.0000
      119 TA     4f1+       0.0000   -0.0000    0.0000    0.0000    0.0000   -0.0001    0.0000    0.0000    0.0001   -0.0000
      120 TA     5f1+      -0.0000    0.0000    0.0000    0.0000   -0.0000    0.0000   -0.0000   -0.0000   -0.0001    0.0000
      121 TA     6f1+       0.0000   -0.0000   -0.0000   -0.0000    0.0000   -0.0000    0.0000    0.0000    0.0001   -0.0000
      122 TA     7f1+      -0.0000    0.0000    0.0000    0.0000   -0.0000    0.0000   -0.0000   -0.0000   -0.0001    0.0000
      123 TA     8f1+       0.0000   -0.0000   -0.0000   -0.0000    0.0000   -0.0000   -0.0000   -0.0000    0.0000   -0.0000
      124 TA     9f1+      -0.0000    0.0000    0.0000    0.0000   -0.0000    0.0000    0.0000    0.0000   -0.0000    0.0000
      125 TA    10f1+       0.0000   -0.0000   -0.0000   -0.0000    0.0000   -0.0000   -0.0000   -0.0000    0.0000   -0.0000
      126 TA    11f1+      -0.0000    0.0000    0.0000    0.0000   -0.0000   -0.0000    0.0000    0.0000   -0.0000    0.0000
      127 TA     4f2+      -0.0000    0.0000   -0.0000   -0.0000   -0.0000    0.0000   -0.0001   -0.0000    0.0000   -0.0000
      128 TA     5f2+       0.0000   -0.0000    0.0000    0.0000    0.0000   -0.0000    0.0001    0.0000   -0.0000    0.0000
      129 TA     6f2+       0.0000   -0.0000   -0.0000   -0.0000   -0.0000    0.0000   -0.0001   -0.0000    0.0000   -0.0000
      130 TA     7f2+       0.0000   -0.0000    0.0000    0.0000    0.0000   -0.0000    0.0001    0.0000   -0.0000    0.0000
      131 TA     8f2+      -0.0000    0.0000   -0.0000   -0.0000   -0.0000   -0.0000   -0.0001   -0.0000   -0.0000   -0.0000
      132 TA     9f2+      -0.0000    0.0000    0.0000    0.0000    0.0000   -0.0000    0.0000    0.0000    0.0000    0.0000
      133 TA    10f2+       0.0000   -0.0000   -0.0000   -0.0000   -0.0000    0.0000   -0.0000   -0.0000   -0.0000   -0.0000
      134 TA    11f2+       0.0000   -0.0000    0.0000    0.0000    0.0000    0.0000    0.0000    0.0000    0.0000    0.0000
      135 TA     4f3+      -0.0000    0.0000    0.0000    0.0000   -0.0000    0.0001    0.0000    0.0000   -0.0002   -0.0000
      136 TA     5f3+       0.0000   -0.0000   -0.0000   -0.0000    0.0000   -0.0001   -0.0000   -0.0000    0.0001    0.0000
      137 TA     6f3+      -0.0000    0.0000    0.0000    0.0000   -0.0000    0.0000    0.0000    0.0000   -0.0001   -0.0000
      138 TA     7f3+       0.0000   -0.0000   -0.0000   -0.0000    0.0000   -0.0000   -0.0000   -0.0000    0.0001    0.0000
      139 TA     8f3+      -0.0000    0.0000    0.0000    0.0000   -0.0000    0.0000    0.0000    0.0000   -0.0001   -0.0000
      140 TA     9f3+       0.0000   -0.0000   -0.0000   -0.0000    0.0000   -0.0000    0.0000    0.0000    0.0000    0.0000
      141 TA    10f3+      -0.0000    0.0000    0.0000    0.0000   -0.0000    0.0000   -0.0000   -0.0000   -0.0000   -0.0000
      142 TA    11f3+       0.0000   -0.0000   -0.0000   -0.0000    0.0000    0.0000    0.0000    0.0000    0.0000    0.0000
      143 TA     5g4-      -0.0000   -0.0000   -0.0000    0.0000   -0.0000   -0.0000   -0.0000    0.0000   -0.0000    0.0000
      144 TA     6g4-       0.0000    0.0000    0.0000   -0.0000    0.0000    0.0000    0.0000   -0.0000    0.0000   -0.0000
      145 TA     7g4-      -0.0000   -0.0000   -0.0000    0.0000   -0.0000   -0.0000   -0.0000    0.0000   -0.0000    0.0000
      146 TA     8g4-       0.0000    0.0000   -0.0000    0.0000   -0.0000    0.0000    0.0000   -0.0000    0.0000   -0.0000
      147 TA     5g3-       0.0000    0.0000    0.0000   -0.0000    0.0000   -0.0000    0.0000   -0.0000   -0.0000   -0.0000
      148 TA     6g3-      -0.0000   -0.0000    0.0000   -0.0000    0.0000    0.0000   -0.0000    0.0000   -0.0000    0.0000
      149 TA     7g3-       0.0000    0.0000    0.0000   -0.0000    0.0000   -0.0000    0.0000   -0.0000    0.0000   -0.0000
      150 TA     8g3-       0.0000   -0.0000   -0.0000    0.0000   -0.0000   -0.0000    0.0000   -0.0000    0.0000    0.0000
      151 TA     5g2-       0.0000   -0.0000    0.0000   -0.0000    0.0000   -0.0000    0.0000   -0.0000    0.0000   -0.0000
      152 TA     6g2-      -0.0000    0.0000   -0.0000    0.0000   -0.0000    0.0000   -0.0000    0.0000   -0.0000    0.0000
      153 TA     7g2-       0.0000   -0.0000    0.0000   -0.0000    0.0000   -0.0000    0.0000   -0.0000    0.0000   -0.0000
      154 TA     8g2-      -0.0000    0.0000    0.0000   -0.0000    0.0000    0.0000   -0.0000    0.0000   -0.0000    0.0000
      155 TA     5g1-      -0.0000    0.0000   -0.0000    0.0000   -0.0000    0.0000   -0.0000    0.0000   -0.0000    0.0000
      156 TA     6g1-       0.0000   -0.0000    0.0000   -0.0000    0.0000   -0.0000   -0.0000    0.0000   -0.0000   -0.0000
      157 TA     7g1-      -0.0000    0.0000    0.0000   -0.0000    0.0000    0.0000   -0.0000    0.0000   -0.0000    0.0000
      158 TA     8g1-       0.0000   -0.0000   -0.0000    0.0000   -0.0000   -0.0000    0.0000   -0.0000    0.0000   -0.0000
      159 TA     5g0        0.0000   -0.0000   -0.0000   -0.0000    0.0000    0.0000   -0.0000   -0.0000    0.0000   -0.0000
      160 TA     6g0        0.0000   -0.0000   -0.0000   -0.0000    0.0000    0.0000    0.0000    0.0000   -0.0000    0.0000
      161 TA     7g0       -0.0000    0.0000   -0.0000   -0.0000   -0.0000   -0.0000    0.0000    0.0000    0.0000   -0.0000
      162 TA     8g0        0.0000   -0.0000    0.0000    0.0000    0.0000    0.0000   -0.0000   -0.0000   -0.0000    0.0000
      163 TA     5g1+      -0.0000    0.0000   -0.0000   -0.0000    0.0000    0.0000   -0.0000   -0.0000    0.0000   -0.0000
      164 TA     6g1+      -0.0000    0.0000    0.0000    0.0000   -0.0000   -0.0000    0.0000    0.0000   -0.0000    0.0000
      165 TA     7g1+       0.0000   -0.0000   -0.0000   -0.0000   -0.0000    0.0000   -0.0000   -0.0000    0.0000   -0.0000
      166 TA     8g1+      -0.0000    0.0000   -0.0000   -0.0000    0.0000   -0.0000    0.0000    0.0000   -0.0000    0.0000
      167 TA     5g2+      -0.0000    0.0000    0.0000    0.0000   -0.0000   -0.0000    0.0000    0.0000   -0.0000    0.0000
      168 TA     6g2+      -0.0000    0.0000   -0.0000   -0.0000   -0.0000   -0.0000   -0.0000   -0.0000    0.0000   -0.0000
      169 TA     7g2+       0.0000   -0.0000   -0.0000   -0.0000    0.0000    0.0000    0.0000    0.0000   -0.0000    0.0000
      170 TA     8g2+      -0.0000    0.0000    0.0000    0.0000   -0.0000   -0.0000   -0.0000   -0.0000    0.0000   -0.0000
      171 TA     5g3+      -0.0000    0.0000    0.0000    0.0000    0.0000    0.0000    0.0000    0.0000    0.0000    0.0000
      172 TA     6g3+      -0.0000    0.0000   -0.0000   -0.0000   -0.0000   -0.0000   -0.0000   -0.0000   -0.0000   -0.0000
      173 TA     7g3+       0.0000   -0.0000    0.0000    0.0000   -0.0000    0.0000    0.0000    0.0000    0.0000    0.0000
      174 TA     8g3+      -0.0000    0.0000    0.0000    0.0000    0.0000   -0.0000   -0.0000   -0.0000   -0.0000   -0.0000
      175 TA     5g4+       0.0000   -0.0000    0.0000    0.0000    0.0000    0.0000    0.0000    0.0000    0.0000    0.0000
      176 TA     6g4+       0.0000   -0.0000   -0.0000   -0.0000    0.0000    0.0000   -0.0000   -0.0000   -0.0000   -0.0000
      177 TA     7g4+      -0.0000    0.0000    0.0000    0.0000   -0.0000   -0.0000    0.0000    0.0000    0.0000    0.0000
      178 TA     8g4+       0.0000   -0.0000   -0.0000   -0.0000    0.0000    0.0000   -0.0000   -0.0000   -0.0000   -0.0000
      179 TA     6h5-      -0.0000   -0.0000    0.0000   -0.0000   -0.0000   -0.0000    0.0000   -0.0000   -0.0000   -0.0000
      180 TA     7h5-       0.0000    0.0000   -0.0000    0.0000   -0.0000    0.0000    0.0000   -0.0000    0.0000   -0.0000
      181 TA     6h4-       0.0000    0.0000    0.0000   -0.0000    0.0000    0.0000   -0.0000    0.0000   -0.0000    0.0000
      182 TA     7h4-      -0.0000   -0.0000    0.0000   -0.0000    0.0000    0.0000   -0.0000    0.0000    0.0000   -0.0000
      183 TA     6h3-      -0.0000   -0.0000   -0.0000    0.0000   -0.0000   -0.0000    0.0000   -0.0000   -0.0000    0.0000
      184 TA     7h3-       0.0000    0.0000    0.0000   -0.0000    0.0000    0.0000   -0.0000    0.0000    0.0000    0.0000
      185 TA     6h2-      -0.0000   -0.0000   -0.0000    0.0000   -0.0000    0.0000   -0.0000    0.0000    0.0000   -0.0000
      186 TA     7h2-      -0.0000    0.0000    0.0000   -0.0000    0.0000    0.0000   -0.0000    0.0000   -0.0000   -0.0000
      187 TA     6h1-       0.0000   -0.0000   -0.0000    0.0000   -0.0000   -0.0000    0.0000   -0.0000   -0.0000    0.0000
      188 TA     7h1-      -0.0000    0.0000   -0.0000    0.0000    0.0000    0.0000    0.0000   -0.0000    0.0000    0.0000
      189 TA     6h0        0.0000   -0.0000   -0.0000   -0.0000   -0.0000    0.0000    0.0000    0.0000   -0.0000   -0.0000
      190 TA     7h0       -0.0000    0.0000    0.0000    0.0000    0.0000   -0.0000   -0.0000   -0.0000   -0.0000   -0.0000
      191 TA     6h1+      -0.0000    0.0000    0.0000    0.0000   -0.0000   -0.0000    0.0000    0.0000    0.0000    0.0000
      192 TA     7h1+      -0.0000    0.0000   -0.0000   -0.0000    0.0000   -0.0000    0.0000    0.0000   -0.0000   -0.0000
      193 TA     6h2+      -0.0000    0.0000   -0.0000   -0.0000    0.0000   -0.0000    0.0000    0.0000   -0.0000   -0.0000
      194 TA     7h2+       0.0000   -0.0000   -0.0000   -0.0000   -0.0000    0.0000    0.0000    0.0000    0.0000   -0.0000
      195 TA     6h3+       0.0000   -0.0000    0.0000    0.0000    0.0000    0.0000    0.0000    0.0000   -0.0000   -0.0000
      196 TA     7h3+       0.0000   -0.0000   -0.0000   -0.0000   -0.0000    0.0000    0.0000    0.0000    0.0000   -0.0000
      197 TA     6h4+      -0.0000    0.0000   -0.0000   -0.0000    0.0000   -0.0000    0.0000    0.0000    0.0000   -0.0000
      198 TA     7h4+       0.0000   -0.0000    0.0000    0.0000   -0.0000    0.0000   -0.0000   -0.0000    0.0000   -0.0000
      199 TA     6h5+      -0.0000    0.0000    0.0000    0.0000   -0.0000   -0.0000   -0.0000   -0.0000    0.0000   -0.0000
      200 TA     7h5+      -0.0000    0.0000   -0.0000   -0.0000    0.0000   -0.0000    0.0000    0.0000   -0.0000    0.0000

          Orbital           11        12        13        14    
          Energy         -157.6561 -157.5803 -157.5802 -157.5483
          Occ. No.          0.0000    0.0000    0.0000    0.0000

        1 TA     1s        -0.0000    0.0000    0.0000   -0.0000
        2 TA     2s         0.0000   -0.0000    0.0000    0.0001
        3 TA     3s         0.0000   -0.0000    0.0000    0.0035
        4 TA     4s        -0.0000   -0.0000   -0.0000   -0.0008
        5 TA     5s         0.0000    0.0000    0.0000    0.0002
        6 TA     6s         0.0000   -0.0000   -0.0000   -0.0001
        7 TA     7s        -0.0000    0.0000   -0.0000    0.0001
        8 TA     8s        -0.0000   -0.0000   -0.0000   -0.0002
        9 TA     9s         0.0000    0.0000    0.0000    0.0003
       10 TA    10s        -0.0000   -0.0000   -0.0000   -0.0002
       11 TA    11s         0.0000   -0.0000   -0.0000    0.0003
       12 TA     2px       -0.0000    0.0000    0.0000   -0.0013
       13 TA     3px       -0.0000    0.0004    0.0000   -0.0494
       14 TA     4px        0.0000   -0.0001   -0.0000    0.0070
       15 TA     5px       -0.0000    0.0000    0.0000   -0.0020
       16 TA     6px        0.0000   -0.0000   -0.0000    0.0008
       17 TA     7px       -0.0000    0.0000    0.0000   -0.0026
       18 TA     8px        0.0000   -0.0000   -0.0000    0.0024
       19 TA     9px       -0.0000    0.0000    0.0000   -0.0022
       20 TA    10px        0.0000   -0.0000   -0.0000    0.0022
       21 TA    11px       -0.0000    0.0000    0.0000   -0.0022
       22 TA     2py        0.0000    0.0000   -0.0011    0.0000
       23 TA     3py        0.0000    0.0000   -0.0413    0.0000
       24 TA     4py       -0.0000   -0.0000    0.0058   -0.0000
       25 TA     5py        0.0000    0.0000   -0.0016    0.0000
       26 TA     6py       -0.0000   -0.0000    0.0007   -0.0000
       27 TA     7py        0.0000    0.0000   -0.0021    0.0000
       28 TA     8py       -0.0000   -0.0000    0.0020   -0.0000
       29 TA     9py        0.0000    0.0000   -0.0018    0.0000
       30 TA    10py       -0.0000   -0.0000    0.0018   -0.0000
       31 TA    11py        0.0000    0.0000   -0.0019    0.0000
       32 TA     2pz       -0.0000   -0.0011   -0.0000   -0.0000
       33 TA     3pz       -0.0003   -0.0413   -0.0000   -0.0004
       34 TA     4pz        0.0000    0.0058    0.0000    0.0001
       35 TA     5pz       -0.0000   -0.0016   -0.0000   -0.0000
       36 TA     6pz        0.0000    0.0007    0.0000    0.0000
       37 TA     7pz       -0.0000   -0.0021   -0.0000   -0.0000
       38 TA     8pz        0.0000    0.0020    0.0000    0.0000
       39 TA     9pz       -0.0000   -0.0018   -0.0000   -0.0000
       40 TA    10pz        0.0000    0.0018    0.0000    0.0000
       41 TA    11pz       -0.0000   -0.0019   -0.0000   -0.0000
       42 TA     3d2-      -0.0000   -0.0000    0.9905   -0.0000
       43 TA     4d2-       0.0000    0.0000   -0.0962    0.0000
       44 TA     5d2-      -0.0000   -0.0000    0.0178   -0.0000
       45 TA     6d2-       0.0000    0.0000   -0.0276    0.0000
       46 TA     7d2-      -0.0000   -0.0000    0.0322   -0.0000
       47 TA     8d2-       0.0000    0.0000   -0.0415    0.0000
       48 TA     9d2-      -0.0000   -0.0000    0.0343   -0.0000
       49 TA    10d2-       0.0000    0.0000   -0.0406    0.0000
       50 TA    11d2-      -0.0000   -0.0000    0.0298   -0.0000
       51 TA     3d1-       0.0000   -0.0000    0.0190   -0.0000
       52 TA     4d1-      -0.0000    0.0000   -0.0019    0.0000
       53 TA     5d1-       0.0000   -0.0000    0.0003   -0.0000
       54 TA     6d1-      -0.0000    0.0000   -0.0005    0.0000
       55 TA     7d1-       0.0000   -0.0000    0.0006   -0.0000
       56 TA     8d1-      -0.0000    0.0000   -0.0008    0.0000
       57 TA     9d1-       0.0000   -0.0000    0.0007   -0.0000
       58 TA    10d1-      -0.0000    0.0000   -0.0008    0.0000
       59 TA    11d1-       0.0000   -0.0000    0.0006   -0.0000
       60 TA     3d0        0.8586    0.0024    0.0000   -0.4954
       61 TA     4d0       -0.0831   -0.0002   -0.0000    0.0482
       62 TA     5d0        0.0153    0.0000    0.0000   -0.0089
       63 TA     6d0       -0.0239   -0.0001   -0.0000    0.0139
       64 TA     7d0        0.0278    0.0001    0.0000   -0.0161
       65 TA     8d0       -0.0358   -0.0001   -0.0000    0.0208
       66 TA     9d0        0.0295    0.0001    0.0000   -0.0172
       67 TA    10d0       -0.0350   -0.0001   -0.0000    0.0204
       68 TA    11d0        0.0257    0.0001    0.0000   -0.0149
       69 TA     3d1+       0.0041    0.9906    0.0000    0.0119
       70 TA     4d1+      -0.0004   -0.0962   -0.0000   -0.0012
       71 TA     5d1+       0.0001    0.0178    0.0000    0.0002
       72 TA     6d1+      -0.0001   -0.0276   -0.0000   -0.0003
       73 TA     7d1+       0.0001    0.0322    0.0000    0.0004
       74 TA     8d1+      -0.0002   -0.0415   -0.0000   -0.0005
       75 TA     9d1+       0.0001    0.0343    0.0000    0.0004
       76 TA    10d1+      -0.0002   -0.0406   -0.0000   -0.0005
       77 TA    11d1+       0.0001    0.0298    0.0000    0.0004
       78 TA     3d2+       0.4961   -0.0124   -0.0000    0.8573
       79 TA     4d2+      -0.0480    0.0012    0.0000   -0.0835
       80 TA     5d2+       0.0088   -0.0002   -0.0000    0.0154
       81 TA     6d2+      -0.0138    0.0003    0.0000   -0.0240
       82 TA     7d2+       0.0160   -0.0004   -0.0000    0.0279
       83 TA     8d2+      -0.0207    0.0005    0.0000   -0.0360
       84 TA     9d2+       0.0171   -0.0004   -0.0000    0.0297
       85 TA    10d2+      -0.0202    0.0005    0.0000   -0.0353
       86 TA    11d2+       0.0148   -0.0004   -0.0000    0.0259
       87 TA     4f3-      -0.0000   -0.0000    0.0046   -0.0000
       88 TA     5f3-       0.0000    0.0000   -0.0036    0.0000
       89 TA     6f3-      -0.0000   -0.0000    0.0029   -0.0000
       90 TA     7f3-       0.0000    0.0000   -0.0028    0.0000
       91 TA     8f3-      -0.0000   -0.0000    0.0025   -0.0000
       92 TA     9f3-       0.0000    0.0000   -0.0018    0.0000
       93 TA    10f3-      -0.0000   -0.0000    0.0013   -0.0000
       94 TA    11f3-       0.0000    0.0000   -0.0009    0.0000
       95 TA     4f2-       0.0000   -0.0000    0.0001   -0.0000
       96 TA     5f2-      -0.0000    0.0000   -0.0001    0.0000
       97 TA     6f2-       0.0000   -0.0000    0.0000   -0.0000
       98 TA     7f2-      -0.0000    0.0000   -0.0000    0.0000
       99 TA     8f2-       0.0000   -0.0000    0.0000   -0.0000
      100 TA     9f2-      -0.0000    0.0000   -0.0000    0.0000
      101 TA    10f2-       0.0000   -0.0000    0.0000   -0.0000
      102 TA    11f2-      -0.0000    0.0000   -0.0000    0.0000
      103 TA     4f1-       0.0000    0.0000   -0.0012    0.0000
      104 TA     5f1-      -0.0000   -0.0000    0.0009   -0.0000
      105 TA     6f1-       0.0000    0.0000   -0.0008    0.0000
      106 TA     7f1-      -0.0000   -0.0000    0.0007   -0.0000
      107 TA     8f1-       0.0000    0.0000   -0.0006    0.0000
      108 TA     9f1-      -0.0000   -0.0000    0.0005   -0.0000
      109 TA    10f1-       0.0000    0.0000   -0.0003    0.0000
      110 TA    11f1-      -0.0000   -0.0000    0.0002   -0.0000
      111 TA     4f0       -0.0000   -0.0029   -0.0000   -0.0000
      112 TA     5f0        0.0000    0.0023    0.0000    0.0000
      113 TA     6f0       -0.0000   -0.0019   -0.0000   -0.0000
      114 TA     7f0        0.0000    0.0018    0.0000    0.0000
      115 TA     8f0       -0.0000   -0.0016   -0.0000   -0.0000
      116 TA     9f0       -0.0000    0.0012    0.0000    0.0000
      117 TA    10f0        0.0000   -0.0008   -0.0000   -0.0000
      118 TA    11f0       -0.0000    0.0006    0.0000    0.0000
      119 TA     4f1+       0.0028    0.0000    0.0000   -0.0031
      120 TA     5f1+      -0.0023   -0.0000   -0.0000    0.0025
      121 TA     6f1+       0.0018    0.0000    0.0000   -0.0020
      122 TA     7f1+      -0.0018   -0.0000   -0.0000    0.0019
      123 TA     8f1+       0.0016    0.0000    0.0000   -0.0017
      124 TA     9f1+      -0.0012   -0.0000   -0.0000    0.0012
      125 TA    10f1+       0.0009    0.0000    0.0000   -0.0009
      126 TA    11f1+      -0.0006   -0.0000   -0.0000    0.0006
      127 TA     4f2+       0.0000    0.0037    0.0000    0.0001
      128 TA     5f2+      -0.0000   -0.0029   -0.0000   -0.0000
      129 TA     6f2+       0.0000    0.0024    0.0000    0.0000
      130 TA     7f2+      -0.0000   -0.0023   -0.0000   -0.0000
      131 TA     8f2+       0.0000    0.0020    0.0000    0.0000
      132 TA     9f2+      -0.0000   -0.0015   -0.0000   -0.0000
      133 TA    10f2+       0.0000    0.0011    0.0000    0.0000
      134 TA    11f2+      -0.0000   -0.0008   -0.0000   -0.0000
      135 TA     4f3+       0.0022   -0.0000   -0.0000    0.0040
      136 TA     5f3+      -0.0018    0.0000    0.0000   -0.0032
      137 TA     6f3+       0.0014   -0.0000   -0.0000    0.0026
      138 TA     7f3+      -0.0014    0.0000    0.0000   -0.0024
      139 TA     8f3+       0.0012   -0.0000   -0.0000    0.0021
      140 TA     9f3+      -0.0009    0.0000    0.0000   -0.0016
      141 TA    10f3+       0.0007   -0.0000   -0.0000    0.0012
      142 TA    11f3+      -0.0005    0.0000    0.0000   -0.0008
      143 TA     5g4-       0.0000    0.0000   -0.0000    0.0000
      144 TA     6g4-      -0.0000   -0.0000    0.0000   -0.0000
      145 TA     7g4-       0.0000    0.0000   -0.0000    0.0000
      146 TA     8g4-      -0.0000   -0.0000    0.0000   -0.0000
      147 TA     5g3-      -0.0000    0.0000   -0.0000    0.0000
      148 TA     6g3-       0.0000   -0.0000    0.0000   -0.0000
      149 TA     7g3-      -0.0000    0.0000   -0.0000   -0.0000
      150 TA     8g3-       0.0000   -0.0000    0.0000   -0.0000
      151 TA     5g2-      -0.0000   -0.0000    0.0000    0.0000
      152 TA     6g2-       0.0000    0.0000   -0.0000    0.0000
      153 TA     7g2-      -0.0000   -0.0000    0.0000   -0.0000
      154 TA     8g2-       0.0000    0.0000   -0.0000    0.0000
      155 TA     5g1-       0.0000   -0.0000    0.0000   -0.0000
      156 TA     6g1-      -0.0000    0.0000   -0.0000    0.0000
      157 TA     7g1-       0.0000   -0.0000    0.0000   -0.0000
      158 TA     8g1-      -0.0000    0.0000   -0.0000    0.0000
      159 TA     5g0        0.0000   -0.0000   -0.0000   -0.0000
      160 TA     6g0       -0.0000   -0.0000   -0.0000    0.0000
      161 TA     7g0        0.0000    0.0000    0.0000   -0.0000
      162 TA     8g0       -0.0000   -0.0000   -0.0000    0.0000
      163 TA     5g1+       0.0000    0.0000    0.0000    0.0000
      164 TA     6g1+      -0.0000   -0.0000   -0.0000   -0.0000
      165 TA     7g1+       0.0000    0.0000    0.0000    0.0000
      166 TA     8g1+      -0.0000   -0.0000   -0.0000    0.0000
      167 TA     5g2+      -0.0000    0.0000    0.0000    0.0000
      168 TA     6g2+       0.0000   -0.0000   -0.0000   -0.0000
      169 TA     7g2+      -0.0000    0.0000    0.0000    0.0000
      170 TA     8g2+       0.0000   -0.0000   -0.0000   -0.0000
      171 TA     5g3+      -0.0000   -0.0000   -0.0000    0.0000
      172 TA     6g3+       0.0000    0.0000    0.0000    0.0000
      173 TA     7g3+      -0.0000   -0.0000   -0.0000   -0.0000
      174 TA     8g3+       0.0000    0.0000    0.0000    0.0000
      175 TA     5g4+      -0.0000    0.0000    0.0000   -0.0000
      176 TA     6g4+       0.0000   -0.0000   -0.0000    0.0000
      177 TA     7g4+      -0.0000    0.0000    0.0000   -0.0000
      178 TA     8g4+       0.0000   -0.0000   -0.0000    0.0000
      179 TA     6h5-      -0.0000   -0.0000    0.0000   -0.0000
      180 TA     7h5-      -0.0000    0.0000   -0.0000    0.0000
      181 TA     6h4-       0.0000    0.0000   -0.0000   -0.0000
      182 TA     7h4-      -0.0000   -0.0000    0.0000   -0.0000
      183 TA     6h3-       0.0000    0.0000   -0.0000   -0.0000
      184 TA     7h3-       0.0000   -0.0000    0.0000    0.0000
      185 TA     6h2-      -0.0000   -0.0000    0.0000    0.0000
      186 TA     7h2-      -0.0000    0.0000   -0.0000   -0.0000
      187 TA     6h1-       0.0000   -0.0000    0.0000   -0.0000
      188 TA     7h1-       0.0000    0.0000   -0.0000    0.0000
      189 TA     6h0        0.0000    0.0000    0.0000   -0.0000
      190 TA     7h0        0.0000   -0.0000   -0.0000   -0.0000
      191 TA     6h1+      -0.0000   -0.0000   -0.0000   -0.0000
      192 TA     7h1+       0.0000    0.0000    0.0000    0.0000
      193 TA     6h2+       0.0000   -0.0000   -0.0000    0.0000
      194 TA     7h2+       0.0000    0.0000    0.0000    0.0000
      195 TA     6h3+       0.0000    0.0000    0.0000    0.0000
      196 TA     7h3+       0.0000    0.0000    0.0000    0.0000
      197 TA     6h4+       0.0000    0.0000    0.0000    0.0000
      198 TA     7h4+       0.0000   -0.0000   -0.0000    0.0000
      199 TA     6h5+       0.0000    0.0000    0.0000   -0.0000
      200 TA     7h5+      -0.0000   -0.0000   -0.0000   -0.0000
--


++    Molecular charges:
      ------------------

      Mulliken charges per centre and basis function type
      ---------------------------------------------------

                TA    
      1s       2.0000
      2s       2.0000
      2px      2.0000
      2pz      2.0000
      2py      2.0000
      3s       1.9805
      3px      1.9676
      3pz      1.9694
      3py      1.9694
      4s       0.0130
      3d2+     0.0038
      3d1+     0.0035
      3d0      0.0013
      3d1-     0.0000
      3d2-     0.0035
      4px      0.0168
      4pz      0.0167
      4py      0.0167
      5s       0.0011
      4d2+     0.0000
      4d1+     0.0000
      4d0      0.0000
      4d1-     0.0000
      4d2-     0.0000
      5px      0.0013
      5pz      0.0012
      5py      0.0012
      6s       0.0001
      4f3+     0.0000
      4f2+     0.0000
      4f1+     0.0000
      4f0      0.0000
      4f1-     0.0000
      4f2-     0.0000
      4f3-     0.0000
      5d2+     0.0000
      5d1+     0.0000
      5d0      0.0000
      5d1-     0.0000
      5d2-     0.0000
      6px      0.0002
      6pz      0.0002
      6py      0.0002
      7s       0.0002
      5f3+     0.0000
      5f2+     0.0000
      5f1+     0.0000
      5f0      0.0000
      5f1-     0.0000
      5f2-     0.0000
      5f3-     0.0000
      6d2+     0.0000
      6d1+     0.0000
      6d0      0.0000
      6d1-     0.0000
      6d2-     0.0000
      7px      0.0022
      7pz      0.0022
      7py      0.0022
      5g4+     0.0000
      5g3+     0.0000
      5g2+     0.0000
      5g1+     0.0000
      5g0      0.0000
      5g1-     0.0000
      5g2-     0.0000
      5g3-     0.0000
      5g4-     0.0000
      6f3+     0.0000
      6f2+     0.0000
      6f1+     0.0000
      6f0      0.0000
      6f1-     0.0000
      6f2-     0.0000
      6f3-     0.0000
      6g4+     0.0000
      6g3+     0.0000
      6g2+     0.0000
      6g1+     0.0000
      6g0      0.0000
      6g1-     0.0000
      6g2-     0.0000
      6g3-     0.0000
      6g4-     0.0000
      6h5+     0.0000
      6h4+     0.0000
      6h3+     0.0000
      6h2+     0.0000
      6h1+     0.0000
      6h0      0.0000
      6h1-     0.0000
      6h2-     0.0000
      6h3-     0.0000
      6h4-     0.0000
      6h5-     0.0000
      7d2+     0.0000
      7d1+     0.0000
      7d0      0.0000
      7d1-     0.0000
      7d2-     0.0000
      7f3+     0.0000
      7f2+     0.0000
      7f1+     0.0000
      7f0      0.0000
      7f1-     0.0000
      7f2-     0.0000
      7f3-     0.0000
      7g4+     0.0000
      7g3+     0.0000
      7g2+     0.0000
      7g1+     0.0000
      7g0      0.0000
      7g1-     0.0000
      7g2-     0.0000
      7g3-     0.0000
      7g4-     0.0000
      7h5+     0.0000
      7h4+     0.0000
      7h3+     0.0000
      7h2+     0.0000
      7h1+     0.0000
      7h0      0.0000
      7h1-     0.0000
      7h2-     0.0000
      7h3-     0.0000
      7h4-     0.0000
      7h5-     0.0000
      8s       0.0011
      8px      0.0019
      8pz      0.0018
      8py      0.0018
      8d2+     0.0000
      8d1+     0.0000
      8d0      0.0000
      8d1-     0.0000
      8d2-     0.0000
      8f3+     0.0000
      8f2+     0.0000
      8f1+     0.0000
      8f0      0.0000
      8f1-     0.0000
      8f2-     0.0000
      8f3-     0.0000
      8g4+     0.0000
      8g3+     0.0000
      8g2+     0.0000
      8g1+     0.0000
      8g0      0.0000
      8g1-     0.0000
      8g2-     0.0000
      8g3-     0.0000
      8g4-     0.0000
      9s       0.0015
      9px      0.0016
      9pz      0.0016
      9py      0.0016
      9d2+     0.0000
      9d1+     0.0000
      9d0      0.0000
      9d1-     0.0000
      9d2-     0.0000
      9f3+     0.0000
      9f2+     0.0000
      9f1+     0.0000
      9f0      0.0000
      9f1-     0.0000
      9f2-     0.0000
      9f3-     0.0000
     10s       0.0006
     10px      0.0016
     10pz      0.0016
     10py      0.0016
     10d2+     0.0000
     10d1+     0.0000
     10d0      0.0000
     10d1-     0.0000
     10d2-     0.0000
     10f3+     0.0000
     10f2+     0.0000
     10f1+     0.0000
     10f0      0.0000
     10f1-     0.0000
     10f2-     0.0000
     10f3-     0.0000
     11s       0.0019
     11px      0.0018
     11pz      0.0018
     11py      0.0018
     11d2+     0.0000
     11d1+     0.0000
     11d0      0.0000
     11d1-     0.0000
     11d2-     0.0000
     11f3+     0.0000
     11f2+     0.0000
     11f1+     0.0000
     11f0      0.0000
     11f1-     0.0000
     11f2-     0.0000
     11f3-     0.0000
      Total   18.0000

      N-E     55.0000

      Total electronic charge=   18.000000

      Total            charge=   55.000000
--

 Sorry, Molden does not know how to handle
 functions with angular momentum larger than g

++    Static properties:
      ------------------


      LoProp Charges per center


                   TA    
      Nuclear     73.0000
      Electronic -18.0000

      Total       55.0000
--


++    Molecular properties:
      ---------------------

      Charge (e):
                      =   55.0000
      Dipole Moment (Debye):
      Origin of the operator (Ang)=    0.0000    0.0000    0.0000
                   X= -1.1677E-01               Y= -5.1555E-13               Z=  1.2234E+00           Total=  1.2289E+00
      Center of Charge (Ang)
                     X=   -0.00044202               Y=   -0.00000000               Z=    0.00463086
      Quadrupole Moment (Debye*Ang):
      Origin of the operator (Ang)=   -0.0000   -0.0000    0.0046
                  XX= -1.7013E-01              XY= -2.8454E-16              XZ=  3.8635E-06              YY= -1.7048E-01
                  YZ=  1.8744E-16              ZZ= -1.7048E-01
      In traceless form (Debye*Ang)
[...]
    16            80.0126520815     2177.2551803567       17560747.3200         1.3
    17            80.8423393125     2199.8321200623       17742842.6192         1.2
    18            80.8423393125     2199.8321200623       17742842.6192         1.2


 Weights of the five most important spin-orbit-free states for each spin-orbit state.

 SO State  Total energy (au)           Spin-free states, spin, and weights
 -------------------------------------------------------------------------------------------------------
    1         0.000000       1 0.5  1.0000    9 0.5  0.0000    8 0.5  0.0000    7 0.5  0.0000    6 0.5  0.0000
    2         0.000000       1 0.5  1.0000    9 0.5  0.0000    8 0.5  0.0000    7 0.5  0.0000    6 0.5  0.0000
    3         0.000055       2 0.5  1.0000    9 0.5  0.0000    8 0.5  0.0000    7 0.5  0.0000    6 0.5  0.0000
    4         0.000055       2 0.5  1.0000    9 0.5  0.0000    8 0.5  0.0000    7 0.5  0.0000    6 0.5  0.0000
    5         0.076576       3 0.5  1.0000    9 0.5  0.0000    8 0.5  0.0000    7 0.5  0.0000    6 0.5  0.0000
    6         0.076576       3 0.5  1.0000    9 0.5  0.0000    8 0.5  0.0000    7 0.5  0.0000    6 0.5  0.0000
    7         0.076707       4 0.5  1.0000    9 0.5  0.0000    8 0.5  0.0000    7 0.5  0.0000    6 0.5  0.0000
    8         0.076707       4 0.5  1.0000    9 0.5  0.0000    8 0.5  0.0000    7 0.5  0.0000    6 0.5  0.0000
    9         0.108807       5 0.5  1.0000    9 0.5  0.0000    8 0.5  0.0000    7 0.5  0.0000    6 0.5  0.0000
   10         0.108807       5 0.5  1.0000    9 0.5  0.0000    8 0.5  0.0000    7 0.5  0.0000    6 0.5  0.0000
   11        73.858221       6 0.5  1.0000    9 0.5  0.0000    8 0.5  0.0000    7 0.5  0.0000    5 0.5  0.0000
   12        73.858221       6 0.5  1.0000    9 0.5  0.0000    8 0.5  0.0000    7 0.5  0.0000    5 0.5  0.0000
   13        80.011206       7 0.5  1.0000    9 0.5  0.0000    8 0.5  0.0000    6 0.5  0.0000    5 0.5  0.0000
   14        80.011206       7 0.5  1.0000    9 0.5  0.0000    8 0.5  0.0000    6 0.5  0.0000    5 0.5  0.0000
   15        80.012652       8 0.5  1.0000    9 0.5  0.0000    7 0.5  0.0000    6 0.5  0.0000    5 0.5  0.0000
   16        80.012652       8 0.5  1.0000    9 0.5  0.0000    7 0.5  0.0000    6 0.5  0.0000    5 0.5  0.0000
   17        80.842339       9 0.5  1.0000    8 0.5  0.0000    7 0.5  0.0000    6 0.5  0.0000    5 0.5  0.0000
   18        80.842339       9 0.5  1.0000    8 0.5  0.0000    7 0.5  0.0000    6 0.5  0.0000    5 0.5  0.0000
 -------------------------------------------------------------------------------------------------------


      ****************************************************************************************************
      *                                                                                                  *
      *                                    Special properties section                                    *
      *                                                                                                  *
      ****************************************************************************************************


++ Dipole transition strengths (SO states):
   ----------------------------------------
    for osc. strength at least    1.0000000000000001E-005

      From   To        Osc. strength     Einstein coefficients Ax, Ay, Az (sec-1)    Total A (sec-1)
     -----------------------------------------------------------------------------------------------
         1   13       1.19247629E-02  1.23080902E-06  2.45279223E+12  1.26745627E-02  2.45279223E+12
         1   15       1.19406483E-02  1.78624884E+09  1.26747148E-02  2.45436221E+12  2.45614846E+12
         2   14       1.19247629E-02  1.23080902E-06  2.45279223E+12  1.26745627E-02  2.45279223E+12
         2   16       1.19406483E-02  1.78624884E+09  1.26747148E-02  2.45436221E+12  2.45614846E+12
         3   13       1.19167230E-02  2.44390964E+08  1.26743961E-02  2.45089073E+12  2.45113512E+12
         3   15       1.19339204E-02  9.03343280E-06  2.45476116E+12  1.26823875E-02  2.45476116E+12
         4   14       1.19167230E-02  2.44390964E+08  1.26743961E-02  2.45089073E+12  2.45113512E+12
         4   16       1.19339204E-02  9.03343280E-06  2.45476116E+12  1.26823875E-02  2.45476116E+12
         5   11       7.56461159E-04  1.84408481E+07  7.48629291E-05  1.32291561E+11  1.32310002E+11
         5   13       1.46515451E-02  3.00787155E+12  1.12347439E-07  2.39181675E+07  3.00789546E+12
         5   17       9.61169101E-03  2.52557505E+08  1.14359605E-03  2.01423124E+12  2.01448379E+12
         6   12       7.56461159E-04  1.84408481E+07  7.48629291E-05  1.32291561E+11  1.32310002E+11
         6   14       1.46515451E-02  3.00787155E+12  1.12347439E-07  2.39181675E+07  3.00789546E+12
         6   18       9.61169101E-03  2.52557505E+08  1.14359605E-03  2.01423124E+12  2.01448379E+12
         7   11       7.52461370E-04  1.19663433E-08  1.31609947E+11  7.52345046E-05  1.31609947E+11
         7   15       1.46241755E-02  3.00194617E+12  3.93309227E-08  4.29236323E+08  3.00237541E+12
         7   17       9.59449036E-03  1.71455515E-07  2.01087226E+12  1.14547392E-03  2.01087226E+12
         8   12       7.52461370E-04  1.19663433E-08  1.31609947E+11  7.52345046E-05  1.31609947E+11
         8   16       1.46241755E-02  3.00194617E+12  3.93309227E-08  4.29236323E+08  3.00237541E+12
         8   18       9.59449036E-03  1.71455515E-07  2.01087226E+12  1.14547392E-03  2.01087226E+12
         9   11       1.15529375E-03  2.01875619E+11  4.79055446E-11  1.63065410E+07  2.01891926E+11
         9   13       3.29230365E-03  1.55124652E+08  4.54609211E-08  6.75194864E+11  6.75349989E+11
         9   15       3.29432130E-03  1.42080143E-09  6.75788328E+11  1.44349454E-07  6.75788328E+11
         9   17       1.85176256E-02  3.87776730E+12  7.27373906E-10  1.86072634E+08  3.87795338E+12
        10   12       1.15529375E-03  2.01875619E+11  4.79055446E-11  1.63065410E+07  2.01891926E+11
        10   14       3.29230365E-03  1.55124652E+08  4.54609211E-08  6.75194864E+11  6.75349989E+11
        10   16       3.29432130E-03  1.42080143E-09  6.75788328E+11  1.44349454E-07  6.75788328E+11
        10   18       1.85176256E-02  3.87776730E+12  7.27373906E-10  1.86072634E+08  3.87795338E+12
        11   13       1.72438861E-01  4.07826533E+06  2.72232889E-08  2.09752803E+11  2.09756881E+11
        11   15       1.72434469E-01  1.43293787E-12  2.09850140E+11  2.72472438E-08  2.09850140E+11
        11   17       1.56429298E-01  2.45155347E+11  9.56888005E-14  5.22686082E+06  2.45160574E+11
        12   14       1.72438861E-01  4.07826533E+06  2.72232889E-08  2.09752803E+11  2.09756881E+11
        12   16       1.72434469E-01  1.43293787E-12  2.09850140E+11  2.72472438E-08  2.09850140E+11
        12   18       1.56429298E-01  2.45155347E+11  9.56888005E-14  5.22686082E+06  2.45160574E+11
        13   17       1.89223805E-03  2.29874171E+03  5.46997638E-12  4.19954963E+07  4.19977951E+07
        14   18       1.89223805E-03  2.29874171E+03  5.46997638E-12  4.19954963E+07  4.19977951E+07
        15   17       1.90000388E-03  6.30670405E-17  4.20235440E+07  5.41513114E-12  4.20235440E+07
        16   18       1.90000388E-03  6.30670405E-17  4.20235440E+07  5.41513114E-12  4.20235440E+07
     -----------------------------------------------------------------------------------------------
--

++ Velocity transition strengths (SO states):
   ------------------------------------------
    for osc. strength at least    1.0000000000000001E-005

      From   To        Osc. strength     Einstein coefficients Ax, Ay, Az (sec-1)    Total A (sec-1)
     -----------------------------------------------------------------------------------------------
         1    3       2.27608335E-05  3.28064823E-19  2.23537721E-03  9.58282995E-19  2.23537721E-03
         1    5       2.12769632E-04  3.35964364E-15  4.00872767E+04  3.64578320E-10  4.00872767E+04
         1    7       2.12298857E-04  8.18544771E-01  3.64804935E-10  4.01343616E+04  4.01351802E+04
         1   13       1.16923369E-02  1.21318839E-06  2.40499311E+12  1.24275487E-02  2.40499311E+12
         1   15       1.17079604E-02  1.75418781E+09  1.24276309E-02  2.40653957E+12  2.40829376E+12
         2    4       2.27608335E-05  3.28064823E-19  2.23537721E-03  9.58282995E-19  2.23537721E-03
         2    6       2.12769632E-04  3.35964364E-15  4.00872767E+04  3.64578320E-10  4.00872767E+04
         2    8       2.12298857E-04  8.18544771E-01  3.64804935E-10  4.01343616E+04  4.01351802E+04
         2   14       1.16923369E-02  1.21318839E-06  2.40499311E+12  1.24275487E-02  2.40499311E+12
         2   16       1.17079604E-02  1.75418781E+09  1.24276309E-02  2.40653957E+12  2.40829376E+12
         3    5       2.12520379E-04  1.94679108E-01  3.64343099E-10  3.99823242E+04  3.99825189E+04
         3    7       2.12712252E-04  9.98458599E-15  4.01553850E+04  3.64679578E-10  4.01553850E+04
         3   13       1.16844337E-02  2.40415621E+08  1.24274740E-02  2.40312377E+12  2.40336419E+12
         3   15       1.17013388E-02  8.87772344E-06  2.40692840E+12  1.24353534E-02  2.40692840E+12
         4    6       2.12520379E-04  1.94679108E-01  3.64343099E-10  3.99823242E+04  3.99825189E+04
         4    8       2.12712252E-04  9.98458599E-15  4.01553850E+04  3.64679578E-10  4.01553850E+04
         4   14       1.16844337E-02  2.40415621E+08  1.24274740E-02  2.40312377E+12  2.40336419E+12
         4   16       1.17013388E-02  8.87772344E-06  2.40692840E+12  1.24353534E-02  2.40692840E+12
         5    9       1.44374430E-03  4.80431819E-01  2.72303976E-11  4.81879099E+04  4.81883904E+04
         5   11       7.59742316E-04  1.84825787E+07  7.51823283E-05  1.32865877E+11  1.32884360E+11
         5   13       1.43837320E-02  2.95290115E+12  1.10164461E-07  2.37580207E+07  2.95292491E+12
         5   17       9.39606226E-03  2.47159630E+08  1.11800348E-03  1.96905054E+12  1.96929770E+12
         6   10       1.44374430E-03  4.80431819E-01  2.72303976E-11  4.81879099E+04  4.81883904E+04
         6   12       7.59742316E-04  1.84825787E+07  7.51823283E-05  1.32865877E+11  1.32884360E+11
         6   14       1.43837320E-02  2.95290115E+12  1.10164461E-07  2.37580207E+07  2.95292491E+12
         6   18       9.39606226E-03  2.47159630E+08  1.11800348E-03  1.96905054E+12  1.96929770E+12
         7    9       1.44795623E-03  6.91922236E-17  4.79379639E+04  2.74277350E-11  4.79379639E+04
         7   11       7.55760097E-04  1.20433977E-08  1.32187373E+11  7.55650384E-05  1.32187373E+11
         7   15       1.43567984E-02  2.94707297E+12  3.80955044E-08  4.19589853E+08  2.94749256E+12
         7   17       9.37914442E-03  1.68336145E-07  1.96574557E+12  1.11986130E-03  1.96574557E+12
         8   10       1.44795623E-03  6.91922236E-17  4.79379639E+04  2.74277350E-11  4.79379639E+04
         8   12       7.55760097E-04  1.20433977E-08  1.32187373E+11  7.55650384E-05  1.32187373E+11
         8   16       1.43567984E-02  2.94707297E+12  3.80955044E-08  4.19589853E+08  2.94749256E+12
         8   18       9.37914442E-03  1.68336145E-07  1.96574557E+12  1.11986130E-03  1.96574557E+12
         9   11       1.16132976E-03  2.02931082E+11  4.16818737E-11  1.63637210E+07  2.02947446E+11
         9   13       3.21716568E-03  1.52209956E+08  4.41858852E-08  6.59787028E+11  6.59939238E+11
         9   15       3.21920301E-03  1.27984124E-09  6.60381058E+11  1.41025413E-07  6.60381058E+11
         9   17       1.81622291E-02  3.80335752E+12  7.37263354E-10  1.82106564E+08  3.80353963E+12
        10   12       1.16132976E-03  2.02931082E+11  4.16818737E-11  1.63637210E+07  2.02947446E+11
        10   14       3.21716568E-03  1.52209956E+08  4.41858852E-08  6.59787028E+11  6.59939238E+11
        10   16       3.21920301E-03  1.27984124E-09  6.60381058E+11  1.41025413E-07  6.60381058E+11
        10   18       1.81622291E-02  3.80335752E+12  7.37263354E-10  1.82106564E+08  3.80353963E+12
        11   13       1.50218250E-01  3.52196604E+06  2.37024679E-08  1.82724554E+11  1.82728076E+11
        11   15       1.50212340E-01  1.03598475E-12  1.82806781E+11  2.36930843E-08  1.82806781E+11
        11   17       1.35877180E-01  2.12946845E+11  9.10402902E-14  4.58734822E+06  2.12951433E+11
        12   14       1.50218250E-01  3.52196604E+06  2.37024679E-08  1.82724554E+11  1.82728076E+11
        12   16       1.50212340E-01  1.03598475E-12  1.82806781E+11  2.36930843E-08  1.82806781E+11
        12   18       1.35877180E-01  2.12946845E+11  9.10402902E-14  4.58734822E+06  2.12951433E+11
        13   17       5.22599218E-03  3.38198625E+03  1.53668911E-11  1.15986734E+08  1.15990116E+08
        14   18       5.22599218E-03  3.38198625E+03  1.53668911E-11  1.15986734E+08  1.15990116E+08
        15   17       5.24274822E-03  4.96696712E-15  1.15957461E+08  1.52542300E-11  1.15957461E+08
        16   18       5.24274822E-03  4.96696712E-15  1.15957461E+08  1.52542300E-11  1.15957461E+08
     -----------------------------------------------------------------------------------------------
--

++ Length and velocity gauge comparison (SO states):

 --------------------------------------------------
 A comparison between the dipole oscillator strengths in 
 length and velocity gauge will be performed

 All dipole oscillator differences above the tolerance of   0.10000000000000001       will be printed 

 Due to basis set deficiency these oscillator may be problematic 

 The tolerance is defined as ABS(1-O_l/O_v) 
 O_l : dipole oscillator strength in length gauge
 O_p : dipole oscillator strength in velocity gauge
 --------------------------------------------------

  Problematic transitions have been found

      From   To       Difference (%) Osc. st. (len.) Osc. st. (vel.)
     ---------------------------------------------------------------
         1    3      --------------- below threshold  2.27608335E-05
         1    5      --------------- below threshold  2.12769632E-04
         1    7      --------------- below threshold  2.12298857E-04
         2    4      --------------- below threshold  2.27608335E-05
         2    6      --------------- below threshold  2.12769632E-04
         2    8      --------------- below threshold  2.12298857E-04
         3    5      --------------- below threshold  2.12520379E-04
         3    7      --------------- below threshold  2.12712252E-04
         4    6      --------------- below threshold  2.12520379E-04
         4    8      --------------- below threshold  2.12712252E-04
         5    9      --------------- below threshold  1.44374430E-03
         6   10      --------------- below threshold  1.44374430E-03
         7    9      --------------- below threshold  1.44795623E-03
         8   10      --------------- below threshold  1.44795623E-03
        11   13            14.792218  1.72438861E-01  1.50218250E-01
        11   15            14.793810  1.72434469E-01  1.50212340E-01
        11   17            15.125511  1.56429298E-01  1.35877180E-01
        12   14            14.792218  1.72438861E-01  1.50218250E-01
        12   16            14.793810  1.72434469E-01  1.50212340E-01
        12   18            15.125511  1.56429298E-01  1.35877180E-01
        13   17            63.791793  1.89223805E-03  5.22599218E-03
        14   18            63.791793  1.89223805E-03  5.22599218E-03
        15   17            63.759391  1.90000388E-03  5.24274822E-03
        16   18            63.759391  1.90000388E-03  5.24274822E-03
     ---------------------------------------------------------------

 Number of problematic transitions =                    24

--

 Electric-dipole - electric-octupole not included
++ Total transition strengths for the second-order expansion of the wave vector (SO states):
   -----------------------------------------------------------------------------------------
    for osc. strength at least    1.0000000000000001E-005

      From   To        Osc. strength
     -------------------------------
         1   11       4.67136028E-05
         1   17       2.31135940E-05
         2   12       4.67136028E-05
         2   18       2.31135940E-05
         3   11       4.67094015E-05
         3   17       2.31169306E-05
         4   12       4.67094015E-05
         4   18       2.31169306E-05
         5   11       4.95563431E-05
         6   12       4.95563431E-05
         7   11       4.95405830E-05
         8   12       4.95405830E-05
         9   11       5.03225751E-05
        10   12       5.03225751E-05
     -------------------------------
--

++ I/O STATISTICS
 
  I. General I/O information
  - - - - - - - - - - - - - - - - - - - - - - - - - - - - - - - - - - - - - - - - - - -
  Unit  Name          Flsize      Write/Read            MBytes           Write/Read
                      (MBytes)       Calls              In/Out           Time, sec.
  - - - - - - - - - - - - - - - - - - - - - - - - - - - - - - - - - - - - - - - - - - -
   1  SCRATCH           0.00 .       9/      45 .      0.0/      0.0 .       0/       0
   2  ANNI              0.00 .       0/       0 .      0.0/      0.0 .       0/       0
   3  RUNFILE          15.31 .     322/   10733 .      2.3/     77.8 .       0/       0
   4  ONEINT            6.58 .       0/   28767 .      0.0/   3777.9 .       0/       0
   5  JOBIPH            7.70 .       0/      92 .      0.0/      0.9 .       0/       0
   6  ORDINT          771.03 .       1/    6169 .      0.0/   1542.0 .       0/       0
  - - - - - - - - - - - - - - - - - - - - - - - - - - - - - - - - - - - - - - - - - - -
   *  TOTAL           800.62 .     332/   45806 .      2.3/   5398.7 .       0/       0
  - - - - - - - - - - - - - - - - - - - - - - - - - - - - - - - - - - - - - - - - - - -
 
  II. I/O Access Patterns
  - - - - - - - - - - - - - - - - - - - -
  Unit  Name               % of random
                         Write/Read calls
  - - - - - - - - - - - - - - - - - - - -
   1  SCRATCH             88.9/ 100.0
   2  ANNI                 0.0/   0.0
   3  RUNFILE             28.6/  10.8
   4  ONEINT               0.0/  13.4
   5  JOBIPH               0.0/  76.1
   6  ORDINT             100.0/   0.0
  - - - - - - - - - - - - - - - - - - - -
--
--- Stop Module: rassi at Tue Mar 25 16:54:14 2025 /rc=_RC_ALL_IS_WELL_ ---
*** files: xmldump
    saved to directory /home4/s4752295/Internship/Initial_simulations/Point_charge_model/1_electron/Madelung_charges_9_active_space/Ta
--- Module rassi spent 4 seconds ---

.##################.
.# Happy landing! #.
.##################.

    Timing: Wall=87.46 User=71.79 System=13.13

###############################################################################
Hbrk Cluster
Job 15899263 for user s4752295
Finished at: Tue Mar 25 16:54:18 CET 2025

Job details:
============

Job ID                         : 15899263
Name                           : Ta_no_SO
User                           : s4752295
Partition                      : regularmedium
Nodes                          : node29
Number of Nodes                : 1
Cores                          : 1
Number of Tasks                : 1
State                          : COMPLETED  
Submit                         : 2025-03-25T16:51:28
Start                          : 2025-03-25T16:52:42
End                            : 2025-03-25T16:54:14
Reserved walltime              : 15:00:00
Used walltime                  : 00:01:32
Used CPU time                  : 00:01:26 (Efficiency: 93.76%)
% User (Computation)           : 84.44%
% System (I/O)                 : 15.56%
Total memory reserved          : 25000M
Maximum memory used            : 3.06G

Acknowledgements:
=================

Please see this page for information about acknowledging Hbrk in your publications:

https://wiki.hpc.rug.nl/habrok/introduction/scientific_output

################################################################################
