   This run of MOLCAS is using the pymolcas driver

                             OPE
                             OPE          NMOL  CASOP  ENMOLC A   SO
                 OPE        NMOLC        AS  OP EN  MO LC     AS  OP
                OPENM       OL CA        SO  PE NM  OL CA     SOP EN
                OP EN      MO   LC       AS  OP ENMOL  CASO   PENMOL
                OP  EN     MO   LC       AS  OP EN     MO     LC ASO
               OP   E  NMOL  C  AS       OP  EN MO     LC     AS  OP
               OP  E   NMO   LC AS        OPEN  MO     LCASOP EN   M
               O  PEN   MO  LCA  SO
            OPE   NMO   L   CAS    OP
        OPENMOL  CASOP     ENMOL   CASOPE
     OPENMOLCA   SOPENMOLCASOPEN   MOLCASOPE
    OPENMOLCAS   OP           EN   MOL    CAS
    OPENMOLCAS       OP  ENM        O     LCA
    OPENMOLCAS    OPEN  MOLCASO     P  E  NMO
    OPENMOLCAS     OP               E  N  MOL
    OPENMOLCA   SO           PENM   O  L  CAS    OPEN    MO    LCAS
    OPENMOLCA   SOP           ENM   O  L  CAS   OP  EN  MOLC  AS   O
    OPENMOLCA   SOPE           NM      O  LCA   S      OP  EN MO
    OPENMOLC                AS         O  PEN   M      OL  CA  SOPE
    OPENMO        LCASOPE  NMOL        C  ASO   P      ENMOLC     AS
    OPE     NMO      LCA  SO     P     E   NM   OL  CA SO  PE N   MO
          OPENMOLCA            SOPE   NMO        LCAS  O    P  ENMO
     OPENMOLCASOPENMOLCASOPENMOLCASOPENMOLCA
        OPENMOLCASOPENMOLCASOPENMOLCASOPE
            OPENMOLCASOPENMOLCASOPENM
               OPENMOLCASOPENMOLCA        version: o91e1abe7de707b ?
                   OPENMOLCASO
                       OPE                tag:

 OpenMolcas is free software; you can redistribute it and/or modify it
 under the terms of the GNU Lesser General Public License version 2.1.
 OpenMolcas is distributed in the hope that it will be useful, but it
 is provided "as is" and without any express or implied warranties.
 For more details see the full text of the license in the file
 LICENSE or in <http://www.gnu.org/licenses/>.

                 Copyright (C) The OpenMolcas Authors
           For the author list and the recommended citation,
                   consult the file CONTRIBUTORS.md

           *************************************************
           * pymolcas version py2.10                       *
           *   build 3068ae8b88c9345ec6cfef6fef7f1169      *
           *   (after the EMIL interpreter by V. Veryazov) *
           *************************************************

configuration info
------------------
Host name: login1 (Linux)
C Compiler ID: GNU
C flags: -std=gnu99
Fortran Compiler ID: GNU
Fortran flags: -fno-aggressive-loop-optimizations -cpp -fdefault-integer-8 -fmax-stack-var-size=1048576
Definitions: _MOLCAS_;_I8_;_LINUX_;_MKL_
Parallel: OFF (GA=OFF)


   -----------------------------------------------------------------------------------------------------------------------------------
  |
  |           Project: tantalum_so_cf
  |    Submitted from: /home4/s4752295/Internship/Initial_simulations/Point_charge_model/1_electron/Madelung_charges_9_active_space/Ta
  |      Scratch area: /tmp/tantalum_so_cf
  |   Save outputs to: /home4/s4752295/Internship/Initial_simulations/Point_charge_model/1_electron/Madelung_charges_9_active_space/Ta
  |            Molcas: /home4/s4752295/Internship/Molcas/recomp_try/OpenMolcas-master/build
  |
  | Scratch area is empty
  |
  |    MOLCAS_DRIVER = /home4/s4752295/Internship/Molcas/bin/pymolcas
  |    MOLCAS_NPROCS = 1
  |    MOLCAS_SOURCE = /home4/s4752295/Internship/Molcas/recomp_try/OpenMolcas-master
  | MOLCAS_STRUCTURE = 0
  |
   -----------------------------------------------------------------------------------------------------------------------------------

++ ---------   Input file   ---------

&SEWARD
AMFi

CLIG
$R

Basis Set
Ta.ANO-rcc.Roos.24s21p15d11f4g2h.11s10p9d8f4g2h.
Spherical d
Ta            -1.0658140267135469e-14   -3.5527134223784897e-15 0.008753588724385739
End of Basis

Xfield

414
-0.800440216,-0.30800000000000005,0.1778238     -0.625931
-0.800440216,-0.0,-0.3556478    -0.625931
-0.800440216,0.30800000000000005,0.1778238      -0.625931
-0.7990692140000001,0.0,0.0     1.892092
0.5318359380000001,-0.30800000000000005,-0.1778238      2.515516
0.5318359380000001,0.0,0.3556478        2.515516
0.5318359380000001,0.30800000000000005,-0.1778238       2.515516
0.712597656,-0.6160000000000001,0.0     0.004632
0.712597656,-0.30800000000000005,-0.5334716     0.004632
0.712597656,-0.30800000000000005,0.5334716      0.004632
0.712597656,0.30800000000000005,-0.5334716      0.004632
0.712597656,0.30800000000000005,0.5334716       0.004632
0.712597656,0.6160000000000001,0.0      0.004632
0.8258300780000001,-0.30800000000000005,0.1778238       -2.519484
0.8258300780000001,-0.0,-0.3556478      -2.519484
0.8258300780000001,0.30800000000000005,0.1778238        -2.519484
-0.5866210940000001,-0.0,-0.0   -3.142907
-0.9950195320000002,-0.6160000000000001,-0.3556478      -0.625931
-0.9950195320000002,0.0,0.7112954       -0.625931
-0.9950195320000002,0.6160000000000001,-0.3556478       -0.625931
-1.3218750000000001,-0.6160000000000001,0.0     1.892092
-1.3218750000000001,-0.30800000000000005,-0.5334716     1.892092
-1.3218750000000001,-0.30800000000000005,0.5334716      1.892092
-1.3218750000000001,0.30800000000000005,-0.5334716      1.892092
-1.3218750000000001,0.30800000000000005,0.5334716       1.892092
-1.3218750000000001,0.6160000000000001,0.0      1.892092
5.034375000000001,-0.6160000000000001,0.3556478 2.515516
5.034375000000001,-0.0,-0.7112954       2.515516
5.034375000000001,0.6160000000000001,0.3556478  2.515516
0.727734376,-0.6160000000000001,-0.3556478      -2.519484
0.727734376,0.0,0.7112954       -2.519484
0.727734376,0.6160000000000001,-0.3556478       -2.519484
-0.6464843760000001,-0.6160000000000001,-0.0    -3.142907
-0.6464843760000001,-0.30800000000000005,-0.5334716     -3.142907
-0.6464843760000001,-0.30800000000000005,0.5334716      -3.142907
-0.6464843760000001,0.30800000000000005,-0.5334716      -3.142907
-0.6464843760000001,0.30800000000000005,0.5334716       -3.142907
-0.6464843760000001,0.6160000000000001,-0.0     -3.142907
-1.9046875,-0.6160000000000001,0.7112954        -0.625931
-1.9046875,0.6160000000000001,0.7112954 -0.625931
-1.9046875,-0.924,0.1778238     -0.625931
-1.9046875,0.924,0.1778238      -0.625931
-1.9046875,-0.30800000000000005,-0.8891194000000001     -0.625931
-1.9046875,0.30800000000000005,-0.8891194000000001      -0.625931
1.2015625,-0.30800000000000005,-0.1778238       4.409069
1.2015625,0.30800000000000005,-0.1778238        4.409069
1.2015625,0.0,0.3556478 4.409069
-35.050000000000004,-0.0,-0.0   -5.030367
-35.050000000000004,0.0,0.0     5.039632
2.703515624,-0.6160000000000001,-0.7112954      2.515516
2.703515624,0.6160000000000001,-0.7112954       2.515516
2.703515624,-0.924,-0.1778238   2.515516
2.703515624,0.924,-0.1778238    2.515516
2.703515624,-0.30800000000000005,0.8891194000000001     2.515516
2.703515624,0.30800000000000005,0.8891194000000001      2.515516
3.8078125000000003,-0.924,-0.5334716    0.004632
3.8078125000000003,-0.924,0.5334716     0.004632
3.8078125000000003,0.924,-0.5334716     0.004632
3.8078125000000003,0.924,0.5334716      0.004632
3.8078125000000003,-0.0,-1.0669432      0.004632
3.8078125000000003,0.0,1.0669432        0.004632
9.615625000000001,-0.6160000000000001,0.7112954 -2.519484
9.615625000000001,0.6160000000000001,0.7112954  -2.519484
9.615625000000001,-0.924,0.1778238      -2.519484
9.615625000000001,0.924,0.1778238       -2.519484
9.615625000000001,-0.30800000000000005,-0.8891194000000001      -2.519484
9.615625000000001,0.30800000000000005,-0.8891194000000001       -2.519484
-29.175,-0.924,-0.5334716       1.892092
-29.175,-0.924,0.5334716        1.892092
-29.175,0.924,-0.5334716        1.892092
-29.175,0.924,0.5334716 1.892092
-29.175,-0.0,-1.0669432 1.892092
-29.175,0.0,1.0669432   1.892092
-23.55,-0.6160000000000001,0.3556478    4.409069
-23.55,-0.0,-0.7112954  4.409069
-23.55,0.6160000000000001,0.3556478     4.409069
-17.8,-0.6160000000000001,-0.0  -5.030367
-17.8,-0.30800000000000005,-0.5334716   -5.030367
-17.8,-0.30800000000000005,0.5334716    -5.030367
-17.8,0.30800000000000005,-0.5334716    -5.030367
-17.8,-0.6160000000000001,0.0   5.039632
-17.8,0.6160000000000001,-0.0   -5.030367
-17.8,0.30800000000000005,0.5334716     -5.030367
-17.8,-0.30800000000000005,-0.5334716   5.039632
-17.8,-0.30800000000000005,0.5334716    5.039632
-17.8,0.30800000000000005,-0.5334716    5.039632
-17.8,0.6160000000000001,0.0    5.039632
-17.8,0.30800000000000005,0.5334716     5.039632
-9.325000000000001,-0.30800000000000005,-0.1778238      -5.660931
-9.325000000000001,0.0,0.3556478        -5.660931
-9.325000000000001,0.30800000000000005,-0.1778238       -5.660931
0.1765625,-1.2319998,0.0        0.004632
0.1765625,-0.6160000000000001,-1.0669432        0.004632
0.1765625,-0.6160000000000001,1.0669432 0.004632
0.1765625,0.6160000000000001,-1.0669432 0.004632
0.1765625,1.2319998,0.0 0.004632
0.1765625,0.6160000000000001,1.0669432  0.004632
13.5875,-0.924,0.5334716        -3.142907
13.5875,-0.924,-0.5334716       -3.142907
13.5875,0.924,-0.5334716        -3.142907
13.5875,0.924,0.5334716 -3.142907
13.5875,-0.0,-1.0669432 -3.142907
13.5875,0.0,1.0669432   -3.142907
17.275000000000002,-1.2319998,-0.3556478        -0.625931
17.275000000000002,-0.924,-0.8891194000000001   -0.625931
17.275000000000002,-0.30800000000000005,1.2447670000000002      -0.625931
17.275000000000002,0.924,-0.8891194000000001    -0.625931
17.275000000000002,1.2319998,-0.3556478 -0.625931
17.275000000000002,0.30800000000000005,1.2447670000000002       -0.625931
0.23945312400000002,-1.2319998,0.0      1.892092
0.23945312400000002,-0.6160000000000001,-1.0669432      1.892092
0.23945312400000002,-0.6160000000000001,1.0669432       1.892092
0.23945312400000002,0.6160000000000001,-1.0669432       1.892092
0.23945312400000002,1.2319998,0.0       1.892092
0.23945312400000002,0.6160000000000001,1.0669432        1.892092
6.768750000000001,-0.6160000000000001,-0.7112954        4.409069
6.768750000000001,0.6160000000000001,-0.7112954 4.409069
6.768750000000001,-0.924,-0.1778238     4.409069
6.768750000000001,0.924,-0.1778238      4.409069
6.768750000000001,-0.30800000000000005,0.8891194000000001       4.409069
6.768750000000001,0.30800000000000005,0.8891194000000001        4.409069
32.48125,-0.6160000000000001,0.3556478  -5.660931
32.48125,-0.0,-0.7112954        -5.660931
32.48125,0.6160000000000001,0.3556478   -5.660931
0.06875,-1.2319998,0.3556478    2.515516
0.06875,-0.30800000000000005,-1.2447670000000002        2.515516
0.06875,-0.924,0.8891194000000001       2.515516
0.06875,0.30800000000000005,-1.2447670000000002 2.515516
0.06875,1.2319998,0.3556478     2.515516
0.06875,0.924,0.8891194000000001        2.515516
-18.837500000000002,-1.2319998,-0.3556478       -2.519484
-18.837500000000002,-0.924,-0.8891194000000001  -2.519484
-18.837500000000002,-0.30800000000000005,1.2447670000000002     -2.519484
-18.837500000000002,0.924,-0.8891194000000001   -2.519484
-18.837500000000002,0.30800000000000005,1.2447670000000002      -2.519484
-18.837500000000002,1.2319998,-0.3556478        -2.519484
-4.4140625,-1.2319998,-0.0      -3.142907
-4.4140625,-0.6160000000000001,-1.0669432       -3.142907
-4.4140625,-0.6160000000000001,1.0669432        -3.142907
-4.4140625,0.6160000000000001,-1.0669432        -3.142907
-4.4140625,0.6160000000000001,1.0669432 -3.142907
-4.4140625,1.2319998,-0.0       -3.142907
121.30000000000001,0.0,0.0      6.927092
64.65,-1.2319998,0.7112954      -0.625931
64.65,1.2319998,0.7112954       -0.625931
64.65,-0.0,-1.4225910000000002  -0.625931
-1.084375,-0.924,0.5334716      -5.030367
-1.084375,-0.924,-0.5334716     -5.030367
-1.084375,-0.924,0.5334716      5.039632
-1.084375,-0.924,-0.5334716     5.039632
-1.084375,0.924,-0.5334716      -5.030367
-1.084375,0.924,0.5334716       -5.030367
-1.084375,0.924,-0.5334716      5.039632
-1.084375,0.924,0.5334716       5.039632
-1.084375,-0.0,-1.0669432       -5.030367
-1.084375,0.0,1.0669432 -5.030367
-1.084375,-0.0,-1.0669432       5.039632
-1.084375,0.0,1.0669432 5.039632
18.3625,-0.6160000000000001,-0.7112954  -5.660931
18.3625,0.6160000000000001,-0.7112954   -5.660931
18.3625,-0.924,-0.1778238       -5.660931
18.3625,0.924,-0.1778238        -5.660931
18.3625,-0.30800000000000005,0.8891194000000001 -5.660931
18.3625,0.30800000000000005,0.8891194000000001  -5.660931
60.1,-1.2319998,-0.7112954      2.515516
60.1,1.2319998,-0.7112954       2.515516
60.1,0.0,1.4225910000000002     2.515516
-103.45,-1.2319998,0.7112954    -2.519484
-103.45,1.2319998,0.7112954     -2.519484
-103.45,-0.0,-1.4225910000000002        -2.519484
10.7125,-0.6160000000000001,0.0 6.927092
10.7125,-0.30800000000000005,-0.5334716 6.927092
10.7125,-0.30800000000000005,0.5334716  6.927092
10.7125,0.30800000000000005,-0.5334716  6.927092
10.7125,0.30800000000000005,0.5334716   6.927092
10.7125,0.6160000000000001,0.0  6.927092
-11.05,-0.30800000000000005,0.1778238   7.550516
-11.05,0.0,-0.3556478   7.550516
-11.05,0.30800000000000005,0.1778238    7.550516
3.10625,-0.30800000000000005,-0.1778238 -7.554483
3.10625,0.30800000000000005,-0.1778238  -7.554483
3.10625,-0.0,0.3556478  -7.554483
-24.975,-1.5399998000000001,0.1778238   -0.625931
-24.975,-0.924,1.2447670000000002       -0.625931
-24.975,-0.6160000000000001,-1.4225910000000002 -0.625931
-24.975,0.6160000000000001,-1.4225910000000002  -0.625931
-24.975,1.5399998000000001,0.1778238    -0.625931
-24.975,0.924,1.2447670000000002        -0.625931
-13.4875,-1.2319998,0.3556478   4.409069
-13.4875,-0.924,0.8891194000000001      4.409069
-13.4875,-0.30800000000000005,-1.2447670000000002       4.409069
-13.4875,0.30800000000000005,-1.2447670000000002        4.409069
-13.4875,0.924,0.8891194000000001       4.409069
-13.4875,1.2319998,0.3556478    4.409069
9.83125,-1.2319998,-0.0 -5.030367
9.83125,-0.6160000000000001,-1.0669432  -5.030367
9.83125,-0.6160000000000001,1.0669432   -5.030367
9.83125,-1.2319998,0.0  5.039632
9.83125,-0.6160000000000001,-1.0669432  5.039632
9.83125,0.6160000000000001,-1.0669432   -5.030367
9.83125,0.6160000000000001,1.0669432    -5.030367
9.83125,1.2319998,-0.0  -5.030367
9.83125,-0.6160000000000001,1.0669432   5.039632
9.83125,0.6160000000000001,-1.0669432   5.039632
9.83125,1.2319998,0.0   5.039632
9.83125,0.6160000000000001,1.0669432    5.039632
36.15,-1.5399998000000001,-0.1778238    2.515516
36.15,-0.924,-1.2447670000000002        2.515516
36.15,-0.6160000000000001,1.4225910000000002    2.515516
36.15,0.924,-1.2447670000000002 2.515516
36.15,1.5399998000000001,-0.1778238     2.515516
36.15,0.6160000000000001,1.4225910000000002     2.515516
-4.66875,-1.5399998000000001,-0.5334716 0.004632
-4.66875,-1.5399998000000001,0.5334716  0.004632
-4.66875,-1.2319998,-1.0669432  0.004632
-4.66875,-1.2319998,1.0669432   0.004632
-4.66875,-0.30800000000000005,-1.6004148000000002       0.004632
-4.66875,0.30800000000000005,-1.6004148000000002        0.004632
-4.66875,-0.30800000000000005,1.6004148000000002        0.004632
-4.66875,1.2319998,-1.0669432   0.004632
-4.66875,0.30800000000000005,1.6004148000000002 0.004632
-4.66875,1.5399998000000001,-0.5334716  0.004632
-4.66875,1.5399998000000001,0.5334716   0.004632
-4.66875,1.2319998,1.0669432    0.004632
-28.625,-1.5399998000000001,0.1778238   -2.519484
-28.625,-0.924,1.2447670000000002       -2.519484
-28.625,-0.6160000000000001,-1.4225910000000002 -2.519484
-28.625,0.6160000000000001,-1.4225910000000002  -2.519484
-28.625,1.5399998000000001,0.1778238    -2.519484
-28.625,0.924,1.2447670000000002        -2.519484
606.4,-0.0,-0.0 -8.177907
-23.200000000000003,-0.6160000000000001,-0.3556478      7.550516
-23.200000000000003,0.0,0.7112954       7.550516
-23.200000000000003,0.6160000000000001,-0.3556478       7.550516
-120.7,-0.6160000000000001,0.3556478    -7.554483
-120.7,-0.0,-0.7112954  -7.554483
-120.7,0.6160000000000001,0.3556478     -7.554483
9.78125,-1.5399998000000001,0.5334716   1.892092
9.78125,-1.5399998000000001,-0.5334716  1.892092
9.78125,-1.2319998,-1.0669432   1.892092
9.78125,-1.2319998,1.0669432    1.892092
9.78125,-0.30800000000000005,-1.6004148000000002        1.892092
9.78125,0.30800000000000005,-1.6004148000000002 1.892092
9.78125,-0.30800000000000005,1.6004148000000002 1.892092
9.78125,1.2319998,-1.0669432    1.892092
9.78125,0.30800000000000005,1.6004148000000002  1.892092
9.78125,1.5399998000000001,-0.5334716   1.892092
9.78125,1.5399998000000001,0.5334716    1.892092
9.78125,1.2319998,1.0669432     1.892092
-101.0,-1.2319998,-0.7112954    4.409069
-101.0,1.2319998,-0.7112954     4.409069
-101.0,0.0,1.4225910000000002   4.409069
5.1640625,-1.2319998,0.3556478  -5.660931
5.1640625,-0.30800000000000005,-1.2447670000000002      -5.660931
5.1640625,-0.924,0.8891194000000001     -5.660931
5.1640625,0.30800000000000005,-1.2447670000000002       -5.660931
5.1640625,0.924,0.8891194000000001      -5.660931
5.1640625,1.2319998,0.3556478   -5.660931
-11.637500000000001,-1.2319998,-1.0669432       -3.142907
-11.637500000000001,-1.5399998000000001,0.5334716       -3.142907
-11.637500000000001,-1.5399998000000001,-0.5334716      -3.142907
-11.637500000000001,-1.2319998,1.0669432        -3.142907
-11.637500000000001,-0.30800000000000005,-1.6004148000000002    -3.142907
-11.637500000000001,0.30800000000000005,-1.6004148000000002     -3.142907
-11.637500000000001,-0.30800000000000005,1.6004148000000002     -3.142907
-11.637500000000001,1.5399998000000001,-0.5334716       -3.142907
-11.637500000000001,1.2319998,-1.0669432        -3.142907
-11.637500000000001,0.30800000000000005,1.6004148000000002      -3.142907
-11.637500000000001,1.5399998000000001,0.5334716        -3.142907
-11.637500000000001,1.2319998,1.0669432 -3.142907
13.08125,-0.924,-0.5334716      6.927092
13.08125,-0.924,0.5334716       6.927092
13.08125,0.924,-0.5334716       6.927092
13.08125,0.924,0.5334716        6.927092
13.08125,-0.0,-1.0669432        6.927092
13.08125,0.0,1.0669432  6.927092
-16.650000000000002,-0.6160000000000001,-0.0    -8.177907
-16.650000000000002,-0.30800000000000005,0.5334716      -8.177907
-16.650000000000002,-0.30800000000000005,-0.5334716     -8.177907
-16.650000000000002,0.30800000000000005,-0.5334716      -8.177907
-16.650000000000002,0.6160000000000001,-0.0     -8.177907
-16.650000000000002,0.30800000000000005,0.5334716       -8.177907
-18.181250000000002,-0.6160000000000001,0.7112954       7.550516
-18.181250000000002,0.6160000000000001,0.7112954        7.550516
-18.181250000000002,-0.924,0.1778238    7.550516
-18.181250000000002,0.924,0.1778238     7.550516
-18.181250000000002,-0.30800000000000005,-0.8891194000000001    7.550516
-18.181250000000002,0.30800000000000005,-0.8891194000000001     7.550516
-9.137500000000001,-0.6160000000000001,-0.7112954       -7.554483
-9.137500000000001,0.6160000000000001,-0.7112954        -7.554483
-9.137500000000001,-0.924,-0.1778238    -7.554483
-9.137500000000001,0.924,-0.1778238     -7.554483
-9.137500000000001,-0.30800000000000005,0.8891194000000001      -7.554483
-9.137500000000001,0.30800000000000005,0.8891194000000001       -7.554483
-100.05000000000001,0.0,1.7782386       -0.625931
-100.05000000000001,-1.5399998000000001,-0.8891194000000001     -0.625931
-100.05000000000001,1.5399998000000001,-0.8891194000000001      -0.625931
-53.95,-1.5399998000000001,-0.1778238   4.409069
-53.95,-0.924,-1.2447670000000002       4.409069
-53.95,-0.6160000000000001,1.4225910000000002   4.409069
-53.95,0.924,-1.2447670000000002        4.409069
-53.95,1.5399998000000001,-0.1778238    4.409069
-53.95,0.6160000000000001,1.4225910000000002    4.409069
62.075,-1.2319998,-0.7112954    -5.660931
62.075,1.2319998,-0.7112954     -5.660931
62.075,0.0,1.4225910000000002   -5.660931
117.4,-0.0,-1.7782386   2.515516
117.4,-1.5399998000000001,0.8891194000000001    2.515516
117.4,1.5399998000000001,0.8891194000000001     2.515516
-18.775000000000002,-1.8479998,-0.0     0.004632
-18.775000000000002,0.924,-1.6004148000000002   0.004632
-18.775000000000002,-0.924,1.6004148000000002   0.004632
-18.775000000000002,1.8479998,-0.0      0.004632
-18.775000000000002,-0.924,-1.6004148000000002  0.004632
-18.775000000000002,0.924,1.6004148000000002    0.004632
-77.15,0.0,1.7782386    -2.519484
-77.15,-1.5399998000000001,-0.8891194000000001  -2.519484
-77.15,1.5399998000000001,-0.8891194000000001   -2.519484
45.6,-1.2319998,0.0     6.927092
45.6,-0.6160000000000001,-1.0669432     6.927092
45.6,-0.6160000000000001,1.0669432      6.927092
45.6,0.6160000000000001,-1.0669432      6.927092
45.6,1.2319998,0.0      6.927092
45.6,0.6160000000000001,1.0669432       6.927092
42.375,-1.8479998,-0.3556478    -0.625931
42.375,-0.6160000000000001,1.7782386    -0.625931
42.375,-1.2319998,-1.4225910000000002   -0.625931
42.375,1.2319998,-1.4225910000000002    -0.625931
42.375,0.6160000000000001,1.7782386     -0.625931
42.375,1.8479998,-0.3556478     -0.625931
22.387500000000003,-1.8479998,0.0       1.892092
22.387500000000003,-0.924,-1.6004148000000002   1.892092
22.387500000000003,-0.924,1.6004148000000002    1.892092
22.387500000000003,0.924,-1.6004148000000002    1.892092
22.387500000000003,1.8479998,0.0        1.892092
22.387500000000003,0.924,1.6004148000000002     1.892092
-0.8640625000000001,-1.5399998000000001,0.5334716       -5.030367
-0.8640625000000001,-1.5399998000000001,-0.5334716      -5.030367
-0.8640625000000001,-1.2319998,-1.0669432       -5.030367
-0.8640625000000001,-1.2319998,1.0669432        -5.030367
-0.8640625000000001,-1.5399998000000001,0.5334716       5.039632
-0.8640625000000001,0.30800000000000005,-1.6004148000000002     -5.030367
-0.8640625000000001,-0.30800000000000005,-1.6004148000000002    -5.030367
-0.8640625000000001,-1.5399998000000001,-0.5334716      5.039632
-0.8640625000000001,-1.2319998,-1.0669432       5.039632
-0.8640625000000001,-0.30800000000000005,1.6004148000000002     -5.030367
-0.8640625000000001,0.30800000000000005,-1.6004148000000002     5.039632
-0.8640625000000001,-1.2319998,1.0669432        5.039632
-0.8640625000000001,-0.30800000000000005,-1.6004148000000002    5.039632
-0.8640625000000001,1.2319998,-1.0669432        -5.030367
-0.8640625000000001,0.30800000000000005,1.6004148000000002      -5.030367
-0.8640625000000001,1.5399998000000001,-0.5334716       -5.030367
-0.8640625000000001,1.5399998000000001,0.5334716        -5.030367
-0.8640625000000001,1.2319998,1.0669432 -5.030367
-0.8640625000000001,-0.30800000000000005,1.6004148000000002     5.039632
-0.8640625000000001,1.2319998,-1.0669432        5.039632
-0.8640625000000001,1.5399998000000001,-0.5334716       5.039632
-0.8640625000000001,0.30800000000000005,1.6004148000000002      5.039632
-0.8640625000000001,1.5399998000000001,0.5334716        5.039632
-0.8640625000000001,1.2319998,1.0669432 5.039632
-0.1375,-1.5399998000000001,-0.1778238  -5.660931
-0.1375,-0.924,-1.2447670000000002      -5.660931
-0.1375,-0.6160000000000001,1.4225910000000002  -5.660931
-0.1375,0.924,-1.2447670000000002       -5.660931
-0.1375,0.6160000000000001,1.4225910000000002   -5.660931
-0.1375,1.5399998000000001,-0.1778238   -5.660931
23.200000000000003,-0.30800000000000005,0.1778238       9.444068
23.200000000000003,0.0,-0.3556478       9.444068
23.200000000000003,0.30800000000000005,0.1778238        9.444068
10.262500000000001,-1.8479998,0.3556478 2.515516
10.262500000000001,-0.6160000000000001,-1.7782386       2.515516
10.262500000000001,0.6160000000000001,-1.7782386        2.515516
10.262500000000001,-1.2319998,1.4225910000000002        2.515516
10.262500000000001,1.8479998,0.3556478  2.515516
10.262500000000001,1.2319998,1.4225910000000002 2.515516
31.375,-1.8479998,-0.3556478    -2.519484
31.375,-0.6160000000000001,1.7782386    -2.519484
31.375,-1.2319998,-1.4225910000000002   -2.519484
31.375,1.2319998,-1.4225910000000002    -2.519484
31.375,1.8479998,-0.3556478     -2.519484
31.375,0.6160000000000001,1.7782386     -2.519484
43.925000000000004,-1.8479998,-0.0      -3.142907
43.925000000000004,-0.924,-1.6004148000000002   -3.142907
43.925000000000004,-0.924,1.6004148000000002    -3.142907
43.925000000000004,0.924,-1.6004148000000002    -3.142907
43.925000000000004,1.8479998,-0.0       -3.142907
43.925000000000004,0.924,1.6004148000000002     -3.142907
1.729101562,-0.924,-0.5334716   -8.177907
1.729101562,-0.924,0.5334716    -8.177907
1.729101562,0.924,0.5334716     -8.177907
1.729101562,0.924,-0.5334716    -8.177907
1.729101562,-0.0,-1.0669432     -8.177907
1.729101562,0.0,1.0669432       -8.177907
50.375,-0.924,-0.8891194000000001       7.550516
50.375,-1.2319998,-0.3556478    7.550516
50.375,-0.30800000000000005,1.2447670000000002  7.550516
50.375,0.924,-0.8891194000000001        7.550516
50.375,0.30800000000000005,1.2447670000000002   7.550516
50.375,1.2319998,-0.3556478     7.550516
-69.60000000000001,-0.924,0.8891194000000001    -7.554483
-69.60000000000001,-1.2319998,0.3556478 -7.554483
-69.60000000000001,-0.30800000000000005,-1.2447670000000002     -7.554483
-69.60000000000001,0.30800000000000005,-1.2447670000000002      -7.554483
-69.60000000000001,1.2319998,0.3556478  -7.554483
-69.60000000000001,0.924,0.8891194000000001     -7.554483
14.253125,-1.5399998000000001,1.2447670000000002        -0.625931
14.253125,-1.8479998,0.7112954  -0.625931
14.253125,-0.30800000000000005,-1.9560626       -0.625931
14.253125,0.30800000000000005,-1.9560626        -0.625931
14.253125,1.8479998,0.7112954   -0.625931
14.253125,1.5399998000000001,1.2447670000000002 -0.625931
-96.75,-0.0,-1.7782386  4.409069
-96.75,-1.5399998000000001,0.8891194000000001   4.409069
-96.75,1.5399998000000001,0.8891194000000001    4.409069

End of input

&SCF
Occupied
9
Iterations
   50  100
End of Input

&RASSCF
LumOrb
Symmetry
1
Spin
2
Nactel
1 0 0
CIRoot
9 9 1
inactive
9
ras2
9
End of Input

>>> COPY tantalum_so_cf.JobIph $SLURM_SUBMIT_DIR/tantalum_so_cf.doublet.JobIph

>>> COPY $SLURM_SUBMIT_DIR/tantalum_so_cf.doublet.JobIph ./JOB002

&RASSI
NROFJobIph
1 All
SpinOrbit
End of Input

EOF

-- ----------------------------------

--- Start Module: seward at Tue Mar 25 14:29:44 2025 ---

()()()()()()()()()()()()()()()()()()()()()()()()()()()()()()()()()()()()()()()()()()()()()()()()()()

                                              &SEWARD

                                   only a single process is used
                       available to each process: 4.1 GB of memory, 1 thread?
                                            pid: 956000
()()()()()()()()()()()()()()()()()()()()()()()()()()()()()()()()()()()()()()()()()()()()()()()()()()

 The speed of LIGHT in this CALCULATION =   137.03599917700001     
               SEWARD will generate:
                  Multipole Moment integrals up to order  2
                  Kinetic Energy integrals
                  Nuclear Attraction integrals (point charge)
                  One-Electron Hamiltonian integrals
                  Velocity integrals
                  Relativistic Douglas-Kroll-Hess integrals:
                    - Parametrization         : EXP
                    - DKH order of Hamiltonian: 2
                    - DKH order of Properties : 0
                         - multipole moment operators
                         - electric potential operators
                         - contact operators
                  External field from   414 point(s) added to the one-electron Hamiltonian
                  Orbital angular momentum around (-0.0000 -0.0000  0.0088 )
                  Velocity quadrupole around (-0.0000 -0.0000  0.0088 )
                  Atomic mean-field integrals
                  Two-Electron Repulsion integrals

                   Integrals are discarded if absolute value <: 0.10E-13
                   Integral cutoff threshold is set to       <: 0.10E-15

++    Symmetry information:
      ---------------------

                    Character Table for C1 

                             E  
                    a        1  x, y, xy, Rz, z, xz, Ry, yz, Rx, I
--


++    Basis set information:
      ----------------------


      Basis set label: TA.ANO-RCC.ROOS.24S21P15D11F4G2H.11S10P9D8F4G2H......

      Electronic valence basis set:
      ------------------
      Associated Effective Charge  73.000000 au
      Associated Actual Charge     73.000000 au
      Nuclear Model: Point charge

      Shell  nPrim  nBasis  Cartesian Spherical Contaminant
         s      24      11        X                  
         p      21      10        X                  
         d      15       9                 X         
         f      11       8                 X         
         g       4       4                 X         
         h       2       2                 X         
--


++    Molecular structure info:
      -------------------------

                    ************************************************ 
                    **** Cartesian Coordinates / Bohr, Angstrom **** 
                    ************************************************ 

     Center  Label                x              y              z                     x              y              z
        1      TA              -0.000000      -0.000000       0.008754             -0.000000      -0.000000       0.004632
--


++    Operator info:
      --------------


  Net charge from external field:   -39.268449999999902     
--


            Nuclear Potential Energy              0.00000000 au

                    Nuclear-External Field Potential Energy   -3339.33610946 au
                    External Field Potential Energy            8028.18450693 au 


            Total Nuclear Potential Energy          -3339.33610946 au


      Basis set specifications :
      Symmetry species         a  
      Basis functions          200

 Sorry, Molden does not know how to handle
 functions with angular momentum larger than g
Note: The following floating-point exceptions are signalling: IEEE_UNDERFLOW_FLAG IEEE_DENORMAL
--- Stop Module: seward at Tue Mar 25 14:30:07 2025 /rc=_RC_ALL_IS_WELL_ ---
*** files: tantalum_so_cf.GssOrb xmldump
    saved to directory /home4/s4752295/Internship/Initial_simulations/Point_charge_model/1_electron/Madelung_charges_9_active_space/Ta
--- Module seward spent 23 seconds ---

*** symbolic link created: INPORB -> tantalum_so_cf.GssOrb
--- Start Module: scf at Tue Mar 25 14:30:07 2025 ---

()()()()()()()()()()()()()()()()()()()()()()()()()()()()()()()()()()()()()()()()()()()()()()()()()()

                                                &SCF

                                   only a single process is used
                       available to each process: 4.1 GB of memory, 1 thread?
                                            pid: 956041
()()()()()()()()()()()()()()()()()()()()()()()()()()()()()()()()()()()()()()()()()()()()()()()()()()

++    Input section:
      --------------

      Header of the integral files:
      
       Integrals generated by seward 4.2.0  , Tue Mar 25 14:29:44 2025


      Cartesian coordinates in Angstrom:
      -----------------------------------------------------
      No.  Label        X            Y            Z        
      -----------------------------------------------------
       1   TA        -0.00000000  -0.00000000   0.00463220
      -----------------------------------------------------
      Nuclear repulsion energy =-3339.33610946
--

++    Orbital specifications:
      -----------------------

      Symmetry species               1
                                     a
      Frozen orbitals                0
      Occupied orbitals              9
      Secondary orbitals           191
      Deleted orbitals               0
      Total number of orbitals     200
      Number of basis functions    200
--

      Molecular charge                          55.000

++    Optimization specifications:
      ----------------------------

      SCF Algorithm: Conventional
      Minimized density differences are used
      Number of density matrices in core                5
      Maximum number of NDDO SCF iterations            50
      Maximum number of HF SCF iterations             100
      Threshold for SCF energy change            0.10E-08
      Threshold for density matrix               0.10E-03
      Threshold for Fock matrix                  0.15E-03
      Threshold for linear dependence            0.10E-08
      Threshold at which DIIS is turned on       0.15E+00
      Threshold at which QNR/C2DIIS is turned on 0.75E-01
      Threshold for Norm(delta) (QNR/C2DIIS)     0.20E-04
      DIIS extrapolation of the SCF procedure
      All orbitals punched on: SCFORB
--

      Detected guessorb starting orbitals                                             


++ Convergence information
                                   SCF        iterations: Energy and convergence statistics

Iter     Tot. SCF        One-elec.       Two-elec.     Energy      Max Dij or  Max Fij      DNorm      TNorm      AccCon     Time
         Energy          Energy          Energy        Change      Delta Norm                                                in Sec.

 The total and one-electron energies are shifted by a value of     15000. a.u.

   1   -41.273800332  2051.392133811  1246.670175314   0.00E+00    0.24E+00*   0.89E+01*    0.60E+01   0.64E+03   None         1.
   2   -53.481774615  1994.724835324  1291.129499519  -0.12E+02*   0.14E-01*   0.47E+00*    0.12E+01   0.65E+03   EDIIS        1.
   3   -53.494908025  1995.340631450  1290.500569983  -0.13E-01*   0.19E-02*   0.27E-01*    0.37E-01   0.65E+03   EDIIS        1.
   4   -53.494982335  1995.318934554  1290.522192568  -0.74E-04*   0.17E-03*   0.24E-02*    0.19E-02   0.65E+03   c2DIIS       1.
   5   -53.494983065  1995.319902813  1290.521223579  -0.73E-06*   0.23E-04*   0.34E-03*    0.19E-03   0.65E+03   QNRc2DIIS    1.
   6   -53.494983091  1995.319919165  1290.521207201  -0.26E-07*   0.78E-05    0.89E-04     0.38E-05   0.65E+03   QNRc2DIIS    1.
   7   -53.494983093  1995.319917464  1290.521208900  -0.18E-08*   0.40E-07    0.77E-06     0.47E-02   0.65E+03   QNRc2DIIS    1.
   8   -53.494983093  1995.319917879  1290.521208485   0.91E-11    0.24E-08    0.58E-07     0.56E-03   0.65E+03   QNRc2DIIS    1.

       Convergence after  8 Macro Iterations
--

 *****************************************************************************************************************************
 *                                                                                                                           *
 *                                             SCF/KS-DFT Program, Final results                                             *
 *                                                                                                                           *
 *                                                                                                                           *
 *                                                                                                                           *
 *                                                       Final Results                                                       *
 *                                                                                                                           *
 *****************************************************************************************************************************

::    Total SCF energy                             -15053.4949830927
      One-electron energy                          -13004.6800821206
      Two-electron energy                            1290.5212084847
      Nuclear repulsion energy                      -3339.3361094568
      Kinetic energy (interpolated)                 18436.6037163677
      Virial theorem                                    0.8165004366
      Total spin, S(S+1)                                0.0000000000
      Total spin, S                                     0.0000000000
      Max non-diagonal density matrix element           0.0000000036
      Max non-diagonal Fock matrix element              0.0000000059


      All orbitals with orbital energies smaller than  E(LUMO)+0.5 are printed

++    Molecular orbitals:
      -------------------

      Title: SCF orbitals

      Molecular orbitals for symmetry species 1: a  

          Some orbital energies have been scaled by powers of 10, the power is written right after the orbital index


          Orbital            1 (1)     2         3         4         5         6         7         8         9        10    
          Energy         -258.7214 -528.8401 -477.4621 -477.4621 -477.4160 -178.0141 -161.9928 -161.9923 -161.4249 -142.5044
          Occ. No.          2.0000    2.0000    2.0000    2.0000    2.0000    2.0000    2.0000    2.0000    2.0000    0.0000

        1 TA     1s         1.0000    0.0002    0.0000    0.0000   -0.0001   -0.0000   -0.0000   -0.0000    0.0000    0.0000
        2 TA     2s        -0.0002    0.9999    0.0001    0.0000   -0.0108    0.0121    0.0000    0.0000   -0.0027    0.0000
        3 TA     3s         0.0000   -0.0120   -0.0000   -0.0000    0.0012    0.9857    0.0007    0.0000   -0.1355    0.0000
        4 TA     4s        -0.0000    0.0034    0.0000    0.0000   -0.0003   -0.0786   -0.0001   -0.0000    0.0189   -0.0000
        5 TA     5s         0.0000   -0.0012   -0.0000   -0.0000    0.0001    0.0228    0.0000   -0.0000   -0.0056    0.0000
        6 TA     6s        -0.0000    0.0003    0.0000   -0.0000   -0.0000   -0.0062   -0.0000    0.0000    0.0015   -0.0000
        7 TA     7s         0.0000   -0.0006   -0.0000   -0.0000    0.0000    0.0104    0.0000    0.0000   -0.0026    0.0000
        8 TA     8s        -0.0000    0.0013    0.0000    0.0000   -0.0001   -0.0223   -0.0000    0.0000    0.0056   -0.0000
        9 TA     9s         0.0000   -0.0016   -0.0000    0.0000    0.0001    0.0261    0.0000   -0.0000   -0.0064   -0.0000
       10 TA    10s        -0.0000    0.0012    0.0000    0.0000   -0.0001   -0.0174   -0.0000    0.0000    0.0043   -0.0000
       11 TA    11s         0.0000   -0.0025   -0.0000   -0.0000    0.0002    0.0301    0.0000    0.0000   -0.0073    0.0000
       12 TA     2px        0.0001    0.0108   -0.0128   -0.0000    0.9997    0.0009   -0.0001   -0.0000    0.0142   -0.0000
       13 TA     3px       -0.0000    0.0008    0.0002    0.0000   -0.0138    0.1380   -0.0093   -0.0000    0.9766   -0.0000
       14 TA     4px        0.0000   -0.0002   -0.0000   -0.0000    0.0038   -0.0069    0.0008    0.0000   -0.0908    0.0000
       15 TA     5px       -0.0000    0.0001    0.0000    0.0000   -0.0012    0.0017   -0.0002   -0.0000    0.0249   -0.0000
       16 TA     6px        0.0000   -0.0000   -0.0000   -0.0000    0.0005   -0.0007    0.0001    0.0000   -0.0106    0.0000
       17 TA     7px       -0.0000    0.0001    0.0000    0.0000   -0.0017    0.0021   -0.0003   -0.0000    0.0328   -0.0000
       18 TA     8px        0.0000   -0.0001   -0.0000   -0.0000    0.0017   -0.0018    0.0003    0.0000   -0.0303    0.0000
       19 TA     9px       -0.0000    0.0001    0.0000    0.0000   -0.0018    0.0016   -0.0003   -0.0000    0.0282   -0.0000
       20 TA    10px        0.0000   -0.0001   -0.0000   -0.0000    0.0019   -0.0015    0.0003    0.0000   -0.0280    0.0000
       21 TA    11px       -0.0000    0.0002    0.0000    0.0000   -0.0027    0.0011   -0.0003   -0.0000    0.0299   -0.0000
       22 TA     2py       -0.0000   -0.0000   -0.0000    0.9999   -0.0000    0.0000   -0.0000    0.0141   -0.0000    0.0001
       23 TA     3py        0.0000    0.0000    0.0000   -0.0137    0.0000    0.0000   -0.0000    0.9890   -0.0000    0.0028
       24 TA     4py       -0.0000   -0.0000   -0.0000    0.0038   -0.0000   -0.0000    0.0000   -0.0901    0.0000   -0.0004
       25 TA     5py        0.0000    0.0000    0.0000   -0.0012    0.0000    0.0000   -0.0000    0.0246   -0.0000    0.0001
       26 TA     6py       -0.0000   -0.0000   -0.0000    0.0005   -0.0000   -0.0000    0.0000   -0.0105    0.0000   -0.0001
       27 TA     7py        0.0000    0.0000    0.0000   -0.0017    0.0000    0.0000   -0.0000    0.0324   -0.0000    0.0002
       28 TA     8py       -0.0000   -0.0000   -0.0000    0.0017   -0.0000   -0.0000    0.0000   -0.0299    0.0000   -0.0001
       29 TA     9py        0.0000    0.0000    0.0000   -0.0017    0.0000    0.0000   -0.0000    0.0278   -0.0000    0.0001
       30 TA    10py       -0.0000   -0.0000   -0.0000    0.0019   -0.0000   -0.0000    0.0000   -0.0276    0.0000   -0.0001
       31 TA    11py        0.0000    0.0000    0.0000   -0.0027    0.0000    0.0000   -0.0000    0.0295   -0.0000    0.0001
       32 TA     2pz        0.0000    0.0000    0.9998    0.0000    0.0128    0.0000    0.0141    0.0000    0.0001   -0.0000
       33 TA     3pz       -0.0000    0.0000   -0.0137   -0.0000   -0.0002    0.0006    0.9890    0.0000    0.0093   -0.0000
       34 TA     4pz        0.0000   -0.0000    0.0038    0.0000    0.0000   -0.0000   -0.0900   -0.0000   -0.0009    0.0000
       35 TA     5pz       -0.0000    0.0000   -0.0012   -0.0000   -0.0000    0.0000    0.0246    0.0000    0.0002   -0.0000
       36 TA     6pz        0.0000   -0.0000    0.0005    0.0000    0.0000   -0.0000   -0.0105   -0.0000   -0.0001    0.0000
       37 TA     7pz       -0.0000    0.0000   -0.0017   -0.0000   -0.0000    0.0000    0.0324    0.0000    0.0003   -0.0000
       38 TA     8pz        0.0000   -0.0000    0.0017    0.0000    0.0000   -0.0000   -0.0299   -0.0000   -0.0003    0.0000
       39 TA     9pz       -0.0000    0.0000   -0.0017   -0.0000   -0.0000    0.0000    0.0278    0.0000    0.0003   -0.0000
       40 TA    10pz        0.0000   -0.0000    0.0019    0.0000    0.0000   -0.0000   -0.0276   -0.0000   -0.0003    0.0000
       41 TA    11pz       -0.0000    0.0000   -0.0027   -0.0000   -0.0000    0.0000    0.0295    0.0000    0.0003   -0.0000
       42 TA     3d2-      -0.0000   -0.0000   -0.0000    0.0011   -0.0000    0.0000   -0.0000    0.0918   -0.0000   -0.0343
       43 TA     4d2-       0.0000    0.0000    0.0000   -0.0003    0.0000   -0.0000    0.0000   -0.0029    0.0000    0.0032
       44 TA     5d2-      -0.0000   -0.0000   -0.0000    0.0001   -0.0000    0.0000   -0.0000    0.0004   -0.0000   -0.0006
       45 TA     6d2-       0.0000    0.0000    0.0000   -0.0001    0.0000   -0.0000    0.0000   -0.0006    0.0000    0.0009
       46 TA     7d2-      -0.0000   -0.0000   -0.0000    0.0001   -0.0000    0.0000   -0.0000    0.0006   -0.0000   -0.0011
       47 TA     8d2-       0.0000    0.0000    0.0000   -0.0002    0.0000   -0.0000    0.0000   -0.0005   -0.0000    0.0014
       48 TA     9d2-      -0.0000   -0.0000   -0.0000    0.0001   -0.0000    0.0000   -0.0000    0.0003   -0.0000   -0.0012
       49 TA    10d2-       0.0000    0.0000    0.0000   -0.0002    0.0000    0.0000    0.0000   -0.0000    0.0000    0.0014
       50 TA    11d2-      -0.0000   -0.0000   -0.0000    0.0002   -0.0000   -0.0000    0.0000   -0.0004   -0.0000   -0.0010
       51 TA     3d1-      -0.0000   -0.0000   -0.0000    0.0000   -0.0000   -0.0000   -0.0000    0.0003    0.0000    0.9911
       52 TA     4d1-       0.0000    0.0000    0.0000   -0.0000    0.0000    0.0000    0.0000   -0.0000   -0.0000   -0.0951
       53 TA     5d1-      -0.0000   -0.0000   -0.0000    0.0000   -0.0000   -0.0000   -0.0000    0.0000    0.0000    0.0175
       54 TA     6d1-       0.0000    0.0000    0.0000   -0.0000    0.0000    0.0000    0.0000   -0.0000   -0.0000   -0.0273
       55 TA     7d1-      -0.0000   -0.0000   -0.0000    0.0000   -0.0000    0.0000   -0.0000    0.0000    0.0000    0.0318
       56 TA     8d1-       0.0000    0.0000    0.0000   -0.0000    0.0000   -0.0000   -0.0000   -0.0000   -0.0000   -0.0410
       57 TA     9d1-      -0.0000   -0.0000   -0.0000    0.0000   -0.0000    0.0000    0.0000   -0.0000    0.0000    0.0338
       58 TA    10d1-       0.0000    0.0000    0.0000   -0.0000    0.0000    0.0000   -0.0000   -0.0000   -0.0000   -0.0401
       59 TA    11d1-      -0.0000   -0.0000   -0.0000    0.0000   -0.0000   -0.0000    0.0000   -0.0000   -0.0000    0.0295
       60 TA     3d0        0.0000    0.0000    0.0000    0.0000   -0.0006   -0.0006    0.0010    0.0000   -0.0584    0.0000
       61 TA     4d0       -0.0000   -0.0000   -0.0000   -0.0000    0.0002    0.0000   -0.0000   -0.0000    0.0017   -0.0000
       62 TA     5d0        0.0000    0.0000    0.0000    0.0000   -0.0000   -0.0000   -0.0000   -0.0000   -0.0002    0.0000
       63 TA     6d0       -0.0000   -0.0000   -0.0000   -0.0000    0.0001    0.0000    0.0000    0.0000    0.0003   -0.0000
       64 TA     7d0        0.0000    0.0000    0.0000    0.0000   -0.0001   -0.0000   -0.0000    0.0000   -0.0003    0.0000
       65 TA     8d0       -0.0000   -0.0000   -0.0000   -0.0000    0.0001    0.0000   -0.0000   -0.0000    0.0003   -0.0000
       66 TA     9d0        0.0000    0.0000    0.0000    0.0000   -0.0001   -0.0000    0.0000    0.0000   -0.0002    0.0000
       67 TA    10d0       -0.0000   -0.0000   -0.0000   -0.0000    0.0001   -0.0000   -0.0000    0.0000    0.0001   -0.0000
       68 TA    11d0        0.0000    0.0000    0.0000    0.0000   -0.0001   -0.0000   -0.0000    0.0000    0.0002    0.0000
       69 TA     3d1+      -0.0000   -0.0000    0.0011    0.0000    0.0000   -0.0001    0.0920    0.0000    0.0015    0.0000
       70 TA     4d1+       0.0000    0.0000   -0.0003   -0.0000   -0.0000   -0.0000   -0.0029   -0.0000   -0.0000   -0.0000
       71 TA     5d1+      -0.0000   -0.0000    0.0001    0.0000    0.0000    0.0000    0.0004    0.0000    0.0000    0.0000
       72 TA     6d1+       0.0000    0.0000   -0.0001   -0.0000   -0.0000   -0.0000   -0.0006   -0.0000   -0.0000   -0.0000
       73 TA     7d1+      -0.0000   -0.0000    0.0001    0.0000    0.0000    0.0000    0.0006    0.0000    0.0000    0.0000
       74 TA     8d1+       0.0000    0.0000   -0.0002   -0.0000   -0.0000   -0.0000   -0.0005   -0.0000   -0.0000   -0.0000
       75 TA     9d1+      -0.0000   -0.0000    0.0001    0.0000    0.0000    0.0000    0.0003    0.0000    0.0000    0.0000
       76 TA    10d1+       0.0000    0.0000   -0.0002   -0.0000   -0.0000   -0.0000   -0.0000   -0.0000   -0.0000   -0.0000
       77 TA    11d1+      -0.0000   -0.0000    0.0002    0.0000    0.0000    0.0000   -0.0004   -0.0000   -0.0000    0.0000
       78 TA     3d2+      -0.0000   -0.0001   -0.0000   -0.0000    0.0011    0.0010   -0.0008   -0.0000    0.1014    0.0000
       79 TA     4d2+       0.0000    0.0000    0.0000    0.0000   -0.0003   -0.0000    0.0000    0.0000   -0.0030   -0.0000
       80 TA     5d2+      -0.0000   -0.0000   -0.0000   -0.0000    0.0001    0.0000   -0.0000   -0.0000    0.0004    0.0000
       81 TA     6d2+       0.0000    0.0000    0.0000    0.0000   -0.0001   -0.0000    0.0000    0.0000   -0.0006   -0.0000
       82 TA     7d2+      -0.0000   -0.0000   -0.0000   -0.0000    0.0001    0.0000   -0.0000   -0.0000    0.0006    0.0000
       83 TA     8d2+       0.0000    0.0000    0.0000    0.0000   -0.0002   -0.0000    0.0000    0.0000   -0.0006   -0.0000
       84 TA     9d2+      -0.0000   -0.0000   -0.0000   -0.0000    0.0001    0.0000    0.0000    0.0000    0.0003    0.0000
       85 TA    10d2+       0.0000    0.0000    0.0000    0.0000   -0.0002    0.0000    0.0000    0.0000   -0.0001   -0.0000
       86 TA    11d2+      -0.0000   -0.0000   -0.0000   -0.0000    0.0002    0.0000    0.0000    0.0000   -0.0003    0.0000
       87 TA     4f3-       0.0000   -0.0000    0.0000   -0.0000    0.0000   -0.0000    0.0000   -0.0000   -0.0000   -0.0005
       88 TA     5f3-      -0.0000    0.0000   -0.0000    0.0000   -0.0000    0.0000   -0.0000    0.0001   -0.0000    0.0003
       89 TA     6f3-       0.0000   -0.0000    0.0000   -0.0000    0.0000   -0.0000    0.0000   -0.0001    0.0000   -0.0003
       90 TA     7f3-      -0.0000    0.0000   -0.0000    0.0000   -0.0000    0.0000   -0.0000    0.0001   -0.0000    0.0002
       91 TA     8f3-       0.0000   -0.0000    0.0000   -0.0000    0.0000   -0.0000    0.0000   -0.0001    0.0000   -0.0002
       92 TA     9f3-      -0.0000    0.0000   -0.0000    0.0000   -0.0000    0.0000   -0.0000    0.0000   -0.0000    0.0001
       93 TA    10f3-       0.0000   -0.0000    0.0000   -0.0000    0.0000   -0.0000   -0.0000    0.0000    0.0000   -0.0001
       94 TA    11f3-      -0.0000    0.0000   -0.0000    0.0000   -0.0000    0.0000    0.0000   -0.0000   -0.0000    0.0001
       95 TA     4f2-      -0.0000   -0.0000    0.0000   -0.0000    0.0000    0.0000    0.0000   -0.0002   -0.0000    0.0079
       96 TA     5f2-       0.0000    0.0000   -0.0000    0.0000   -0.0000   -0.0000   -0.0000    0.0001    0.0000   -0.0063
       97 TA     6f2-      -0.0000   -0.0000    0.0000   -0.0000    0.0000    0.0000    0.0000   -0.0001   -0.0000    0.0051
       98 TA     7f2-       0.0000    0.0000   -0.0000    0.0000   -0.0000   -0.0000   -0.0000    0.0001    0.0000   -0.0049
       99 TA     8f2-      -0.0000   -0.0000    0.0000   -0.0000    0.0000    0.0000    0.0000   -0.0000   -0.0000    0.0043
      100 TA     9f2-       0.0000    0.0000   -0.0000    0.0000   -0.0000   -0.0000    0.0000   -0.0000    0.0000   -0.0033
      101 TA    10f2-      -0.0000   -0.0000    0.0000   -0.0000    0.0000    0.0000   -0.0000    0.0000   -0.0000    0.0024
      102 TA    11f2-       0.0000    0.0000   -0.0000    0.0000    0.0000    0.0000    0.0000   -0.0000   -0.0000   -0.0017
      103 TA     4f1-      -0.0000    0.0000   -0.0000    0.0000   -0.0000    0.0000   -0.0000    0.0000    0.0000    0.0002
      104 TA     5f1-      -0.0000   -0.0000    0.0000   -0.0000    0.0000   -0.0000    0.0000   -0.0000   -0.0000   -0.0001
      105 TA     6f1-       0.0000   -0.0000   -0.0000    0.0000   -0.0000    0.0000   -0.0000    0.0000    0.0000    0.0001
      106 TA     7f1-      -0.0000    0.0000    0.0000   -0.0000    0.0000   -0.0000    0.0000   -0.0000   -0.0000   -0.0001
      107 TA     8f1-       0.0000   -0.0000   -0.0000    0.0000   -0.0000    0.0000   -0.0000    0.0000    0.0000    0.0001
      108 TA     9f1-      -0.0000    0.0000    0.0000   -0.0000    0.0000   -0.0000    0.0000   -0.0000   -0.0000   -0.0001
      109 TA    10f1-      -0.0000    0.0000   -0.0000    0.0000   -0.0000    0.0000    0.0000   -0.0000    0.0000    0.0000
      110 TA    11f1-       0.0000   -0.0000    0.0000   -0.0000    0.0000   -0.0000   -0.0000    0.0000   -0.0000   -0.0000
      111 TA     4f0        0.0000   -0.0000    0.0000    0.0000    0.0000    0.0000    0.0000    0.0000    0.0001   -0.0000
      112 TA     5f0       -0.0000    0.0000   -0.0000   -0.0000   -0.0000   -0.0000   -0.0000   -0.0000   -0.0001    0.0000
      113 TA     6f0       -0.0000    0.0000    0.0000    0.0000    0.0000   -0.0000    0.0000    0.0000    0.0001   -0.0000
      114 TA     7f0        0.0000   -0.0000   -0.0000   -0.0000   -0.0000    0.0000   -0.0000   -0.0000   -0.0000    0.0000
      115 TA     8f0       -0.0000    0.0000    0.0000    0.0000    0.0000   -0.0000    0.0000    0.0000    0.0000   -0.0000
      116 TA     9f0       -0.0000    0.0000   -0.0000   -0.0000   -0.0000   -0.0000   -0.0000   -0.0000    0.0000    0.0000
      117 TA    10f0        0.0000   -0.0000    0.0000    0.0000    0.0000    0.0000   -0.0000   -0.0000   -0.0000   -0.0000
      118 TA    11f0        0.0000   -0.0000   -0.0000   -0.0000   -0.0000    0.0000    0.0000    0.0000    0.0000    0.0000
      119 TA     4f1+       0.0000   -0.0000   -0.0000   -0.0000    0.0000   -0.0002    0.0001    0.0000    0.0003    0.0000
      120 TA     5f1+      -0.0000    0.0000    0.0000    0.0000   -0.0000    0.0002   -0.0001   -0.0000   -0.0002   -0.0000
      121 TA     6f1+       0.0000   -0.0000    0.0000    0.0000    0.0000   -0.0001    0.0000    0.0000    0.0001    0.0000
      122 TA     7f1+      -0.0000    0.0000   -0.0000   -0.0000   -0.0000    0.0001   -0.0000   -0.0000   -0.0001   -0.0000
      123 TA     8f1+       0.0000   -0.0000    0.0000    0.0000    0.0000   -0.0001    0.0000    0.0000    0.0001    0.0000
      124 TA     9f1+      -0.0000    0.0000    0.0000    0.0000   -0.0000    0.0000    0.0000    0.0000   -0.0000   -0.0000
      125 TA    10f1+       0.0000   -0.0000   -0.0000   -0.0000    0.0000   -0.0000   -0.0000   -0.0000   -0.0000    0.0000
      126 TA    11f1+      -0.0000    0.0000    0.0000    0.0000   -0.0000   -0.0000    0.0000    0.0000    0.0001   -0.0000
      127 TA     4f2+      -0.0000    0.0000   -0.0000   -0.0000   -0.0000    0.0000   -0.0000   -0.0000    0.0001    0.0000
      128 TA     5f2+       0.0000    0.0000    0.0000    0.0000    0.0000   -0.0000    0.0000    0.0000   -0.0000   -0.0000
      129 TA     6f2+      -0.0000    0.0000   -0.0000   -0.0000   -0.0000    0.0000   -0.0000   -0.0000    0.0000    0.0000
      130 TA     7f2+       0.0000   -0.0000    0.0000    0.0000    0.0000    0.0000    0.0000    0.0000   -0.0000   -0.0000
      131 TA     8f2+      -0.0000    0.0000   -0.0000   -0.0000   -0.0000   -0.0000   -0.0000   -0.0000   -0.0000    0.0000
      132 TA     9f2+      -0.0000    0.0000    0.0000    0.0000    0.0000   -0.0000    0.0000    0.0000    0.0000   -0.0000
      133 TA    10f2+       0.0000   -0.0000   -0.0000   -0.0000   -0.0000    0.0000    0.0000    0.0000   -0.0000    0.0000
      134 TA    11f2+       0.0000   -0.0000    0.0000    0.0000    0.0000    0.0000   -0.0000   -0.0000    0.0000   -0.0000
      135 TA     4f3+      -0.0000    0.0000    0.0000    0.0000   -0.0000    0.0004    0.0001    0.0000   -0.0003    0.0000
      136 TA     5f3+       0.0000   -0.0000   -0.0000   -0.0000    0.0000   -0.0002   -0.0001   -0.0000    0.0003   -0.0000
      137 TA     6f3+      -0.0000    0.0000    0.0000    0.0000   -0.0000    0.0002    0.0000    0.0000   -0.0002    0.0000
      138 TA     7f3+       0.0000   -0.0000   -0.0000   -0.0000    0.0000   -0.0001   -0.0000   -0.0000    0.0001   -0.0000
      139 TA     8f3+      -0.0000    0.0000    0.0000    0.0000   -0.0000    0.0001    0.0000    0.0000   -0.0001    0.0000
      140 TA     9f3+       0.0000   -0.0000   -0.0000   -0.0000    0.0000   -0.0001    0.0000    0.0000    0.0000   -0.0000
      141 TA    10f3+      -0.0000    0.0000    0.0000    0.0000   -0.0000    0.0000   -0.0000   -0.0000    0.0000    0.0000
      142 TA    11f3+       0.0000   -0.0000   -0.0000   -0.0000    0.0000    0.0000    0.0000    0.0000   -0.0001   -0.0000
      143 TA     5g4-      -0.0000    0.0000   -0.0000    0.0000    0.0000   -0.0000   -0.0000    0.0001   -0.0000   -0.0000
      144 TA     6g4-       0.0000    0.0000    0.0000   -0.0000    0.0000    0.0000    0.0000   -0.0001   -0.0000    0.0000
      145 TA     7g4-      -0.0000   -0.0000    0.0000   -0.0000    0.0000   -0.0000   -0.0000    0.0001   -0.0000   -0.0000
      146 TA     8g4-       0.0000    0.0000   -0.0000    0.0000   -0.0000    0.0000    0.0000   -0.0001    0.0000    0.0000
      147 TA     5g3-       0.0000    0.0000   -0.0000    0.0000   -0.0000    0.0000    0.0000   -0.0001   -0.0000   -0.0001
      148 TA     6g3-      -0.0000    0.0000   -0.0000    0.0000   -0.0000    0.0000   -0.0000    0.0001   -0.0000    0.0000
      149 TA     7g3-       0.0000    0.0000    0.0000   -0.0000    0.0000   -0.0000    0.0000   -0.0000    0.0000   -0.0000
      150 TA     8g3-       0.0000   -0.0000   -0.0000    0.0000   -0.0000   -0.0000   -0.0000    0.0000   -0.0000    0.0000
      151 TA     5g2-       0.0000   -0.0000    0.0000   -0.0000   -0.0000   -0.0000    0.0000   -0.0000    0.0000   -0.0000
      152 TA     6g2-      -0.0000    0.0000   -0.0000    0.0000    0.0000    0.0000   -0.0000    0.0000    0.0000    0.0000
      153 TA     7g2-       0.0000   -0.0000   -0.0000    0.0000   -0.0000   -0.0000    0.0000   -0.0000    0.0000   -0.0000
      154 TA     8g2-      -0.0000    0.0000    0.0000   -0.0000    0.0000    0.0000   -0.0000    0.0000   -0.0000    0.0000
      155 TA     5g1-      -0.0000    0.0000   -0.0000    0.0000    0.0000    0.0000   -0.0000    0.0000   -0.0000    0.0000
      156 TA     6g1-       0.0000   -0.0000   -0.0000    0.0000   -0.0000   -0.0000    0.0000   -0.0000   -0.0000   -0.0000
      157 TA     7g1-      -0.0000    0.0000    0.0000   -0.0000    0.0000    0.0000   -0.0000    0.0000    0.0000    0.0000
      158 TA     8g1-       0.0000   -0.0000   -0.0000    0.0000   -0.0000   -0.0000    0.0000   -0.0000    0.0000   -0.0000
      159 TA     5g0       -0.0000    0.0000    0.0000    0.0000   -0.0000   -0.0000   -0.0000   -0.0000    0.0000    0.0000
      160 TA     6g0        0.0000   -0.0000    0.0000    0.0000    0.0000    0.0000    0.0000    0.0000   -0.0000   -0.0000
      161 TA     7g0       -0.0000    0.0000   -0.0000   -0.0000    0.0000   -0.0000   -0.0000   -0.0000    0.0000    0.0000
      162 TA     8g0       -0.0000    0.0000    0.0000    0.0000   -0.0000    0.0000    0.0000    0.0000   -0.0000   -0.0000
      163 TA     5g1+       0.0000   -0.0000   -0.0000   -0.0000    0.0000    0.0000   -0.0001   -0.0000    0.0000   -0.0000
      164 TA     6g1+      -0.0000    0.0000    0.0000    0.0000    0.0000   -0.0000    0.0001    0.0000   -0.0000    0.0000
      165 TA     7g1+      -0.0000   -0.0000    0.0000    0.0000   -0.0000    0.0000   -0.0001   -0.0000    0.0000   -0.0000
      166 TA     8g1+       0.0000   -0.0000   -0.0000   -0.0000    0.0000   -0.0000    0.0000    0.0000   -0.0000    0.0000
      167 TA     5g2+       0.0000   -0.0000   -0.0000   -0.0000    0.0000    0.0000    0.0000    0.0000   -0.0001   -0.0000
      168 TA     6g2+      -0.0000    0.0000    0.0000    0.0000   -0.0000   -0.0000   -0.0000   -0.0000    0.0001    0.0000
      169 TA     7g2+      -0.0000   -0.0000   -0.0000   -0.0000   -0.0000    0.0000    0.0000    0.0000   -0.0000   -0.0000
      170 TA     8g2+       0.0000   -0.0000    0.0000    0.0000    0.0000   -0.0000   -0.0000   -0.0000    0.0000    0.0000
      171 TA     5g3+       0.0000   -0.0000    0.0000    0.0000   -0.0000    0.0001    0.0001    0.0000    0.0000    0.0000
      172 TA     6g3+      -0.0000    0.0000   -0.0000   -0.0000    0.0000   -0.0001   -0.0001   -0.0000   -0.0001   -0.0000
      173 TA     7g3+      -0.0000   -0.0000   -0.0000   -0.0000   -0.0000    0.0000    0.0001    0.0000    0.0000    0.0000
      174 TA     8g3+       0.0000   -0.0000    0.0000    0.0000    0.0000   -0.0000   -0.0000   -0.0000   -0.0000   -0.0000
      175 TA     5g4+      -0.0000    0.0000   -0.0000   -0.0000   -0.0000   -0.0000    0.0000    0.0000    0.0001   -0.0000
      176 TA     6g4+       0.0000   -0.0000    0.0000    0.0000    0.0000    0.0000   -0.0000   -0.0000   -0.0001    0.0000
      177 TA     7g4+      -0.0000    0.0000   -0.0000   -0.0000    0.0000   -0.0000    0.0000    0.0000    0.0001   -0.0000
      178 TA     8g4+      -0.0000    0.0000   -0.0000   -0.0000   -0.0000    0.0000   -0.0000   -0.0000   -0.0000    0.0000
      179 TA     6h5-      -0.0000   -0.0000    0.0000   -0.0000    0.0000   -0.0000   -0.0000    0.0000   -0.0000    0.0000
      180 TA     7h5-       0.0000    0.0000    0.0000   -0.0000    0.0000    0.0000   -0.0000    0.0000    0.0000   -0.0000
      181 TA     6h4-      -0.0000   -0.0000   -0.0000    0.0000   -0.0000    0.0000    0.0000   -0.0000   -0.0000    0.0000
      182 TA     7h4-      -0.0000   -0.0000   -0.0000    0.0000   -0.0000   -0.0000   -0.0000    0.0000    0.0000   -0.0000
      183 TA     6h3-      -0.0000   -0.0000   -0.0000    0.0000   -0.0000   -0.0000    0.0000   -0.0000   -0.0000   -0.0000
      184 TA     7h3-       0.0000    0.0000   -0.0000    0.0000    0.0000    0.0000    0.0000   -0.0000    0.0000    0.0000
      185 TA     6h2-       0.0000    0.0000    0.0000   -0.0000    0.0000   -0.0000   -0.0000    0.0000   -0.0000   -0.0000
      186 TA     7h2-      -0.0000   -0.0000   -0.0000    0.0000   -0.0000    0.0000    0.0000   -0.0000    0.0000   -0.0000
      187 TA     6h1-       0.0000   -0.0000    0.0000   -0.0000   -0.0000   -0.0000   -0.0000    0.0000   -0.0000   -0.0000
      188 TA     7h1-      -0.0000    0.0000    0.0000   -0.0000    0.0000    0.0000   -0.0000    0.0000    0.0000    0.0000
      189 TA     6h0       -0.0000    0.0000   -0.0000   -0.0000    0.0000   -0.0000    0.0000    0.0000   -0.0000   -0.0000
      190 TA     7h0       -0.0000    0.0000   -0.0000   -0.0000   -0.0000    0.0000   -0.0000   -0.0000    0.0000    0.0000
      191 TA     6h1+       0.0000   -0.0000    0.0000    0.0000    0.0000    0.0000   -0.0000   -0.0000   -0.0000   -0.0000
      192 TA     7h1+      -0.0000    0.0000    0.0000    0.0000   -0.0000   -0.0000    0.0000    0.0000    0.0000    0.0000
      193 TA     6h2+       0.0000   -0.0000    0.0000    0.0000   -0.0000    0.0000   -0.0000   -0.0000    0.0000   -0.0000
      194 TA     7h2+       0.0000   -0.0000    0.0000    0.0000    0.0000   -0.0000   -0.0000   -0.0000   -0.0000    0.0000
      195 TA     6h3+      -0.0000    0.0000    0.0000    0.0000   -0.0000   -0.0000    0.0000    0.0000    0.0000    0.0000
      196 TA     7h3+       0.0000   -0.0000    0.0000    0.0000    0.0000    0.0000   -0.0000   -0.0000   -0.0000    0.0000
      197 TA     6h4+       0.0000   -0.0000   -0.0000   -0.0000   -0.0000    0.0000    0.0000    0.0000    0.0000   -0.0000
      198 TA     7h4+      -0.0000    0.0000   -0.0000   -0.0000    0.0000   -0.0000    0.0000    0.0000   -0.0000    0.0000
      199 TA     6h5+       0.0000   -0.0000   -0.0000   -0.0000    0.0000    0.0000    0.0000    0.0000   -0.0000    0.0000
      200 TA     7h5+      -0.0000    0.0000   -0.0000   -0.0000   -0.0000   -0.0000   -0.0000   -0.0000    0.0000   -0.0000

          Orbital           11        12        13        14    
          Energy         -142.5038 -142.2216 -142.2202 -142.0665
          Occ. No.          0.0000    0.0000    0.0000    0.0000

        1 TA     1s        -0.0000    0.0000    0.0000   -0.0000
        2 TA     2s         0.0000    0.0000    0.0000    0.0004
        3 TA     3s         0.0000   -0.0000    0.0000    0.0146
        4 TA     4s        -0.0000   -0.0000   -0.0000   -0.0032
        5 TA     5s         0.0000    0.0000    0.0000    0.0009
        6 TA     6s        -0.0000   -0.0000   -0.0000   -0.0003
        7 TA     7s         0.0000    0.0000   -0.0000    0.0004
        8 TA     8s        -0.0000   -0.0000   -0.0000   -0.0009
        9 TA     9s         0.0000    0.0000    0.0000    0.0011
       10 TA    10s        -0.0000   -0.0000   -0.0000   -0.0007
       11 TA    11s         0.0000    0.0000   -0.0000    0.0012
       12 TA     2px       -0.0000    0.0000    0.0000   -0.0030
       13 TA     3px       -0.0002    0.0012    0.0000   -0.1137
       14 TA     4px        0.0000   -0.0002   -0.0000    0.0163
       15 TA     5px       -0.0000    0.0000    0.0000   -0.0046
       16 TA     6px        0.0000   -0.0000   -0.0000    0.0020
       17 TA     7px       -0.0000    0.0001    0.0000   -0.0061
       18 TA     8px        0.0000   -0.0001   -0.0000    0.0056
       19 TA     9px       -0.0000    0.0001    0.0000   -0.0052
       20 TA    10px        0.0000   -0.0001   -0.0000    0.0051
       21 TA    11px       -0.0000    0.0001    0.0000   -0.0052
       22 TA     2py       -0.0000    0.0000   -0.0025    0.0000
       23 TA     3py       -0.0000    0.0000   -0.0900    0.0000
       24 TA     4py        0.0000   -0.0000    0.0124   -0.0000
       25 TA     5py       -0.0000    0.0000   -0.0035    0.0000
       26 TA     6py        0.0000   -0.0000    0.0015   -0.0000
       27 TA     7py       -0.0000    0.0000   -0.0046    0.0000
       28 TA     8py        0.0000   -0.0000    0.0043   -0.0000
       29 TA     9py       -0.0000    0.0000   -0.0040    0.0000
       30 TA    10py        0.0000   -0.0000    0.0039   -0.0000
       31 TA    11py       -0.0000    0.0000   -0.0041    0.0000
       32 TA     2pz       -0.0000   -0.0025   -0.0000   -0.0000
       33 TA     3pz       -0.0017   -0.0902   -0.0000   -0.0013
       34 TA     4pz        0.0002    0.0125    0.0000    0.0002
       35 TA     5pz       -0.0001   -0.0035   -0.0000   -0.0001
       36 TA     6pz        0.0000    0.0015    0.0000    0.0000
       37 TA     7pz       -0.0001   -0.0046   -0.0000   -0.0001
       38 TA     8pz        0.0001    0.0043    0.0000    0.0001
       39 TA     9pz       -0.0001   -0.0040   -0.0000   -0.0001
       40 TA    10pz        0.0001    0.0039    0.0000    0.0001
       41 TA    11pz       -0.0001   -0.0041   -0.0000   -0.0001
       42 TA     3d2-       0.0000   -0.0000    0.9866   -0.0000
       43 TA     4d2-      -0.0000    0.0000   -0.0960    0.0000
       44 TA     5d2-       0.0000   -0.0000    0.0177   -0.0000
       45 TA     6d2-      -0.0000    0.0000   -0.0276    0.0000
       46 TA     7d2-       0.0000   -0.0000    0.0322   -0.0000
       47 TA     8d2-      -0.0000    0.0000   -0.0415    0.0000
       48 TA     9d2-       0.0000   -0.0000    0.0343   -0.0000
       49 TA    10d2-      -0.0000    0.0000   -0.0407    0.0000
       50 TA    11d2-       0.0000   -0.0000    0.0300   -0.0000
       51 TA     3d1-      -0.0000   -0.0000    0.0343    0.0000
       52 TA     4d1-       0.0000    0.0000   -0.0035   -0.0000
       53 TA     5d1-      -0.0000   -0.0000    0.0006    0.0000
       54 TA     6d1-       0.0000    0.0000   -0.0010   -0.0000
       55 TA     7d1-      -0.0000   -0.0000    0.0012    0.0000
       56 TA     8d1-       0.0000    0.0000   -0.0015   -0.0000
       57 TA     9d1-      -0.0000   -0.0000    0.0012    0.0000
       58 TA    10d1-       0.0000    0.0000   -0.0014   -0.0000
       59 TA    11d1-      -0.0000   -0.0000    0.0010    0.0000
       60 TA     3d0        0.8583   -0.0041   -0.0000   -0.4930
       61 TA     4d0       -0.0824    0.0005    0.0000    0.0486
       62 TA     5d0        0.0152   -0.0001   -0.0000   -0.0090
       63 TA     6d0       -0.0237    0.0001    0.0000    0.0140
       64 TA     7d0        0.0275   -0.0002   -0.0000   -0.0163
       65 TA     8d0       -0.0355    0.0002    0.0000    0.0210
       66 TA     9d0        0.0293   -0.0002   -0.0000   -0.0174
       67 TA    10d0       -0.0347    0.0002    0.0000    0.0206
       68 TA    11d0        0.0255   -0.0001   -0.0000   -0.0152
       69 TA     3d1+       0.0137    0.9869    0.0000    0.0157
       70 TA     4d1+      -0.0012   -0.0960   -0.0000   -0.0015
       71 TA     5d1+       0.0002    0.0177    0.0000    0.0003
       72 TA     6d1+      -0.0003   -0.0276   -0.0000   -0.0004
       73 TA     7d1+       0.0004    0.0322    0.0000    0.0005
       74 TA     8d1+      -0.0005   -0.0416   -0.0000   -0.0007
       75 TA     9d1+       0.0005    0.0343    0.0000    0.0006
       76 TA    10d1+      -0.0006   -0.0408   -0.0000   -0.0007
       77 TA    11d1+       0.0004    0.0300    0.0000    0.0005
       78 TA     3d2+       0.4965   -0.0205   -0.0000    0.8518
       79 TA     4d2+      -0.0477    0.0020    0.0000   -0.0839
       80 TA     5d2+       0.0088   -0.0004   -0.0000    0.0155
       81 TA     6d2+      -0.0137    0.0006    0.0000   -0.0242
       82 TA     7d2+       0.0159   -0.0007   -0.0000    0.0282
       83 TA     8d2+      -0.0205    0.0009    0.0000   -0.0363
       84 TA     9d2+       0.0169   -0.0007   -0.0000    0.0300
       85 TA    10d2+      -0.0201    0.0008    0.0000   -0.0356
       86 TA    11d2+       0.0148   -0.0006   -0.0000    0.0262
       87 TA     4f3-       0.0000   -0.0000    0.0103   -0.0000
       88 TA     5f3-      -0.0000    0.0000   -0.0082    0.0000
       89 TA     6f3-       0.0000   -0.0000    0.0067   -0.0000
       90 TA     7f3-      -0.0000    0.0000   -0.0064    0.0000
       91 TA     8f3-       0.0000   -0.0000    0.0056   -0.0000
       92 TA     9f3-      -0.0000    0.0000   -0.0042    0.0000
       93 TA    10f3-       0.0000   -0.0000    0.0030   -0.0000
       94 TA    11f3-      -0.0000    0.0000   -0.0021    0.0000
       95 TA     4f2-      -0.0000   -0.0000    0.0002    0.0000
       96 TA     5f2-       0.0000    0.0000   -0.0002   -0.0000
       97 TA     6f2-      -0.0000   -0.0000    0.0002    0.0000
       98 TA     7f2-       0.0000    0.0000   -0.0002   -0.0000
       99 TA     8f2-      -0.0000   -0.0000    0.0002   -0.0000
      100 TA     9f2-       0.0000    0.0000   -0.0002    0.0000
      101 TA    10f2-      -0.0000   -0.0000    0.0001   -0.0000
      102 TA    11f2-       0.0000    0.0000   -0.0001   -0.0000
      103 TA     4f1-      -0.0000    0.0000   -0.0027    0.0000
      104 TA     5f1-       0.0000   -0.0000    0.0021   -0.0000
      105 TA     6f1-      -0.0000    0.0000   -0.0017    0.0000
      106 TA     7f1-       0.0000   -0.0000    0.0016   -0.0000
      107 TA     8f1-      -0.0000    0.0000   -0.0014    0.0000
      108 TA     9f1-       0.0000   -0.0000    0.0011   -0.0000
      109 TA    10f1-      -0.0000    0.0000   -0.0008    0.0000
      110 TA    11f1-       0.0000   -0.0000    0.0005   -0.0000
      111 TA     4f0       -0.0001   -0.0065   -0.0000   -0.0001
      112 TA     5f0        0.0001    0.0052    0.0000    0.0001
      113 TA     6f0       -0.0001   -0.0042   -0.0000   -0.0001
      114 TA     7f0        0.0000    0.0040    0.0000    0.0001
      115 TA     8f0       -0.0000   -0.0035   -0.0000   -0.0001
      116 TA     9f0        0.0000    0.0026    0.0000    0.0001
      117 TA    10f0       -0.0000   -0.0019   -0.0000   -0.0000
      118 TA    11f0        0.0000    0.0013    0.0000    0.0000
      119 TA     4f1+       0.0062    0.0002    0.0000   -0.0072
      120 TA     5f1+      -0.0049   -0.0001   -0.0000    0.0057
      121 TA     6f1+       0.0040    0.0001    0.0000   -0.0046
      122 TA     7f1+      -0.0039   -0.0001   -0.0000    0.0044
      123 TA     8f1+       0.0034    0.0000    0.0000   -0.0038
      124 TA     9f1+      -0.0026   -0.0000   -0.0000    0.0028
      125 TA    10f1+       0.0019    0.0000    0.0000   -0.0021
      126 TA    11f1+      -0.0014   -0.0000   -0.0000    0.0014
      127 TA     4f2+       0.0002    0.0085    0.0000    0.0002
      128 TA     5f2+      -0.0002   -0.0067   -0.0000   -0.0002
      129 TA     6f2+       0.0001    0.0055    0.0000    0.0001
      130 TA     7f2+      -0.0001   -0.0052   -0.0000   -0.0001
      131 TA     8f2+       0.0001    0.0045    0.0000    0.0001
      132 TA     9f2+      -0.0000   -0.0034   -0.0000   -0.0001
      133 TA    10f2+       0.0000    0.0025    0.0000    0.0000
      134 TA    11f2+      -0.0000   -0.0017   -0.0000   -0.0000
      135 TA     4f3+       0.0048   -0.0001   -0.0000    0.0092
      136 TA     5f3+      -0.0038    0.0001    0.0000   -0.0073
      137 TA     6f3+       0.0031   -0.0001   -0.0000    0.0060
      138 TA     7f3+      -0.0030    0.0001    0.0000   -0.0057
      139 TA     8f3+       0.0027   -0.0001   -0.0000    0.0049
      140 TA     9f3+      -0.0020    0.0001    0.0000   -0.0037
      141 TA    10f3+       0.0015   -0.0001   -0.0000    0.0027
      142 TA    11f3+      -0.0011    0.0000    0.0000   -0.0018
      143 TA     5g4-       0.0000    0.0000   -0.0001    0.0000
      144 TA     6g4-      -0.0000   -0.0000    0.0001   -0.0000
      145 TA     7g4-       0.0000    0.0000   -0.0001    0.0000
      146 TA     8g4-      -0.0000   -0.0000    0.0000   -0.0000
      147 TA     5g3-       0.0000    0.0000   -0.0001    0.0000
      148 TA     6g3-      -0.0000   -0.0000    0.0001   -0.0000
      149 TA     7g3-       0.0000    0.0000   -0.0000    0.0000
      150 TA     8g3-      -0.0000   -0.0000    0.0000   -0.0000
      151 TA     5g2-       0.0000   -0.0000    0.0000    0.0000
      152 TA     6g2-      -0.0000    0.0000   -0.0000    0.0000
      153 TA     7g2-       0.0000   -0.0000    0.0000   -0.0000
      154 TA     8g2-      -0.0000    0.0000   -0.0000    0.0000
      155 TA     5g1-      -0.0000   -0.0000    0.0000   -0.0000
      156 TA     6g1-       0.0000    0.0000   -0.0000   -0.0000
      157 TA     7g1-      -0.0000   -0.0000    0.0000    0.0000
      158 TA     8g1-       0.0000    0.0000   -0.0000    0.0000
      159 TA     5g0        0.0000   -0.0000   -0.0000   -0.0001
      160 TA     6g0       -0.0000    0.0000    0.0000    0.0001
      161 TA     7g0        0.0000   -0.0000   -0.0000   -0.0001
      162 TA     8g0       -0.0000    0.0000    0.0000    0.0001
      163 TA     5g1+      -0.0000    0.0001    0.0000    0.0000
      164 TA     6g1+       0.0000   -0.0001   -0.0000   -0.0000
      165 TA     7g1+      -0.0000    0.0000    0.0000    0.0000
      166 TA     8g1+       0.0000   -0.0000   -0.0000   -0.0000
      167 TA     5g2+      -0.0000    0.0000    0.0000    0.0001
      168 TA     6g2+       0.0000   -0.0000   -0.0000   -0.0001
      169 TA     7g2+      -0.0000    0.0000    0.0000    0.0001
      170 TA     8g2+       0.0000   -0.0000   -0.0000   -0.0001
      171 TA     5g3+       0.0000   -0.0000   -0.0000    0.0000
      172 TA     6g3+      -0.0000    0.0000    0.0000   -0.0000
      173 TA     7g3+       0.0000   -0.0000   -0.0000    0.0000
      174 TA     8g3+      -0.0000    0.0000    0.0000   -0.0000
      175 TA     5g4+      -0.0000    0.0001    0.0000   -0.0002
      176 TA     6g4+       0.0000   -0.0001   -0.0000    0.0002
      177 TA     7g4+      -0.0000    0.0000    0.0000   -0.0001
      178 TA     8g4+       0.0000   -0.0000   -0.0000    0.0001
      179 TA     6h5-      -0.0000   -0.0000    0.0000   -0.0000
      180 TA     7h5-       0.0000    0.0000   -0.0000    0.0000
      181 TA     6h4-      -0.0000    0.0000   -0.0000   -0.0000
      182 TA     7h4-       0.0000   -0.0000    0.0000    0.0000
      183 TA     6h3-       0.0000    0.0000   -0.0000   -0.0000
      184 TA     7h3-      -0.0000   -0.0000    0.0000    0.0000
      185 TA     6h2-       0.0000   -0.0000    0.0000   -0.0000
      186 TA     7h2-       0.0000    0.0000   -0.0000   -0.0000
      187 TA     6h1-       0.0000   -0.0000    0.0000   -0.0000
      188 TA     7h1-      -0.0000    0.0000   -0.0000    0.0000
      189 TA     6h0       -0.0000    0.0000    0.0000   -0.0000
      190 TA     7h0        0.0000   -0.0000   -0.0000   -0.0000
      191 TA     6h1+      -0.0000   -0.0000   -0.0000    0.0000
      192 TA     7h1+       0.0000    0.0000    0.0000   -0.0000
      193 TA     6h2+      -0.0000   -0.0000   -0.0000    0.0000
      194 TA     7h2+       0.0000    0.0000    0.0000    0.0000
      195 TA     6h3+       0.0000    0.0000    0.0000   -0.0000
      196 TA     7h3+       0.0000   -0.0000   -0.0000    0.0000
      197 TA     6h4+      -0.0000    0.0000    0.0000    0.0000
      198 TA     7h4+       0.0000   -0.0000   -0.0000   -0.0000
      199 TA     6h5+       0.0000    0.0000    0.0000    0.0000
      200 TA     7h5+      -0.0000   -0.0000   -0.0000   -0.0000
--


++    Molecular charges:
      ------------------

      Mulliken charges per centre and basis function type
      ---------------------------------------------------

                TA    
      1s       2.0000
      2s       2.0000
      2px      1.9999
      2pz      1.9999
      2py      1.9999
      3s       1.9800
      3px      1.9460
      3pz      1.9567
      3py      1.9568
      4s       0.0131
      3d2+     0.0206
      3d1+     0.0169
      3d0      0.0068
      3d1-     0.0000
      3d2-     0.0169
      4px      0.0166
      4pz      0.0162
      4py      0.0162
      5s       0.0011
      4d2+     0.0000
      4d1+     0.0000
      4d0      0.0000
      4d1-     0.0000
      4d2-     0.0000
      5px      0.0012
      5pz      0.0012
      5py      0.0012
      6s       0.0001
      4f3+     0.0000
      4f2+     0.0000
      4f1+     0.0000
      4f0      0.0000
      4f1-     0.0000
      4f2-     0.0000
      4f3-     0.0000
      5d2+     0.0000
      5d1+     0.0000
      5d0      0.0000
      5d1-     0.0000
      5d2-     0.0000
      6px      0.0002
      6pz      0.0002
      6py      0.0002
      7s       0.0002
      5f3+     0.0000
      5f2+     0.0000
      5f1+     0.0000
      5f0      0.0000
      5f1-     0.0000
      5f2-     0.0000
      5f3-     0.0000
      6d2+     0.0000
      6d1+     0.0000
      6d0      0.0000
      6d1-     0.0000
      6d2-     0.0000
      7px      0.0022
      7pz      0.0021
      7py      0.0021
      5g4+     0.0000
      5g3+     0.0000
      5g2+     0.0000
      5g1+     0.0000
      5g0      0.0000
      5g1-     0.0000
      5g2-     0.0000
      5g3-     0.0000
      5g4-     0.0000
      6f3+     0.0000
      6f2+     0.0000
      6f1+     0.0000
      6f0      0.0000
      6f1-     0.0000
      6f2-     0.0000
      6f3-     0.0000
      6g4+     0.0000
      6g3+     0.0000
      6g2+     0.0000
      6g1+     0.0000
      6g0      0.0000
      6g1-     0.0000
      6g2-     0.0000
      6g3-     0.0000
      6g4-     0.0000
      6h5+     0.0000
      6h4+     0.0000
      6h3+     0.0000
      6h2+     0.0000
      6h1+     0.0000
      6h0      0.0000
      6h1-     0.0000
      6h2-     0.0000
      6h3-     0.0000
      6h4-     0.0000
      6h5-     0.0000
      7d2+     0.0000
      7d1+     0.0000
      7d0      0.0000
      7d1-     0.0000
      7d2-     0.0000
      7f3+     0.0000
      7f2+     0.0000
      7f1+     0.0000
      7f0      0.0000
      7f1-     0.0000
      7f2-     0.0000
      7f3-     0.0000
      7g4+     0.0000
      7g3+     0.0000
      7g2+     0.0000
      7g1+     0.0000
      7g0      0.0000
      7g1-     0.0000
      7g2-     0.0000
      7g3-     0.0000
      7g4-     0.0000
      7h5+     0.0000
      7h4+     0.0000
      7h3+     0.0000
      7h2+     0.0000
      7h1+     0.0000
      7h0      0.0000
      7h1-     0.0000
      7h2-     0.0000
      7h3-     0.0000
      7h4-     0.0000
      7h5-     0.0000
      8s       0.0011
      8px      0.0018
      8pz      0.0018
      8py      0.0018
      8d2+     0.0000
      8d1+     0.0000
      8d0      0.0000
      8d1-     0.0000
      8d2-     0.0000
      8f3+     0.0000
      8f2+     0.0000
      8f1+     0.0000
      8f0      0.0000
      8f1-     0.0000
      8f2-     0.0000
      8f3-     0.0000
      8g4+     0.0000
      8g3+     0.0000
      8g2+     0.0000
      8g1+     0.0000
      8g0      0.0000
      8g1-     0.0000
      8g2-     0.0000
      8g3-     0.0000
      8g4-     0.0000
      9s       0.0015
      9px      0.0016
      9pz      0.0016
      9py      0.0016
      9d2+     0.0000
      9d1+     0.0000
      9d0      0.0000
      9d1-     0.0000
      9d2-     0.0000
      9f3+     0.0000
      9f2+     0.0000
      9f1+     0.0000
      9f0      0.0000
      9f1-     0.0000
      9f2-     0.0000
      9f3-     0.0000
     10s       0.0006
     10px      0.0016
     10pz      0.0015
     10py      0.0015
     10d2+     0.0000
     10d1+     0.0000
     10d0      0.0000
     10d1-     0.0000
     10d2-     0.0000
     10f3+     0.0000
     10f2+     0.0000
     10f1+     0.0000
     10f0      0.0000
     10f1-     0.0000
     10f2-     0.0000
     10f3-     0.0000
     11s       0.0019
     11px      0.0018
     11pz      0.0017
     11py      0.0017
     11d2+     0.0000
     11d1+     0.0000
     11d0      0.0000
     11d1-     0.0000
     11d2-     0.0000
     11f3+     0.0000
     11f2+     0.0000
     11f1+     0.0000
     11f0      0.0000
     11f1-     0.0000
     11f2-     0.0000
     11f3-     0.0000
      Total   18.0000

      N-E     55.0000

      Total electronic charge=   18.000000

      Total            charge=   55.000000
--

 Sorry, Molden does not know how to handle
 functions with angular momentum larger than g

++    Static properties:
      ------------------


[...]
   10         0.441975       5 0.5  1.0000    9 0.5  0.0000    8 0.5  0.0000    7 0.5  0.0000    6 0.5  0.0000
   11        71.730284       6 0.5  1.0000    9 0.5  0.0000    8 0.5  0.0000    7 0.5  0.0000    5 0.5  0.0000
   12        71.730284       6 0.5  1.0000    9 0.5  0.0000    8 0.5  0.0000    7 0.5  0.0000    5 0.5  0.0000
   13        78.523877       7 0.5  1.0000    9 0.5  0.0000    8 0.5  0.0000    6 0.5  0.0000    5 0.5  0.0000
   14        78.523877       7 0.5  1.0000    9 0.5  0.0000    8 0.5  0.0000    6 0.5  0.0000    5 0.5  0.0000
   15        78.545161       8 0.5  1.0000    9 0.5  0.0000    7 0.5  0.0000    6 0.5  0.0000    5 0.5  0.0000
   16        78.545161       8 0.5  1.0000    9 0.5  0.0000    7 0.5  0.0000    6 0.5  0.0000    5 0.5  0.0000
   17        80.735188       9 0.5  1.0000    8 0.5  0.0000    7 0.5  0.0000    6 0.5  0.0000    5 0.5  0.0000
   18        80.735188       9 0.5  1.0000    8 0.5  0.0000    7 0.5  0.0000    6 0.5  0.0000    5 0.5  0.0000
 -------------------------------------------------------------------------------------------------------


      ****************************************************************************************************
      *                                                                                                  *
      *                                    Special properties section                                    *
      *                                                                                                  *
      ****************************************************************************************************


++ Dipole transition strengths (SO states):
   ----------------------------------------
    for osc. strength at least    1.0000000000000001E-005

      From   To        Osc. strength     Einstein coefficients Ax, Ay, Az (sec-1)    Total A (sec-1)
     -----------------------------------------------------------------------------------------------
         1   13       8.65231877E-03  6.15712197E-10  1.71413631E+12  4.98132883E-09  1.71413631E+12
         1   15       8.85807992E-03  2.31899119E+10  4.96323412E-09  1.73266183E+12  1.75585174E+12
         1   17       3.76285662E-05  8.94052114E-13  7.88048170E+09  4.18730153E-11  7.88048170E+09
         2   14       8.65231877E-03  6.15712197E-10  1.71413631E+12  4.98132883E-09  1.71413631E+12
         2   16       8.85807992E-03  2.31899119E+10  4.96323412E-09  1.73266183E+12  1.75585174E+12
         2   18       3.76285662E-05  8.94052114E-13  7.88048170E+09  4.18730153E-11  7.88048170E+09
         3   13       8.64102621E-03  1.16233134E+10  4.99184887E-09  1.70024859E+12  1.71187190E+12
         3   15       8.68815043E-03  2.60332609E-13  1.72214089E+12  4.81728202E-09  1.72214089E+12
         3   17       2.54552286E-05  1.07193275E+08  1.15103067E-11  5.22376623E+09  5.33095950E+09
         4   14       8.64102621E-03  1.16233134E+10  4.99184887E-09  1.70024859E+12  1.71187190E+12
         4   16       8.68815043E-03  2.60332609E-13  1.72214089E+12  4.81728202E-09  1.72214089E+12
         4   18       2.54552286E-05  1.07193275E+08  1.15103067E-11  5.22376623E+09  5.33095950E+09
         5   11       1.40917066E-03  7.23383008E+07  7.24270703E-07  2.31034810E+11  2.31107148E+11
         5   13       1.97413801E-02  3.87944348E+12  3.81228711E-09  3.18616718E+09  3.88262964E+12
         5   15       1.44885038E-05  1.40322734E-05  2.85107248E+09  2.88463716E-09  2.85107248E+09
         5   17       2.21967581E-03  5.09777581E+08  1.42995961E-06  4.61070328E+11  4.61580105E+11
         6   12       1.40917066E-03  7.23383008E+07  7.24270703E-07  2.31034810E+11  2.31107148E+11
         6   14       1.97413801E-02  3.87944348E+12  3.81228711E-09  3.18616718E+09  3.88262964E+12
         6   16       1.44885038E-05  1.40322734E-05  2.85107248E+09  2.88463716E-09  2.85107248E+09
         6   18       2.21967581E-03  5.09777581E+08  1.42995961E-06  4.61070328E+11  4.61580105E+11
         7   11       1.36418649E-03  2.21213392E-10  2.23721293E+11  7.44882607E-07  2.23721293E+11
         7   15       1.93968990E-02  3.81573786E+12  6.08531379E-09  1.08692881E+09  3.81682479E+12
         7   17       2.11432628E-03  1.66732711E-09  4.39658167E+11  1.49529014E-06  4.39658167E+11
         8   12       1.36418649E-03  2.21213392E-10  2.23721293E+11  7.44882607E-07  2.23721293E+11
         8   16       1.93968990E-02  3.81573786E+12  6.08531379E-09  1.08692881E+09  3.81682479E+12
         8   18       2.11432628E-03  1.66732711E-09  4.39658167E+11  1.49529014E-06  4.39658167E+11
         9   11       2.74591139E-03  4.48297253E+11  1.39281194E-13  6.85830781E+07  4.48365836E+11
         9   13       9.79689655E-04  8.20699958E+08  2.81725218E-09  1.91089767E+11  1.91910467E+11
         9   15       1.04272539E-03  1.19441858E-11  2.04369849E+11  2.46366817E-09  2.04369849E+11
         9   17       2.55074211E-02  5.28323505E+12  6.21688896E-13  4.09523001E+08  5.28364458E+12
        10   12       2.74591139E-03  4.48297253E+11  1.39281194E-13  6.85830781E+07  4.48365836E+11
        10   14       9.79689655E-04  8.20699958E+08  2.81725218E-09  1.91089767E+11  1.91910467E+11
        10   16       1.04272539E-03  1.19441858E-11  2.04369849E+11  2.46366817E-09  2.04369849E+11
        10   18       2.55074211E-02  5.28323505E+12  6.21688896E-13  4.09523001E+08  5.28364458E+12
        11   13       1.64931528E-01  2.55499937E+06  3.24447656E-09  2.44572489E+11  2.44575044E+11
        11   15       1.64949119E-01  1.71740317E-13  2.46136204E+11  3.28623551E-09  2.46136204E+11
        11   17       1.20302815E-01  3.13428995E+11  3.91567910E-13  3.01047690E+06  3.13432005E+11
        12   14       1.64931528E-01  2.55499937E+06  3.24447656E-09  2.44572489E+11  2.44575044E+11
        12   16       1.64949119E-01  1.71740317E-13  2.46136204E+11  3.28623551E-09  2.46136204E+11
        12   18       1.20302815E-01  3.13428995E+11  3.91567910E-13  3.01047690E+06  3.13432005E+11
        13   17       1.24623227E-02  2.17883730E+05  2.69635312E-11  1.95776068E+09  1.95797856E+09
        14   18       1.24623227E-02  2.17883730E+05  2.69635312E-11  1.95776068E+09  1.95797856E+09
        15   17       1.28053703E-02  1.37356068E-14  1.97333226E+09  2.53471047E-11  1.97333226E+09
        16   18       1.28053703E-02  1.37356068E-14  1.97333226E+09  2.53471047E-11  1.97333226E+09
     -----------------------------------------------------------------------------------------------
--

++ Velocity transition strengths (SO states):
   ------------------------------------------
    for osc. strength at least    1.0000000000000001E-005

      From   To        Osc. strength     Einstein coefficients Ax, Ay, Az (sec-1)    Total A (sec-1)
     -----------------------------------------------------------------------------------------------
         1    3       1.31554292E-05  3.40074283E-18  1.64538567E-01  7.25789684E-20  1.64538567E-01
         1    5       2.72296150E-04  1.22808109E-18  7.13386100E+05  2.39315618E-12  7.13386100E+05
         1    7       2.70862131E-04  1.78865219E+02  2.37235002E-12  7.16093182E+05  7.16272047E+05
         1   13       8.44033300E-03  6.52215370E-10  1.67214500E+12  4.67803181E-09  1.67214500E+12
         1   15       8.64230468E-03  2.27429745E+10  4.60435146E-09  1.69034367E+12  1.71308665E+12
         1   17       3.67793544E-05  1.16682451E-12  7.70265961E+09  2.77006582E-11  7.70265961E+09
         2    4       1.31554292E-05  3.40074283E-18  1.64538567E-01  7.25789684E-20  1.64538567E-01
         2    6       2.72296150E-04  1.22808109E-18  7.13386100E+05  2.39315618E-12  7.13386100E+05
         2    8       2.70862131E-04  1.78865219E+02  2.37235002E-12  7.16093182E+05  7.16272047E+05
         2   14       8.44033300E-03  6.52215370E-10  1.67214500E+12  4.67803181E-09  1.67214500E+12
         2   16       8.64230468E-03  2.27429745E+10  4.60435146E-09  1.69034367E+12  1.71308665E+12
         2   18       3.67793544E-05  1.16682451E-12  7.70265961E+09  2.77006582E-11  7.70265961E+09
         3    5       2.71557565E-04  4.91154988E+00  2.39256489E-12  7.08340617E+05  7.08345528E+05
         3    7       2.72071851E-04  4.73520473E-16  7.16345060E+05  2.36200335E-12  7.16345060E+05
         3   13       8.42872082E-03  1.14084741E+10  4.68559453E-09  1.65840946E+12  1.66981793E+12
         3   15       8.47550921E-03  1.08664199E-15  1.67999759E+12  4.49906726E-09  1.67999759E+12
         3   17       2.49643882E-05  1.04169940E+08  5.39567104E-12  5.12401352E+09  5.22818346E+09
         4    6       2.71557565E-04  4.91154988E+00  2.39256489E-12  7.08340617E+05  7.08345528E+05
         4    8       2.72071851E-04  4.73520473E-16  7.16345060E+05  2.36200335E-12  7.16345060E+05
         4   14       8.42872082E-03  1.14084741E+10  4.68559453E-09  1.65840946E+12  1.66981793E+12
         4   16       8.47550921E-03  1.08664199E-15  1.67999759E+12  4.49906726E-09  1.67999759E+12
         4   18       2.49643882E-05  1.04169940E+08  5.39567104E-12  5.12401352E+09  5.22818346E+09
         5    9       1.21764324E-03  3.01515963E+01  3.03941190E-12  9.57230833E+05  9.57260984E+05
         5   11       1.42126710E-03  7.34722977E+07  7.33041176E-07  2.33018329E+11  2.33091802E+11
         5   13       1.93372552E-02  3.79998791E+12  3.88599232E-09  3.17382925E+09  3.80316174E+12
         5   15       1.45580054E-05  1.37414157E-05  2.86475908E+09  2.95367212E-09  2.86475908E+09
         5   17       2.10036693E-03  4.93058346E+08  1.34750762E-06  4.36278363E+11  4.36771421E+11
         6   10       1.21764324E-03  3.01515963E+01  3.03941190E-12  9.57230833E+05  9.57260984E+05
         6   12       1.42126710E-03  7.34722977E+07  7.33041176E-07  2.33018329E+11  2.33091802E+11
         6   14       1.93372552E-02  3.79998791E+12  3.88599232E-09  3.17382925E+09  3.80316174E+12
         6   16       1.45580054E-05  1.37414157E-05  2.86475908E+09  2.95367212E-09  2.86475908E+09
         6   18       2.10036693E-03  4.93058346E+08  1.34750762E-06  4.36278363E+11  4.36771421E+11
         7    9       1.22435229E-03  3.44637109E-16  9.46194966E+05  2.96704240E-12  9.46194966E+05
         7   11       1.37676796E-03  1.80965356E-10  2.25785391E+11  7.55901323E-07  2.25785391E+11
         7   15       1.90007528E-02  3.73777562E+12  6.04544580E-09  1.11049771E+09  3.73888612E+12
         7   17       1.99821720E-03  1.53975306E-09  4.15515605E+11  1.41389709E-06  4.15515605E+11
         8   10       1.22435229E-03  3.44637109E-16  9.46194966E+05  2.96704240E-12  9.46194966E+05
         8   12       1.37676796E-03  1.80965356E-10  2.25785391E+11  7.55901323E-07  2.25785391E+11
         8   16       1.90007528E-02  3.73777562E+12  6.04544580E-09  1.11049771E+09  3.73888612E+12
         8   18       1.99821720E-03  1.53975306E-09  4.15515605E+11  1.41389709E-06  4.15515605E+11
         9   11       2.77912761E-03  4.53723076E+11  5.37712708E-13  6.80444172E+07  4.53791121E+11
         9   13       9.29273206E-04  7.98823735E+08  2.62744512E-09  1.81236246E+11  1.82035070E+11
         9   15       9.90529650E-04  1.67459696E-11  1.94140376E+11  2.29342100E-09  1.94140376E+11
         9   17       2.48539830E-02  5.14791361E+12  4.04904338E-13  3.94733874E+08  5.14830835E+12
        10   12       2.77912761E-03  4.53723076E+11  5.37712708E-13  6.80444172E+07  4.53791121E+11
        10   14       9.29273206E-04  7.98823735E+08  2.62744512E-09  1.81236246E+11  1.82035070E+11
        10   16       9.90529650E-04  1.67459696E-11  1.94140376E+11  2.29342100E-09  1.94140376E+11
        10   18       2.48539830E-02  5.14791361E+12  4.04904338E-13  3.94733874E+08  5.14830835E+12
        11   13       1.48459396E-01  2.13388548E+06  2.93684528E-09  2.20147343E+11  2.20149477E+11
        11   15       1.48371568E-01  3.48098044E-13  2.21400041E+11  2.93644202E-09  2.21400041E+11
        11   17       1.07577612E-01  2.80276091E+11  1.76380706E-13  3.16851191E+06  2.80279259E+11
        12   14       1.48459396E-01  2.13388548E+06  2.93684528E-09  2.20147343E+11  2.20149477E+11
        12   16       1.48371568E-01  3.48098044E-13  2.21400041E+11  2.93644202E-09  2.21400041E+11
        12   18       1.07577612E-01  2.80276091E+11  1.76380706E-13  3.16851191E+06  2.80279259E+11
        13   17       1.69896006E-02  2.45793280E+05  3.57672770E-11  2.66903105E+09  2.66927684E+09
        14   18       1.69896006E-02  2.45793280E+05  3.57672770E-11  2.66903105E+09  2.66927684E+09
        15   17       1.74549844E-02  6.31416197E-14  2.68985611E+09  3.49413809E-11  2.68985611E+09
        16   18       1.74549844E-02  6.31416197E-14  2.68985611E+09  3.49413809E-11  2.68985611E+09
     -----------------------------------------------------------------------------------------------
--

++ Length and velocity gauge comparison (SO states):

 --------------------------------------------------
 A comparison between the dipole oscillator strengths in 
 length and velocity gauge will be performed

 All dipole oscillator differences above the tolerance of   0.10000000000000001       will be printed 

 Due to basis set deficiency these oscillator may be problematic 

 The tolerance is defined as ABS(1-O_l/O_v) 
 O_l : dipole oscillator strength in length gauge
 O_p : dipole oscillator strength in velocity gauge
 --------------------------------------------------

  Problematic transitions have been found

      From   To       Difference (%) Osc. st. (len.) Osc. st. (vel.)
     ---------------------------------------------------------------
         1    3      --------------- below threshold  1.31554292E-05
         1    5      --------------- below threshold  2.72296150E-04
         1    7      --------------- below threshold  2.70862131E-04
         2    4      --------------- below threshold  1.31554292E-05
         2    6      --------------- below threshold  2.72296150E-04
         2    8      --------------- below threshold  2.70862131E-04
         3    5      --------------- below threshold  2.71557565E-04
         3    7      --------------- below threshold  2.72071851E-04
         4    6      --------------- below threshold  2.71557565E-04
         4    8      --------------- below threshold  2.72071851E-04
         5    9      --------------- below threshold  1.21764324E-03
         6   10      --------------- below threshold  1.21764324E-03
         7    9      --------------- below threshold  1.22435229E-03
         8   10      --------------- below threshold  1.22435229E-03
        11   13            11.095379  1.64931528E-01  1.48459396E-01
        11   15            11.172997  1.64949119E-01  1.48371568E-01
        11   17            11.828858  1.20302815E-01  1.07577612E-01
        12   14            11.095379  1.64931528E-01  1.48459396E-01
        12   16            11.172997  1.64949119E-01  1.48371568E-01
        12   18            11.828858  1.20302815E-01  1.07577612E-01
        13   17            26.647347  1.24623227E-02  1.69896006E-02
        14   18            26.647347  1.24623227E-02  1.69896006E-02
        15   17            26.637744  1.28053703E-02  1.74549844E-02
        16   18            26.637744  1.28053703E-02  1.74549844E-02
     ---------------------------------------------------------------

 Number of problematic transitions =                    24

--

 Electric-dipole - electric-octupole not included
++ Total transition strengths for the second-order expansion of the wave vector (SO states):
   -----------------------------------------------------------------------------------------
    for osc. strength at least    1.0000000000000001E-005

      From   To        Osc. strength
     -------------------------------
         1   11       3.01995259E-05
         1   17       6.21583102E-05
         2   12       3.01995259E-05
         2   18       6.21583102E-05
         3   11       3.01641979E-05
         3   17       6.21815663E-05
         4   12       3.01641979E-05
         4   18       6.21815663E-05
         5   11       3.83355268E-05
         6   12       3.83355268E-05
         7   11       3.82038728E-05
         8   12       3.82038728E-05
         9   11       3.97842145E-05
        10   12       3.97842145E-05
        11   13       1.98541264E-05
        11   15       1.99589101E-05
        12   14       1.98541264E-05
        12   16       1.99589101E-05
        13   17       2.14526647E-05
        14   18       2.14526647E-05
        15   17       2.12388591E-05
        16   18       2.12388591E-05
     -------------------------------
--

++ I/O STATISTICS
 
  I. General I/O information
  - - - - - - - - - - - - - - - - - - - - - - - - - - - - - - - - - - - - - - - - - - -
  Unit  Name          Flsize      Write/Read            MBytes           Write/Read
                      (MBytes)       Calls              In/Out           Time, sec.
  - - - - - - - - - - - - - - - - - - - - - - - - - - - - - - - - - - - - - - - - - - -
   1  SCRATCH           0.00 .       9/      45 .      0.0/      0.0 .       0/       0
   2  ANNI              0.00 .       0/       0 .      0.0/      0.0 .       0/       0
   3  RUNFILE          15.31 .     322/   10733 .      2.3/     77.8 .       0/       0
   4  ONEINT            6.58 .       0/   28767 .      0.0/   3777.9 .       0/       0
   5  JOBIPH            7.70 .       0/      92 .      0.0/      0.9 .       0/       0
   6  ORDINT          771.03 .       1/    6169 .      0.0/   1542.0 .       0/       0
  - - - - - - - - - - - - - - - - - - - - - - - - - - - - - - - - - - - - - - - - - - -
   *  TOTAL           800.62 .     332/   45806 .      2.3/   5398.7 .       0/       0
  - - - - - - - - - - - - - - - - - - - - - - - - - - - - - - - - - - - - - - - - - - -
 
  II. I/O Access Patterns
  - - - - - - - - - - - - - - - - - - - -
  Unit  Name               % of random
                         Write/Read calls
  - - - - - - - - - - - - - - - - - - - -
   1  SCRATCH             88.9/ 100.0
   2  ANNI                 0.0/   0.0
   3  RUNFILE             28.6/  10.8
   4  ONEINT               0.0/  13.4
   5  JOBIPH               0.0/  76.1
   6  ORDINT             100.0/   0.0
  - - - - - - - - - - - - - - - - - - - -
--
--- Stop Module: rassi at Tue Mar 25 14:31:25 2025 /rc=_RC_ALL_IS_WELL_ ---
*** files: xmldump
    saved to directory /home4/s4752295/Internship/Initial_simulations/Point_charge_model/1_electron/Madelung_charges_9_active_space/Ta
--- Module rassi spent 5 seconds ---

.##################.
.# Happy landing! #.
.##################.

    Timing: Wall=99.32 User=80.20 System=14.91

###############################################################################
Hbrk Cluster
Job 15897495 for user s4752295
Finished at: Tue Mar 25 14:31:29 CET 2025

Job details:
============

Job ID                         : 15897495
Name                           : Ta_no_SO
User                           : s4752295
Partition                      : regularmedium
Nodes                          : node86
Number of Nodes                : 1
Cores                          : 1
Number of Tasks                : 1
State                          : COMPLETED  
Submit                         : 2025-03-25T14:28:30
Start                          : 2025-03-25T14:29:39
End                            : 2025-03-25T14:31:25
Reserved walltime              : 15:00:00
Used walltime                  : 00:01:46
Used CPU time                  : 00:01:36 (Efficiency: 90.96%)
% User (Computation)           : 84.25%
% System (I/O)                 : 15.75%
Total memory reserved          : 25000M
Maximum memory used            : 3.07G

Acknowledgements:
=================

Please see this page for information about acknowledging Hbrk in your publications:

https://wiki.hpc.rug.nl/habrok/introduction/scientific_output

################################################################################
