   This run of MOLCAS is using the pymolcas driver

                             OPE
                             OPE          NMOL  CASOP  ENMOLC A   SO
                 OPE        NMOLC        AS  OP EN  MO LC     AS  OP
                OPENM       OL CA        SO  PE NM  OL CA     SOP EN
                OP EN      MO   LC       AS  OP ENMOL  CASO   PENMOL
                OP  EN     MO   LC       AS  OP EN     MO     LC ASO
               OP   E  NMOL  C  AS       OP  EN MO     LC     AS  OP
               OP  E   NMO   LC AS        OPEN  MO     LCASOP EN   M
               O  PEN   MO  LCA  SO
            OPE   NMO   L   CAS    OP
        OPENMOL  CASOP     ENMOL   CASOPE
     OPENMOLCA   SOPENMOLCASOPEN   MOLCASOPE
    OPENMOLCAS   OP           EN   MOL    CAS
    OPENMOLCAS       OP  ENM        O     LCA
    OPENMOLCAS    OPEN  MOLCASO     P  E  NMO
    OPENMOLCAS     OP               E  N  MOL
    OPENMOLCA   SO           PENM   O  L  CAS    OPEN    MO    LCAS
    OPENMOLCA   SOP           ENM   O  L  CAS   OP  EN  MOLC  AS   O
    OPENMOLCA   SOPE           NM      O  LCA   S      OP  EN MO
    OPENMOLC                AS         O  PEN   M      OL  CA  SOPE
    OPENMO        LCASOPE  NMOL        C  ASO   P      ENMOLC     AS
    OPE     NMO      LCA  SO     P     E   NM   OL  CA SO  PE N   MO
          OPENMOLCA            SOPE   NMO        LCAS  O    P  ENMO
     OPENMOLCASOPENMOLCASOPENMOLCASOPENMOLCA
        OPENMOLCASOPENMOLCASOPENMOLCASOPE
            OPENMOLCASOPENMOLCASOPENM
               OPENMOLCASOPENMOLCA        version: o91e1abe7de707b ?
                   OPENMOLCASO
                       OPE                tag:

 OpenMolcas is free software; you can redistribute it and/or modify it
 under the terms of the GNU Lesser General Public License version 2.1.
 OpenMolcas is distributed in the hope that it will be useful, but it
 is provided "as is" and without any express or implied warranties.
 For more details see the full text of the license in the file
 LICENSE or in <http://www.gnu.org/licenses/>.

                 Copyright (C) The OpenMolcas Authors
           For the author list and the recommended citation,
                   consult the file CONTRIBUTORS.md

           *************************************************
           * pymolcas version py2.10                       *
           *   build 3068ae8b88c9345ec6cfef6fef7f1169      *
           *   (after the EMIL interpreter by V. Veryazov) *
           *************************************************

configuration info
------------------
Host name: login1 (Linux)
C Compiler ID: GNU
C flags: -std=gnu99
Fortran Compiler ID: GNU
Fortran flags: -fno-aggressive-loop-optimizations -cpp -fdefault-integer-8 -fmax-stack-var-size=1048576
Definitions: _MOLCAS_;_I8_;_LINUX_;_MKL_
Parallel: OFF (GA=OFF)


   ----------------------------------------------------------------------------------------------------------------------------------
  |
  |           Project: tungsten_so_cf
  |    Submitted from: /home4/s4752295/Internship/Initial_simulations/Point_charge_model/1_electron/Madelung_charges_9_active_space/W
  |      Scratch area: /tmp/tungsten_so_cf
  |   Save outputs to: /home4/s4752295/Internship/Initial_simulations/Point_charge_model/1_electron/Madelung_charges_9_active_space/W
  |            Molcas: /home4/s4752295/Internship/Molcas/recomp_try/OpenMolcas-master/build
  |
  | Scratch area is empty
  |
  |    MOLCAS_DRIVER = /home4/s4752295/Internship/Molcas/bin/pymolcas
  |    MOLCAS_NPROCS = 1
  |    MOLCAS_SOURCE = /home4/s4752295/Internship/Molcas/recomp_try/OpenMolcas-master
  | MOLCAS_STRUCTURE = 0
  |
   ----------------------------------------------------------------------------------------------------------------------------------

++ ---------   Input file   ---------

&SEWARD
AMFi

CLIG
$R

Basis Set
W.ANO-rcc.Roos.24s21p15d11f4g2h.11s10p9d8f4g2h.
Spherical d
W            -1.0658140267135469e-14    -3.5527134223784897e-15 0.008753588724385739
End of Basis

Xfield

414
-1.200660324,-0.46199999999999997,0.26673569999999996   -0.625931
-1.200660324,-0.0,-0.5334717    -0.625931
-1.200660324,0.46199999999999997,0.26673569999999996    -0.625931
-1.198603821,0.0,0.0    1.892092
0.797753907,-0.46199999999999997,-0.26673569999999996   2.515516
0.797753907,0.0,0.5334717       2.515516
0.797753907,0.46199999999999997,-0.26673569999999996    2.515516
1.068896484,-0.9239999999999999,0.0     0.004632
1.068896484,-0.46199999999999997,-0.8002074     0.004632
1.068896484,-0.46199999999999997,0.8002074      0.004632
1.068896484,0.46199999999999997,-0.8002074      0.004632
1.068896484,0.46199999999999997,0.8002074       0.004632
1.068896484,0.9239999999999999,0.0      0.004632
1.2387451170000001,-0.46199999999999997,0.26673569999999996     -2.519484
1.2387451170000001,-0.0,-0.5334717      -2.519484
1.2387451170000001,0.46199999999999997,0.26673569999999996      -2.519484
-0.879931641,-0.0,-0.0  -3.142907
-1.492529298,-0.9239999999999999,-0.5334717     -0.625931
-1.492529298,0.0,1.0669431      -0.625931
-1.492529298,0.9239999999999999,-0.5334717      -0.625931
-1.9828124999999999,-0.9239999999999999,0.0     1.892092
-1.9828124999999999,-0.46199999999999997,-0.8002074     1.892092
-1.9828124999999999,-0.46199999999999997,0.8002074      1.892092
-1.9828124999999999,0.46199999999999997,-0.8002074      1.892092
-1.9828124999999999,0.46199999999999997,0.8002074       1.892092
-1.9828124999999999,0.9239999999999999,0.0      1.892092
7.551562499999999,-0.9239999999999999,0.5334717 2.515516
7.551562499999999,-0.0,-1.0669431       2.515516
7.551562499999999,0.9239999999999999,0.5334717  2.515516
1.0916015639999999,-0.9239999999999999,-0.5334717       -2.519484
1.0916015639999999,0.0,1.0669431        -2.519484
1.0916015639999999,0.9239999999999999,-0.5334717        -2.519484
-0.9697265639999999,-0.9239999999999999,-0.0    -3.142907
-0.9697265639999999,-0.46199999999999997,-0.8002074     -3.142907
-0.9697265639999999,-0.46199999999999997,0.8002074      -3.142907
-0.9697265639999999,0.46199999999999997,-0.8002074      -3.142907
-0.9697265639999999,0.46199999999999997,0.8002074       -3.142907
-0.9697265639999999,0.9239999999999999,-0.0     -3.142907
-2.85703125,-0.9239999999999999,1.0669431       -0.625931
-2.85703125,0.9239999999999999,1.0669431        -0.625931
-2.85703125,-1.386,0.26673569999999996  -0.625931
-2.85703125,1.386,0.26673569999999996   -0.625931
-2.85703125,-0.46199999999999997,-1.3336791000000001    -0.625931
-2.85703125,0.46199999999999997,-1.3336791000000001     -0.625931
1.80234375,-0.46199999999999997,-0.26673569999999996    4.409069
1.80234375,0.46199999999999997,-0.26673569999999996     4.409069
1.80234375,0.0,0.5334717        4.409069
-52.574999999999996,-0.0,-0.0   -5.030367
-52.574999999999996,0.0,0.0     5.039632
4.055273435999999,-0.9239999999999999,-1.0669431        2.515516
4.055273435999999,0.9239999999999999,-1.0669431 2.515516
4.055273435999999,-1.386,-0.26673569999999996   2.515516
4.055273435999999,1.386,-0.26673569999999996    2.515516
4.055273435999999,-0.46199999999999997,1.3336791000000001       2.515516
4.055273435999999,0.46199999999999997,1.3336791000000001        2.515516
5.71171875,-1.386,-0.8002074    0.004632
5.71171875,-1.386,0.8002074     0.004632
5.71171875,1.386,-0.8002074     0.004632
5.71171875,1.386,0.8002074      0.004632
5.71171875,-0.0,-1.6004148      0.004632
5.71171875,0.0,1.6004148        0.004632
14.423437499999999,-0.9239999999999999,1.0669431        -2.519484
14.423437499999999,0.9239999999999999,1.0669431 -2.519484
14.423437499999999,-1.386,0.26673569999999996   -2.519484
14.423437499999999,1.386,0.26673569999999996    -2.519484
14.423437499999999,-0.46199999999999997,-1.3336791000000001     -2.519484
14.423437499999999,0.46199999999999997,-1.3336791000000001      -2.519484
-43.762499999999996,-1.386,-0.8002074   1.892092
-43.762499999999996,-1.386,0.8002074    1.892092
-43.762499999999996,1.386,-0.8002074    1.892092
-43.762499999999996,1.386,0.8002074     1.892092
-43.762499999999996,-0.0,-1.6004148     1.892092
-43.762499999999996,0.0,1.6004148       1.892092
-35.324999999999996,-0.9239999999999999,0.5334717       4.409069
-35.324999999999996,-0.0,-1.0669431     4.409069
-35.324999999999996,0.9239999999999999,0.5334717        4.409069
-26.7,-0.9239999999999999,-0.0  -5.030367
-26.7,-0.46199999999999997,-0.8002074   -5.030367
-26.7,-0.46199999999999997,0.8002074    -5.030367
-26.7,0.46199999999999997,-0.8002074    -5.030367
-26.7,-0.9239999999999999,0.0   5.039632
-26.7,0.9239999999999999,-0.0   -5.030367
-26.7,0.46199999999999997,0.8002074     -5.030367
-26.7,-0.46199999999999997,-0.8002074   5.039632
-26.7,-0.46199999999999997,0.8002074    5.039632
-26.7,0.46199999999999997,-0.8002074    5.039632
-26.7,0.9239999999999999,0.0    5.039632
-26.7,0.46199999999999997,0.8002074     5.039632
-13.987499999999999,-0.46199999999999997,-0.26673569999999996   -5.660931
-13.987499999999999,0.0,0.5334717       -5.660931
-13.987499999999999,0.46199999999999997,-0.26673569999999996    -5.660931
0.26484375,-1.8479997,0.0       0.004632
0.26484375,-0.9239999999999999,-1.6004148       0.004632
0.26484375,-0.9239999999999999,1.6004148        0.004632
0.26484375,0.9239999999999999,-1.6004148        0.004632
0.26484375,1.8479997,0.0        0.004632
0.26484375,0.9239999999999999,1.6004148 0.004632
20.381249999999998,-1.386,0.8002074     -3.142907
20.381249999999998,-1.386,-0.8002074    -3.142907
20.381249999999998,1.386,-0.8002074     -3.142907
20.381249999999998,1.386,0.8002074      -3.142907
20.381249999999998,-0.0,-1.6004148      -3.142907
20.381249999999998,0.0,1.6004148        -3.142907
25.912499999999998,-1.8479997,-0.5334717        -0.625931
25.912499999999998,-1.386,-1.3336791000000001   -0.625931
25.912499999999998,-0.46199999999999997,1.8671505       -0.625931
25.912499999999998,1.386,-1.3336791000000001    -0.625931
25.912499999999998,1.8479997,-0.5334717 -0.625931
25.912499999999998,0.46199999999999997,1.8671505        -0.625931
0.359179686,-1.8479997,0.0      1.892092
0.359179686,-0.9239999999999999,-1.6004148      1.892092
0.359179686,-0.9239999999999999,1.6004148       1.892092
0.359179686,0.9239999999999999,-1.6004148       1.892092
0.359179686,1.8479997,0.0       1.892092
0.359179686,0.9239999999999999,1.6004148        1.892092
10.153125,-0.9239999999999999,-1.0669431        4.409069
10.153125,0.9239999999999999,-1.0669431 4.409069
10.153125,-1.386,-0.26673569999999996   4.409069
10.153125,1.386,-0.26673569999999996    4.409069
10.153125,-0.46199999999999997,1.3336791000000001       4.409069
10.153125,0.46199999999999997,1.3336791000000001        4.409069
48.721875,-0.9239999999999999,0.5334717 -5.660931
48.721875,-0.0,-1.0669431       -5.660931
48.721875,0.9239999999999999,0.5334717  -5.660931
0.103125,-1.8479997,0.5334717   2.515516
0.103125,-0.46199999999999997,-1.8671505        2.515516
0.103125,-1.386,1.3336791000000001      2.515516
0.103125,0.46199999999999997,-1.8671505 2.515516
0.103125,1.8479997,0.5334717    2.515516
0.103125,1.386,1.3336791000000001       2.515516
-28.256249999999998,-1.8479997,-0.5334717       -2.519484
-28.256249999999998,-1.386,-1.3336791000000001  -2.519484
-28.256249999999998,-0.46199999999999997,1.8671505      -2.519484
-28.256249999999998,1.386,-1.3336791000000001   -2.519484
-28.256249999999998,0.46199999999999997,1.8671505       -2.519484
-28.256249999999998,1.8479997,-0.5334717        -2.519484
-6.62109375,-1.8479997,-0.0     -3.142907
-6.62109375,-0.9239999999999999,-1.6004148      -3.142907
-6.62109375,-0.9239999999999999,1.6004148       -3.142907
-6.62109375,0.9239999999999999,-1.6004148       -3.142907
-6.62109375,0.9239999999999999,1.6004148        -3.142907
-6.62109375,1.8479997,-0.0      -3.142907
181.95,0.0,0.0  6.927092
96.975,-1.8479997,1.0669431     -0.625931
96.975,1.8479997,1.0669431      -0.625931
96.975,-0.0,-2.1338865  -0.625931
-1.6265625,-1.386,0.8002074     -5.030367
-1.6265625,-1.386,-0.8002074    -5.030367
-1.6265625,-1.386,0.8002074     5.039632
-1.6265625,-1.386,-0.8002074    5.039632
-1.6265625,1.386,-0.8002074     -5.030367
-1.6265625,1.386,0.8002074      -5.030367
-1.6265625,1.386,-0.8002074     5.039632
-1.6265625,1.386,0.8002074      5.039632
-1.6265625,-0.0,-1.6004148      -5.030367
-1.6265625,0.0,1.6004148        -5.030367
-1.6265625,-0.0,-1.6004148      5.039632
-1.6265625,0.0,1.6004148        5.039632
27.54375,-0.9239999999999999,-1.0669431 -5.660931
27.54375,0.9239999999999999,-1.0669431  -5.660931
27.54375,-1.386,-0.26673569999999996    -5.660931
27.54375,1.386,-0.26673569999999996     -5.660931
27.54375,-0.46199999999999997,1.3336791000000001        -5.660931
27.54375,0.46199999999999997,1.3336791000000001 -5.660931
90.14999999999999,-1.8479997,-1.0669431 2.515516
90.14999999999999,1.8479997,-1.0669431  2.515516
90.14999999999999,0.0,2.1338865 2.515516
-155.17499999999998,-1.8479997,1.0669431        -2.519484
-155.17499999999998,1.8479997,1.0669431 -2.519484
-155.17499999999998,-0.0,-2.1338865     -2.519484
16.068749999999998,-0.9239999999999999,0.0      6.927092
16.068749999999998,-0.46199999999999997,-0.8002074      6.927092
16.068749999999998,-0.46199999999999997,0.8002074       6.927092
16.068749999999998,0.46199999999999997,-0.8002074       6.927092
16.068749999999998,0.46199999999999997,0.8002074        6.927092
16.068749999999998,0.9239999999999999,0.0       6.927092
-16.575,-0.46199999999999997,0.26673569999999996        7.550516
-16.575,0.0,-0.5334717  7.550516
-16.575,0.46199999999999997,0.26673569999999996 7.550516
4.659375,-0.46199999999999997,-0.26673569999999996      -7.554483
4.659375,0.46199999999999997,-0.26673569999999996       -7.554483
4.659375,-0.0,0.5334717 -7.554483
-37.4625,-2.3099997,0.26673569999999996 -0.625931
-37.4625,-1.386,1.8671505       -0.625931
-37.4625,-0.9239999999999999,-2.1338865 -0.625931
-37.4625,0.9239999999999999,-2.1338865  -0.625931
-37.4625,2.3099997,0.26673569999999996  -0.625931
-37.4625,1.386,1.8671505        -0.625931
-20.23125,-1.8479997,0.5334717  4.409069
-20.23125,-1.386,1.3336791000000001     4.409069
-20.23125,-0.46199999999999997,-1.8671505       4.409069
-20.23125,0.46199999999999997,-1.8671505        4.409069
-20.23125,1.386,1.3336791000000001      4.409069
-20.23125,1.8479997,0.5334717   4.409069
14.746875,-1.8479997,-0.0       -5.030367
14.746875,-0.9239999999999999,-1.6004148        -5.030367
14.746875,-0.9239999999999999,1.6004148 -5.030367
14.746875,-1.8479997,0.0        5.039632
14.746875,-0.9239999999999999,-1.6004148        5.039632
14.746875,0.9239999999999999,-1.6004148 -5.030367
14.746875,0.9239999999999999,1.6004148  -5.030367
14.746875,1.8479997,-0.0        -5.030367
14.746875,-0.9239999999999999,1.6004148 5.039632
14.746875,0.9239999999999999,-1.6004148 5.039632
14.746875,1.8479997,0.0 5.039632
14.746875,0.9239999999999999,1.6004148  5.039632
54.225,-2.3099997,-0.26673569999999996  2.515516
54.225,-1.386,-1.8671505        2.515516
54.225,-0.9239999999999999,2.1338865    2.515516
54.225,1.386,-1.8671505 2.515516
54.225,2.3099997,-0.26673569999999996   2.515516
54.225,0.9239999999999999,2.1338865     2.515516
-7.003125,-2.3099997,-0.8002074 0.004632
-7.003125,-2.3099997,0.8002074  0.004632
-7.003125,-1.8479997,-1.6004148 0.004632
-7.003125,-1.8479997,1.6004148  0.004632
-7.003125,-0.46199999999999997,-2.4006222       0.004632
-7.003125,0.46199999999999997,-2.4006222        0.004632
-7.003125,-0.46199999999999997,2.4006222        0.004632
-7.003125,1.8479997,-1.6004148  0.004632
-7.003125,0.46199999999999997,2.4006222 0.004632
-7.003125,2.3099997,-0.8002074  0.004632
-7.003125,2.3099997,0.8002074   0.004632
-7.003125,1.8479997,1.6004148   0.004632
-42.9375,-2.3099997,0.26673569999999996 -2.519484
-42.9375,-1.386,1.8671505       -2.519484
-42.9375,-0.9239999999999999,-2.1338865 -2.519484
-42.9375,0.9239999999999999,-2.1338865  -2.519484
-42.9375,2.3099997,0.26673569999999996  -2.519484
-42.9375,1.386,1.8671505        -2.519484
909.6,-0.0,-0.0 -8.177907
-34.8,-0.9239999999999999,-0.5334717    7.550516
-34.8,0.0,1.0669431     7.550516
-34.8,0.9239999999999999,-0.5334717     7.550516
-181.04999999999998,-0.9239999999999999,0.5334717       -7.554483
-181.04999999999998,-0.0,-1.0669431     -7.554483
-181.04999999999998,0.9239999999999999,0.5334717        -7.554483
14.671875,-2.3099997,0.8002074  1.892092
14.671875,-2.3099997,-0.8002074 1.892092
14.671875,-1.8479997,-1.6004148 1.892092
14.671875,-1.8479997,1.6004148  1.892092
14.671875,-0.46199999999999997,-2.4006222       1.892092
14.671875,0.46199999999999997,-2.4006222        1.892092
14.671875,-0.46199999999999997,2.4006222        1.892092
14.671875,1.8479997,-1.6004148  1.892092
14.671875,0.46199999999999997,2.4006222 1.892092
14.671875,2.3099997,-0.8002074  1.892092
14.671875,2.3099997,0.8002074   1.892092
14.671875,1.8479997,1.6004148   1.892092
-151.5,-1.8479997,-1.0669431    4.409069
-151.5,1.8479997,-1.0669431     4.409069
-151.5,0.0,2.1338865    4.409069
7.74609375,-1.8479997,0.5334717 -5.660931
7.74609375,-0.46199999999999997,-1.8671505      -5.660931
7.74609375,-1.386,1.3336791000000001    -5.660931
7.74609375,0.46199999999999997,-1.8671505       -5.660931
7.74609375,1.386,1.3336791000000001     -5.660931
7.74609375,1.8479997,0.5334717  -5.660931
-17.45625,-1.8479997,-1.6004148 -3.142907
-17.45625,-2.3099997,0.8002074  -3.142907
-17.45625,-2.3099997,-0.8002074 -3.142907
-17.45625,-1.8479997,1.6004148  -3.142907
-17.45625,-0.46199999999999997,-2.4006222       -3.142907
-17.45625,0.46199999999999997,-2.4006222        -3.142907
-17.45625,-0.46199999999999997,2.4006222        -3.142907
-17.45625,2.3099997,-0.8002074  -3.142907
-17.45625,1.8479997,-1.6004148  -3.142907
-17.45625,0.46199999999999997,2.4006222 -3.142907
-17.45625,2.3099997,0.8002074   -3.142907
-17.45625,1.8479997,1.6004148   -3.142907
19.621875,-1.386,-0.8002074     6.927092
19.621875,-1.386,0.8002074      6.927092
19.621875,1.386,-0.8002074      6.927092
19.621875,1.386,0.8002074       6.927092
19.621875,-0.0,-1.6004148       6.927092
19.621875,0.0,1.6004148 6.927092
-24.974999999999998,-0.9239999999999999,-0.0    -8.177907
-24.974999999999998,-0.46199999999999997,0.8002074      -8.177907
-24.974999999999998,-0.46199999999999997,-0.8002074     -8.177907
-24.974999999999998,0.46199999999999997,-0.8002074      -8.177907
-24.974999999999998,0.9239999999999999,-0.0     -8.177907
-24.974999999999998,0.46199999999999997,0.8002074       -8.177907
-27.271874999999998,-0.9239999999999999,1.0669431       7.550516
-27.271874999999998,0.9239999999999999,1.0669431        7.550516
-27.271874999999998,-1.386,0.26673569999999996  7.550516
-27.271874999999998,1.386,0.26673569999999996   7.550516
-27.271874999999998,-0.46199999999999997,-1.3336791000000001    7.550516
-27.271874999999998,0.46199999999999997,-1.3336791000000001     7.550516
-13.706249999999999,-0.9239999999999999,-1.0669431      -7.554483
-13.706249999999999,0.9239999999999999,-1.0669431       -7.554483
-13.706249999999999,-1.386,-0.26673569999999996 -7.554483
-13.706249999999999,1.386,-0.26673569999999996  -7.554483
-13.706249999999999,-0.46199999999999997,1.3336791000000001     -7.554483
-13.706249999999999,0.46199999999999997,1.3336791000000001      -7.554483
-150.075,0.0,2.6673579  -0.625931
-150.075,-2.3099997,-1.3336791000000001 -0.625931
-150.075,2.3099997,-1.3336791000000001  -0.625931
-80.925,-2.3099997,-0.26673569999999996 4.409069
-80.925,-1.386,-1.8671505       4.409069
-80.925,-0.9239999999999999,2.1338865   4.409069
-80.925,1.386,-1.8671505        4.409069
-80.925,2.3099997,-0.26673569999999996  4.409069
-80.925,0.9239999999999999,2.1338865    4.409069
93.1125,-1.8479997,-1.0669431   -5.660931
93.1125,1.8479997,-1.0669431    -5.660931
93.1125,0.0,2.1338865   -5.660931
176.1,-0.0,-2.6673579   2.515516
176.1,-2.3099997,1.3336791000000001     2.515516
176.1,2.3099997,1.3336791000000001      2.515516
-28.162499999999998,-2.7719997,-0.0     0.004632
-28.162499999999998,1.386,-2.4006222    0.004632
-28.162499999999998,-1.386,2.4006222    0.004632
-28.162499999999998,2.7719997,-0.0      0.004632
-28.162499999999998,-1.386,-2.4006222   0.004632
-28.162499999999998,1.386,2.4006222     0.004632
-115.725,0.0,2.6673579  -2.519484
-115.725,-2.3099997,-1.3336791000000001 -2.519484
-115.725,2.3099997,-1.3336791000000001  -2.519484
68.39999999999999,-1.8479997,0.0        6.927092
68.39999999999999,-0.9239999999999999,-1.6004148        6.927092
68.39999999999999,-0.9239999999999999,1.6004148 6.927092
68.39999999999999,0.9239999999999999,-1.6004148 6.927092
68.39999999999999,1.8479997,0.0 6.927092
68.39999999999999,0.9239999999999999,1.6004148  6.927092
63.5625,-2.7719997,-0.5334717   -0.625931
63.5625,-0.9239999999999999,2.6673579   -0.625931
63.5625,-1.8479997,-2.1338865   -0.625931
63.5625,1.8479997,-2.1338865    -0.625931
63.5625,0.9239999999999999,2.6673579    -0.625931
63.5625,2.7719997,-0.5334717    -0.625931
33.58125,-2.7719997,0.0 1.892092
33.58125,-1.386,-2.4006222      1.892092
33.58125,-1.386,2.4006222       1.892092
33.58125,1.386,-2.4006222       1.892092
33.58125,2.7719997,0.0  1.892092
33.58125,1.386,2.4006222        1.892092
-1.29609375,-2.3099997,0.8002074        -5.030367
-1.29609375,-2.3099997,-0.8002074       -5.030367
-1.29609375,-1.8479997,-1.6004148       -5.030367
-1.29609375,-1.8479997,1.6004148        -5.030367
-1.29609375,-2.3099997,0.8002074        5.039632
-1.29609375,0.46199999999999997,-2.4006222      -5.030367
-1.29609375,-0.46199999999999997,-2.4006222     -5.030367
-1.29609375,-2.3099997,-0.8002074       5.039632
-1.29609375,-1.8479997,-1.6004148       5.039632
-1.29609375,-0.46199999999999997,2.4006222      -5.030367
-1.29609375,0.46199999999999997,-2.4006222      5.039632
-1.29609375,-1.8479997,1.6004148        5.039632
-1.29609375,-0.46199999999999997,-2.4006222     5.039632
-1.29609375,1.8479997,-1.6004148        -5.030367
-1.29609375,0.46199999999999997,2.4006222       -5.030367
-1.29609375,2.3099997,-0.8002074        -5.030367
-1.29609375,2.3099997,0.8002074 -5.030367
-1.29609375,1.8479997,1.6004148 -5.030367
-1.29609375,-0.46199999999999997,2.4006222      5.039632
-1.29609375,1.8479997,-1.6004148        5.039632
-1.29609375,2.3099997,-0.8002074        5.039632
-1.29609375,0.46199999999999997,2.4006222       5.039632
-1.29609375,2.3099997,0.8002074 5.039632
-1.29609375,1.8479997,1.6004148 5.039632
-0.20625,-2.3099997,-0.26673569999999996        -5.660931
-0.20625,-1.386,-1.8671505      -5.660931
-0.20625,-0.9239999999999999,2.1338865  -5.660931
-0.20625,1.386,-1.8671505       -5.660931
-0.20625,0.9239999999999999,2.1338865   -5.660931
-0.20625,2.3099997,-0.26673569999999996 -5.660931
34.8,-0.46199999999999997,0.26673569999999996   9.444068
34.8,0.0,-0.5334717     9.444068
34.8,0.46199999999999997,0.26673569999999996    9.444068
15.393749999999999,-2.7719997,0.5334717 2.515516
15.393749999999999,-0.9239999999999999,-2.6673579       2.515516
15.393749999999999,0.9239999999999999,-2.6673579        2.515516
15.393749999999999,-1.8479997,2.1338865 2.515516
15.393749999999999,2.7719997,0.5334717  2.515516
15.393749999999999,1.8479997,2.1338865  2.515516
47.0625,-2.7719997,-0.5334717   -2.519484
47.0625,-0.9239999999999999,2.6673579   -2.519484
47.0625,-1.8479997,-2.1338865   -2.519484
47.0625,1.8479997,-2.1338865    -2.519484
47.0625,2.7719997,-0.5334717    -2.519484
47.0625,0.9239999999999999,2.6673579    -2.519484
65.8875,-2.7719997,-0.0 -3.142907
65.8875,-1.386,-2.4006222       -3.142907
65.8875,-1.386,2.4006222        -3.142907
65.8875,1.386,-2.4006222        -3.142907
65.8875,2.7719997,-0.0  -3.142907
65.8875,1.386,2.4006222 -3.142907
2.593652343,-1.386,-0.8002074   -8.177907
2.593652343,-1.386,0.8002074    -8.177907
2.593652343,1.386,0.8002074     -8.177907
2.593652343,1.386,-0.8002074    -8.177907
2.593652343,-0.0,-1.6004148     -8.177907
2.593652343,0.0,1.6004148       -8.177907
75.5625,-1.386,-1.3336791000000001      7.550516
75.5625,-1.8479997,-0.5334717   7.550516
75.5625,-0.46199999999999997,1.8671505  7.550516
75.5625,1.386,-1.3336791000000001       7.550516
75.5625,0.46199999999999997,1.8671505   7.550516
75.5625,1.8479997,-0.5334717    7.550516
-104.39999999999999,-1.386,1.3336791000000001   -7.554483
-104.39999999999999,-1.8479997,0.5334717        -7.554483
-104.39999999999999,-0.46199999999999997,-1.8671505     -7.554483
-104.39999999999999,0.46199999999999997,-1.8671505      -7.554483
-104.39999999999999,1.8479997,0.5334717 -7.554483
-104.39999999999999,1.386,1.3336791000000001    -7.554483
21.3796875,-2.3099997,1.8671505 -0.625931
21.3796875,-2.7719997,1.0669431 -0.625931
21.3796875,-0.46199999999999997,-2.9340938999999997     -0.625931
21.3796875,0.46199999999999997,-2.9340938999999997      -0.625931
21.3796875,2.7719997,1.0669431  -0.625931
21.3796875,2.3099997,1.8671505  -0.625931
-145.125,-0.0,-2.6673579        4.409069
-145.125,-2.3099997,1.3336791000000001  4.409069
-145.125,2.3099997,1.3336791000000001   4.409069

End of input

&SCF
Occupied
9
Iterations
   50  100
End of Input

&RASSCF
LumOrb
Symmetry
1
Spin
2
Nactel
1 0 0
CIRoot
9 9 1
inactive
9
ras2
9
End of Input

>>> COPY tungsten_so_cf.JobIph $SLURM_SUBMIT_DIR/tungsten_so_cf.doublet.JobIph

>>> COPY $SLURM_SUBMIT_DIR/tungsten_so_cf.doublet.JobIph ./JOB002

&RASSI
NROFJobIph
1 All
SpinOrbit
End of Input

EOF

-- ----------------------------------

--- Start Module: seward at Tue Mar 25 16:52:46 2025 ---

()()()()()()()()()()()()()()()()()()()()()()()()()()()()()()()()()()()()()()()()()()()()()()()()()()

                                              &SEWARD

                                   only a single process is used
                       available to each process: 4.1 GB of memory, 1 thread?
                                            pid: 1202377
()()()()()()()()()()()()()()()()()()()()()()()()()()()()()()()()()()()()()()()()()()()()()()()()()()

 The speed of LIGHT in this CALCULATION =   137.03599917700001     
               SEWARD will generate:
                  Multipole Moment integrals up to order  2
                  Kinetic Energy integrals
                  Nuclear Attraction integrals (point charge)
                  One-Electron Hamiltonian integrals
                  Velocity integrals
                  Relativistic Douglas-Kroll-Hess integrals:
                    - Parametrization         : EXP
                    - DKH order of Hamiltonian: 2
                    - DKH order of Properties : 0
                         - multipole moment operators
                         - electric potential operators
                         - contact operators
                  External field from   414 point(s) added to the one-electron Hamiltonian
                  Orbital angular momentum around (-0.0000 -0.0000  0.0088 )
                  Velocity quadrupole around (-0.0000 -0.0000  0.0088 )
                  Atomic mean-field integrals
                  Two-Electron Repulsion integrals

                   Integrals are discarded if absolute value <: 0.10E-13
                   Integral cutoff threshold is set to       <: 0.10E-15

++    Symmetry information:
      ---------------------

                    Character Table for C1 

                             E  
                    a        1  x, y, xy, Rz, z, xz, Ry, yz, Rx, I
--


++    Basis set information:
      ----------------------


      Basis set label: W.ANO-RCC.ROOS.24S21P15D11F4G2H.11S10P9D8F4G2H......

      Electronic valence basis set:
      ------------------
      Associated Effective Charge  74.000000 au
      Associated Actual Charge     74.000000 au
      Nuclear Model: Point charge

      Shell  nPrim  nBasis  Cartesian Spherical Contaminant
         s      24      11        X                  
         p      21      10        X                  
         d      15       9                 X         
         f      11       8                 X         
         g       4       4                 X         
         h       2       2                 X         
--


++    Molecular structure info:
      -------------------------

                    ************************************************ 
                    **** Cartesian Coordinates / Bohr, Angstrom **** 
                    ************************************************ 

     Center  Label                x              y              z                     x              y              z
        1      W               -0.000000      -0.000000       0.008754             -0.000000      -0.000000       0.004632
--


++    Operator info:
      --------------


  Net charge from external field:   -39.268449999999902     
--


            Nuclear Potential Energy              0.00000000 au

                    Nuclear-External Field Potential Energy   -2256.73469263 au
                    External Field Potential Energy            5352.12300462 au 


            Total Nuclear Potential Energy          -2256.73469263 au


      Basis set specifications :
      Symmetry species         a  
      Basis functions          200

 Sorry, Molden does not know how to handle
 functions with angular momentum larger than g
Note: The following floating-point exceptions are signalling: IEEE_UNDERFLOW_FLAG IEEE_DENORMAL
--- Stop Module: seward at Tue Mar 25 16:53:09 2025 /rc=_RC_ALL_IS_WELL_ ---
*** files: tungsten_so_cf.GssOrb xmldump
    saved to directory /home4/s4752295/Internship/Initial_simulations/Point_charge_model/1_electron/Madelung_charges_9_active_space/W
--- Module seward spent 22 seconds ---

*** symbolic link created: INPORB -> tungsten_so_cf.GssOrb
--- Start Module: scf at Tue Mar 25 16:53:09 2025 ---

()()()()()()()()()()()()()()()()()()()()()()()()()()()()()()()()()()()()()()()()()()()()()()()()()()

                                                &SCF

                                   only a single process is used
                       available to each process: 4.1 GB of memory, 1 thread?
                                            pid: 1202385
()()()()()()()()()()()()()()()()()()()()()()()()()()()()()()()()()()()()()()()()()()()()()()()()()()

++    Input section:
      --------------

      Header of the integral files:
      
       Integrals generated by seward 4.2.0  , Tue Mar 25 16:52:49 2025


      Cartesian coordinates in Angstrom:
      -----------------------------------------------------
      No.  Label        X            Y            Z        
      -----------------------------------------------------
       1   W         -0.00000000  -0.00000000   0.00463220
      -----------------------------------------------------
      Nuclear repulsion energy =-2256.73469263
--

++    Orbital specifications:
      -----------------------

      Symmetry species               1
                                     a
      Frozen orbitals                0
      Occupied orbitals              9
      Secondary orbitals           191
      Deleted orbitals               0
      Total number of orbitals     200
      Number of basis functions    200
--

      Molecular charge                          56.000

++    Optimization specifications:
      ----------------------------

      SCF Algorithm: Conventional
      Minimized density differences are used
      Number of density matrices in core                5
      Maximum number of NDDO SCF iterations            50
      Maximum number of HF SCF iterations             100
      Threshold for SCF energy change            0.10E-08
      Threshold for density matrix               0.10E-03
      Threshold for Fock matrix                  0.15E-03
      Threshold for linear dependence            0.10E-08
      Threshold at which DIIS is turned on       0.15E+00
      Threshold at which QNR/C2DIIS is turned on 0.75E-01
      Threshold for Norm(delta) (QNR/C2DIIS)     0.20E-04
      DIIS extrapolation of the SCF procedure
      All orbitals punched on: SCFORB
--

      Detected guessorb starting orbitals                                             


++ Convergence information
                                   SCF        iterations: Energy and convergence statistics

Iter     Tot. SCF        One-elec.       Two-elec.     Energy      Max Dij or  Max Fij      DNorm      TNorm      AccCon     Time
         Energy          Energy          Energy        Change      Delta Norm                                                in Sec.

 The total and one-electron energies are shifted by a value of     14000. a.u.

   1  -621.801578410   366.086147617  1268.846966605   0.00E+00    0.21E+00*   0.91E+01*    0.60E+01   0.65E+03   None         1.
   2  -633.120729698   309.700859731  1313.913103204  -0.11E+02*   0.62E-02*   0.20E+00*    0.95E+00   0.66E+03   EDIIS        1.
   3  -633.125706410   310.263396110  1313.345590112  -0.50E-02*   0.71E-03*   0.12E-01*    0.21E-01   0.66E+03   EDIIS        1.
   4  -633.125720589   310.250478827  1313.358493217  -0.14E-04*   0.25E-04    0.11E-02*    0.92E-03   0.66E+03   c2DIIS       1.
   5  -633.125720692   310.250754832  1313.358217109  -0.10E-06*   0.39E-05    0.64E-04     0.59E-04   0.66E+03   QNRc2DIIS    1.
   6  -633.125720692   310.250760171  1313.358211770  -0.77E-09    0.13E-05    0.15E-04     0.66E-05   0.66E+03   QNRc2DIIS    1.

       Convergence after  6 Macro Iterations
--

 *****************************************************************************************************************************
 *                                                                                                                           *
 *                                             SCF/KS-DFT Program, Final results                                             *
 *                                                                                                                           *
 *                                                                                                                           *
 *                                                                                                                           *
 *                                                       Final Results                                                       *
 *                                                                                                                           *
 *****************************************************************************************************************************

::    Total SCF energy                             -14633.1257206924
      One-electron energy                          -13689.7492398295
      Two-electron energy                            1313.3582117698
      Nuclear repulsion energy                      -2256.7346926328
      Kinetic energy (interpolated)                 19279.3701079439
      Virial theorem                                    0.7590043471
      Total spin, S(S+1)                                0.0000000000
      Total spin, S                                     0.0000000000
      Max non-diagonal density matrix element           0.0000020089
      Max non-diagonal Fock matrix element              0.0000049962


      All orbitals with orbital energies smaller than  E(LUMO)+0.5 are printed

++    Molecular orbitals:
      -------------------

      Title: SCF orbitals

      Molecular orbitals for symmetry species 1: a  

          Some orbital energies have been scaled by powers of 10, the power is written right after the orbital index


          Orbital            1 (1)     2         3         4         5         6         7         8         9        10    
          Energy         -268.4550 -563.8101 -509.8640 -509.8640 -509.8514 -200.9374 -184.2608 -184.2607 -184.1177 -164.2641
          Occ. No.          2.0000    2.0000    2.0000    2.0000    2.0000    2.0000    2.0000    2.0000    2.0000    0.0000

        1 W      1s         1.0000    0.0001    0.0000    0.0000   -0.0000   -0.0000   -0.0000    0.0000    0.0000   -0.0000
        2 W      2s        -0.0001    0.9999    0.0000    0.0000   -0.0045    0.0122    0.0000   -0.0000   -0.0012   -0.0000
        3 W      3s         0.0000   -0.0118   -0.0000   -0.0000    0.0005    0.9934    0.0002   -0.0000   -0.0589   -0.0000
        4 W      4s        -0.0000    0.0034    0.0000    0.0000   -0.0001   -0.0796   -0.0000    0.0000    0.0082    0.0000
        5 W      5s         0.0000   -0.0012   -0.0000   -0.0000    0.0000    0.0233    0.0000   -0.0000   -0.0025   -0.0000
        6 W      6s        -0.0000    0.0003    0.0000    0.0000   -0.0000   -0.0062   -0.0000   -0.0000    0.0007    0.0000
        7 W      7s         0.0000   -0.0004   -0.0000   -0.0000    0.0000    0.0069    0.0000   -0.0000   -0.0007    0.0000
        8 W      8s        -0.0000    0.0010    0.0000    0.0000   -0.0000   -0.0175   -0.0000    0.0000    0.0019   -0.0000
        9 W      9s         0.0000   -0.0013   -0.0000   -0.0000    0.0000    0.0223    0.0000   -0.0000   -0.0024   -0.0000
       10 W     10s        -0.0000    0.0016    0.0000    0.0000   -0.0001   -0.0250   -0.0000   -0.0000    0.0027    0.0000
       11 W     11s         0.0000   -0.0024   -0.0000   -0.0000    0.0001    0.0311    0.0000   -0.0000   -0.0032   -0.0000
       12 W      2px        0.0000    0.0045   -0.0089   -0.0000    0.9998    0.0004   -0.0001    0.0000    0.0142    0.0000
       13 W      3px       -0.0000    0.0004    0.0001    0.0000   -0.0137    0.0597   -0.0071    0.0000    0.9901    0.0000
       14 W      4px        0.0000   -0.0001   -0.0000   -0.0000    0.0038   -0.0030    0.0007   -0.0000   -0.0913   -0.0000
       15 W      5px       -0.0000    0.0000    0.0000    0.0000   -0.0012    0.0007   -0.0002    0.0000    0.0253    0.0000
       16 W      6px        0.0000   -0.0000   -0.0000   -0.0000    0.0005   -0.0003    0.0001   -0.0000   -0.0102   -0.0000
       17 W      7px       -0.0000    0.0000    0.0000    0.0000   -0.0016    0.0008   -0.0002    0.0000    0.0303    0.0000
       18 W      8px        0.0000   -0.0000   -0.0000   -0.0000    0.0017   -0.0008    0.0002   -0.0000   -0.0301   -0.0000
       19 W      9px       -0.0000    0.0000    0.0000    0.0000   -0.0019    0.0008   -0.0002    0.0000    0.0310    0.0000
       20 W     10px        0.0000   -0.0001   -0.0000   -0.0000    0.0020   -0.0007    0.0002   -0.0000   -0.0284   -0.0000
       21 W     11px       -0.0000    0.0001    0.0000    0.0000   -0.0027    0.0004   -0.0002    0.0000    0.0288    0.0000
       22 W      2py        0.0000    0.0000   -0.0000    0.9999   -0.0000   -0.0000    0.0000    0.0142    0.0000    0.0000
       23 W      3py       -0.0000   -0.0000    0.0000   -0.0137    0.0000   -0.0000    0.0000    0.9924    0.0000    0.0006
       24 W      4py        0.0000    0.0000   -0.0000    0.0038   -0.0000    0.0000   -0.0000   -0.0909   -0.0000   -0.0001
       25 W      5py       -0.0000   -0.0000    0.0000   -0.0012    0.0000   -0.0000    0.0000    0.0252    0.0000    0.0000
       26 W      6py        0.0000    0.0000   -0.0000    0.0005   -0.0000    0.0000   -0.0000   -0.0102   -0.0000   -0.0000
       27 W      7py       -0.0000   -0.0000    0.0000   -0.0016    0.0000   -0.0000    0.0000    0.0301    0.0000    0.0000
       28 W      8py        0.0000    0.0000   -0.0000    0.0017   -0.0000    0.0000   -0.0000   -0.0300   -0.0000   -0.0000
       29 W      9py       -0.0000   -0.0000    0.0000   -0.0019    0.0000   -0.0000    0.0000    0.0309    0.0000    0.0000
       30 W     10py        0.0000    0.0000   -0.0000    0.0020   -0.0000    0.0000   -0.0000   -0.0282   -0.0000   -0.0000
       31 W     11py       -0.0000   -0.0000    0.0000   -0.0027    0.0000   -0.0000    0.0000    0.0286    0.0000    0.0000
       32 W      2pz        0.0000    0.0000    0.9998    0.0000    0.0089    0.0000    0.0142   -0.0000    0.0001    0.0000
       33 W      3pz       -0.0000    0.0000   -0.0137   -0.0000   -0.0001    0.0002    0.9923   -0.0000    0.0071    0.0000
       34 W      4pz        0.0000   -0.0000    0.0038    0.0000    0.0000   -0.0000   -0.0909    0.0000   -0.0007   -0.0000
       35 W      5pz       -0.0000    0.0000   -0.0012   -0.0000   -0.0000    0.0000    0.0252   -0.0000    0.0002    0.0000
       36 W      6pz        0.0000   -0.0000    0.0005    0.0000    0.0000   -0.0000   -0.0102    0.0000   -0.0001   -0.0000
       37 W      7pz       -0.0000    0.0000   -0.0016   -0.0000   -0.0000    0.0000    0.0301   -0.0000    0.0002    0.0000
       38 W      8pz        0.0000   -0.0000    0.0017    0.0000    0.0000   -0.0000   -0.0300    0.0000   -0.0002   -0.0000
       39 W      9pz       -0.0000    0.0000   -0.0019   -0.0000   -0.0000    0.0000    0.0309   -0.0000    0.0002    0.0000
       40 W     10pz        0.0000   -0.0000    0.0020    0.0000    0.0000   -0.0000   -0.0282    0.0000   -0.0002   -0.0000
       41 W     11pz       -0.0000    0.0000   -0.0027   -0.0000   -0.0000    0.0000    0.0286   -0.0000    0.0002    0.0000
       42 W      3d2-      -0.0000   -0.0000   -0.0000    0.0005   -0.0000   -0.0000    0.0000    0.0402    0.0000   -0.0187
       43 W      4d2-       0.0000    0.0000    0.0000   -0.0001    0.0000    0.0000   -0.0000   -0.0012   -0.0000    0.0018
       44 W      5d2-      -0.0000   -0.0000   -0.0000    0.0000   -0.0000   -0.0000    0.0000    0.0002    0.0000   -0.0003
       45 W      6d2-       0.0000    0.0000    0.0000   -0.0000    0.0000    0.0000   -0.0000   -0.0002   -0.0000    0.0005
       46 W      7d2-      -0.0000   -0.0000   -0.0000    0.0000   -0.0000   -0.0000    0.0000    0.0002    0.0000   -0.0006
       47 W      8d2-       0.0000    0.0000    0.0000   -0.0001    0.0000    0.0000   -0.0000   -0.0002   -0.0000    0.0007
       48 W      9d2-      -0.0000   -0.0000   -0.0000    0.0001   -0.0000   -0.0000    0.0000    0.0001   -0.0000   -0.0007
       49 W     10d2-       0.0000    0.0000    0.0000   -0.0001    0.0000    0.0000   -0.0000   -0.0000    0.0000    0.0007
       50 W     11d2-      -0.0000   -0.0000   -0.0000    0.0001   -0.0000   -0.0000   -0.0000   -0.0002   -0.0000   -0.0006
       51 W      3d1-       0.0000   -0.0000   -0.0000    0.0000   -0.0000   -0.0000    0.0000    0.0001    0.0000    0.9916
       52 W      4d1-      -0.0000    0.0000    0.0000   -0.0000    0.0000    0.0000   -0.0000   -0.0000   -0.0000   -0.0956
       53 W      5d1-       0.0000   -0.0000   -0.0000    0.0000   -0.0000   -0.0000   -0.0000   -0.0000   -0.0000    0.0186
       54 W      6d1-      -0.0000    0.0000    0.0000   -0.0000    0.0000   -0.0000   -0.0000   -0.0000   -0.0000   -0.0253
       55 W      7d1-       0.0000   -0.0000    0.0000   -0.0000   -0.0000    0.0000    0.0000    0.0000    0.0000    0.0327
       56 W      8d1-      -0.0000    0.0000   -0.0000    0.0000    0.0000    0.0000   -0.0000   -0.0000   -0.0000   -0.0371
       57 W      9d1-       0.0000    0.0000   -0.0000    0.0000   -0.0000    0.0000   -0.0000   -0.0000    0.0000    0.0369
       58 W     10d1-      -0.0000   -0.0000    0.0000   -0.0000    0.0000   -0.0000    0.0000    0.0000   -0.0000   -0.0396
       59 W     11d1-       0.0000    0.0000   -0.0000    0.0000   -0.0000    0.0000    0.0000    0.0000    0.0000    0.0298
       60 W      3d0        0.0000    0.0000    0.0000    0.0000   -0.0003    0.0002    0.0003   -0.0000   -0.0241   -0.0000
       61 W      4d0       -0.0000   -0.0000   -0.0000   -0.0000    0.0001    0.0000   -0.0000    0.0000    0.0007    0.0000
       62 W      5d0        0.0000    0.0000    0.0000    0.0000   -0.0000    0.0000    0.0000   -0.0000   -0.0001   -0.0000
       63 W      6d0       -0.0000   -0.0000   -0.0000   -0.0000    0.0000    0.0000   -0.0000    0.0000    0.0001    0.0000
       64 W      7d0        0.0000    0.0000    0.0000    0.0000   -0.0000   -0.0000   -0.0000    0.0000   -0.0001   -0.0000
       65 W      8d0       -0.0000   -0.0000   -0.0000   -0.0000    0.0000    0.0000    0.0000   -0.0000    0.0001    0.0000
       66 W      9d0        0.0000    0.0000    0.0000    0.0000   -0.0000   -0.0000    0.0000   -0.0000   -0.0001   -0.0000
       67 W     10d0       -0.0000   -0.0000   -0.0000   -0.0000    0.0000    0.0000   -0.0000    0.0000    0.0000    0.0000
       68 W     11d0        0.0000    0.0000    0.0000    0.0000   -0.0001   -0.0000   -0.0000    0.0000    0.0001   -0.0000
       69 W      3d1+      -0.0000   -0.0000    0.0005    0.0000    0.0000   -0.0000    0.0402   -0.0000    0.0004   -0.0000
       70 W      4d1+       0.0000    0.0000   -0.0001   -0.0000   -0.0000   -0.0000   -0.0012    0.0000   -0.0000    0.0000
       71 W      5d1+      -0.0000   -0.0000    0.0000    0.0000    0.0000    0.0000    0.0002   -0.0000    0.0000   -0.0000
       72 W      6d1+       0.0000    0.0000   -0.0000   -0.0000   -0.0000   -0.0000   -0.0002    0.0000   -0.0000    0.0000
       73 W      7d1+      -0.0000   -0.0000    0.0000    0.0000    0.0000    0.0000    0.0002   -0.0000    0.0000   -0.0000
       74 W      8d1+       0.0000    0.0000   -0.0001   -0.0000   -0.0000   -0.0000   -0.0002    0.0000   -0.0000    0.0000
       75 W      9d1+      -0.0000   -0.0000    0.0001    0.0000    0.0000    0.0000    0.0001   -0.0000    0.0000   -0.0000
       76 W     10d1+       0.0000    0.0000   -0.0001   -0.0000   -0.0000   -0.0000   -0.0000    0.0000   -0.0000    0.0000
       77 W     11d1+      -0.0000   -0.0000    0.0001    0.0000    0.0000    0.0000   -0.0002    0.0000   -0.0000   -0.0000
       78 W      3d2+      -0.0000   -0.0000   -0.0000   -0.0000    0.0005   -0.0004   -0.0003    0.0000    0.0417   -0.0000
       79 W      4d2+       0.0000    0.0000    0.0000    0.0000   -0.0001   -0.0001    0.0000   -0.0000   -0.0012    0.0000
       80 W      5d2+      -0.0000   -0.0000   -0.0000   -0.0000    0.0000   -0.0000   -0.0000    0.0000    0.0002   -0.0000
       81 W      6d2+       0.0000    0.0000    0.0000    0.0000   -0.0000   -0.0000    0.0000   -0.0000   -0.0002    0.0000
       82 W      7d2+      -0.0000   -0.0000   -0.0000   -0.0000    0.0000    0.0000   -0.0000    0.0000    0.0002   -0.0000
       83 W      8d2+       0.0000    0.0000    0.0000    0.0000   -0.0001   -0.0000    0.0000   -0.0000   -0.0002    0.0000
       84 W      9d2+      -0.0000   -0.0000   -0.0000   -0.0000    0.0001    0.0000   -0.0000    0.0000    0.0001   -0.0000
       85 W     10d2+       0.0000    0.0000    0.0000    0.0000   -0.0001   -0.0000   -0.0000    0.0000   -0.0000    0.0000
       86 W     11d2+      -0.0000   -0.0000   -0.0000   -0.0000    0.0001    0.0000    0.0000    0.0000   -0.0001   -0.0000
       87 W      4f3-       0.0000   -0.0000    0.0000   -0.0000    0.0000    0.0000   -0.0000   -0.0001   -0.0000   -0.0001
       88 W      5f3-      -0.0000    0.0000   -0.0000    0.0000   -0.0000   -0.0000    0.0000    0.0001    0.0000    0.0001
       89 W      6f3-       0.0000   -0.0000    0.0000   -0.0000    0.0000    0.0000   -0.0000   -0.0001   -0.0000   -0.0001
       90 W      7f3-      -0.0000   -0.0000   -0.0000    0.0000   -0.0000   -0.0000    0.0000    0.0001    0.0000    0.0001
       91 W      8f3-       0.0000    0.0000    0.0000   -0.0000    0.0000    0.0000   -0.0000   -0.0001   -0.0000   -0.0000
       92 W      9f3-      -0.0000   -0.0000   -0.0000    0.0000   -0.0000   -0.0000    0.0000    0.0000    0.0000    0.0000
       93 W     10f3-       0.0000    0.0000    0.0000   -0.0000    0.0000    0.0000   -0.0000   -0.0000    0.0000   -0.0000
       94 W     11f3-      -0.0000   -0.0000   -0.0000    0.0000   -0.0000   -0.0000    0.0000    0.0000   -0.0000    0.0000
       95 W      4f2-       0.0000    0.0000    0.0000   -0.0000    0.0000    0.0000   -0.0000   -0.0000   -0.0000    0.0035
       96 W      5f2-      -0.0000   -0.0000   -0.0000    0.0000   -0.0000   -0.0000    0.0000    0.0000    0.0000   -0.0025
       97 W      6f2-       0.0000    0.0000    0.0000   -0.0000    0.0000    0.0000   -0.0000   -0.0000   -0.0000    0.0024
       98 W      7f2-      -0.0000   -0.0000   -0.0000    0.0000   -0.0000    0.0000    0.0000    0.0000    0.0000   -0.0021
       99 W      8f2-       0.0000    0.0000    0.0000   -0.0000    0.0000   -0.0000   -0.0000   -0.0000   -0.0000    0.0019
      100 W      9f2-      -0.0000   -0.0000   -0.0000    0.0000   -0.0000    0.0000   -0.0000   -0.0000   -0.0000   -0.0014
      101 W     10f2-       0.0000    0.0000    0.0000   -0.0000   -0.0000   -0.0000    0.0000    0.0000    0.0000    0.0011
      102 W     11f2-      -0.0000   -0.0000   -0.0000    0.0000    0.0000    0.0000   -0.0000   -0.0000   -0.0000   -0.0007
      103 W      4f1-       0.0000    0.0000   -0.0000    0.0000   -0.0000    0.0000    0.0000    0.0000    0.0000    0.0000
      104 W      5f1-      -0.0000   -0.0000    0.0000   -0.0000    0.0000   -0.0000   -0.0000   -0.0000   -0.0000   -0.0000
      105 W      6f1-       0.0000    0.0000   -0.0000    0.0000   -0.0000    0.0000    0.0000    0.0000    0.0000    0.0000
      106 W      7f1-      -0.0000   -0.0000    0.0000   -0.0000    0.0000   -0.0000   -0.0000   -0.0000   -0.0000   -0.0000
      107 W      8f1-       0.0000    0.0000   -0.0000    0.0000   -0.0000    0.0000    0.0000    0.0000    0.0000    0.0000
      108 W      9f1-      -0.0000    0.0000    0.0000   -0.0000    0.0000   -0.0000   -0.0000   -0.0000   -0.0000   -0.0000
      109 W     10f1-      -0.0000   -0.0000   -0.0000    0.0000   -0.0000   -0.0000    0.0000    0.0000    0.0000    0.0000
      110 W     11f1-       0.0000    0.0000    0.0000   -0.0000    0.0000    0.0000   -0.0000   -0.0000    0.0000   -0.0000
      111 W      4f0       -0.0000    0.0000    0.0000    0.0000    0.0000   -0.0000    0.0001   -0.0000    0.0000    0.0000
      112 W      5f0       -0.0000    0.0000   -0.0000   -0.0000   -0.0000   -0.0000   -0.0001    0.0000   -0.0000   -0.0000
      113 W      6f0        0.0000   -0.0000    0.0000    0.0000    0.0000    0.0000    0.0001   -0.0000    0.0000    0.0000
      114 W      7f0        0.0000   -0.0000   -0.0000   -0.0000   -0.0000    0.0000   -0.0000    0.0000   -0.0000    0.0000
      115 W      8f0       -0.0000    0.0000    0.0000    0.0000    0.0000   -0.0000    0.0000   -0.0000    0.0000   -0.0000
      116 W      9f0       -0.0000    0.0000   -0.0000   -0.0000   -0.0000   -0.0000   -0.0000    0.0000    0.0000    0.0000
      117 W     10f0        0.0000   -0.0000    0.0000    0.0000    0.0000    0.0000    0.0000   -0.0000   -0.0000   -0.0000
      118 W     11f0        0.0000   -0.0000   -0.0000   -0.0000   -0.0000    0.0000   -0.0000    0.0000   -0.0000    0.0000
      119 W      4f1+       0.0000   -0.0000   -0.0000   -0.0000    0.0000   -0.0001    0.0000   -0.0000    0.0001   -0.0000
      120 W      5f1+      -0.0000    0.0000    0.0000    0.0000   -0.0000    0.0000   -0.0000    0.0000   -0.0001    0.0000
      121 W      6f1+       0.0000   -0.0000   -0.0000   -0.0000    0.0000   -0.0000    0.0000   -0.0000    0.0001   -0.0000
      122 W      7f1+      -0.0000    0.0000    0.0000    0.0000   -0.0000    0.0000   -0.0000    0.0000   -0.0001    0.0000
      123 W      8f1+       0.0000   -0.0000   -0.0000   -0.0000    0.0000   -0.0000   -0.0000    0.0000    0.0000   -0.0000
      124 W      9f1+      -0.0000    0.0000    0.0000    0.0000   -0.0000    0.0000    0.0000   -0.0000   -0.0000    0.0000
      125 W     10f1+       0.0000   -0.0000   -0.0000   -0.0000    0.0000   -0.0000   -0.0000    0.0000    0.0000   -0.0000
      126 W     11f1+      -0.0000    0.0000    0.0000    0.0000   -0.0000   -0.0000    0.0000   -0.0000    0.0000    0.0000
      127 W      4f2+      -0.0000    0.0000   -0.0000   -0.0000   -0.0000    0.0000   -0.0001    0.0000    0.0000   -0.0000
      128 W      5f2+       0.0000   -0.0000    0.0000    0.0000    0.0000   -0.0000    0.0001   -0.0000   -0.0000    0.0000
      129 W      6f2+       0.0000   -0.0000   -0.0000   -0.0000   -0.0000    0.0000   -0.0001    0.0000    0.0000   -0.0000
      130 W      7f2+       0.0000   -0.0000    0.0000    0.0000    0.0000    0.0000    0.0001   -0.0000   -0.0000    0.0000
      131 W      8f2+      -0.0000    0.0000   -0.0000   -0.0000   -0.0000   -0.0000   -0.0001    0.0000   -0.0000   -0.0000
      132 W      9f2+      -0.0000    0.0000    0.0000    0.0000    0.0000   -0.0000    0.0000   -0.0000    0.0000    0.0000
      133 W     10f2+       0.0000   -0.0000   -0.0000   -0.0000   -0.0000    0.0000   -0.0000    0.0000   -0.0000   -0.0000
      134 W     11f2+       0.0000   -0.0000    0.0000    0.0000    0.0000    0.0000    0.0000   -0.0000    0.0000    0.0000
      135 W      4f3+      -0.0000    0.0000    0.0000    0.0000   -0.0000    0.0001    0.0000   -0.0000   -0.0002   -0.0000
      136 W      5f3+       0.0000   -0.0000   -0.0000   -0.0000    0.0000   -0.0001   -0.0000    0.0000    0.0001    0.0000
      137 W      6f3+      -0.0000    0.0000    0.0000    0.0000   -0.0000    0.0000    0.0000   -0.0000   -0.0001   -0.0000
      138 W      7f3+       0.0000   -0.0000   -0.0000   -0.0000    0.0000   -0.0000   -0.0000    0.0000    0.0001    0.0000
      139 W      8f3+      -0.0000    0.0000    0.0000    0.0000   -0.0000    0.0000    0.0000   -0.0000   -0.0001   -0.0000
      140 W      9f3+       0.0000   -0.0000   -0.0000   -0.0000    0.0000   -0.0000    0.0000   -0.0000    0.0000    0.0000
      141 W     10f3+      -0.0000    0.0000    0.0000    0.0000   -0.0000    0.0000   -0.0000    0.0000   -0.0000   -0.0000
      142 W     11f3+       0.0000   -0.0000   -0.0000   -0.0000    0.0000    0.0000    0.0000   -0.0000   -0.0000    0.0000
      143 W      5g4-      -0.0000    0.0000   -0.0000    0.0000   -0.0000   -0.0000    0.0000    0.0000    0.0000    0.0000
      144 W      6g4-       0.0000   -0.0000    0.0000   -0.0000    0.0000    0.0000   -0.0000   -0.0000   -0.0000   -0.0000
      145 W      7g4-      -0.0000    0.0000   -0.0000    0.0000    0.0000   -0.0000    0.0000    0.0000    0.0000    0.0000
      146 W      8g4-       0.0000    0.0000   -0.0000    0.0000   -0.0000    0.0000   -0.0000   -0.0000   -0.0000   -0.0000
      147 W      5g3-       0.0000    0.0000    0.0000   -0.0000    0.0000   -0.0000   -0.0000   -0.0000   -0.0000   -0.0000
      148 W      6g3-      -0.0000   -0.0000    0.0000   -0.0000   -0.0000   -0.0000    0.0000    0.0000    0.0000    0.0000
      149 W      7g3-       0.0000    0.0000    0.0000   -0.0000    0.0000    0.0000   -0.0000   -0.0000   -0.0000   -0.0000
      150 W      8g3-      -0.0000   -0.0000   -0.0000    0.0000   -0.0000    0.0000   -0.0000   -0.0000   -0.0000    0.0000
      151 W      5g2-       0.0000   -0.0000    0.0000   -0.0000    0.0000    0.0000   -0.0000   -0.0000   -0.0000   -0.0000
      152 W      6g2-      -0.0000    0.0000   -0.0000    0.0000   -0.0000    0.0000    0.0000    0.0000    0.0000    0.0000
      153 W      7g2-       0.0000   -0.0000    0.0000   -0.0000    0.0000   -0.0000   -0.0000   -0.0000   -0.0000   -0.0000
      154 W      8g2-      -0.0000    0.0000    0.0000   -0.0000    0.0000   -0.0000    0.0000    0.0000    0.0000    0.0000
      155 W      5g1-       0.0000   -0.0000    0.0000   -0.0000    0.0000   -0.0000    0.0000    0.0000   -0.0000    0.0000
      156 W      6g1-      -0.0000    0.0000    0.0000   -0.0000   -0.0000   -0.0000    0.0000    0.0000    0.0000   -0.0000
      157 W      7g1-       0.0000   -0.0000    0.0000   -0.0000    0.0000   -0.0000    0.0000    0.0000   -0.0000    0.0000
      158 W      8g1-      -0.0000    0.0000   -0.0000    0.0000   -0.0000    0.0000   -0.0000   -0.0000   -0.0000   -0.0000
      159 W      5g0        0.0000   -0.0000   -0.0000   -0.0000    0.0000    0.0000   -0.0000    0.0000    0.0000   -0.0000
      160 W      6g0        0.0000   -0.0000   -0.0000   -0.0000    0.0000    0.0000    0.0000   -0.0000   -0.0000    0.0000
      161 W      7g0       -0.0000    0.0000   -0.0000   -0.0000   -0.0000   -0.0000   -0.0000    0.0000    0.0000   -0.0000
      162 W      8g0       -0.0000    0.0000    0.0000    0.0000    0.0000    0.0000   -0.0000    0.0000   -0.0000    0.0000
      163 W      5g1+      -0.0000    0.0000   -0.0000   -0.0000    0.0000    0.0000   -0.0000    0.0000    0.0000   -0.0000
      164 W      6g1+      -0.0000    0.0000    0.0000    0.0000   -0.0000   -0.0000    0.0000   -0.0000   -0.0000    0.0000
      165 W      7g1+       0.0000   -0.0000   -0.0000   -0.0000   -0.0000    0.0000   -0.0000    0.0000    0.0000   -0.0000
      166 W      8g1+      -0.0000    0.0000   -0.0000   -0.0000    0.0000   -0.0000    0.0000   -0.0000   -0.0000    0.0000
      167 W      5g2+      -0.0000    0.0000    0.0000    0.0000   -0.0000   -0.0000    0.0000   -0.0000   -0.0000    0.0000
      168 W      6g2+      -0.0000    0.0000   -0.0000   -0.0000   -0.0000   -0.0000   -0.0000    0.0000    0.0000   -0.0000
      169 W      7g2+       0.0000   -0.0000   -0.0000   -0.0000    0.0000    0.0000    0.0000   -0.0000   -0.0000    0.0000
      170 W      8g2+       0.0000   -0.0000    0.0000    0.0000   -0.0000   -0.0000   -0.0000    0.0000    0.0000   -0.0000
      171 W      5g3+      -0.0000    0.0000    0.0000    0.0000    0.0000    0.0000    0.0000   -0.0000    0.0000    0.0000
      172 W      6g3+      -0.0000    0.0000   -0.0000   -0.0000   -0.0000   -0.0000   -0.0000    0.0000   -0.0000   -0.0000
      173 W      7g3+       0.0000   -0.0000    0.0000    0.0000   -0.0000    0.0000    0.0000   -0.0000    0.0000    0.0000
      174 W      8g3+      -0.0000    0.0000    0.0000    0.0000    0.0000   -0.0000   -0.0000    0.0000   -0.0000   -0.0000
      175 W      5g4+       0.0000   -0.0000    0.0000    0.0000    0.0000    0.0000    0.0000   -0.0000    0.0000    0.0000
      176 W      6g4+       0.0000   -0.0000   -0.0000   -0.0000    0.0000    0.0000   -0.0000    0.0000   -0.0000   -0.0000
      177 W      7g4+      -0.0000    0.0000    0.0000    0.0000   -0.0000   -0.0000    0.0000   -0.0000    0.0000    0.0000
      178 W      8g4+      -0.0000    0.0000   -0.0000   -0.0000    0.0000    0.0000   -0.0000    0.0000   -0.0000   -0.0000
      179 W      6h5-      -0.0000   -0.0000   -0.0000    0.0000   -0.0000    0.0000   -0.0000   -0.0000    0.0000   -0.0000
      180 W      7h5-       0.0000    0.0000   -0.0000    0.0000   -0.0000    0.0000   -0.0000   -0.0000   -0.0000   -0.0000
      181 W      6h4-      -0.0000   -0.0000    0.0000   -0.0000    0.0000   -0.0000    0.0000    0.0000    0.0000    0.0000
      182 W      7h4-      -0.0000   -0.0000    0.0000   -0.0000    0.0000   -0.0000    0.0000    0.0000    0.0000   -0.0000
      183 W      6h3-       0.0000    0.0000   -0.0000    0.0000    0.0000    0.0000   -0.0000   -0.0000    0.0000    0.0000
      184 W      7h3-      -0.0000   -0.0000    0.0000   -0.0000   -0.0000   -0.0000    0.0000    0.0000    0.0000    0.0000
      185 W      6h2-       0.0000    0.0000   -0.0000    0.0000   -0.0000    0.0000    0.0000    0.0000    0.0000   -0.0000
      186 W      7h2-      -0.0000   -0.0000    0.0000   -0.0000    0.0000   -0.0000   -0.0000   -0.0000   -0.0000   -0.0000
      187 W      6h1-       0.0000   -0.0000   -0.0000    0.0000   -0.0000    0.0000   -0.0000   -0.0000    0.0000    0.0000
      188 W      7h1-      -0.0000    0.0000   -0.0000    0.0000   -0.0000   -0.0000   -0.0000   -0.0000   -0.0000    0.0000
      189 W      6h0        0.0000   -0.0000   -0.0000   -0.0000   -0.0000    0.0000    0.0000   -0.0000   -0.0000   -0.0000
      190 W      7h0       -0.0000    0.0000    0.0000    0.0000    0.0000   -0.0000   -0.0000    0.0000    0.0000   -0.0000
      191 W      6h1+      -0.0000    0.0000    0.0000    0.0000   -0.0000   -0.0000    0.0000   -0.0000    0.0000    0.0000
      192 W      7h1+      -0.0000    0.0000   -0.0000   -0.0000    0.0000   -0.0000    0.0000   -0.0000   -0.0000   -0.0000
      193 W      6h2+      -0.0000    0.0000   -0.0000   -0.0000    0.0000   -0.0000    0.0000   -0.0000    0.0000   -0.0000
      194 W      7h2+       0.0000   -0.0000   -0.0000   -0.0000   -0.0000    0.0000    0.0000   -0.0000   -0.0000   -0.0000
      195 W      6h3+       0.0000   -0.0000    0.0000    0.0000    0.0000    0.0000    0.0000   -0.0000   -0.0000   -0.0000
      196 W      7h3+       0.0000   -0.0000   -0.0000   -0.0000   -0.0000    0.0000    0.0000   -0.0000    0.0000   -0.0000
      197 W      6h4+      -0.0000    0.0000   -0.0000   -0.0000    0.0000   -0.0000   -0.0000    0.0000    0.0000   -0.0000
      198 W      7h4+       0.0000   -0.0000    0.0000    0.0000   -0.0000    0.0000   -0.0000    0.0000   -0.0000   -0.0000
      199 W      6h5+      -0.0000    0.0000    0.0000    0.0000   -0.0000   -0.0000    0.0000   -0.0000    0.0000   -0.0000
      200 W      7h5+      -0.0000    0.0000   -0.0000   -0.0000    0.0000   -0.0000   -0.0000    0.0000   -0.0000    0.0000

          Orbital           11        12        13        14    
          Energy         -164.2640 -164.1911 -164.1910 -164.1606
          Occ. No.          0.0000    0.0000    0.0000    0.0000

        1 W      1s        -0.0000    0.0000    0.0000   -0.0000
        2 W      2s         0.0000   -0.0000   -0.0000    0.0001
        3 W      3s         0.0000   -0.0000   -0.0000    0.0032
        4 W      4s        -0.0000   -0.0000    0.0000   -0.0008
        5 W      5s         0.0000    0.0000    0.0000    0.0002
        6 W      6s         0.0000   -0.0000    0.0000   -0.0001
        7 W      7s        -0.0000    0.0000    0.0000    0.0001
        8 W      8s         0.0000   -0.0000   -0.0000   -0.0002
        9 W      9s         0.0000    0.0000   -0.0000    0.0002
       10 W     10s        -0.0000   -0.0000    0.0000   -0.0002
       11 W     11s         0.0000    0.0000    0.0000    0.0003
       12 W      2px       -0.0000    0.0000   -0.0000   -0.0013
       13 W      3px       -0.0000    0.0004   -0.0000   -0.0471
       14 W      4px        0.0000   -0.0001    0.0000    0.0067
       15 W      5px       -0.0000    0.0000   -0.0000   -0.0019
       16 W      6px        0.0000   -0.0000   -0.0000    0.0008
       17 W      7px       -0.0000    0.0000   -0.0000   -0.0023
       18 W      8px        0.0000   -0.0000    0.0000    0.0023
       19 W      9px       -0.0000    0.0000   -0.0000   -0.0023
       20 W     10px        0.0000   -0.0000    0.0000    0.0021
       21 W     11px       -0.0000    0.0000   -0.0000   -0.0020
       22 W      2py        0.0000   -0.0000   -0.0011   -0.0000
       23 W      3py        0.0000   -0.0000   -0.0394   -0.0000
       24 W      4py       -0.0000    0.0000    0.0055    0.0000
       25 W      5py        0.0000   -0.0000   -0.0016   -0.0000
       26 W      6py       -0.0000    0.0000    0.0006    0.0000
       27 W      7py        0.0000   -0.0000   -0.0019   -0.0000
       28 W      8py       -0.0000    0.0000    0.0019    0.0000
       29 W      9py        0.0000   -0.0000   -0.0019   -0.0000
       30 W     10py       -0.0000    0.0000    0.0017    0.0000
       31 W     11py        0.0000   -0.0000   -0.0017   -0.0000
       32 W      2pz       -0.0000   -0.0011    0.0000   -0.0000
       33 W      3pz       -0.0003   -0.0394    0.0000   -0.0004
       34 W      4pz        0.0000    0.0055   -0.0000    0.0001
       35 W      5pz       -0.0000   -0.0016    0.0000   -0.0000
       36 W      6pz        0.0000    0.0006   -0.0000    0.0000
       37 W      7pz       -0.0000   -0.0019    0.0000   -0.0000
       38 W      8pz        0.0000    0.0019   -0.0000    0.0000
       39 W      9pz       -0.0000   -0.0019    0.0000   -0.0000
       40 W     10pz        0.0000    0.0017   -0.0000    0.0000
       41 W     11pz       -0.0000   -0.0017    0.0000   -0.0000
       42 W      3d2-      -0.0000    0.0000    0.9907    0.0000
       43 W      4d2-       0.0000   -0.0000   -0.0959   -0.0000
       44 W      5d2-      -0.0000    0.0000    0.0186    0.0000
       45 W      6d2-       0.0000   -0.0000   -0.0254   -0.0000
       46 W      7d2-      -0.0000    0.0000    0.0329    0.0000
       47 W      8d2-       0.0000   -0.0000   -0.0372   -0.0000
       48 W      9d2-      -0.0000    0.0000    0.0370    0.0000
       49 W     10d2-       0.0000   -0.0000   -0.0397   -0.0000
       50 W     11d2-      -0.0000    0.0000    0.0300    0.0000
       51 W      3d1-       0.0000    0.0000    0.0187   -0.0000
       52 W      4d1-      -0.0000   -0.0000   -0.0018    0.0000
       53 W      5d1-       0.0000    0.0000    0.0004   -0.0000
       54 W      6d1-      -0.0000   -0.0000   -0.0005    0.0000
       55 W      7d1-       0.0000    0.0000    0.0006   -0.0000
       56 W      8d1-      -0.0000   -0.0000   -0.0007    0.0000
       57 W      9d1-       0.0000    0.0000    0.0007   -0.0000
       58 W     10d1-      -0.0000   -0.0000   -0.0008    0.0000
       59 W     11d1-       0.0000    0.0000    0.0006   -0.0000
       60 W      3d0        0.8587    0.0028   -0.0000   -0.4955
       61 W      4d0       -0.0828   -0.0003    0.0000    0.0481
       62 W      5d0        0.0161    0.0001   -0.0000   -0.0093
       63 W      6d0       -0.0219   -0.0001    0.0000    0.0127
       64 W      7d0        0.0284    0.0001   -0.0000   -0.0165
       65 W      8d0       -0.0321   -0.0001    0.0000    0.0187
       66 W      9d0        0.0319    0.0001   -0.0000   -0.0186
       67 W     10d0       -0.0343   -0.0001    0.0000    0.0199
       68 W     11d0        0.0258    0.0001   -0.0000   -0.0150
       69 W      3d1+       0.0037    0.9908   -0.0000    0.0120
       70 W      4d1+      -0.0003   -0.0959    0.0000   -0.0012
       71 W      5d1+       0.0001    0.0186   -0.0000    0.0002
       72 W      6d1+      -0.0001   -0.0254    0.0000   -0.0003
       73 W      7d1+       0.0001    0.0329   -0.0000    0.0004
       74 W      8d1+      -0.0001   -0.0372    0.0000   -0.0005
       75 W      9d1+       0.0001    0.0370   -0.0000    0.0004
       76 W     10d1+      -0.0001   -0.0397    0.0000   -0.0005
       77 W     11d1+       0.0001    0.0300   -0.0000    0.0004
       78 W      3d2+       0.4962   -0.0122    0.0000    0.8575
       79 W      4d2+      -0.0478    0.0012   -0.0000   -0.0832
       80 W      5d2+       0.0093   -0.0002    0.0000    0.0162
       81 W      6d2+      -0.0127    0.0003   -0.0000   -0.0221
       82 W      7d2+       0.0164   -0.0004    0.0000    0.0285
       83 W      8d2+      -0.0186    0.0005   -0.0000   -0.0323
       84 W      9d2+       0.0185   -0.0005    0.0000    0.0321
       85 W     10d2+      -0.0198    0.0005   -0.0000   -0.0345
       86 W     11d2+       0.0149   -0.0004    0.0000    0.0260
       87 W      4f3-      -0.0000    0.0000    0.0045    0.0000
       88 W      5f3-       0.0000   -0.0000   -0.0032   -0.0000
       89 W      6f3-      -0.0000    0.0000    0.0030    0.0000
       90 W      7f3-       0.0000   -0.0000   -0.0027   -0.0000
       91 W      8f3-      -0.0000    0.0000    0.0023    0.0000
       92 W      9f3-       0.0000   -0.0000   -0.0017   -0.0000
       93 W     10f3-      -0.0000    0.0000    0.0014    0.0000
       94 W     11f3-       0.0000   -0.0000   -0.0008   -0.0000
       95 W      4f2-       0.0000    0.0000    0.0001   -0.0000
       96 W      5f2-      -0.0000   -0.0000   -0.0001    0.0000
       97 W      6f2-       0.0000    0.0000    0.0001   -0.0000
       98 W      7f2-      -0.0000   -0.0000   -0.0000    0.0000
       99 W      8f2-       0.0000    0.0000    0.0000   -0.0000
      100 W      9f2-      -0.0000   -0.0000   -0.0000    0.0000
      101 W     10f2-       0.0000    0.0000    0.0000   -0.0000
      102 W     11f2-      -0.0000   -0.0000   -0.0000    0.0000
      103 W      4f1-       0.0000   -0.0000   -0.0011   -0.0000
      104 W      5f1-      -0.0000    0.0000    0.0008    0.0000
      105 W      6f1-       0.0000   -0.0000   -0.0008   -0.0000
      106 W      7f1-      -0.0000    0.0000    0.0007    0.0000
      107 W      8f1-       0.0000   -0.0000   -0.0006   -0.0000
      108 W      9f1-      -0.0000    0.0000    0.0004    0.0000
      109 W     10f1-       0.0000   -0.0000   -0.0004   -0.0000
      110 W     11f1-      -0.0000    0.0000    0.0002    0.0000
      111 W      4f0       -0.0000   -0.0028    0.0000   -0.0000
      112 W      5f0        0.0000    0.0020   -0.0000    0.0000
      113 W      6f0       -0.0000   -0.0019    0.0000   -0.0000
      114 W      7f0       -0.0000    0.0017   -0.0000    0.0000
      115 W      8f0       -0.0000   -0.0015    0.0000   -0.0000
      116 W      9f0       -0.0000    0.0011   -0.0000    0.0000
      117 W     10f0        0.0000   -0.0009    0.0000   -0.0000
      118 W     11f0       -0.0000    0.0005   -0.0000    0.0000
      119 W      4f1+       0.0028    0.0000   -0.0000   -0.0030
      120 W      5f1+      -0.0020   -0.0000    0.0000    0.0021
      121 W      6f1+       0.0019    0.0000   -0.0000   -0.0021
      122 W      7f1+      -0.0017   -0.0000    0.0000    0.0018
      123 W      8f1+       0.0015    0.0000   -0.0000   -0.0016
      124 W      9f1+      -0.0011   -0.0000    0.0000    0.0011
      125 W     10f1+       0.0009    0.0000   -0.0000   -0.0009
      126 W     11f1+      -0.0005   -0.0000    0.0000    0.0006
      127 W      4f2+       0.0000    0.0036   -0.0000    0.0001
      128 W      5f2+      -0.0000   -0.0026    0.0000   -0.0000
      129 W      6f2+       0.0000    0.0025   -0.0000    0.0000
      130 W      7f2+      -0.0000   -0.0022    0.0000   -0.0000
      131 W      8f2+       0.0000    0.0019   -0.0000    0.0000
      132 W      9f2+      -0.0000   -0.0014    0.0000   -0.0000
      133 W     10f2+       0.0000    0.0011   -0.0000    0.0000
      134 W     11f2+      -0.0000   -0.0007    0.0000   -0.0000
      135 W      4f3+       0.0022   -0.0000    0.0000    0.0039
      136 W      5f3+      -0.0015    0.0000   -0.0000   -0.0028
      137 W      6f3+       0.0015   -0.0000    0.0000    0.0026
      138 W      7f3+      -0.0013    0.0000   -0.0000   -0.0023
      139 W      8f3+       0.0011   -0.0000    0.0000    0.0020
      140 W      9f3+      -0.0008    0.0000   -0.0000   -0.0015
      141 W     10f3+       0.0007   -0.0000    0.0000    0.0012
      142 W     11f3+      -0.0004    0.0000   -0.0000   -0.0007
      143 W      5g4-       0.0000   -0.0000   -0.0000   -0.0000
      144 W      6g4-      -0.0000    0.0000    0.0000    0.0000
      145 W      7g4-       0.0000   -0.0000   -0.0000   -0.0000
      146 W      8g4-      -0.0000    0.0000    0.0000    0.0000
      147 W      5g3-      -0.0000   -0.0000   -0.0000    0.0000
      148 W      6g3-       0.0000    0.0000    0.0000   -0.0000
      149 W      7g3-      -0.0000   -0.0000   -0.0000    0.0000
      150 W      8g3-       0.0000    0.0000    0.0000   -0.0000
      151 W      5g2-      -0.0000    0.0000    0.0000    0.0000
      152 W      6g2-       0.0000   -0.0000   -0.0000   -0.0000
      153 W      7g2-      -0.0000    0.0000    0.0000    0.0000
      154 W      8g2-       0.0000   -0.0000   -0.0000   -0.0000
      155 W      5g1-       0.0000    0.0000    0.0000    0.0000
      156 W      6g1-      -0.0000   -0.0000   -0.0000    0.0000
      157 W      7g1-       0.0000    0.0000    0.0000    0.0000
      158 W      8g1-      -0.0000   -0.0000   -0.0000    0.0000
      159 W      5g0        0.0000   -0.0000   -0.0000   -0.0000
      160 W      6g0       -0.0000   -0.0000    0.0000    0.0000
      161 W      7g0        0.0000    0.0000   -0.0000   -0.0000
      162 W      8g0       -0.0000   -0.0000    0.0000    0.0000
      163 W      5g1+       0.0000    0.0000   -0.0000    0.0000
      164 W      6g1+      -0.0000   -0.0000    0.0000   -0.0000
      165 W      7g1+       0.0000    0.0000   -0.0000    0.0000
      166 W      8g1+      -0.0000   -0.0000    0.0000    0.0000
      167 W      5g2+      -0.0000    0.0000   -0.0000    0.0000
      168 W      6g2+       0.0000   -0.0000    0.0000   -0.0000
      169 W      7g2+      -0.0000    0.0000   -0.0000    0.0000
      170 W      8g2+       0.0000   -0.0000    0.0000   -0.0000
      171 W      5g3+      -0.0000   -0.0000    0.0000   -0.0000
      172 W      6g3+       0.0000    0.0000   -0.0000    0.0000
      173 W      7g3+      -0.0000   -0.0000    0.0000   -0.0000
      174 W      8g3+       0.0000    0.0000   -0.0000    0.0000
      175 W      5g4+      -0.0000    0.0000   -0.0000   -0.0000
      176 W      6g4+       0.0000   -0.0000    0.0000    0.0000
      177 W      7g4+      -0.0000    0.0000   -0.0000   -0.0000
      178 W      8g4+       0.0000   -0.0000    0.0000    0.0000
      179 W      6h5-      -0.0000    0.0000    0.0000   -0.0000
      180 W      7h5-      -0.0000   -0.0000   -0.0000    0.0000
      181 W      6h4-       0.0000   -0.0000   -0.0000    0.0000
      182 W      7h4-      -0.0000    0.0000    0.0000   -0.0000
      183 W      6h3-       0.0000   -0.0000   -0.0000   -0.0000
      184 W      7h3-       0.0000    0.0000    0.0000    0.0000
      185 W      6h2-      -0.0000    0.0000    0.0000    0.0000
      186 W      7h2-      -0.0000   -0.0000   -0.0000   -0.0000
      187 W      6h1-       0.0000   -0.0000    0.0000   -0.0000
      188 W      7h1-       0.0000   -0.0000   -0.0000    0.0000
      189 W      6h0        0.0000    0.0000   -0.0000   -0.0000
      190 W      7h0        0.0000   -0.0000    0.0000   -0.0000
      191 W      6h1+      -0.0000   -0.0000    0.0000   -0.0000
      192 W      7h1+       0.0000    0.0000   -0.0000   -0.0000
      193 W      6h2+       0.0000   -0.0000    0.0000    0.0000
      194 W      7h2+       0.0000    0.0000   -0.0000    0.0000
      195 W      6h3+       0.0000    0.0000   -0.0000    0.0000
      196 W      7h3+       0.0000    0.0000   -0.0000    0.0000
      197 W      6h4+       0.0000    0.0000   -0.0000    0.0000
      198 W      7h4+       0.0000   -0.0000    0.0000    0.0000
      199 W      6h5+       0.0000    0.0000   -0.0000   -0.0000
      200 W      7h5+      -0.0000   -0.0000    0.0000   -0.0000
--


++    Molecular charges:
      ------------------

      Mulliken charges per centre and basis function type
      ---------------------------------------------------

                W     
      1s       2.0000
      2s       2.0000
      2px      2.0000
      2pz      2.0000
      2py      2.0000
      3s       1.9811
      3px      1.9683
      3pz      1.9700
      3py      1.9700
      4s       0.0128
      3d2+     0.0035
      3d1+     0.0032
      3d0      0.0012
      3d1-     0.0000
      3d2-     0.0032
      4px      0.0167
      4pz      0.0166
      4py      0.0166
      5s       0.0011
      4d2+     0.0000
      4d1+     0.0000
      4d0      0.0000
      4d1-     0.0000
      4d2-     0.0000
      5px      0.0013
      5pz      0.0013
      5py      0.0013
      6s       0.0001
      4f3+     0.0000
      4f2+     0.0000
      4f1+     0.0000
      4f0      0.0000
      4f1-     0.0000
      4f2-     0.0000
      4f3-     0.0000
      5d2+     0.0000
      5d1+     0.0000
      5d0      0.0000
      5d1-     0.0000
      5d2-     0.0000
      6px      0.0002
      6pz      0.0002
      6py      0.0002
      7s       0.0001
      5f3+     0.0000
      5f2+     0.0000
      5f1+     0.0000
      5f0      0.0000
      5f1-     0.0000
      5f2-     0.0000
      5f3-     0.0000
      6d2+     0.0000
      6d1+     0.0000
      6d0      0.0000
      6d1-     0.0000
      6d2-     0.0000
      7px      0.0018
      7pz      0.0018
      7py      0.0018
      5g4+     0.0000
      5g3+     0.0000
      5g2+     0.0000
      5g1+     0.0000
      5g0      0.0000
      5g1-     0.0000
      5g2-     0.0000
      5g3-     0.0000
      5g4-     0.0000
      6f3+     0.0000
      6f2+     0.0000
      6f1+     0.0000
      6f0      0.0000
      6f1-     0.0000
      6f2-     0.0000
      6f3-     0.0000
      6g4+     0.0000
      6g3+     0.0000
      6g2+     0.0000
      6g1+     0.0000
      6g0      0.0000
      6g1-     0.0000
      6g2-     0.0000
      6g3-     0.0000
      6g4-     0.0000
      6h5+     0.0000
      6h4+     0.0000
      6h3+     0.0000
      6h2+     0.0000
      6h1+     0.0000
      6h0      0.0000
      6h1-     0.0000
      6h2-     0.0000
      6h3-     0.0000
      6h4-     0.0000
      6h5-     0.0000
      7d2+     0.0000
      7d1+     0.0000
      7d0      0.0000
      7d1-     0.0000
      7d2-     0.0000
      7f3+     0.0000
      7f2+     0.0000
      7f1+     0.0000
      7f0      0.0000
      7f1-     0.0000
      7f2-     0.0000
      7f3-     0.0000
      7g4+     0.0000
      7g3+     0.0000
      7g2+     0.0000
      7g1+     0.0000
      7g0      0.0000
      7g1-     0.0000
      7g2-     0.0000
      7g3-     0.0000
      7g4-     0.0000
      7h5+     0.0000
      7h4+     0.0000
      7h3+     0.0000
      7h2+     0.0000
      7h1+     0.0000
      7h0      0.0000
      7h1-     0.0000
      7h2-     0.0000
      7h3-     0.0000
      7h4-     0.0000
      7h5-     0.0000
      8s       0.0006
      8px      0.0018
      8pz      0.0018
      8py      0.0018
      8d2+     0.0000
      8d1+     0.0000
      8d0      0.0000
      8d1-     0.0000
      8d2-     0.0000
      8f3+     0.0000
      8f2+     0.0000
      8f1+     0.0000
      8f0      0.0000
      8f1-     0.0000
      8f2-     0.0000
      8f3-     0.0000
      8g4+     0.0000
      8g3+     0.0000
      8g2+     0.0000
      8g1+     0.0000
      8g0      0.0000
      8g1-     0.0000
      8g2-     0.0000
      8g3-     0.0000
      8g4-     0.0000
      9s       0.0010
      9px      0.0019
      9pz      0.0019
      9py      0.0019
      9d2+     0.0000
      9d1+     0.0000
      9d0      0.0000
      9d1-     0.0000
      9d2-     0.0000
      9f3+     0.0000
      9f2+     0.0000
      9f1+     0.0000
      9f0      0.0000
      9f1-     0.0000
      9f2-     0.0000
      9f3-     0.0000
     10s       0.0013
     10px      0.0016
     10pz      0.0016
     10py      0.0016
     10d2+     0.0000
     10d1+     0.0000
     10d0      0.0000
     10d1-     0.0000
     10d2-     0.0000
     10f3+     0.0000
     10f2+     0.0000
     10f1+     0.0000
     10f0      0.0000
     10f1-     0.0000
     10f2-     0.0000
     10f3-     0.0000
     11s       0.0020
     11px      0.0017
     11pz      0.0017
     11py      0.0017
     11d2+     0.0000
     11d1+     0.0000
     11d0      0.0000
     11d1-     0.0000
     11d2-     0.0000
     11f3+     0.0000
     11f2+     0.0000
     11f1+     0.0000
     11f0      0.0000
     11f1-     0.0000
     11f2-     0.0000
     11f3-     0.0000
      Total   18.0000

      N-E     56.0000

      Total electronic charge=   18.000000

      Total            charge=   56.000000
--

 Sorry, Molden does not know how to handle
 functions with angular momentum larger than g

++    Static properties:
      ------------------


      LoProp Charges per center


                   W     
      Nuclear     74.0000
      Electronic -18.0000

      Total       56.0000
--


++    Molecular properties:
      ---------------------

      Charge (e):
                      =   56.0000
      Dipole Moment (Debye):
      Origin of the operator (Ang)=    0.0000    0.0000    0.0000
                   X= -1.0954E-01               Y= -4.9708E-13               Z=  1.2456E+00           Total=  1.2504E+00
      Center of Charge (Ang)
                     X=   -0.00040725               Y=   -0.00000000               Z=    0.00463097
      Quadrupole Moment (Debye*Ang):
      Origin of the operator (Ang)=   -0.0000   -0.0000    0.0046
                  XX= -1.6439E-01              XY= -2.0860E-15              XZ=  3.4913E-06              YY= -1.6470E-01
                  YZ= -5.8228E-16              ZZ= -1.6470E-01
      In traceless form (Debye*Ang)
                  XX=  3.1477E-04              XY= -3.1290E-15              XZ=  5.2370E-06              YY= -1.5739E-04
[...]
    16            82.7647753363     2252.1442692389       18164768.5568         1.3
    17            83.5646845174     2273.9109069280       18340328.3294         1.2
    18            83.5646845174     2273.9109069280       18340328.3294         1.2


 Weights of the five most important spin-orbit-free states for each spin-orbit state.

 SO State  Total energy (au)           Spin-free states, spin, and weights
 -------------------------------------------------------------------------------------------------------
    1         0.000000       1 0.5  1.0000    9 0.5  0.0000    8 0.5  0.0000    7 0.5  0.0000    6 0.5  0.0000
    2         0.000000       1 0.5  1.0000    9 0.5  0.0000    8 0.5  0.0000    7 0.5  0.0000    6 0.5  0.0000
    3         0.000052       2 0.5  1.0000    9 0.5  0.0000    8 0.5  0.0000    7 0.5  0.0000    6 0.5  0.0000
    4         0.000052       2 0.5  1.0000    9 0.5  0.0000    8 0.5  0.0000    7 0.5  0.0000    6 0.5  0.0000
    5         0.073604       3 0.5  1.0000    9 0.5  0.0000    8 0.5  0.0000    7 0.5  0.0000    6 0.5  0.0000
    6         0.073604       3 0.5  1.0000    9 0.5  0.0000    8 0.5  0.0000    7 0.5  0.0000    6 0.5  0.0000
    7         0.073727       4 0.5  1.0000    9 0.5  0.0000    8 0.5  0.0000    7 0.5  0.0000    6 0.5  0.0000
    8         0.073727       4 0.5  1.0000    9 0.5  0.0000    8 0.5  0.0000    7 0.5  0.0000    6 0.5  0.0000
    9         0.104332       5 0.5  1.0000    9 0.5  0.0000    8 0.5  0.0000    7 0.5  0.0000    6 0.5  0.0000
   10         0.104332       5 0.5  1.0000    9 0.5  0.0000    8 0.5  0.0000    7 0.5  0.0000    6 0.5  0.0000
   11        76.412293       6 0.5  1.0000    9 0.5  0.0000    8 0.5  0.0000    7 0.5  0.0000    5 0.5  0.0000
   12        76.412293       6 0.5  1.0000    9 0.5  0.0000    8 0.5  0.0000    7 0.5  0.0000    5 0.5  0.0000
   13        82.763476       7 0.5  1.0000    9 0.5  0.0000    8 0.5  0.0000    6 0.5  0.0000    5 0.5  0.0000
   14        82.763476       7 0.5  1.0000    9 0.5  0.0000    8 0.5  0.0000    6 0.5  0.0000    5 0.5  0.0000
   15        82.764775       8 0.5  1.0000    9 0.5  0.0000    7 0.5  0.0000    6 0.5  0.0000    5 0.5  0.0000
   16        82.764775       8 0.5  1.0000    9 0.5  0.0000    7 0.5  0.0000    6 0.5  0.0000    5 0.5  0.0000
   17        83.564685       9 0.5  1.0000    8 0.5  0.0000    7 0.5  0.0000    6 0.5  0.0000    5 0.5  0.0000
   18        83.564685       9 0.5  1.0000    8 0.5  0.0000    7 0.5  0.0000    6 0.5  0.0000    5 0.5  0.0000
 -------------------------------------------------------------------------------------------------------


      ****************************************************************************************************
      *                                                                                                  *
      *                                    Special properties section                                    *
      *                                                                                                  *
      ****************************************************************************************************


++ Dipole transition strengths (SO states):
   ----------------------------------------
    for osc. strength at least    1.0000000000000001E-005

      From   To        Osc. strength     Einstein coefficients Ax, Ay, Az (sec-1)    Total A (sec-1)
     -----------------------------------------------------------------------------------------------
         1   13       1.21120545E-02  2.61406101E-07  2.66565928E+12  7.88146309E-03  2.66565928E+12
         1   15       1.21262700E-02  1.77401459E+09  7.88550812E-03  2.66709763E+12  2.66887164E+12
         2   14       1.21120545E-02  2.61406101E-07  2.66565928E+12  7.88146309E-03  2.66565928E+12
         2   16       1.21262700E-02  1.77401459E+09  7.88550812E-03  2.66709763E+12  2.66887164E+12
         3   13       1.21042588E-02  2.10949267E+08  7.88357124E-03  2.66372930E+12  2.66394025E+12
         3   15       1.21207942E-02  4.24778233E-06  2.66766314E+12  7.88649531E-03  2.66766314E+12
         4   14       1.21042588E-02  2.10949267E+08  7.88357124E-03  2.66372930E+12  2.66394025E+12
         4   16       1.21207942E-02  4.24778233E-06  2.66766314E+12  7.88649531E-03  2.66766314E+12
         5   11       7.07041223E-04  1.84928156E+07  5.04892794E-05  1.32367947E+11  1.32386440E+11
         5   13       1.45570144E-02  3.19803605E+12  1.17444061E-07  2.19151534E+07  3.19805797E+12
         5   17       1.00246193E-02  2.70635477E+08  8.59102432E-04  2.24494175E+12  2.24521238E+12
         6   12       7.07041223E-04  1.84928156E+07  5.04892794E-05  1.32367947E+11  1.32386440E+11
         6   14       1.45570144E-02  3.19803605E+12  1.17444061E-07  2.19151534E+07  3.19805797E+12
         6   18       1.00246193E-02  2.70635477E+08  8.59102432E-04  2.24494175E+12  2.24521238E+12
         7   11       7.03505203E-04  5.21503750E-09  1.31723931E+11  5.07408674E-05  1.31723931E+11
         7   15       1.45325804E-02  3.19228960E+12  3.06646063E-08  4.91226626E+08  3.19278083E+12
         7   17       1.00087553E-02  7.37934125E-08  2.24165272E+12  8.60412285E-04  2.24165272E+12
         8   12       7.03505203E-04  5.21503750E-09  1.31723931E+11  5.07408674E-05  1.31723931E+11
         8   16       1.45325804E-02  3.19228960E+12  3.06646063E-08  4.91226626E+08  3.19278083E+12
         8   18       1.00087553E-02  7.37934125E-08  2.24165272E+12  8.60412285E-04  2.24165272E+12
         9   11       1.07097863E-03  2.00352263E+11  8.98303277E-11  1.64341245E+07  2.00368697E+11
         9   13       3.41991752E-03  1.62436739E+08  1.70592874E-05  7.50607406E+11  7.50769843E+11
         9   15       3.42074724E-03  4.01630291E-10  7.50975591E+11  1.76168708E-05  7.50975591E+11
         9   17       1.84263119E-02  4.12369652E+12  1.46583529E-09  2.04418940E+08  4.12390094E+12
        10   12       1.07097863E-03  2.00352263E+11  8.98303277E-11  1.64341245E+07  2.00368697E+11
        10   14       3.41991752E-03  1.62436739E+08  1.70592874E-05  7.50607406E+11  7.50769843E+11
        10   16       3.42074724E-03  4.01630291E-10  7.50975591E+11  1.76168708E-05  7.50975591E+11
        10   18       1.84263119E-02  4.12369652E+12  1.46583529E-09  2.04418940E+08  4.12390094E+12
        11   13       1.72936712E-01  4.56246222E+06  5.17412635E-06  2.24128506E+11  2.24133068E+11
        11   15       1.72932660E-01  7.48625085E-11  2.24219499E+11  5.17837822E-06  2.24219499E+11
        11   17       1.58092318E-01  2.59844250E+11  4.60535866E-12  5.76442753E+06  2.59850014E+11
        12   14       1.72936712E-01  4.56246222E+06  5.17412635E-06  2.24128506E+11  2.24133068E+11
        12   16       1.72932660E-01  7.48625085E-11  2.24219499E+11  5.17837822E-06  2.24219499E+11
        12   18       1.58092318E-01  2.59844250E+11  4.60535866E-12  5.76442753E+06  2.59850014E+11
        13   17       1.63019773E-03  1.88423539E+03  7.80814554E-10  3.36214117E+07  3.36232960E+07
        14   18       1.63019773E-03  1.88423539E+03  7.80814554E-10  3.36214117E+07  3.36232960E+07
        15   17       1.63645348E-03  2.82100367E-14  3.36429756E+07  7.72698399E-10  3.36429756E+07
        16   18       1.63645348E-03  2.82100367E-14  3.36429756E+07  7.72698399E-10  3.36429756E+07
     -----------------------------------------------------------------------------------------------
--

++ Velocity transition strengths (SO states):
   ------------------------------------------
    for osc. strength at least    1.0000000000000001E-005

      From   To        Osc. strength     Einstein coefficients Ax, Ay, Az (sec-1)    Total A (sec-1)
     -----------------------------------------------------------------------------------------------
         1    3       2.40785686E-05  1.17468398E-19  2.07564109E-03  3.49782966E-20  2.07564109E-03
         1    5       2.15277660E-04  5.20445971E-15  3.74721534E+04  1.79005883E-10  3.74721534E+04
         1    7       2.14811369E-04  7.50668550E-01  1.79524984E-10  3.75153751E+04  3.75161258E+04
         1   13       1.19488297E-02  2.58751584E-07  2.62974541E+12  7.77500195E-03  2.62974541E+12
         1   15       1.19628750E-02  1.75088873E+09  7.77889738E-03  2.63116830E+12  2.63291919E+12
         2    4       2.40785686E-05  1.17468398E-19  2.07564109E-03  3.49782966E-20  2.07564109E-03
         2    6       2.15277660E-04  5.20445971E-15  3.74721534E+04  1.79005883E-10  3.74721534E+04
         2    8       2.14811369E-04  7.50668550E-01  1.79524984E-10  3.75153751E+04  3.75161258E+04
         2   14       1.19488297E-02  2.58751584E-07  2.62974541E+12  7.77500195E-03  2.62974541E+12
         2   16       1.19628750E-02  1.75088873E+09  7.77889738E-03  2.63116830E+12  2.63291919E+12
         3    5       2.15031933E-04  1.80468139E-01  1.78907071E-10  3.73765389E+04  3.73767193E+04
         3    7       2.15221142E-04  9.59699599E-16  3.75348951E+04  1.79147598E-10  3.75348951E+04
         3   13       1.19411321E-02  2.08320593E+08  7.77706710E-03  2.62783968E+12  2.62804800E+12
         3   15       1.19574702E-02  4.18630642E-06  2.63172635E+12  7.77990733E-03  2.63172635E+12
         4    6       2.15031933E-04  1.80468139E-01  1.78907071E-10  3.73765389E+04  3.73767193E+04
         4    8       2.15221142E-04  9.59699599E-16  3.75348951E+04  1.79147598E-10  3.75348951E+04
         4   14       1.19411321E-02  2.08320593E+08  7.77706710E-03  2.62783968E+12  2.62804800E+12
         4   16       1.19574702E-02  4.18630642E-06  2.63172635E+12  7.77990733E-03  2.63172635E+12
         5    9       1.48019309E-03  4.45145927E-01  1.70147938E-11  4.49052965E+04  4.49057417E+04
         5   11       7.19049337E-04  1.87607178E+07  5.13492386E-05  1.34616547E+11  1.34635308E+11
         5   13       1.43731210E-02  3.15764730E+12  1.15835757E-07  2.17697767E+07  3.15766907E+12
         5   17       9.86027481E-03  2.66293721E+08  8.45088871E-04  2.20814556E+12  2.20841185E+12
         6   10       1.48019309E-03  4.45145927E-01  1.70147938E-11  4.49052965E+04  4.49057417E+04
         6   12       7.19049337E-04  1.87607178E+07  5.13492386E-05  1.34616547E+11  1.34635308E+11
         6   14       1.43731210E-02  3.15764730E+12  1.15835757E-07  2.17697767E+07  3.15766907E+12
         6   18       9.86027481E-03  2.66293721E+08  8.45088871E-04  2.20814556E+12  2.20841185E+12
         7    9       1.48448345E-03  7.47357711E-17  4.46758974E+04  1.71234146E-11  4.46758974E+04
         7   11       7.15501060E-04  5.26005419E-09  1.33970494E+11  5.15997104E-05  1.33970494E+11
         7   15       1.43489895E-02  3.15197304E+12  3.02133681E-08  4.84159655E+08  3.15245720E+12
         7   17       9.84461296E-03  7.29610130E-08  2.20489756E+12  8.46380084E-04  2.20489756E+12
         8   10       1.48448345E-03  7.47357711E-17  4.46758974E+04  1.71234146E-11  4.46758974E+04
         8   12       7.15501060E-04  5.26005419E-09  1.33970494E+11  5.15997104E-05  1.33970494E+11
         8   16       1.43489895E-02  3.15197304E+12  3.02133681E-08  4.84159655E+08  3.15245720E+12
         8   18       9.84461296E-03  7.29610130E-08  2.20489756E+12  8.46380084E-04  2.20489756E+12
         9   11       1.08971334E-03  2.03857779E+11  9.60329411E-11  1.66923471E+07  2.03874472E+11
         9   13       3.36401620E-03  1.60314717E+08  1.67783899E-05  7.38340156E+11  7.38500470E+11
         9   15       3.36486487E-03  4.10267622E-10  7.38709993E+11  1.73265966E-05  7.38709993E+11
         9   17       1.81710237E-02  4.06657904E+12  1.41623823E-09  2.01259356E+08  4.06678030E+12
        10   12       1.08971334E-03  2.03857779E+11  9.60329411E-11  1.66923471E+07  2.03874472E+11
        10   14       3.36401620E-03  1.60314717E+08  1.67783899E-05  7.38340156E+11  7.38500470E+11
        10   16       3.36486487E-03  4.10267622E-10  7.38709993E+11  1.73265966E-05  7.38709993E+11
        10   18       1.81710237E-02  4.06657904E+12  1.41623823E-09  2.01259356E+08  4.06678030E+12
        11   13       1.44959910E-01  3.78590501E+06  4.33921651E-06  1.87870853E+11  1.87874639E+11
        11   15       1.44954837E-01  6.18385817E-11  1.87944914E+11  4.33893453E-06  1.87944914E+11
        11   17       1.32012199E-01  2.16979050E+11  3.52634061E-12  4.87114321E+06  2.16983922E+11
        12   14       1.44959910E-01  3.78590501E+06  4.33921651E-06  1.87870853E+11  1.87874639E+11
        12   16       1.44954837E-01  6.18385817E-11  1.87944914E+11  4.33893453E-06  1.87944914E+11
        12   18       1.32012199E-01  2.16979050E+11  3.52634061E-12  4.87114321E+06  2.16983922E+11
        13   17       6.06523315E-03  3.20681853E+03  2.88720625E-09  1.25094402E+08  1.25097609E+08
        14   18       6.06523315E-03  3.20681853E+03  2.88720625E-09  1.25094402E+08  1.25097609E+08
        15   17       6.08249486E-03  8.51683122E-14  1.25047207E+08  2.87993098E-09  1.25047207E+08
        16   18       6.08249486E-03  8.51683122E-14  1.25047207E+08  2.87993098E-09  1.25047207E+08
     -----------------------------------------------------------------------------------------------
--

++ Length and velocity gauge comparison (SO states):

 --------------------------------------------------
 A comparison between the dipole oscillator strengths in 
 length and velocity gauge will be performed

 All dipole oscillator differences above the tolerance of   0.10000000000000001       will be printed 

 Due to basis set deficiency these oscillator may be problematic 

 The tolerance is defined as ABS(1-O_l/O_v) 
 O_l : dipole oscillator strength in length gauge
 O_p : dipole oscillator strength in velocity gauge
 --------------------------------------------------

  Problematic transitions have been found

      From   To       Difference (%) Osc. st. (len.) Osc. st. (vel.)
     ---------------------------------------------------------------
         1    3      --------------- below threshold  2.40785686E-05
         1    5      --------------- below threshold  2.15277660E-04
         1    7      --------------- below threshold  2.14811369E-04
         2    4      --------------- below threshold  2.40785686E-05
         2    6      --------------- below threshold  2.15277660E-04
         2    8      --------------- below threshold  2.14811369E-04
         3    5      --------------- below threshold  2.15031933E-04
         3    7      --------------- below threshold  2.15221142E-04
         4    6      --------------- below threshold  2.15031933E-04
         4    8      --------------- below threshold  2.15221142E-04
         5    9      --------------- below threshold  1.48019309E-03
         6   10      --------------- below threshold  1.48019309E-03
         7    9      --------------- below threshold  1.48448345E-03
         8   10      --------------- below threshold  1.48448345E-03
        11   13            19.299682  1.72936712E-01  1.44959910E-01
        11   15            19.301062  1.72932660E-01  1.44954837E-01
        11   17            19.755840  1.58092318E-01  1.32012199E-01
        12   14            19.299682  1.72936712E-01  1.44959910E-01
        12   16            19.301062  1.72932660E-01  1.44954837E-01
        12   18            19.755840  1.58092318E-01  1.32012199E-01
        13   17            73.122258  1.63019773E-03  6.06523315E-03
        14   18            73.122258  1.63019773E-03  6.06523315E-03
        15   17            73.095687  1.63645348E-03  6.08249486E-03
        16   18            73.095687  1.63645348E-03  6.08249486E-03
     ---------------------------------------------------------------

 Number of problematic transitions =                    24

--

 Electric-dipole - electric-octupole not included
++ Total transition strengths for the second-order expansion of the wave vector (SO states):
   -----------------------------------------------------------------------------------------
    for osc. strength at least    1.0000000000000001E-005

      From   To        Osc. strength
     -------------------------------
         1   11       4.91884840E-05
         1   17       2.19378836E-05
         2   12       4.91884840E-05
         2   18       2.19378836E-05
         3   11       4.91843989E-05
         3   17       2.19409862E-05
         4   12       4.91843989E-05
         4   18       2.19409862E-05
         5   11       5.18272313E-05
         6   12       5.18272313E-05
         7   11       5.18121246E-05
         8   12       5.18121246E-05
         9   11       5.25338372E-05
        10   12       5.25338372E-05
     -------------------------------
--

++ I/O STATISTICS
 
  I. General I/O information
  - - - - - - - - - - - - - - - - - - - - - - - - - - - - - - - - - - - - - - - - - - -
  Unit  Name          Flsize      Write/Read            MBytes           Write/Read
                      (MBytes)       Calls              In/Out           Time, sec.
  - - - - - - - - - - - - - - - - - - - - - - - - - - - - - - - - - - - - - - - - - - -
   1  SCRATCH           0.00 .       9/      45 .      0.0/      0.0 .       0/       0
   2  ANNI              0.00 .       0/       0 .      0.0/      0.0 .       0/       0
   3  RUNFILE          15.31 .     322/   10733 .      2.3/     77.8 .       0/       0
   4  ONEINT            6.58 .       0/   28767 .      0.0/   3777.9 .       0/       0
   5  JOBIPH            7.70 .       0/      92 .      0.0/      0.9 .       0/       0
   6  ORDINT          771.03 .       1/    6169 .      0.0/   1542.0 .       0/       0
  - - - - - - - - - - - - - - - - - - - - - - - - - - - - - - - - - - - - - - - - - - -
   *  TOTAL           800.62 .     332/   45806 .      2.3/   5398.7 .       0/       0
  - - - - - - - - - - - - - - - - - - - - - - - - - - - - - - - - - - - - - - - - - - -
 
  II. I/O Access Patterns
  - - - - - - - - - - - - - - - - - - - -
  Unit  Name               % of random
                         Write/Read calls
  - - - - - - - - - - - - - - - - - - - -
   1  SCRATCH             88.9/ 100.0
   2  ANNI                 0.0/   0.0
   3  RUNFILE             28.6/  10.8
   4  ONEINT               0.0/  13.4
   5  JOBIPH               0.0/  76.1
   6  ORDINT             100.0/   0.0
  - - - - - - - - - - - - - - - - - - - -
--
--- Stop Module: rassi at Tue Mar 25 16:54:12 2025 /rc=_RC_ALL_IS_WELL_ ---
*** files: xmldump
    saved to directory /home4/s4752295/Internship/Initial_simulations/Point_charge_model/1_electron/Madelung_charges_9_active_space/W
--- Module rassi spent 4 seconds ---

.##################.
.# Happy landing! #.
.##################.

    Timing: Wall=85.46 User=68.71 System=12.05

###############################################################################
Hbrk Cluster
Job 15899279 for user s4752295
Finished at: Tue Mar 25 16:54:16 CET 2025

Job details:
============

Job ID                         : 15899279
Name                           : W_no_SO
User                           : s4752295
Partition                      : regularmedium
Nodes                          : node22
Number of Nodes                : 1
Cores                          : 1
Number of Tasks                : 1
State                          : COMPLETED  
Submit                         : 2025-03-25T16:51:41
Start                          : 2025-03-25T16:52:42
End                            : 2025-03-25T16:54:12
Reserved walltime              : 15:00:00
Used walltime                  : 00:01:30
Used CPU time                  : 00:01:22 (Efficiency: 91.15%)
% User (Computation)           : 84.98%
% System (I/O)                 : 15.02%
Total memory reserved          : 25000M
Maximum memory used            : 70.78M

Acknowledgements:
=================

Please see this page for information about acknowledging Hbrk in your publications:

https://wiki.hpc.rug.nl/habrok/introduction/scientific_output

################################################################################
