   This run of MOLCAS is using the pymolcas driver

                             OPE
                             OPE          NMOL  CASOP  ENMOLC A   SO
                 OPE        NMOLC        AS  OP EN  MO LC     AS  OP
                OPENM       OL CA        SO  PE NM  OL CA     SOP EN
                OP EN      MO   LC       AS  OP ENMOL  CASO   PENMOL
                OP  EN     MO   LC       AS  OP EN     MO     LC ASO
               OP   E  NMOL  C  AS       OP  EN MO     LC     AS  OP
               OP  E   NMO   LC AS        OPEN  MO     LCASOP EN   M
               O  PEN   MO  LCA  SO
            OPE   NMO   L   CAS    OP
        OPENMOL  CASOP     ENMOL   CASOPE
     OPENMOLCA   SOPENMOLCASOPEN   MOLCASOPE
    OPENMOLCAS   OP           EN   MOL    CAS
    OPENMOLCAS       OP  ENM        O     LCA
    OPENMOLCAS    OPEN  MOLCASO     P  E  NMO
    OPENMOLCAS     OP               E  N  MOL
    OPENMOLCA   SO           PENM   O  L  CAS    OPEN    MO    LCAS
    OPENMOLCA   SOP           ENM   O  L  CAS   OP  EN  MOLC  AS   O
    OPENMOLCA   SOPE           NM      O  LCA   S      OP  EN MO
    OPENMOLC                AS         O  PEN   M      OL  CA  SOPE
    OPENMO        LCASOPE  NMOL        C  ASO   P      ENMOLC     AS
    OPE     NMO      LCA  SO     P     E   NM   OL  CA SO  PE N   MO
          OPENMOLCA            SOPE   NMO        LCAS  O    P  ENMO
     OPENMOLCASOPENMOLCASOPENMOLCASOPENMOLCA
        OPENMOLCASOPENMOLCASOPENMOLCASOPE
            OPENMOLCASOPENMOLCASOPENM
               OPENMOLCASOPENMOLCA        version: o91e1abe7de707b ?
                   OPENMOLCASO
                       OPE                tag:

 OpenMolcas is free software; you can redistribute it and/or modify it
 under the terms of the GNU Lesser General Public License version 2.1.
 OpenMolcas is distributed in the hope that it will be useful, but it
 is provided "as is" and without any express or implied warranties.
 For more details see the full text of the license in the file
 LICENSE or in <http://www.gnu.org/licenses/>.

                 Copyright (C) The OpenMolcas Authors
           For the author list and the recommended citation,
                   consult the file CONTRIBUTORS.md

           *************************************************
           * pymolcas version py2.10                       *
           *   build 3068ae8b88c9345ec6cfef6fef7f1169      *
           *   (after the EMIL interpreter by V. Veryazov) *
           *************************************************

configuration info
------------------
Host name: login1 (Linux)
C Compiler ID: GNU
C flags: -std=gnu99
Fortran Compiler ID: GNU
Fortran flags: -fno-aggressive-loop-optimizations -cpp -fdefault-integer-8 -fmax-stack-var-size=1048576
Definitions: _MOLCAS_;_I8_;_LINUX_;_MKL_
Parallel: OFF (GA=OFF)


   ----------------------------------------------------------------------------------------------------------------------------------
  |
  |           Project: tungsten_so_cf
  |    Submitted from: /home4/s4752295/Internship/Initial_simulations/Point_charge_model/1_electron/Madelung_charges_9_active_space/W
  |      Scratch area: /tmp/tungsten_so_cf
  |   Save outputs to: /home4/s4752295/Internship/Initial_simulations/Point_charge_model/1_electron/Madelung_charges_9_active_space/W
  |            Molcas: /home4/s4752295/Internship/Molcas/recomp_try/OpenMolcas-master/build
  |
  | Scratch area is empty
  |
  |    MOLCAS_DRIVER = /home4/s4752295/Internship/Molcas/bin/pymolcas
  |    MOLCAS_NPROCS = 1
  |    MOLCAS_SOURCE = /home4/s4752295/Internship/Molcas/recomp_try/OpenMolcas-master
  | MOLCAS_STRUCTURE = 0
  |
   ----------------------------------------------------------------------------------------------------------------------------------

++ ---------   Input file   ---------

&SEWARD
AMFi

CLIG
$R

Basis Set
W.ANO-rcc.Roos.24s21p15d11f4g2h.11s10p9d8f4g2h.
Spherical d
W            -1.0658140267135469e-14    -3.5527134223784897e-15 0.008753588724385739
End of Basis

Xfield

414
-8.00440216,-3.08,1.778238      -0.625931
-8.00440216,-0.0,-3.556478      -0.625931
-8.00440216,3.08,1.778238       -0.625931
-7.99069214,0.0,0.0     1.892092
5.31835938,-3.08,-1.778238      2.515516
5.31835938,0.0,3.556478 2.515516
5.31835938,3.08,-1.778238       2.515516
7.12597656,-6.16,0.0    0.004632
7.12597656,-3.08,-5.334716      0.004632
7.12597656,-3.08,5.334716       0.004632
7.12597656,3.08,-5.334716       0.004632
7.12597656,3.08,5.334716        0.004632
7.12597656,6.16,0.0     0.004632
8.25830078,-3.08,1.778238       -2.519484
8.25830078,-0.0,-3.556478       -2.519484
8.25830078,3.08,1.778238        -2.519484
-5.86621094,-0.0,-0.0   -3.142907
-9.95019532,-6.16,-3.556478     -0.625931
-9.95019532,0.0,7.112954        -0.625931
-9.95019532,6.16,-3.556478      -0.625931
-13.21875,-6.16,0.0     1.892092
-13.21875,-3.08,-5.334716       1.892092
-13.21875,-3.08,5.334716        1.892092
-13.21875,3.08,-5.334716        1.892092
-13.21875,3.08,5.334716 1.892092
-13.21875,6.16,0.0      1.892092
50.34375,-6.16,3.556478 2.515516
50.34375,-0.0,-7.112954 2.515516
50.34375,6.16,3.556478  2.515516
7.27734376,-6.16,-3.556478      -2.519484
7.27734376,0.0,7.112954 -2.519484
7.27734376,6.16,-3.556478       -2.519484
-6.46484376,-6.16,-0.0  -3.142907
-6.46484376,-3.08,-5.334716     -3.142907
-6.46484376,-3.08,5.334716      -3.142907
-6.46484376,3.08,-5.334716      -3.142907
-6.46484376,3.08,5.334716       -3.142907
-6.46484376,6.16,-0.0   -3.142907
-19.046875,-6.16,7.112954       -0.625931
-19.046875,6.16,7.112954        -0.625931
-19.046875,-9.24,1.778238       -0.625931
-19.046875,9.24,1.778238        -0.625931
-19.046875,-3.08,-8.891194      -0.625931
-19.046875,3.08,-8.891194       -0.625931
12.015625,-3.08,-1.778238       4.409069
12.015625,3.08,-1.778238        4.409069
12.015625,0.0,3.556478  4.409069
-350.5,-0.0,-0.0        -5.030367
-350.5,0.0,0.0  5.039632
27.03515624,-6.16,-7.112954     2.515516
27.03515624,6.16,-7.112954      2.515516
27.03515624,-9.24,-1.778238     2.515516
27.03515624,9.24,-1.778238      2.515516
27.03515624,-3.08,8.891194      2.515516
27.03515624,3.08,8.891194       2.515516
38.078125,-9.24,-5.334716       0.004632
38.078125,-9.24,5.334716        0.004632
38.078125,9.24,-5.334716        0.004632
38.078125,9.24,5.334716 0.004632
38.078125,-0.0,-10.669432       0.004632
38.078125,0.0,10.669432 0.004632
96.15625,-6.16,7.112954 -2.519484
96.15625,6.16,7.112954  -2.519484
96.15625,-9.24,1.778238 -2.519484
96.15625,9.24,1.778238  -2.519484
96.15625,-3.08,-8.891194        -2.519484
96.15625,3.08,-8.891194 -2.519484
-291.75,-9.24,-5.334716 1.892092
-291.75,-9.24,5.334716  1.892092
-291.75,9.24,-5.334716  1.892092
-291.75,9.24,5.334716   1.892092
-291.75,-0.0,-10.669432 1.892092
-291.75,0.0,10.669432   1.892092
-235.5,-6.16,3.556478   4.409069
-235.5,-0.0,-7.112954   4.409069
-235.5,6.16,3.556478    4.409069
-178.0,-6.16,-0.0       -5.030367
-178.0,-3.08,-5.334716  -5.030367
-178.0,-3.08,5.334716   -5.030367
-178.0,3.08,-5.334716   -5.030367
-178.0,-6.16,0.0        5.039632
-178.0,6.16,-0.0        -5.030367
-178.0,3.08,5.334716    -5.030367
-178.0,-3.08,-5.334716  5.039632
-178.0,-3.08,5.334716   5.039632
-178.0,3.08,-5.334716   5.039632
-178.0,6.16,0.0 5.039632
-178.0,3.08,5.334716    5.039632
-93.25,-3.08,-1.778238  -5.660931
-93.25,0.0,3.556478     -5.660931
-93.25,3.08,-1.778238   -5.660931
1.765625,-12.319998,0.0 0.004632
1.765625,-6.16,-10.669432       0.004632
1.765625,-6.16,10.669432        0.004632
1.765625,6.16,-10.669432        0.004632
1.765625,12.319998,0.0  0.004632
1.765625,6.16,10.669432 0.004632
135.875,-9.24,5.334716  -3.142907
135.875,-9.24,-5.334716 -3.142907
135.875,9.24,-5.334716  -3.142907
135.875,9.24,5.334716   -3.142907
135.875,-0.0,-10.669432 -3.142907
135.875,0.0,10.669432   -3.142907
172.75,-12.319998,-3.556478     -0.625931
172.75,-9.24,-8.891194  -0.625931
172.75,-3.08,12.44767   -0.625931
172.75,9.24,-8.891194   -0.625931
172.75,12.319998,-3.556478      -0.625931
172.75,3.08,12.44767    -0.625931
2.39453124,-12.319998,0.0       1.892092
2.39453124,-6.16,-10.669432     1.892092
2.39453124,-6.16,10.669432      1.892092
2.39453124,6.16,-10.669432      1.892092
2.39453124,12.319998,0.0        1.892092
2.39453124,6.16,10.669432       1.892092
67.6875,-6.16,-7.112954 4.409069
67.6875,6.16,-7.112954  4.409069
67.6875,-9.24,-1.778238 4.409069
67.6875,9.24,-1.778238  4.409069
67.6875,-3.08,8.891194  4.409069
67.6875,3.08,8.891194   4.409069
324.8125,-6.16,3.556478 -5.660931
324.8125,-0.0,-7.112954 -5.660931
324.8125,6.16,3.556478  -5.660931
0.6875,-12.319998,3.556478      2.515516
0.6875,-3.08,-12.44767  2.515516
0.6875,-9.24,8.891194   2.515516
0.6875,3.08,-12.44767   2.515516
0.6875,12.319998,3.556478       2.515516
0.6875,9.24,8.891194    2.515516
-188.375,-12.319998,-3.556478   -2.519484
-188.375,-9.24,-8.891194        -2.519484
-188.375,-3.08,12.44767 -2.519484
-188.375,9.24,-8.891194 -2.519484
-188.375,3.08,12.44767  -2.519484
-188.375,12.319998,-3.556478    -2.519484
-44.140625,-12.319998,-0.0      -3.142907
-44.140625,-6.16,-10.669432     -3.142907
-44.140625,-6.16,10.669432      -3.142907
-44.140625,6.16,-10.669432      -3.142907
-44.140625,6.16,10.669432       -3.142907
-44.140625,12.319998,-0.0       -3.142907
1213.0,0.0,0.0  6.927092
646.5,-12.319998,7.112954       -0.625931
646.5,12.319998,7.112954        -0.625931
646.5,-0.0,-14.22591    -0.625931
-10.84375,-9.24,5.334716        -5.030367
-10.84375,-9.24,-5.334716       -5.030367
-10.84375,-9.24,5.334716        5.039632
-10.84375,-9.24,-5.334716       5.039632
-10.84375,9.24,-5.334716        -5.030367
-10.84375,9.24,5.334716 -5.030367
-10.84375,9.24,-5.334716        5.039632
-10.84375,9.24,5.334716 5.039632
-10.84375,-0.0,-10.669432       -5.030367
-10.84375,0.0,10.669432 -5.030367
-10.84375,-0.0,-10.669432       5.039632
-10.84375,0.0,10.669432 5.039632
183.625,-6.16,-7.112954 -5.660931
183.625,6.16,-7.112954  -5.660931
183.625,-9.24,-1.778238 -5.660931
183.625,9.24,-1.778238  -5.660931
183.625,-3.08,8.891194  -5.660931
183.625,3.08,8.891194   -5.660931
601.0,-12.319998,-7.112954      2.515516
601.0,12.319998,-7.112954       2.515516
601.0,0.0,14.22591      2.515516
-1034.5,-12.319998,7.112954     -2.519484
-1034.5,12.319998,7.112954      -2.519484
-1034.5,-0.0,-14.22591  -2.519484
107.125,-6.16,0.0       6.927092
107.125,-3.08,-5.334716 6.927092
107.125,-3.08,5.334716  6.927092
107.125,3.08,-5.334716  6.927092
107.125,3.08,5.334716   6.927092
107.125,6.16,0.0        6.927092
-110.5,-3.08,1.778238   7.550516
-110.5,0.0,-3.556478    7.550516
-110.5,3.08,1.778238    7.550516
31.0625,-3.08,-1.778238 -7.554483
31.0625,3.08,-1.778238  -7.554483
31.0625,-0.0,3.556478   -7.554483
-249.75,-15.399998,1.778238     -0.625931
-249.75,-9.24,12.44767  -0.625931
-249.75,-6.16,-14.22591 -0.625931
-249.75,6.16,-14.22591  -0.625931
-249.75,15.399998,1.778238      -0.625931
-249.75,9.24,12.44767   -0.625931
-134.875,-12.319998,3.556478    4.409069
-134.875,-9.24,8.891194 4.409069
-134.875,-3.08,-12.44767        4.409069
-134.875,3.08,-12.44767 4.409069
-134.875,9.24,8.891194  4.409069
-134.875,12.319998,3.556478     4.409069
98.3125,-12.319998,-0.0 -5.030367
98.3125,-6.16,-10.669432        -5.030367
98.3125,-6.16,10.669432 -5.030367
98.3125,-12.319998,0.0  5.039632
98.3125,-6.16,-10.669432        5.039632
98.3125,6.16,-10.669432 -5.030367
98.3125,6.16,10.669432  -5.030367
98.3125,12.319998,-0.0  -5.030367
98.3125,-6.16,10.669432 5.039632
98.3125,6.16,-10.669432 5.039632
98.3125,12.319998,0.0   5.039632
98.3125,6.16,10.669432  5.039632
361.5,-15.399998,-1.778238      2.515516
361.5,-9.24,-12.44767   2.515516
361.5,-6.16,14.22591    2.515516
361.5,9.24,-12.44767    2.515516
361.5,15.399998,-1.778238       2.515516
361.5,6.16,14.22591     2.515516
-46.6875,-15.399998,-5.334716   0.004632
-46.6875,-15.399998,5.334716    0.004632
-46.6875,-12.319998,-10.669432  0.004632
-46.6875,-12.319998,10.669432   0.004632
-46.6875,-3.08,-16.004148       0.004632
-46.6875,3.08,-16.004148        0.004632
-46.6875,-3.08,16.004148        0.004632
-46.6875,12.319998,-10.669432   0.004632
-46.6875,3.08,16.004148 0.004632
-46.6875,15.399998,-5.334716    0.004632
-46.6875,15.399998,5.334716     0.004632
-46.6875,12.319998,10.669432    0.004632
-286.25,-15.399998,1.778238     -2.519484
-286.25,-9.24,12.44767  -2.519484
-286.25,-6.16,-14.22591 -2.519484
-286.25,6.16,-14.22591  -2.519484
-286.25,15.399998,1.778238      -2.519484
-286.25,9.24,12.44767   -2.519484
6064.0,-0.0,-0.0        -8.177907
-232.0,-6.16,-3.556478  7.550516
-232.0,0.0,7.112954     7.550516
-232.0,6.16,-3.556478   7.550516
-1207.0,-6.16,3.556478  -7.554483
-1207.0,-0.0,-7.112954  -7.554483
-1207.0,6.16,3.556478   -7.554483
97.8125,-15.399998,5.334716     1.892092
97.8125,-15.399998,-5.334716    1.892092
97.8125,-12.319998,-10.669432   1.892092
97.8125,-12.319998,10.669432    1.892092
97.8125,-3.08,-16.004148        1.892092
97.8125,3.08,-16.004148 1.892092
97.8125,-3.08,16.004148 1.892092
97.8125,12.319998,-10.669432    1.892092
97.8125,3.08,16.004148  1.892092
97.8125,15.399998,-5.334716     1.892092
97.8125,15.399998,5.334716      1.892092
97.8125,12.319998,10.669432     1.892092
-1010.0,-12.319998,-7.112954    4.409069
-1010.0,12.319998,-7.112954     4.409069
-1010.0,0.0,14.22591    4.409069
51.640625,-12.319998,3.556478   -5.660931
51.640625,-3.08,-12.44767       -5.660931
51.640625,-9.24,8.891194        -5.660931
51.640625,3.08,-12.44767        -5.660931
51.640625,9.24,8.891194 -5.660931
51.640625,12.319998,3.556478    -5.660931
-116.375,-12.319998,-10.669432  -3.142907
-116.375,-15.399998,5.334716    -3.142907
-116.375,-15.399998,-5.334716   -3.142907
-116.375,-12.319998,10.669432   -3.142907
-116.375,-3.08,-16.004148       -3.142907
-116.375,3.08,-16.004148        -3.142907
-116.375,-3.08,16.004148        -3.142907
-116.375,15.399998,-5.334716    -3.142907
-116.375,12.319998,-10.669432   -3.142907
-116.375,3.08,16.004148 -3.142907
-116.375,15.399998,5.334716     -3.142907
-116.375,12.319998,10.669432    -3.142907
130.8125,-9.24,-5.334716        6.927092
130.8125,-9.24,5.334716 6.927092
130.8125,9.24,-5.334716 6.927092
130.8125,9.24,5.334716  6.927092
130.8125,-0.0,-10.669432        6.927092
130.8125,0.0,10.669432  6.927092
-166.5,-6.16,-0.0       -8.177907
-166.5,-3.08,5.334716   -8.177907
-166.5,-3.08,-5.334716  -8.177907
-166.5,3.08,-5.334716   -8.177907
-166.5,6.16,-0.0        -8.177907
-166.5,3.08,5.334716    -8.177907
-181.8125,-6.16,7.112954        7.550516
-181.8125,6.16,7.112954 7.550516
-181.8125,-9.24,1.778238        7.550516
-181.8125,9.24,1.778238 7.550516
-181.8125,-3.08,-8.891194       7.550516
-181.8125,3.08,-8.891194        7.550516
-91.375,-6.16,-7.112954 -7.554483
-91.375,6.16,-7.112954  -7.554483
-91.375,-9.24,-1.778238 -7.554483
-91.375,9.24,-1.778238  -7.554483
-91.375,-3.08,8.891194  -7.554483
-91.375,3.08,8.891194   -7.554483
-1000.5,0.0,17.782386   -0.625931
-1000.5,-15.399998,-8.891194    -0.625931
-1000.5,15.399998,-8.891194     -0.625931
-539.5,-15.399998,-1.778238     4.409069
-539.5,-9.24,-12.44767  4.409069
-539.5,-6.16,14.22591   4.409069
-539.5,9.24,-12.44767   4.409069
-539.5,15.399998,-1.778238      4.409069
-539.5,6.16,14.22591    4.409069
620.75,-12.319998,-7.112954     -5.660931
620.75,12.319998,-7.112954      -5.660931
620.75,0.0,14.22591     -5.660931
1174.0,-0.0,-17.782386  2.515516
1174.0,-15.399998,8.891194      2.515516
1174.0,15.399998,8.891194       2.515516
-187.75,-18.479998,-0.0 0.004632
-187.75,9.24,-16.004148 0.004632
-187.75,-9.24,16.004148 0.004632
-187.75,18.479998,-0.0  0.004632
-187.75,-9.24,-16.004148        0.004632
-187.75,9.24,16.004148  0.004632
-771.5,0.0,17.782386    -2.519484
-771.5,-15.399998,-8.891194     -2.519484
-771.5,15.399998,-8.891194      -2.519484
456.0,-12.319998,0.0    6.927092
456.0,-6.16,-10.669432  6.927092
456.0,-6.16,10.669432   6.927092
456.0,6.16,-10.669432   6.927092
456.0,12.319998,0.0     6.927092
456.0,6.16,10.669432    6.927092
423.75,-18.479998,-3.556478     -0.625931
423.75,-6.16,17.782386  -0.625931
423.75,-12.319998,-14.22591     -0.625931
423.75,12.319998,-14.22591      -0.625931
423.75,6.16,17.782386   -0.625931
423.75,18.479998,-3.556478      -0.625931
223.875,-18.479998,0.0  1.892092
223.875,-9.24,-16.004148        1.892092
223.875,-9.24,16.004148 1.892092
223.875,9.24,-16.004148 1.892092
223.875,18.479998,0.0   1.892092
223.875,9.24,16.004148  1.892092
-8.640625,-15.399998,5.334716   -5.030367
-8.640625,-15.399998,-5.334716  -5.030367
-8.640625,-12.319998,-10.669432 -5.030367
-8.640625,-12.319998,10.669432  -5.030367
-8.640625,-15.399998,5.334716   5.039632
-8.640625,3.08,-16.004148       -5.030367
-8.640625,-3.08,-16.004148      -5.030367
-8.640625,-15.399998,-5.334716  5.039632
-8.640625,-12.319998,-10.669432 5.039632
-8.640625,-3.08,16.004148       -5.030367
-8.640625,3.08,-16.004148       5.039632
-8.640625,-12.319998,10.669432  5.039632
-8.640625,-3.08,-16.004148      5.039632
-8.640625,12.319998,-10.669432  -5.030367
-8.640625,3.08,16.004148        -5.030367
-8.640625,15.399998,-5.334716   -5.030367
-8.640625,15.399998,5.334716    -5.030367
-8.640625,12.319998,10.669432   -5.030367
-8.640625,-3.08,16.004148       5.039632
-8.640625,12.319998,-10.669432  5.039632
-8.640625,15.399998,-5.334716   5.039632
-8.640625,3.08,16.004148        5.039632
-8.640625,15.399998,5.334716    5.039632
-8.640625,12.319998,10.669432   5.039632
-1.375,-15.399998,-1.778238     -5.660931
-1.375,-9.24,-12.44767  -5.660931
-1.375,-6.16,14.22591   -5.660931
-1.375,9.24,-12.44767   -5.660931
-1.375,6.16,14.22591    -5.660931
-1.375,15.399998,-1.778238      -5.660931
232.0,-3.08,1.778238    9.444068
232.0,0.0,-3.556478     9.444068
232.0,3.08,1.778238     9.444068
102.625,-18.479998,3.556478     2.515516
102.625,-6.16,-17.782386        2.515516
102.625,6.16,-17.782386 2.515516
102.625,-12.319998,14.22591     2.515516
102.625,18.479998,3.556478      2.515516
102.625,12.319998,14.22591      2.515516
313.75,-18.479998,-3.556478     -2.519484
313.75,-6.16,17.782386  -2.519484
313.75,-12.319998,-14.22591     -2.519484
313.75,12.319998,-14.22591      -2.519484
313.75,18.479998,-3.556478      -2.519484
313.75,6.16,17.782386   -2.519484
439.25,-18.479998,-0.0  -3.142907
439.25,-9.24,-16.004148 -3.142907
439.25,-9.24,16.004148  -3.142907
439.25,9.24,-16.004148  -3.142907
439.25,18.479998,-0.0   -3.142907
439.25,9.24,16.004148   -3.142907
17.29101562,-9.24,-5.334716     -8.177907
17.29101562,-9.24,5.334716      -8.177907
17.29101562,9.24,5.334716       -8.177907
17.29101562,9.24,-5.334716      -8.177907
17.29101562,-0.0,-10.669432     -8.177907
17.29101562,0.0,10.669432       -8.177907
503.75,-9.24,-8.891194  7.550516
503.75,-12.319998,-3.556478     7.550516
503.75,-3.08,12.44767   7.550516
503.75,9.24,-8.891194   7.550516
503.75,3.08,12.44767    7.550516
503.75,12.319998,-3.556478      7.550516
-696.0,-9.24,8.891194   -7.554483
-696.0,-12.319998,3.556478      -7.554483
-696.0,-3.08,-12.44767  -7.554483
-696.0,3.08,-12.44767   -7.554483
-696.0,12.319998,3.556478       -7.554483
-696.0,9.24,8.891194    -7.554483
142.53125,-15.399998,12.44767   -0.625931
142.53125,-18.479998,7.112954   -0.625931
142.53125,-3.08,-19.560626      -0.625931
142.53125,3.08,-19.560626       -0.625931
142.53125,18.479998,7.112954    -0.625931
142.53125,15.399998,12.44767    -0.625931
-967.5,-0.0,-17.782386  4.409069
-967.5,-15.399998,8.891194      4.409069
-967.5,15.399998,8.891194       4.409069

End of input

&SCF
Occupied
9
Iterations
   50  100
End of Input

&RASSCF
LumOrb
Symmetry
1
Spin
2
Nactel
1 0 0
CIRoot
9 9 1
inactive
9
ras2
9
End of Input

>>> COPY tungsten_so_cf.JobIph $SLURM_SUBMIT_DIR/tungsten_so_cf.doublet.JobIph

>>> COPY $SLURM_SUBMIT_DIR/tungsten_so_cf.doublet.JobIph ./JOB002

&RASSI
NROFJobIph
1 All
SpinOrbit
End of Input

EOF

-- ----------------------------------

--- Start Module: seward at Thu Mar 27 00:12:26 2025 ---

()()()()()()()()()()()()()()()()()()()()()()()()()()()()()()()()()()()()()()()()()()()()()()()()()()

                                              &SEWARD

                                   only a single process is used
                       available to each process: 4.1 GB of memory, 1 thread?
                                            pid: 1938393
()()()()()()()()()()()()()()()()()()()()()()()()()()()()()()()()()()()()()()()()()()()()()()()()()()

 The speed of LIGHT in this CALCULATION =   137.03599917700001     
               SEWARD will generate:
                  Multipole Moment integrals up to order  2
                  Kinetic Energy integrals
                  Nuclear Attraction integrals (point charge)
                  One-Electron Hamiltonian integrals
                  Velocity integrals
                  Relativistic Douglas-Kroll-Hess integrals:
                    - Parametrization         : EXP
                    - DKH order of Hamiltonian: 2
                    - DKH order of Properties : 0
                         - multipole moment operators
                         - electric potential operators
                         - contact operators
                  External field from   414 point(s) added to the one-electron Hamiltonian
                  Orbital angular momentum around (-0.0000 -0.0000  0.0088 )
                  Velocity quadrupole around (-0.0000 -0.0000  0.0088 )
                  Atomic mean-field integrals
                  Two-Electron Repulsion integrals

                   Integrals are discarded if absolute value <: 0.10E-13
                   Integral cutoff threshold is set to       <: 0.10E-15

++    Symmetry information:
      ---------------------

                    Character Table for C1 

                             E  
                    a        1  x, y, xy, Rz, z, xz, Ry, yz, Rx, I
--


++    Basis set information:
      ----------------------


      Basis set label: W.ANO-RCC.ROOS.24S21P15D11F4G2H.11S10P9D8F4G2H......

      Electronic valence basis set:
      ------------------
      Associated Effective Charge  74.000000 au
      Associated Actual Charge     74.000000 au
      Nuclear Model: Point charge

      Shell  nPrim  nBasis  Cartesian Spherical Contaminant
         s      24      11        X                  
         p      21      10        X                  
         d      15       9                 X         
         f      11       8                 X         
         g       4       4                 X         
         h       2       2                 X         
--


++    Molecular structure info:
      -------------------------

                    ************************************************ 
                    **** Cartesian Coordinates / Bohr, Angstrom **** 
                    ************************************************ 

     Center  Label                x              y              z                     x              y              z
        1      W               -0.000000      -0.000000       0.008754             -0.000000      -0.000000       0.004632
--


++    Operator info:
      --------------


  Net charge from external field:   -39.268449999999902     
--


            Nuclear Potential Energy              0.00000000 au

                    Nuclear-External Field Potential Energy    -338.51189311 au
                    External Field Potential Energy             802.81845069 au 


            Total Nuclear Potential Energy           -338.51189311 au


      Basis set specifications :
      Symmetry species         a  
      Basis functions          200

 Sorry, Molden does not know how to handle
 functions with angular momentum larger than g
Note: The following floating-point exceptions are signalling: IEEE_UNDERFLOW_FLAG IEEE_DENORMAL
--- Stop Module: seward at Thu Mar 27 00:12:44 2025 /rc=_RC_ALL_IS_WELL_ ---
*** files: tungsten_so_cf.GssOrb xmldump
    saved to directory /home4/s4752295/Internship/Initial_simulations/Point_charge_model/1_electron/Madelung_charges_9_active_space/W
--- Module seward spent 18 seconds ---

*** symbolic link created: INPORB -> tungsten_so_cf.GssOrb
--- Start Module: scf at Thu Mar 27 00:12:44 2025 ---

()()()()()()()()()()()()()()()()()()()()()()()()()()()()()()()()()()()()()()()()()()()()()()()()()()

                                                &SCF

                                   only a single process is used
                       available to each process: 4.1 GB of memory, 1 thread?
                                            pid: 1938415
()()()()()()()()()()()()()()()()()()()()()()()()()()()()()()()()()()()()()()()()()()()()()()()()()()

++    Input section:
      --------------

      Header of the integral files:
      
       Integrals generated by seward 4.2.0  , Thu Mar 27 00:12:26 2025


      Cartesian coordinates in Angstrom:
      -----------------------------------------------------
      No.  Label        X            Y            Z        
      -----------------------------------------------------
       1   W         -0.00000000  -0.00000000   0.00463220
      -----------------------------------------------------
      Nuclear repulsion energy = -338.51189311
--

++    Orbital specifications:
      -----------------------

      Symmetry species               1
                                     a
      Frozen orbitals                0
      Occupied orbitals              9
      Secondary orbitals           191
      Deleted orbitals               0
      Total number of orbitals     200
      Number of basis functions    200
--

      Molecular charge                          56.000

++    Optimization specifications:
      ----------------------------

      SCF Algorithm: Conventional
      Minimized density differences are used
      Number of density matrices in core                5
      Maximum number of NDDO SCF iterations            50
      Maximum number of HF SCF iterations             100
      Threshold for SCF energy change            0.10E-08
      Threshold for density matrix               0.10E-03
      Threshold for Fock matrix                  0.15E-03
      Threshold for linear dependence            0.10E-08
      Threshold at which DIIS is turned on       0.15E+00
      Threshold at which QNR/C2DIIS is turned on 0.75E-01
      Threshold for Norm(delta) (QNR/C2DIIS)     0.20E-04
      DIIS extrapolation of the SCF procedure
      All orbitals punched on: SCFORB
--

      Detected guessorb starting orbitals                                             


++ Convergence information
                                   SCF        iterations: Energy and convergence statistics

Iter     Tot. SCF        One-elec.       Two-elec.     Energy      Max Dij or  Max Fij      DNorm      TNorm      AccCon     Time
         Energy          Energy          Energy        Change      Delta Norm                                                in Sec.

 The total and one-electron energies are shifted by a value of     13000. a.u.

   1  -170.173513521 -1100.508587020  1268.846966605   0.00E+00    0.22E+00*   0.90E+01*    0.60E+01   0.65E+03   None         1.
   2  -181.241248950 -1156.606319716  1313.876963872  -0.11E+02*   0.16E-02*   0.20E+00*    0.90E+00   0.66E+03   EDIIS        1.
   3  -181.244331561 -1156.064169540  1313.331731085  -0.31E-02*   0.66E-04    0.37E-02*    0.95E-02   0.66E+03   EDIIS        1.
   4  -181.244332353 -1156.074865321  1313.342426074  -0.79E-06*   0.16E-05    0.37E-04     0.77E-04   0.66E+03   c2DIIS       1.
   5  -181.244332353 -1156.074752243  1313.342312996  -0.27E-09    0.71E-07    0.21E-05     0.67E-05   0.66E+03   QNRc2DIIS    1.

       Convergence after  5 Macro Iterations
--

 *****************************************************************************************************************************
 *                                                                                                                           *
 *                                             SCF/KS-DFT Program, Final results                                             *
 *                                                                                                                           *
 *                                                                                                                           *
 *                                                                                                                           *
 *                                                       Final Results                                                       *
 *                                                                                                                           *
 *****************************************************************************************************************************

::    Total SCF energy                             -13181.2443323528
      One-electron energy                          -14156.0747522430
      Two-electron energy                            1313.3423129964
      Nuclear repulsion energy                       -338.5118931062
      Kinetic energy (interpolated)                 19280.3808457726
      Virial theorem                                    0.6836609939
      Total spin, S(S+1)                                0.0000000000
      Total spin, S                                     0.0000000000
      Max non-diagonal density matrix element           0.0000000858
      Max non-diagonal Fock matrix element              0.0000000000


      All orbitals with orbital energies smaller than  E(LUMO)+0.5 are printed

++    Molecular orbitals:
      -------------------

      Title: SCF orbitals

      Molecular orbitals for symmetry species 1: a  

          Some orbital energies have been scaled by powers of 10, the power is written right after the orbital index


          Orbital            1 (1)     2         3         4         5         6         7         8         9        10    
          Energy         -271.0460 -589.7287 -535.7793 -535.7793 -535.7793 -226.8003 -210.1227 -210.1227 -210.1224 -190.1485
          Occ. No.          2.0000    2.0000    2.0000    2.0000    2.0000    2.0000    2.0000    2.0000    2.0000    0.0000

        1 W      1s         1.0000    0.0001    0.0000    0.0000   -0.0000   -0.0000   -0.0000    0.0000    0.0000   -0.0000
        2 W      2s        -0.0001    0.9999    0.0000    0.0000   -0.0001    0.0122    0.0000   -0.0000   -0.0000    0.0000
        3 W      3s         0.0000   -0.0118   -0.0000   -0.0000    0.0000    0.9952    0.0000   -0.0000   -0.0013    0.0000
        4 W      4s        -0.0000    0.0034    0.0000    0.0000   -0.0000   -0.0799   -0.0000    0.0000    0.0002   -0.0000
        5 W      5s         0.0000   -0.0012   -0.0000   -0.0000    0.0000    0.0234    0.0000   -0.0000   -0.0001    0.0000
        6 W      6s        -0.0000    0.0003    0.0000    0.0000   -0.0000   -0.0062   -0.0000    0.0000    0.0000    0.0000
        7 W      7s         0.0000   -0.0004   -0.0000   -0.0000    0.0000    0.0069    0.0000   -0.0000   -0.0000    0.0000
        8 W      8s        -0.0000    0.0010    0.0000    0.0000   -0.0000   -0.0175   -0.0000    0.0000    0.0000    0.0000
        9 W      9s         0.0000   -0.0013   -0.0000   -0.0000    0.0000    0.0223    0.0000   -0.0000   -0.0001    0.0000
       10 W     10s        -0.0000    0.0016    0.0000    0.0000   -0.0000   -0.0252   -0.0000    0.0000    0.0001    0.0000
       11 W     11s         0.0000   -0.0024   -0.0000   -0.0000    0.0000    0.0312    0.0000   -0.0000   -0.0001    0.0000
       12 W      2px        0.0000    0.0001   -0.0014   -0.0000    0.9999    0.0000   -0.0000    0.0000    0.0143   -0.0000
       13 W      3px       -0.0000    0.0000    0.0000    0.0000   -0.0137    0.0014   -0.0014    0.0000    0.9931   -0.0000
       14 W      4px        0.0000   -0.0000   -0.0000   -0.0000    0.0038   -0.0001    0.0001   -0.0000   -0.0913    0.0000
       15 W      5px       -0.0000    0.0000    0.0000    0.0000   -0.0012    0.0000   -0.0000    0.0000    0.0253   -0.0000
       16 W      6px        0.0000   -0.0000   -0.0000   -0.0000    0.0005   -0.0000    0.0000   -0.0000   -0.0102    0.0000
       17 W      7px       -0.0000    0.0000    0.0000    0.0000   -0.0016    0.0000   -0.0000    0.0000    0.0303   -0.0000
       18 W      8px        0.0000   -0.0000   -0.0000   -0.0000    0.0017   -0.0000    0.0000   -0.0000   -0.0301    0.0000
       19 W      9px       -0.0000    0.0000    0.0000    0.0000   -0.0019    0.0000   -0.0000    0.0000    0.0310   -0.0000
       20 W     10px        0.0000   -0.0000   -0.0000   -0.0000    0.0020   -0.0000    0.0000   -0.0000   -0.0284    0.0000
       21 W     11px       -0.0000    0.0000    0.0000    0.0000   -0.0027    0.0000   -0.0000    0.0000    0.0287   -0.0000
       22 W      2py        0.0000    0.0000   -0.0035    0.9999   -0.0000   -0.0000    0.0000    0.0143    0.0000    0.0000
       23 W      3py       -0.0000   -0.0000    0.0000   -0.0137    0.0000   -0.0000    0.0001    0.9931    0.0000    0.0000
       24 W      4py        0.0000    0.0000   -0.0000    0.0038   -0.0000    0.0000   -0.0000   -0.0913   -0.0000   -0.0000
       25 W      5py       -0.0000   -0.0000    0.0000   -0.0012    0.0000   -0.0000    0.0000    0.0253    0.0000    0.0000
       26 W      6py        0.0000    0.0000   -0.0000    0.0005   -0.0000    0.0000   -0.0000   -0.0102   -0.0000   -0.0000
       27 W      7py       -0.0000   -0.0000    0.0000   -0.0016    0.0000   -0.0000    0.0000    0.0303    0.0000    0.0000
       28 W      8py        0.0000    0.0000   -0.0000    0.0017   -0.0000    0.0000   -0.0000   -0.0301   -0.0000   -0.0000
       29 W      9py       -0.0000   -0.0000    0.0000   -0.0019    0.0000   -0.0000    0.0000    0.0310    0.0000    0.0000
       30 W     10py        0.0000    0.0000   -0.0000    0.0020   -0.0000    0.0000   -0.0000   -0.0284   -0.0000   -0.0000
       31 W     11py       -0.0000   -0.0000    0.0000   -0.0027    0.0000   -0.0000    0.0000    0.0287    0.0000    0.0000
       32 W      2pz        0.0000    0.0000    0.9999    0.0035    0.0014    0.0000    0.0143   -0.0000    0.0000   -0.0000
       33 W      3pz       -0.0000    0.0000   -0.0137   -0.0000   -0.0000    0.0000    0.9931   -0.0001    0.0014   -0.0000
       34 W      4pz        0.0000   -0.0000    0.0038    0.0000    0.0000   -0.0000   -0.0913    0.0000   -0.0001    0.0000
       35 W      5pz       -0.0000    0.0000   -0.0012   -0.0000   -0.0000    0.0000    0.0253   -0.0000    0.0000   -0.0000
       36 W      6pz        0.0000   -0.0000    0.0005    0.0000    0.0000   -0.0000   -0.0102    0.0000   -0.0000    0.0000
       37 W      7pz       -0.0000    0.0000   -0.0016   -0.0000   -0.0000    0.0000    0.0303   -0.0000    0.0000   -0.0000
       38 W      8pz        0.0000   -0.0000    0.0017    0.0000    0.0000   -0.0000   -0.0301    0.0000   -0.0000    0.0000
       39 W      9pz       -0.0000    0.0000   -0.0019   -0.0000   -0.0000    0.0000    0.0310   -0.0000    0.0000   -0.0000
       40 W     10pz        0.0000   -0.0000    0.0020    0.0000    0.0000   -0.0000   -0.0284    0.0000   -0.0000    0.0000
       41 W     11pz       -0.0000    0.0000   -0.0027   -0.0000   -0.0000    0.0000    0.0287   -0.0000    0.0000   -0.0000
       42 W      3d2-      -0.0000   -0.0000   -0.0000    0.0000   -0.0000   -0.0000    0.0000    0.0009    0.0000   -0.0017
       43 W      4d2-       0.0000    0.0000    0.0000   -0.0000    0.0000    0.0000   -0.0000   -0.0000   -0.0000    0.0002
       44 W      5d2-      -0.0000   -0.0000   -0.0000    0.0000   -0.0000   -0.0000    0.0000    0.0000    0.0000   -0.0000
       45 W      6d2-       0.0000    0.0000    0.0000   -0.0000    0.0000    0.0000   -0.0000   -0.0000   -0.0000    0.0000
       46 W      7d2-      -0.0000   -0.0000   -0.0000    0.0000   -0.0000   -0.0000    0.0000    0.0000    0.0000   -0.0001
       47 W      8d2-       0.0000    0.0000    0.0000   -0.0000    0.0000    0.0000   -0.0000   -0.0000   -0.0000    0.0001
       48 W      9d2-      -0.0000   -0.0000   -0.0000    0.0000   -0.0000   -0.0000    0.0000    0.0000    0.0000   -0.0001
       49 W     10d2-       0.0000    0.0000    0.0000   -0.0000    0.0000    0.0000    0.0000    0.0000    0.0000    0.0001
       50 W     11d2-      -0.0000   -0.0000   -0.0000    0.0000   -0.0000   -0.0000   -0.0000   -0.0000   -0.0000   -0.0001
       51 W      3d1-       0.0000   -0.0000   -0.0000    0.0000   -0.0000   -0.0000    0.0000    0.0000    0.0000    0.9917
       52 W      4d1-      -0.0000    0.0000    0.0000   -0.0000    0.0000    0.0000   -0.0000   -0.0000   -0.0000   -0.0959
       53 W      5d1-       0.0000   -0.0000   -0.0000    0.0000   -0.0000   -0.0000    0.0000    0.0000   -0.0000    0.0186
       54 W      6d1-      -0.0000    0.0000    0.0000   -0.0000    0.0000    0.0000    0.0000    0.0000   -0.0000   -0.0254
       55 W      7d1-       0.0000   -0.0000    0.0000   -0.0000   -0.0000   -0.0000    0.0000    0.0000    0.0000    0.0328
       56 W      8d1-      -0.0000    0.0000    0.0000   -0.0000    0.0000    0.0000    0.0000    0.0000   -0.0000   -0.0372
       57 W      9d1-       0.0000    0.0000    0.0000   -0.0000   -0.0000    0.0000    0.0000    0.0000    0.0000    0.0370
       58 W     10d1-      -0.0000   -0.0000    0.0000   -0.0000    0.0000   -0.0000    0.0000    0.0000   -0.0000   -0.0397
       59 W     11d1-       0.0000    0.0000   -0.0000    0.0000   -0.0000    0.0000    0.0000    0.0000    0.0000    0.0299
       60 W      3d0        0.0000    0.0000    0.0000    0.0000   -0.0000    0.0000    0.0000   -0.0000   -0.0005   -0.0005
       61 W      4d0       -0.0000   -0.0000   -0.0000   -0.0000    0.0000    0.0000   -0.0000    0.0000    0.0000    0.0001
       62 W      5d0        0.0000    0.0000    0.0000    0.0000   -0.0000   -0.0000    0.0000   -0.0000   -0.0000   -0.0000
       63 W      6d0       -0.0000   -0.0000   -0.0000   -0.0000    0.0000    0.0000   -0.0000    0.0000    0.0000    0.0000
       64 W      7d0        0.0000    0.0000    0.0000    0.0000   -0.0000   -0.0000   -0.0000    0.0000   -0.0000   -0.0000
       65 W      8d0       -0.0000   -0.0000   -0.0000   -0.0000    0.0000    0.0000   -0.0000    0.0000    0.0000    0.0000
       66 W      9d0        0.0000    0.0000    0.0000    0.0000   -0.0000   -0.0000   -0.0000    0.0000   -0.0000   -0.0000
       67 W     10d0       -0.0000   -0.0000   -0.0000   -0.0000    0.0000    0.0000   -0.0000    0.0000   -0.0000    0.0000
       68 W     11d0        0.0000    0.0000    0.0000    0.0000   -0.0000   -0.0000   -0.0000    0.0000    0.0000   -0.0000
       69 W      3d1+      -0.0000   -0.0000    0.0000    0.0000    0.0000   -0.0000    0.0009   -0.0000    0.0000    0.0000
       70 W      4d1+       0.0000    0.0000   -0.0000   -0.0000   -0.0000   -0.0000   -0.0000    0.0000   -0.0000   -0.0000
       71 W      5d1+      -0.0000   -0.0000    0.0000    0.0000    0.0000    0.0000    0.0000   -0.0000    0.0000    0.0000
       72 W      6d1+       0.0000    0.0000   -0.0000   -0.0000   -0.0000   -0.0000   -0.0000    0.0000   -0.0000   -0.0000
       73 W      7d1+      -0.0000   -0.0000    0.0000    0.0000    0.0000    0.0000    0.0000   -0.0000    0.0000    0.0000
       74 W      8d1+       0.0000    0.0000   -0.0000   -0.0000   -0.0000    0.0000   -0.0000    0.0000   -0.0000   -0.0000
       75 W      9d1+      -0.0000   -0.0000    0.0000    0.0000    0.0000    0.0000    0.0000   -0.0000    0.0000    0.0000
       76 W     10d1+       0.0000    0.0000   -0.0000   -0.0000   -0.0000   -0.0000    0.0000   -0.0000    0.0000   -0.0000
       77 W     11d1+      -0.0000   -0.0000    0.0000    0.0000    0.0000    0.0000   -0.0000    0.0000   -0.0000    0.0000
       78 W      3d2+      -0.0000   -0.0000   -0.0000   -0.0000    0.0000   -0.0000   -0.0000    0.0000    0.0009   -0.0003
       79 W      4d2+       0.0000    0.0000    0.0000    0.0000   -0.0000   -0.0000    0.0000   -0.0000   -0.0000    0.0000
       80 W      5d2+      -0.0000   -0.0000   -0.0000   -0.0000    0.0000    0.0000   -0.0000    0.0000    0.0000   -0.0000
       81 W      6d2+       0.0000    0.0000    0.0000    0.0000   -0.0000   -0.0000    0.0000   -0.0000   -0.0000    0.0000
       82 W      7d2+      -0.0000   -0.0000   -0.0000   -0.0000    0.0000    0.0000   -0.0000    0.0000    0.0000   -0.0000
       83 W      8d2+       0.0000    0.0000    0.0000    0.0000   -0.0000   -0.0000   -0.0000    0.0000   -0.0000    0.0000
       84 W      9d2+      -0.0000   -0.0000   -0.0000   -0.0000    0.0000    0.0000   -0.0000    0.0000    0.0000   -0.0000
       85 W     10d2+       0.0000    0.0000    0.0000    0.0000   -0.0000   -0.0000   -0.0000    0.0000    0.0000    0.0000
       86 W     11d2+      -0.0000   -0.0000   -0.0000   -0.0000    0.0000    0.0000    0.0000   -0.0000   -0.0000   -0.0000
       87 W      4f3-       0.0000   -0.0000    0.0000   -0.0000    0.0000   -0.0000   -0.0000   -0.0000   -0.0000   -0.0000
       88 W      5f3-      -0.0000    0.0000   -0.0000    0.0000   -0.0000   -0.0000    0.0000    0.0000    0.0000    0.0000
       89 W      6f3-       0.0000   -0.0000    0.0000   -0.0000    0.0000    0.0000   -0.0000   -0.0000   -0.0000   -0.0000
       90 W      7f3-      -0.0000   -0.0000   -0.0000    0.0000   -0.0000   -0.0000    0.0000    0.0000    0.0000    0.0000
       91 W      8f3-       0.0000    0.0000    0.0000   -0.0000    0.0000    0.0000   -0.0000   -0.0000   -0.0000   -0.0000
       92 W      9f3-      -0.0000   -0.0000   -0.0000    0.0000   -0.0000   -0.0000    0.0000    0.0000    0.0000    0.0000
       93 W     10f3-       0.0000    0.0000    0.0000   -0.0000    0.0000    0.0000   -0.0000   -0.0000   -0.0000   -0.0000
       94 W     11f3-      -0.0000   -0.0000   -0.0000    0.0000   -0.0000   -0.0000    0.0000    0.0000    0.0000    0.0000
       95 W      4f2-       0.0000    0.0000    0.0000   -0.0000    0.0000    0.0000   -0.0000   -0.0000   -0.0000    0.0001
       96 W      5f2-      -0.0000   -0.0000    0.0000   -0.0000   -0.0000   -0.0000    0.0000    0.0000    0.0000   -0.0001
       97 W      6f2-       0.0000    0.0000    0.0000   -0.0000    0.0000    0.0000    0.0000    0.0000   -0.0000    0.0001
       98 W      7f2-      -0.0000   -0.0000    0.0000   -0.0000   -0.0000   -0.0000    0.0000    0.0000    0.0000   -0.0000
       99 W      8f2-       0.0000    0.0000    0.0000   -0.0000    0.0000    0.0000    0.0000    0.0000    0.0000    0.0000
      100 W      9f2-      -0.0000   -0.0000    0.0000   -0.0000    0.0000   -0.0000    0.0000    0.0000   -0.0000   -0.0000
      101 W     10f2-       0.0000    0.0000    0.0000   -0.0000   -0.0000   -0.0000    0.0000    0.0000    0.0000    0.0000
      102 W     11f2-      -0.0000   -0.0000    0.0000   -0.0000    0.0000    0.0000    0.0000    0.0000   -0.0000   -0.0000
      103 W      4f1-       0.0000    0.0000   -0.0000    0.0000   -0.0000    0.0000    0.0000    0.0000    0.0000    0.0000
      104 W      5f1-      -0.0000   -0.0000    0.0000   -0.0000    0.0000   -0.0000   -0.0000   -0.0000   -0.0000   -0.0000
      105 W      6f1-       0.0000    0.0000   -0.0000    0.0000   -0.0000    0.0000    0.0000    0.0000    0.0000    0.0000
      106 W      7f1-      -0.0000   -0.0000    0.0000   -0.0000    0.0000   -0.0000   -0.0000   -0.0000   -0.0000   -0.0000
      107 W      8f1-       0.0000    0.0000   -0.0000    0.0000   -0.0000    0.0000    0.0000    0.0000    0.0000    0.0000
      108 W      9f1-      -0.0000    0.0000    0.0000   -0.0000    0.0000   -0.0000   -0.0000   -0.0000   -0.0000   -0.0000
      109 W     10f1-      -0.0000   -0.0000   -0.0000    0.0000   -0.0000   -0.0000    0.0000    0.0000    0.0000    0.0000
      110 W     11f1-       0.0000    0.0000    0.0000   -0.0000    0.0000    0.0000   -0.0000   -0.0000    0.0000   -0.0000
      111 W      4f0       -0.0000    0.0000    0.0000    0.0000    0.0000    0.0000    0.0000   -0.0000    0.0000   -0.0000
      112 W      5f0       -0.0000    0.0000   -0.0000   -0.0000   -0.0000   -0.0000   -0.0000    0.0000   -0.0000    0.0000
      113 W      6f0       -0.0000    0.0000    0.0000    0.0000    0.0000   -0.0000    0.0000   -0.0000    0.0000   -0.0000
      114 W      7f0       -0.0000    0.0000   -0.0000   -0.0000    0.0000   -0.0000   -0.0000    0.0000   -0.0000    0.0000
      115 W      8f0       -0.0000    0.0000    0.0000    0.0000    0.0000   -0.0000    0.0000   -0.0000   -0.0000   -0.0000
      116 W      9f0       -0.0000    0.0000   -0.0000   -0.0000    0.0000   -0.0000   -0.0000    0.0000   -0.0000    0.0000
      117 W     10f0       -0.0000    0.0000    0.0000    0.0000    0.0000   -0.0000    0.0000   -0.0000   -0.0000   -0.0000
      118 W     11f0       -0.0000    0.0000   -0.0000   -0.0000    0.0000   -0.0000   -0.0000    0.0000   -0.0000    0.0000
      119 W      4f1+       0.0000   -0.0000   -0.0000   -0.0000    0.0000   -0.0000   -0.0000    0.0000    0.0000   -0.0000
      120 W      5f1+      -0.0000    0.0000    0.0000    0.0000   -0.0000    0.0000    0.0000   -0.0000   -0.0000    0.0000
      121 W      6f1+       0.0000   -0.0000    0.0000    0.0000    0.0000   -0.0000   -0.0000    0.0000    0.0000   -0.0000
      122 W      7f1+      -0.0000    0.0000    0.0000    0.0000   -0.0000    0.0000   -0.0000    0.0000   -0.0000    0.0000
      123 W      8f1+       0.0000   -0.0000    0.0000    0.0000    0.0000    0.0000   -0.0000    0.0000    0.0000   -0.0000
      124 W      9f1+       0.0000   -0.0000    0.0000    0.0000   -0.0000    0.0000   -0.0000    0.0000   -0.0000    0.0000
      125 W     10f1+       0.0000   -0.0000    0.0000    0.0000    0.0000    0.0000   -0.0000    0.0000    0.0000   -0.0000
      126 W     11f1+       0.0000   -0.0000    0.0000    0.0000   -0.0000    0.0000   -0.0000    0.0000   -0.0000    0.0000
      127 W      4f2+      -0.0000    0.0000   -0.0000   -0.0000   -0.0000    0.0000   -0.0000    0.0000   -0.0000    0.0000
      128 W      5f2+       0.0000   -0.0000    0.0000    0.0000    0.0000   -0.0000    0.0000   -0.0000    0.0000   -0.0000
      129 W      6f2+      -0.0000    0.0000   -0.0000   -0.0000    0.0000    0.0000   -0.0000    0.0000   -0.0000    0.0000
      130 W      7f2+      -0.0000    0.0000    0.0000    0.0000    0.0000   -0.0000    0.0000   -0.0000   -0.0000   -0.0000
      131 W      8f2+      -0.0000    0.0000   -0.0000   -0.0000    0.0000   -0.0000   -0.0000    0.0000   -0.0000    0.0000
      132 W      9f2+      -0.0000    0.0000    0.0000    0.0000    0.0000   -0.0000    0.0000   -0.0000   -0.0000   -0.0000
      133 W     10f2+      -0.0000    0.0000   -0.0000   -0.0000    0.0000   -0.0000   -0.0000    0.0000   -0.0000    0.0000
      134 W     11f2+      -0.0000    0.0000    0.0000    0.0000    0.0000   -0.0000    0.0000   -0.0000   -0.0000   -0.0000
      135 W      4f3+      -0.0000    0.0000    0.0000    0.0000   -0.0000    0.0000    0.0000   -0.0000   -0.0000   -0.0000
      136 W      5f3+       0.0000   -0.0000    0.0000    0.0000    0.0000   -0.0000   -0.0000    0.0000    0.0000    0.0000
      137 W      6f3+      -0.0000    0.0000    0.0000    0.0000   -0.0000    0.0000   -0.0000    0.0000   -0.0000   -0.0000
      138 W      7f3+       0.0000   -0.0000    0.0000    0.0000    0.0000   -0.0000   -0.0000    0.0000    0.0000    0.0000
      139 W      8f3+      -0.0000    0.0000    0.0000    0.0000   -0.0000   -0.0000   -0.0000    0.0000   -0.0000   -0.0000
      140 W      9f3+      -0.0000    0.0000    0.0000    0.0000    0.0000   -0.0000   -0.0000    0.0000    0.0000    0.0000
      141 W     10f3+      -0.0000    0.0000    0.0000    0.0000   -0.0000   -0.0000   -0.0000    0.0000   -0.0000   -0.0000
      142 W     11f3+      -0.0000    0.0000    0.0000    0.0000    0.0000   -0.0000   -0.0000    0.0000    0.0000    0.0000
      143 W      5g4-      -0.0000   -0.0000   -0.0000    0.0000    0.0000   -0.0000    0.0000    0.0000    0.0000    0.0000
      144 W      6g4-       0.0000    0.0000    0.0000   -0.0000    0.0000    0.0000   -0.0000   -0.0000   -0.0000   -0.0000
      145 W      7g4-      -0.0000    0.0000    0.0000   -0.0000    0.0000   -0.0000    0.0000    0.0000    0.0000    0.0000
      146 W      8g4-       0.0000   -0.0000    0.0000   -0.0000    0.0000    0.0000    0.0000    0.0000    0.0000    0.0000
      147 W      5g3-       0.0000    0.0000    0.0000   -0.0000    0.0000    0.0000    0.0000    0.0000    0.0000   -0.0000
      148 W      6g3-      -0.0000   -0.0000   -0.0000    0.0000   -0.0000   -0.0000   -0.0000   -0.0000   -0.0000    0.0000
      149 W      7g3-       0.0000    0.0000   -0.0000    0.0000    0.0000    0.0000    0.0000    0.0000    0.0000   -0.0000
      150 W      8g3-       0.0000   -0.0000   -0.0000    0.0000   -0.0000   -0.0000   -0.0000   -0.0000   -0.0000    0.0000
      151 W      5g2-       0.0000   -0.0000    0.0000   -0.0000    0.0000   -0.0000   -0.0000   -0.0000   -0.0000   -0.0000
      152 W      6g2-      -0.0000    0.0000   -0.0000    0.0000   -0.0000    0.0000    0.0000    0.0000    0.0000    0.0000
      153 W      7g2-       0.0000   -0.0000   -0.0000    0.0000   -0.0000   -0.0000   -0.0000   -0.0000   -0.0000   -0.0000
      154 W      8g2-      -0.0000    0.0000   -0.0000    0.0000   -0.0000    0.0000   -0.0000   -0.0000   -0.0000   -0.0000
      155 W      5g1-       0.0000   -0.0000   -0.0000    0.0000    0.0000    0.0000    0.0000    0.0000   -0.0000    0.0000
      156 W      6g1-      -0.0000    0.0000    0.0000   -0.0000   -0.0000   -0.0000   -0.0000   -0.0000    0.0000   -0.0000
      157 W      7g1-       0.0000   -0.0000    0.0000   -0.0000    0.0000    0.0000    0.0000    0.0000   -0.0000    0.0000
      158 W      8g1-      -0.0000    0.0000    0.0000   -0.0000   -0.0000    0.0000    0.0000    0.0000    0.0000   -0.0000
      159 W      5g0        0.0000   -0.0000   -0.0000   -0.0000    0.0000   -0.0000    0.0000   -0.0000    0.0000   -0.0000
      160 W      6g0       -0.0000    0.0000    0.0000    0.0000   -0.0000   -0.0000    0.0000    0.0000   -0.0000    0.0000
      161 W      7g0       -0.0000    0.0000    0.0000    0.0000   -0.0000   -0.0000   -0.0000    0.0000    0.0000   -0.0000
      162 W      8g0       -0.0000    0.0000    0.0000    0.0000   -0.0000   -0.0000   -0.0000    0.0000    0.0000    0.0000
      163 W      5g1+      -0.0000    0.0000   -0.0000   -0.0000    0.0000    0.0000   -0.0000    0.0000    0.0000    0.0000
      164 W      6g1+       0.0000   -0.0000    0.0000    0.0000   -0.0000    0.0000    0.0000   -0.0000   -0.0000   -0.0000
      165 W      7g1+       0.0000   -0.0000    0.0000    0.0000   -0.0000    0.0000   -0.0000    0.0000    0.0000    0.0000
      166 W      8g1+       0.0000   -0.0000    0.0000    0.0000   -0.0000    0.0000   -0.0000    0.0000    0.0000   -0.0000
      167 W      5g2+      -0.0000    0.0000    0.0000    0.0000   -0.0000    0.0000    0.0000   -0.0000   -0.0000    0.0000
      168 W      6g2+       0.0000   -0.0000   -0.0000   -0.0000    0.0000    0.0000   -0.0000    0.0000    0.0000   -0.0000
      169 W      7g2+       0.0000   -0.0000   -0.0000   -0.0000    0.0000    0.0000    0.0000   -0.0000   -0.0000    0.0000
      170 W      8g2+       0.0000   -0.0000   -0.0000   -0.0000    0.0000    0.0000    0.0000   -0.0000   -0.0000   -0.0000
      171 W      5g3+      -0.0000    0.0000    0.0000    0.0000    0.0000    0.0000    0.0000   -0.0000    0.0000    0.0000
      172 W      6g3+       0.0000   -0.0000   -0.0000   -0.0000   -0.0000    0.0000   -0.0000    0.0000   -0.0000   -0.0000
      173 W      7g3+       0.0000   -0.0000   -0.0000   -0.0000   -0.0000    0.0000    0.0000   -0.0000    0.0000    0.0000
      174 W      8g3+       0.0000   -0.0000   -0.0000   -0.0000   -0.0000    0.0000    0.0000   -0.0000    0.0000    0.0000
      175 W      5g4+       0.0000   -0.0000    0.0000    0.0000    0.0000   -0.0000    0.0000   -0.0000    0.0000    0.0000
      176 W      6g4+      -0.0000    0.0000   -0.0000   -0.0000   -0.0000   -0.0000   -0.0000    0.0000   -0.0000   -0.0000
      177 W      7g4+      -0.0000    0.0000   -0.0000   -0.0000   -0.0000   -0.0000    0.0000   -0.0000    0.0000    0.0000
      178 W      8g4+      -0.0000    0.0000   -0.0000   -0.0000   -0.0000   -0.0000    0.0000   -0.0000    0.0000   -0.0000
      179 W      6h5-      -0.0000   -0.0000    0.0000   -0.0000   -0.0000   -0.0000    0.0000    0.0000    0.0000   -0.0000
      180 W      7h5-       0.0000    0.0000    0.0000   -0.0000   -0.0000    0.0000    0.0000    0.0000    0.0000   -0.0000
      181 W      6h4-      -0.0000   -0.0000   -0.0000    0.0000   -0.0000    0.0000   -0.0000   -0.0000   -0.0000    0.0000
      182 W      7h4-      -0.0000    0.0000   -0.0000    0.0000   -0.0000   -0.0000   -0.0000   -0.0000   -0.0000   -0.0000
      183 W      6h3-       0.0000    0.0000   -0.0000    0.0000    0.0000    0.0000   -0.0000   -0.0000    0.0000    0.0000
      184 W      7h3-      -0.0000   -0.0000   -0.0000    0.0000   -0.0000   -0.0000   -0.0000   -0.0000    0.0000    0.0000
      185 W      6h2-      -0.0000   -0.0000   -0.0000    0.0000   -0.0000   -0.0000   -0.0000   -0.0000   -0.0000   -0.0000
      186 W      7h2-       0.0000    0.0000   -0.0000    0.0000   -0.0000   -0.0000   -0.0000   -0.0000   -0.0000    0.0000
      187 W      6h1-       0.0000   -0.0000    0.0000   -0.0000   -0.0000    0.0000    0.0000    0.0000    0.0000    0.0000
      188 W      7h1-      -0.0000    0.0000    0.0000   -0.0000   -0.0000   -0.0000    0.0000    0.0000   -0.0000   -0.0000
      189 W      6h0        0.0000   -0.0000   -0.0000   -0.0000   -0.0000    0.0000    0.0000   -0.0000    0.0000   -0.0000
      190 W      7h0        0.0000   -0.0000   -0.0000   -0.0000   -0.0000    0.0000    0.0000   -0.0000    0.0000   -0.0000
      191 W      6h1+      -0.0000    0.0000    0.0000    0.0000   -0.0000   -0.0000   -0.0000    0.0000    0.0000    0.0000
      192 W      7h1+      -0.0000    0.0000    0.0000    0.0000   -0.0000   -0.0000   -0.0000    0.0000    0.0000   -0.0000
      193 W      6h2+      -0.0000    0.0000    0.0000    0.0000    0.0000   -0.0000   -0.0000    0.0000   -0.0000   -0.0000
      194 W      7h2+      -0.0000    0.0000    0.0000    0.0000    0.0000   -0.0000   -0.0000    0.0000   -0.0000    0.0000
      195 W      6h3+       0.0000   -0.0000    0.0000    0.0000    0.0000    0.0000   -0.0000    0.0000   -0.0000   -0.0000
      196 W      7h3+       0.0000   -0.0000    0.0000    0.0000    0.0000    0.0000   -0.0000    0.0000   -0.0000    0.0000
      197 W      6h4+      -0.0000    0.0000   -0.0000   -0.0000    0.0000   -0.0000    0.0000   -0.0000   -0.0000   -0.0000
      198 W      7h4+      -0.0000    0.0000   -0.0000   -0.0000    0.0000   -0.0000    0.0000   -0.0000   -0.0000   -0.0000
      199 W      6h5+      -0.0000    0.0000    0.0000    0.0000   -0.0000   -0.0000   -0.0000    0.0000    0.0000   -0.0000
      200 W      7h5+      -0.0000    0.0000    0.0000    0.0000   -0.0000   -0.0000   -0.0000    0.0000    0.0000    0.0000

          Orbital           11        12        13        14    
          Energy         -190.1485 -190.1483 -190.1483 -190.1482
          Occ. No.          0.0000    0.0000    0.0000    0.0000

        1 W      1s        -0.0000    0.0000    0.0000    0.0000
        2 W      2s        -0.0000   -0.0000    0.0000    0.0000
        3 W      3s        -0.0000   -0.0000    0.0000    0.0000
        4 W      4s         0.0000   -0.0000   -0.0000   -0.0000
        5 W      5s        -0.0000   -0.0000    0.0000    0.0000
        6 W      6s        -0.0000   -0.0000   -0.0000   -0.0000
        7 W      7s        -0.0000    0.0000   -0.0000    0.0000
        8 W      8s        -0.0000    0.0000   -0.0000   -0.0000
        9 W      9s        -0.0000    0.0000   -0.0000    0.0000
       10 W     10s        -0.0000    0.0000   -0.0000   -0.0000
       11 W     11s        -0.0000    0.0000    0.0000    0.0000
       12 W      2px        0.0000    0.0000   -0.0000   -0.0000
       13 W      3px        0.0000    0.0000   -0.0000   -0.0010
       14 W      4px       -0.0000   -0.0000    0.0000    0.0001
       15 W      5px        0.0000    0.0000   -0.0000   -0.0000
       16 W      6px       -0.0000   -0.0000    0.0000    0.0000
       17 W      7px        0.0000    0.0000   -0.0000   -0.0000
       18 W      8px       -0.0000   -0.0000    0.0000    0.0000
       19 W      9px        0.0000    0.0000   -0.0000   -0.0001
       20 W     10px       -0.0000   -0.0000    0.0000    0.0000
       21 W     11px        0.0000    0.0000   -0.0000   -0.0000
       22 W      2py        0.0000   -0.0000   -0.0000    0.0000
       23 W      3py        0.0000   -0.0000   -0.0009    0.0000
       24 W      4py       -0.0000    0.0000    0.0001   -0.0000
       25 W      5py        0.0000   -0.0000   -0.0000    0.0000
       26 W      6py       -0.0000    0.0000    0.0000   -0.0000
       27 W      7py        0.0000   -0.0000   -0.0000    0.0000
       28 W      8py       -0.0000    0.0000    0.0000   -0.0000
       29 W      9py        0.0000   -0.0000   -0.0000    0.0000
       30 W     10py       -0.0000    0.0000    0.0000   -0.0000
       31 W     11py        0.0000   -0.0000   -0.0000    0.0000
       32 W      2pz        0.0000   -0.0000    0.0000   -0.0000
       33 W      3pz        0.0000   -0.0009    0.0000   -0.0000
       34 W      4pz       -0.0000    0.0001   -0.0000    0.0000
       35 W      5pz        0.0000   -0.0000    0.0000   -0.0000
       36 W      6pz       -0.0000    0.0000   -0.0000    0.0000
       37 W      7pz        0.0000   -0.0000    0.0000   -0.0000
       38 W      8pz       -0.0000    0.0000   -0.0000    0.0000
       39 W      9pz        0.0000   -0.0000    0.0000   -0.0000
       40 W     10pz       -0.0000    0.0000   -0.0000    0.0000
       41 W     11pz        0.0000   -0.0000    0.0000   -0.0000
       42 W      3d2-      -0.0000    0.0001    0.9917   -0.0000
       43 W      4d2-       0.0000   -0.0000   -0.0959    0.0000
       44 W      5d2-      -0.0000    0.0000    0.0186   -0.0000
       45 W      6d2-       0.0000   -0.0000   -0.0254    0.0000
       46 W      7d2-      -0.0000    0.0000    0.0328   -0.0000
       47 W      8d2-       0.0000   -0.0000   -0.0372    0.0000
       48 W      9d2-      -0.0000    0.0000    0.0370   -0.0000
       49 W     10d2-       0.0000   -0.0000   -0.0397    0.0000
       50 W     11d2-      -0.0000    0.0000    0.0299   -0.0000
       51 W      3d1-       0.0006    0.0000    0.0017   -0.0000
       52 W      4d1-      -0.0001   -0.0000   -0.0002    0.0000
       53 W      5d1-       0.0000    0.0000    0.0000   -0.0000
       54 W      6d1-      -0.0000   -0.0000   -0.0000    0.0000
       55 W      7d1-       0.0000    0.0000    0.0001   -0.0000
       56 W      8d1-      -0.0000   -0.0000   -0.0001    0.0000
       57 W      9d1-       0.0000    0.0000    0.0001   -0.0000
       58 W     10d1-      -0.0000   -0.0000   -0.0001    0.0000
       59 W     11d1-       0.0000    0.0000    0.0001   -0.0000
       60 W      3d0        0.8589    0.0021   -0.0000   -0.4959
       61 W      4d0       -0.0830   -0.0002    0.0000    0.0479
       62 W      5d0        0.0161    0.0000   -0.0000   -0.0093
       63 W      6d0       -0.0220   -0.0001    0.0000    0.0127
       64 W      7d0        0.0284    0.0001   -0.0000   -0.0164
       65 W      8d0       -0.0322   -0.0001    0.0000    0.0186
       66 W      9d0        0.0320    0.0001   -0.0000   -0.0185
       67 W     10d0       -0.0344   -0.0001    0.0000    0.0198
       68 W     11d0        0.0259    0.0001   -0.0000   -0.0150
       69 W      3d1+      -0.0010    0.9917   -0.0001    0.0024
       70 W      4d1+       0.0001   -0.0959    0.0000   -0.0002
       71 W      5d1+      -0.0000    0.0186   -0.0000    0.0000
       72 W      6d1+       0.0000   -0.0254    0.0000   -0.0001
       73 W      7d1+      -0.0000    0.0328   -0.0000    0.0001
       74 W      8d1+       0.0000   -0.0372    0.0000   -0.0001
       75 W      9d1+      -0.0000    0.0370   -0.0000    0.0001
       76 W     10d1+       0.0000   -0.0397    0.0000   -0.0001
       77 W     11d1+      -0.0000    0.0299   -0.0000    0.0001
       78 W      3d2+       0.4959   -0.0015    0.0000    0.8589
       79 W      4d2+      -0.0479    0.0001   -0.0000   -0.0830
       80 W      5d2+       0.0093   -0.0000    0.0000    0.0161
       81 W      6d2+      -0.0127    0.0000   -0.0000   -0.0220
       82 W      7d2+       0.0164   -0.0001    0.0000    0.0284
       83 W      8d2+      -0.0186    0.0001   -0.0000   -0.0322
       84 W      9d2+       0.0185   -0.0001    0.0000    0.0320
       85 W     10d2+      -0.0198    0.0001   -0.0000   -0.0344
       86 W     11d2+       0.0150   -0.0000    0.0000    0.0259
       87 W      4f3-      -0.0000    0.0000    0.0001   -0.0000
       88 W      5f3-       0.0000   -0.0000   -0.0001    0.0000
       89 W      6f3-      -0.0000    0.0000    0.0001   -0.0000
       90 W      7f3-       0.0000   -0.0000   -0.0001    0.0000
       91 W      8f3-      -0.0000    0.0000    0.0001   -0.0000
       92 W      9f3-       0.0000   -0.0000   -0.0000    0.0000
       93 W     10f3-      -0.0000    0.0000    0.0000   -0.0000
       94 W     11f3-       0.0000   -0.0000   -0.0000    0.0000
       95 W      4f2-       0.0000    0.0000    0.0000   -0.0000
       96 W      5f2-      -0.0000   -0.0000   -0.0000    0.0000
       97 W      6f2-       0.0000    0.0000    0.0000   -0.0000
       98 W      7f2-      -0.0000   -0.0000   -0.0000    0.0000
       99 W      8f2-       0.0000    0.0000    0.0000   -0.0000
      100 W      9f2-      -0.0000   -0.0000   -0.0000    0.0000
      101 W     10f2-       0.0000    0.0000    0.0000   -0.0000
      102 W     11f2-      -0.0000   -0.0000   -0.0000    0.0000
      103 W      4f1-       0.0000   -0.0000   -0.0000    0.0000
      104 W      5f1-      -0.0000    0.0000    0.0000   -0.0000
      105 W      6f1-       0.0000   -0.0000   -0.0000    0.0000
      106 W      7f1-      -0.0000    0.0000    0.0000   -0.0000
      107 W      8f1-       0.0000   -0.0000   -0.0000    0.0000
      108 W      9f1-      -0.0000    0.0000    0.0000   -0.0000
      109 W     10f1-       0.0000   -0.0000   -0.0000    0.0000
      110 W     11f1-      -0.0000    0.0000    0.0000   -0.0000
      111 W      4f0        0.0000   -0.0001    0.0000   -0.0000
      112 W      5f0       -0.0000    0.0000   -0.0000    0.0000
      113 W      6f0        0.0000   -0.0000    0.0000   -0.0000
      114 W      7f0       -0.0000    0.0000   -0.0000    0.0000
      115 W      8f0        0.0000   -0.0000    0.0000   -0.0000
      116 W      9f0       -0.0000    0.0000   -0.0000    0.0000
      117 W     10f0        0.0000   -0.0000    0.0000   -0.0000
      118 W     11f0       -0.0000    0.0000   -0.0000    0.0000
      119 W      4f1+       0.0001    0.0000   -0.0000   -0.0001
      120 W      5f1+      -0.0000   -0.0000    0.0000    0.0000
      121 W      6f1+       0.0000    0.0000   -0.0000   -0.0000
      122 W      7f1+      -0.0000   -0.0000    0.0000    0.0000
      123 W      8f1+       0.0000    0.0000   -0.0000   -0.0000
      124 W      9f1+      -0.0000   -0.0000    0.0000    0.0000
      125 W     10f1+       0.0000    0.0000   -0.0000   -0.0000
      126 W     11f1+      -0.0000   -0.0000    0.0000    0.0000
      127 W      4f2+      -0.0000    0.0001   -0.0000    0.0000
      128 W      5f2+       0.0000   -0.0001    0.0000   -0.0000
      129 W      6f2+      -0.0000    0.0001   -0.0000    0.0000
      130 W      7f2+       0.0000   -0.0000    0.0000   -0.0000
      131 W      8f2+      -0.0000    0.0000   -0.0000    0.0000
      132 W      9f2+       0.0000   -0.0000    0.0000   -0.0000
      133 W     10f2+      -0.0000    0.0000   -0.0000    0.0000
      134 W     11f2+       0.0000   -0.0000    0.0000   -0.0000
      135 W      4f3+       0.0000   -0.0000    0.0000    0.0001
      136 W      5f3+      -0.0000    0.0000   -0.0000   -0.0001
      137 W      6f3+       0.0000   -0.0000    0.0000    0.0001
      138 W      7f3+      -0.0000    0.0000   -0.0000   -0.0001
      139 W      8f3+       0.0000   -0.0000    0.0000    0.0000
      140 W      9f3+      -0.0000    0.0000   -0.0000   -0.0000
      141 W     10f3+       0.0000   -0.0000    0.0000    0.0000
      142 W     11f3+      -0.0000    0.0000   -0.0000   -0.0000
      143 W      5g4-       0.0000   -0.0000   -0.0000    0.0000
      144 W      6g4-      -0.0000    0.0000    0.0000   -0.0000
      145 W      7g4-       0.0000   -0.0000   -0.0000    0.0000
      146 W      8g4-       0.0000    0.0000    0.0000   -0.0000
      147 W      5g3-      -0.0000   -0.0000   -0.0000    0.0000
      148 W      6g3-       0.0000    0.0000    0.0000   -0.0000
      149 W      7g3-      -0.0000    0.0000    0.0000    0.0000
      150 W      8g3-       0.0000    0.0000    0.0000   -0.0000
      151 W      5g2-      -0.0000    0.0000    0.0000   -0.0000
      152 W      6g2-       0.0000   -0.0000   -0.0000    0.0000
      153 W      7g2-      -0.0000    0.0000    0.0000   -0.0000
      154 W      8g2-      -0.0000   -0.0000   -0.0000    0.0000
      155 W      5g1-       0.0000    0.0000    0.0000    0.0000
      156 W      6g1-      -0.0000   -0.0000   -0.0000    0.0000
      157 W      7g1-       0.0000    0.0000    0.0000   -0.0000
      158 W      8g1-      -0.0000   -0.0000   -0.0000    0.0000
      159 W      5g0        0.0000    0.0000   -0.0000   -0.0000
      160 W      6g0       -0.0000   -0.0000    0.0000    0.0000
      161 W      7g0        0.0000    0.0000   -0.0000   -0.0000
      162 W      8g0       -0.0000    0.0000   -0.0000    0.0000
      163 W      5g1+      -0.0000    0.0000   -0.0000    0.0000
      164 W      6g1+       0.0000   -0.0000    0.0000   -0.0000
      165 W      7g1+      -0.0000    0.0000   -0.0000    0.0000
      166 W      8g1+       0.0000   -0.0000    0.0000   -0.0000
      167 W      5g2+      -0.0000   -0.0000    0.0000    0.0000
      168 W      6g2+       0.0000    0.0000   -0.0000   -0.0000
      169 W      7g2+      -0.0000   -0.0000    0.0000    0.0000
      170 W      8g2+       0.0000   -0.0000    0.0000   -0.0000
      171 W      5g3+      -0.0000   -0.0000    0.0000   -0.0000
      172 W      6g3+       0.0000    0.0000   -0.0000    0.0000
      173 W      7g3+      -0.0000   -0.0000    0.0000   -0.0000
      174 W      8g3+      -0.0000    0.0000   -0.0000   -0.0000
      175 W      5g4+      -0.0000    0.0000   -0.0000   -0.0000
      176 W      6g4+       0.0000   -0.0000    0.0000    0.0000
      177 W      7g4+      -0.0000   -0.0000    0.0000   -0.0000
      178 W      8g4+       0.0000   -0.0000    0.0000    0.0000
      179 W      6h5-      -0.0000    0.0000    0.0000   -0.0000
      180 W      7h5-      -0.0000   -0.0000   -0.0000    0.0000
      181 W      6h4-       0.0000    0.0000    0.0000   -0.0000
      182 W      7h4-      -0.0000   -0.0000   -0.0000   -0.0000
      183 W      6h3-       0.0000   -0.0000   -0.0000   -0.0000
      184 W      7h3-       0.0000    0.0000    0.0000    0.0000
      185 W      6h2-      -0.0000   -0.0000   -0.0000   -0.0000
      186 W      7h2-       0.0000   -0.0000   -0.0000   -0.0000
      187 W      6h1-       0.0000    0.0000    0.0000   -0.0000
      188 W      7h1-      -0.0000   -0.0000   -0.0000    0.0000
      189 W      6h0        0.0000    0.0000   -0.0000   -0.0000
      190 W      7h0        0.0000   -0.0000    0.0000   -0.0000
      191 W      6h1+      -0.0000   -0.0000    0.0000    0.0000
      192 W      7h1+       0.0000   -0.0000    0.0000   -0.0000
      193 W      6h2+       0.0000   -0.0000    0.0000   -0.0000
      194 W      7h2+      -0.0000    0.0000   -0.0000    0.0000
      195 W      6h3+       0.0000    0.0000   -0.0000   -0.0000
      196 W      7h3+      -0.0000   -0.0000    0.0000    0.0000
      197 W      6h4+       0.0000    0.0000   -0.0000    0.0000
      198 W      7h4+       0.0000   -0.0000    0.0000   -0.0000
      199 W      6h5+       0.0000   -0.0000    0.0000    0.0000
      200 W      7h5+      -0.0000   -0.0000    0.0000   -0.0000
--


++    Molecular charges:
      ------------------

      Mulliken charges per centre and basis function type
      ---------------------------------------------------

                W     
      1s       2.0000
      2s       2.0000
      2px      2.0000
      2pz      2.0000
      2py      2.0000
      3s       1.9811
      3px      1.9730
      3pz      1.9730
      3py      1.9730
      4s       0.0128
      3d2+     0.0000
      3d1+     0.0000
      3d0      0.0000
      3d1-     0.0000
      3d2-     0.0000
      4px      0.0167
      4pz      0.0167
      4py      0.0167
      5s       0.0011
      4d2+     0.0000
      4d1+     0.0000
      4d0      0.0000
      4d1-     0.0000
      4d2-     0.0000
      5px      0.0013
      5pz      0.0013
      5py      0.0013
      6s       0.0001
      4f3+     0.0000
      4f2+     0.0000
      4f1+     0.0000
      4f0      0.0000
      4f1-     0.0000
      4f2-     0.0000
      4f3-     0.0000
      5d2+     0.0000
      5d1+     0.0000
      5d0      0.0000
      5d1-     0.0000
      5d2-     0.0000
      6px      0.0002
      6pz      0.0002
      6py      0.0002
      7s       0.0001
      5f3+     0.0000
      5f2+     0.0000
      5f1+     0.0000
      5f0      0.0000
      5f1-     0.0000
      5f2-     0.0000
      5f3-     0.0000
      6d2+     0.0000
      6d1+     0.0000
      6d0      0.0000
      6d1-     0.0000
      6d2-     0.0000
      7px      0.0018
      7pz      0.0018
      7py      0.0018
      5g4+     0.0000
      5g3+     0.0000
      5g2+     0.0000
      5g1+     0.0000
      5g0      0.0000
      5g1-     0.0000
      5g2-     0.0000
      5g3-     0.0000
      5g4-     0.0000
      6f3+     0.0000
      6f2+     0.0000
      6f1+     0.0000
      6f0      0.0000
      6f1-     0.0000
      6f2-     0.0000
      6f3-     0.0000
      6g4+     0.0000
      6g3+     0.0000
      6g2+     0.0000
      6g1+     0.0000
      6g0      0.0000
      6g1-     0.0000
      6g2-     0.0000
      6g3-     0.0000
      6g4-     0.0000
      6h5+     0.0000
      6h4+     0.0000
      6h3+     0.0000
      6h2+     0.0000
      6h1+     0.0000
      6h0      0.0000
      6h1-     0.0000
      6h2-     0.0000
      6h3-     0.0000
      6h4-     0.0000
      6h5-     0.0000
      7d2+     0.0000
      7d1+     0.0000
      7d0      0.0000
      7d1-     0.0000
      7d2-     0.0000
      7f3+     0.0000
      7f2+     0.0000
      7f1+     0.0000
      7f0      0.0000
      7f1-     0.0000
      7f2-     0.0000
      7f3-     0.0000
      7g4+     0.0000
      7g3+     0.0000
      7g2+     0.0000
      7g1+     0.0000
      7g0      0.0000
      7g1-     0.0000
      7g2-     0.0000
      7g3-     0.0000
      7g4-     0.0000
      7h5+     0.0000
      7h4+     0.0000
      7h3+     0.0000
      7h2+     0.0000
      7h1+     0.0000
      7h0      0.0000
      7h1-     0.0000
      7h2-     0.0000
      7h3-     0.0000
      7h4-     0.0000
      7h5-     0.0000
      8s       0.0006
      8px      0.0018
      8pz      0.0018
      8py      0.0018
      8d2+     0.0000
      8d1+     0.0000
      8d0      0.0000
      8d1-     0.0000
      8d2-     0.0000
      8f3+     0.0000
      8f2+     0.0000
      8f1+     0.0000
      8f0      0.0000
      8f1-     0.0000
      8f2-     0.0000
      8f3-     0.0000
      8g4+     0.0000
      8g3+     0.0000
      8g2+     0.0000
      8g1+     0.0000
      8g0      0.0000
      8g1-     0.0000
      8g2-     0.0000
      8g3-     0.0000
      8g4-     0.0000
      9s       0.0010
      9px      0.0019
      9pz      0.0019
      9py      0.0019
      9d2+     0.0000
      9d1+     0.0000
      9d0      0.0000
      9d1-     0.0000
      9d2-     0.0000
      9f3+     0.0000
      9f2+     0.0000
      9f1+     0.0000
      9f0      0.0000
      9f1-     0.0000
      9f2-     0.0000
      9f3-     0.0000
     10s       0.0013
     10px      0.0016
     10pz      0.0016
     10py      0.0016
     10d2+     0.0000
     10d1+     0.0000
     10d0      0.0000
     10d1-     0.0000
     10d2-     0.0000
     10f3+     0.0000
     10f2+     0.0000
     10f1+     0.0000
     10f0      0.0000
     10f1-     0.0000
     10f2-     0.0000
     10f3-     0.0000
     11s       0.0020
     11px      0.0017
     11pz      0.0017
     11py      0.0017
     11d2+     0.0000
     11d1+     0.0000
     11d0      0.0000
     11d1-     0.0000
     11d2-     0.0000
     11f3+     0.0000
     11f2+     0.0000
     11f1+     0.0000
     11f0      0.0000
     11f1-     0.0000
     11f2-     0.0000
     11f3-     0.0000
      Total   18.0000

      N-E     56.0000

      Total electronic charge=   18.000000

      Total            charge=   56.000000
--

 Sorry, Molden does not know how to handle
 functions with angular momentum larger than g

++    Static properties:
      ------------------


      LoProp Charges per center


                   W     
      Nuclear     74.0000
      Electronic -18.0000

      Total       56.0000
--


++    Molecular properties:
      ---------------------

      Charge (e):
                      =   56.0000
      Dipole Moment (Debye):
      Origin of the operator (Ang)=    0.0000    0.0000    0.0000
                   X= -2.4699E-03               Y= -4.9651E-13               Z=  1.2460E+00           Total=  1.2460E+00
      Center of Charge (Ang)
                     X=   -0.00000918               Y=   -0.00000000               Z=    0.00463220
      Quadrupole Moment (Debye*Ang):
      Origin of the operator (Ang)=   -0.0000   -0.0000    0.0046
                  XX= -1.6457E-01              XY= -1.9945E-15              XZ=  1.9319E-09              YY= -1.6457E-01
                  YZ= -7.1362E-16              ZZ= -1.6457E-01
      In traceless form (Debye*Ang)
                  XX=  1.3138E-06              XY= -2.9917E-15              XZ=  2.8979E-09              YY= -6.5689E-07
                  YZ= -1.0704E-15              ZZ= -6.5693E-07
--

 Sorry, Molden does not know how to handle
 functions with angular momentum larger than g
 ###############################################################################
 ###############################################################################
 ###                                                                         ###
 ###                                                                         ###
 ###    WARNING: RunFile label nBas                                          ###
 ###    was used       62 times                                              ###
 ###                                                                         ###
 ###                                                                         ###
 ###############################################################################
 ###############################################################################
Note: The following floating-point exceptions are signalling: IEEE_UNDERFLOW_FLAG IEEE_DENORMAL
--- Stop Module: scf at Thu Mar 27 00:12:52 2025 /rc=_RC_ALL_IS_WELL_ ---
*** files: tungsten_so_cf.LprOrb tungsten_so_cf.ScfOrb xmldump
    saved to directory /home4/s4752295/Internship/Initial_simulations/Point_charge_model/1_electron/Madelung_charges_9_active_space/W
--- Module scf spent 7 seconds ---

*** symbolic link created: INPORB -> tungsten_so_cf.ScfOrb
--- Start Module: rasscf at Thu Mar 27 00:12:52 2025 ---

()()()()()()()()()()()()()()()()()()()()()()()()()()()()()()()()()()()()()()()()()()()()()()()()()()

                                              &RASSCF

                                   only a single process is used
                       available to each process: 4.1 GB of memory, 1 thread?
                                            pid: 1938419
()()()()()()()()()()()()()()()()()()()()()()()()()()()()()()()()()()()()()()()()()()()()()()()()()()


      Header of the ONEINT file:
      --------------------------
      
      Integrals generated by seward 4.2.0  , Thu Mar 27 00:12:26 2025


      OrdInt status: non-squared


      Cartesian coordinates in Angstrom:
      -----------------------------------------------------
      No.  Label        X            Y            Z        
      -----------------------------------------------------
       1   W         -0.00000000  -0.00000000   0.00463220
      -----------------------------------------------------
      Nuclear repulsion energy = -338.51189311

++    Wave function specifications:
      -----------------------------

      Number of closed shell electrons          18
      Number of electrons in active shells       1
      Max number of holes in RAS1 space          0
      Max nr of electrons in RAS3 space          0
      Number of inactive orbitals                9
      Number of active orbitals                  9
      Number of secondary orbitals             182
      Spin quantum number                      0.5
      State symmetry                             1
--

++    Orbital specifications:
      -----------------------

      Symmetry species                           1
                                                 a
      Frozen orbitals                            0
      Inactive orbitals                          9
      Active orbitals                            9
      RAS1 orbitals                              0
      RAS2 orbitals                              9
      RAS3 orbitals                              0
      Secondary orbitals                       182
      Deleted orbitals                           0
      Number of basis functions                200
--

++    CI expansion specifications:
      ----------------------------

      Number of CSFs                             9
      Number of determinants                     9
      Number of root(s) required                 9
      Root chosen for geometry opt.              9
      CI roots used                              1     2     3     4     5     6     7     8     9
      weights                                0.111 0.111 0.111 0.111 0.111 0.111 0.111 0.111 0.111
      highest root included in the CI            9
      max. size of the explicit Hamiltonian      9
--

++    Optimization specifications:
      ----------------------------

      RASSCF algorithm: Conventional
      Maximum number of macro iterations       200
      Maximum number of SX iterations          100
      Threshold for RASSCF energy            0.100E-07
      Threshold for max MO rotation          0.100E+00
      Threshold for max BLB element          0.100E-03
      Level shift parameter                  0.500E+00
      Make Quasi-Newton update
--

      The MO-coefficients are taken from the file:
      INPORB                                                                                                                          
      Title: SCF orbitals                                                                  

      Total molecular charge   55.00

      ************************************************************************************************************************
      *                                                                                                                      *
      *                                            Wave function control section                                             *
      *                                                                                                                      *
[...]
::    SO-RASSI State   14     Total energy: -13288.19341879
::    SO-RASSI State   15     Total energy: -13288.19341876
::    SO-RASSI State   16     Total energy: -13288.19341876
::    SO-RASSI State   17     Total energy: -13288.19187237
::    SO-RASSI State   18     Total energy: -13288.19187237


   Eigenvalues of complex Hamiltonian:
   -----------------------------------
  (Shifted by EMIN (a.u.) =     -13371.4401227567)

 SO State       Relative EMIN(au)   Rel lowest level(eV)    D:o, cm**(-1)     J-value

     1             0.0000000000        0.0000000000              0.0000         2.1
     2             0.0000000000        0.0000000000              0.0000         2.1
     3             0.0000000007        0.0000000181              0.0001         2.1
     4             0.0000000007        0.0000000181              0.0001         2.1
     5             0.0001877656        0.0051093619             41.2098         2.1
     6             0.0001877656        0.0051093619             41.2098         2.1
     7             0.0001877719        0.0051095328             41.2112         2.1
     8             0.0001877719        0.0051095328             41.2112         2.1
     9             0.0002506921        0.0068216791             55.0206         2.1
    10             0.0002506921        0.0068216791             55.0206         2.1
    11            77.1222180297     2098.6024629534       16926370.3720         0.5
    12            77.1222180297     2098.6024629534       16926370.3720         0.5
    13            83.2467039629     2265.2582152393       18270539.6645         1.2
    14            83.2467039629     2265.2582152393       18270539.6645         1.2
    15            83.2467039971     2265.2582161698       18270539.6720         1.2
    16            83.2467039971     2265.2582161698       18270539.6720         1.2
    17            83.2482503868     2265.3002955792       18270879.0653         1.2
    18            83.2482503868     2265.3002955792       18270879.0653         1.2


 Weights of the five most important spin-orbit-free states for each spin-orbit state.

 SO State  Total energy (au)           Spin-free states, spin, and weights
 -------------------------------------------------------------------------------------------------------
    1         0.000000       1 0.5  1.0000    9 0.5  0.0000    8 0.5  0.0000    7 0.5  0.0000    6 0.5  0.0000
    2         0.000000       1 0.5  1.0000    9 0.5  0.0000    8 0.5  0.0000    7 0.5  0.0000    6 0.5  0.0000
    3         0.000000       2 0.5  1.0000    9 0.5  0.0000    8 0.5  0.0000    7 0.5  0.0000    6 0.5  0.0000
    4         0.000000       2 0.5  1.0000    9 0.5  0.0000    8 0.5  0.0000    7 0.5  0.0000    6 0.5  0.0000
    5         0.000188       3 0.5  1.0000    9 0.5  0.0000    8 0.5  0.0000    7 0.5  0.0000    6 0.5  0.0000
    6         0.000188       3 0.5  1.0000    9 0.5  0.0000    8 0.5  0.0000    7 0.5  0.0000    6 0.5  0.0000
    7         0.000188       4 0.5  1.0000    9 0.5  0.0000    8 0.5  0.0000    7 0.5  0.0000    6 0.5  0.0000
    8         0.000188       4 0.5  1.0000    9 0.5  0.0000    8 0.5  0.0000    7 0.5  0.0000    6 0.5  0.0000
    9         0.000251       5 0.5  1.0000    9 0.5  0.0000    8 0.5  0.0000    7 0.5  0.0000    6 0.5  0.0000
   10         0.000251       5 0.5  1.0000    9 0.5  0.0000    8 0.5  0.0000    7 0.5  0.0000    6 0.5  0.0000
   11        77.122218       6 0.5  1.0000    9 0.5  0.0000    8 0.5  0.0000    7 0.5  0.0000    5 0.5  0.0000
   12        77.122218       6 0.5  1.0000    9 0.5  0.0000    8 0.5  0.0000    7 0.5  0.0000    5 0.5  0.0000
   13        83.246704       7 0.5  1.0000    9 0.5  0.0000    8 0.5  0.0000    6 0.5  0.0000    5 0.5  0.0000
   14        83.246704       7 0.5  1.0000    9 0.5  0.0000    8 0.5  0.0000    6 0.5  0.0000    5 0.5  0.0000
   15        83.246704       8 0.5  1.0000    9 0.5  0.0000    7 0.5  0.0000    6 0.5  0.0000    5 0.5  0.0000
   16        83.246704       8 0.5  1.0000    9 0.5  0.0000    7 0.5  0.0000    6 0.5  0.0000    5 0.5  0.0000
   17        83.248250       9 0.5  1.0000    8 0.5  0.0000    7 0.5  0.0000    6 0.5  0.0000    5 0.5  0.0000
   18        83.248250       9 0.5  1.0000    8 0.5  0.0000    7 0.5  0.0000    6 0.5  0.0000    5 0.5  0.0000
 -------------------------------------------------------------------------------------------------------


      ****************************************************************************************************
      *                                                                                                  *
      *                                    Special properties section                                    *
      *                                                                                                  *
      ****************************************************************************************************


++ Dipole transition strengths (SO states):
   ----------------------------------------
    for osc. strength at least    1.0000000000000001E-005

      From   To        Osc. strength     Einstein coefficients Ax, Ay, Az (sec-1)    Total A (sec-1)
     -----------------------------------------------------------------------------------------------
         1   13       1.34053251E-02  1.54954096E-01  2.98483827E+12  1.05014345E+05  2.98483838E+12
         1   15       1.34053287E-02  8.76687222E+06  1.05013222E+05  2.98483030E+12  2.98483917E+12
         2   14       1.34053251E-02  1.54954096E-01  2.98483827E+12  1.05014345E+05  2.98483838E+12
         2   16       1.34053287E-02  8.76687222E+06  1.05013222E+05  2.98483030E+12  2.98483917E+12
         3   13       1.34054551E-02  3.16521926E+06  1.05013590E+05  2.98486405E+12  2.98486732E+12
         3   15       1.34052013E-02  2.30978533E-01  2.98481071E+12  1.05013896E+05  2.98481082E+12
         4   14       1.34054551E-02  3.16521926E+06  1.05013590E+05  2.98486405E+12  2.98486732E+12
         4   16       1.34052013E-02  2.30978533E-01  2.98481071E+12  1.05013896E+05  2.98481082E+12
         5   13       1.34010947E-02  2.98387881E+12  5.24090308E-02  4.14775530E+06  2.98388296E+12
         5   17       1.34065294E-02  6.86675822E+06  1.61787500E+05  2.98519693E+12  2.98520396E+12
         6   14       1.34010947E-02  2.98387881E+12  5.24090308E-02  4.14775530E+06  2.98388296E+12
         6   18       1.34065294E-02  6.86675822E+06  1.61787500E+05  2.98519693E+12  2.98520396E+12
         7   15       1.34010959E-02  2.98387447E+12  3.39801038E-02  8.75711032E+06  2.98388323E+12
         7   17       1.34065259E-02  3.54223174E-01  2.98520303E+12  1.61787188E+05  2.98520319E+12
         8   16       1.34010959E-02  2.98387447E+12  3.39801038E-02  8.75711032E+06  2.98388323E+12
         8   18       1.34065259E-02  3.54223174E-01  2.98520303E+12  1.61787188E+05  2.98520319E+12
         9   13       4.46963025E-03  2.76109935E+06  2.48495773E+03  9.95202010E+11  9.95204774E+11
         9   15       4.46988107E-03  4.73464990E-03  9.95260619E+11  2.48476767E+03  9.95260621E+11
         9   17       1.78670309E-02  3.97840024E+12  1.33433647E-04  8.27241493E+06  3.97840852E+12
        10   14       4.46963025E-03  2.76109935E+06  2.48495773E+03  9.95202010E+11  9.95204774E+11
        10   16       4.46988107E-03  4.73464990E-03  9.95260619E+11  2.48476767E+03  9.95260621E+11
        10   18       1.78670309E-02  3.97840024E+12  1.33433647E-04  8.27241493E+06  3.97840852E+12
        11   13       1.77765706E-01  3.18157292E+05  5.34902754E+02  2.14237747E+11  2.14238066E+11
        11   15       1.77765706E-01  8.65764310E-04  2.14238068E+11  5.34901902E+02  2.14238068E+11
        11   17       1.77755576E-01  2.14333736E+11  1.53775954E-06  3.18323775E+05  2.14334055E+11
        12   14       1.77765706E-01  3.18157292E+05  5.34902754E+02  2.14237747E+11  2.14238066E+11
        12   16       1.77765706E-01  8.65764310E-04  2.14238068E+11  5.34901902E+02  2.14238068E+11
        12   18       1.77755576E-01  2.14333736E+11  1.53775954E-06  3.18323775E+05  2.14334055E+11
     -----------------------------------------------------------------------------------------------
--

++ Velocity transition strengths (SO states):
   ------------------------------------------
    for osc. strength at least    1.0000000000000001E-005

      From   To        Osc. strength     Einstein coefficients Ax, Ay, Az (sec-1)    Total A (sec-1)
     -----------------------------------------------------------------------------------------------
         1    5       4.32303604E-05  1.36595827E-15  4.89701775E-02  6.71866581E-09  4.89701842E-02
         1    7       4.32288152E-05  1.01868051E-08  6.71885191E-09  4.89716921E-02  4.89717090E-02
         1   13       1.32386339E-02  1.53027683E-01  2.94773294E+12  1.03708883E+05  2.94773305E+12
         1   15       1.32386374E-02  8.65788803E+06  1.03707774E+05  2.94772507E+12  2.94773383E+12
         2    6       4.32303604E-05  1.36595827E-15  4.89701775E-02  6.71866581E-09  4.89701842E-02
         2    8       4.32288152E-05  1.01868051E-08  6.71885191E-09  4.89716921E-02  4.89717090E-02
         2   14       1.32386339E-02  1.53027683E-01  2.94773294E+12  1.03708883E+05  2.94773305E+12
         2   16       1.32386374E-02  8.65788803E+06  1.03707774E+05  2.94772507E+12  2.94773383E+12
         3    5       4.32316550E-05  1.01194390E-08  6.71858618E-09  4.89712866E-02  4.89713034E-02
         3    7       4.32276652E-05  1.44123878E-15  4.89700524E-02  6.71891769E-09  4.89700591E-02
         3   13       1.32387623E-02  3.12587318E+06  1.03708137E+05  2.94775840E+12  2.94776163E+12
         3   15       1.32385116E-02  2.28108875E-01  2.94770572E+12  1.03708440E+05  2.94770583E+12
         4    6       4.32316550E-05  1.01194390E-08  6.71858618E-09  4.89712866E-02  4.89713034E-02
         4    8       4.32276652E-05  1.44123878E-15  4.89700524E-02  6.71891769E-09  4.89700591E-02
         4   14       1.32387623E-02  3.12587318E+06  1.03708137E+05  2.94775840E+12  2.94776163E+12
         4   16       1.32385116E-02  2.28108875E-01  2.94770572E+12  1.03708440E+05  2.94770583E+12
         5    9       3.87059090E-04  1.02113360E-08  2.66894488E-09  4.92442059E-02  4.92442188E-02
         5   13       1.32344768E-02  2.94679004E+12  5.17566661E-02  4.09620042E+06  2.94679413E+12
         5   17       1.32398173E-02  6.78139058E+06  1.59776205E+05  2.94808583E+12  2.94809277E+12
         6   10       3.87059090E-04  1.02113360E-08  2.66894488E-09  4.92442059E-02  4.92442188E-02
         6   14       1.32344768E-02  2.94679004E+12  5.17566661E-02  4.09620042E+06  2.94679413E+12
         6   18       1.32398173E-02  6.78139058E+06  1.59776205E+05  2.94808583E+12  2.94809277E+12
         7    9       3.87104472E-04  5.03970765E-16  4.92401616E-02  2.66861898E-09  4.92401643E-02
         7   15       1.32344780E-02  2.94678575E+12  3.35565265E-02  8.64826260E+06  2.94679440E+12
         7   17       1.32398138E-02  3.49815489E-01  2.94809185E+12  1.59775896E+05  2.94809201E+12
         8   10       3.87104472E-04  5.03970765E-16  4.92401616E-02  2.66861898E-09  4.92401643E-02
         8   16       1.32344780E-02  2.94678575E+12  3.35565265E-02  8.64826260E+06  2.94679440E+12
         8   18       1.32398138E-02  3.49815489E-01  2.94809185E+12  1.59775896E+05  2.94809201E+12
         9   13       4.41403375E-03  2.72677288E+06  2.45405682E+03  9.82826383E+11  9.82829112E+11
         9   15       4.41428145E-03  4.67544319E-03  9.82884263E+11  2.45386860E+03  9.82884266E+11
         9   17       1.76449156E-02  3.92895614E+12  1.31846955E-04  8.16959596E+06  3.92896431E+12
        10   14       4.41403375E-03  2.72677288E+06  2.45405682E+03  9.82826383E+11  9.82829112E+11
        10   16       4.41428145E-03  4.67544319E-03  9.82884263E+11  2.45386860E+03  9.82884266E+11
        10   18       1.76449156E-02  3.92895614E+12  1.31846955E-04  8.16959596E+06  3.92896431E+12
        11   13       1.46118430E-01  2.61515155E+05  4.39676611E+02  1.76098038E+11  1.76098300E+11
        11   15       1.46118430E-01  7.11639643E-04  1.76098301E+11  4.39675900E+02  1.76098302E+11
        11   17       1.46111966E-01  1.76179185E+11  1.26372627E-06  2.61659606E+05  1.76179447E+11
        12   14       1.46118430E-01  2.61515155E+05  4.39676611E+02  1.76098038E+11  1.76098300E+11
        12   16       1.46118430E-01  7.11639643E-04  1.76098301E+11  4.39675900E+02  1.76098302E+11
        12   18       1.46111966E-01  1.76179185E+11  1.26372627E-06  2.61659606E+05  1.76179447E+11
        13   15       1.46744222E-05  2.62475990E-23  5.51317435E-10  1.12726273E-20  5.51317435E-10
        13   17       5.58473003E-04  8.99548056E-06  1.07139504E-07  4.29111468E+01  4.29111559E+01
        14   16       1.46744222E-05  2.62475990E-23  5.51317435E-10  1.12726273E-20  5.51317435E-10
        14   18       5.58473003E-04  8.99548056E-06  1.07139504E-07  4.29111468E+01  4.29111559E+01
        15   17       5.58484995E-04  1.86723747E-14  4.29101794E+01  1.07137168E-07  4.29101795E+01
        16   18       5.58484995E-04  1.86723747E-14  4.29101794E+01  1.07137168E-07  4.29101795E+01
     -----------------------------------------------------------------------------------------------
--

++ Length and velocity gauge comparison (SO states):

 --------------------------------------------------
 A comparison between the dipole oscillator strengths in 
 length and velocity gauge will be performed

 All dipole oscillator differences above the tolerance of   0.10000000000000001       will be printed 

 Due to basis set deficiency these oscillator may be problematic 

 The tolerance is defined as ABS(1-O_l/O_v) 
 O_l : dipole oscillator strength in length gauge
 O_p : dipole oscillator strength in velocity gauge
 --------------------------------------------------

  Problematic transitions have been found

      From   To       Difference (%) Osc. st. (len.) Osc. st. (vel.)
     ---------------------------------------------------------------
         1    5      --------------- below threshold  4.32303604E-05
         1    7      --------------- below threshold  4.32288152E-05
         2    6      --------------- below threshold  4.32303604E-05
         2    8      --------------- below threshold  4.32288152E-05
         3    5      --------------- below threshold  4.32316550E-05
         3    7      --------------- below threshold  4.32276652E-05
         4    6      --------------- below threshold  4.32316550E-05
         4    8      --------------- below threshold  4.32276652E-05
         5    9      --------------- below threshold  3.87059090E-04
         6   10      --------------- below threshold  3.87059090E-04
         7    9      --------------- below threshold  3.87104472E-04
         8   10      --------------- below threshold  3.87104472E-04
        11   13            21.658648  1.77765706E-01  1.46118430E-01
        11   15            21.658648  1.77765706E-01  1.46118430E-01
        11   17            21.657097  1.77755576E-01  1.46111966E-01
        12   14            21.658648  1.77765706E-01  1.46118430E-01
        12   16            21.658648  1.77765706E-01  1.46118430E-01
        12   18            21.657097  1.77755576E-01  1.46111966E-01
        13   15      --------------- below threshold  1.46744222E-05
        13   17      --------------- below threshold  5.58473003E-04
        14   16      --------------- below threshold  1.46744222E-05
        14   18      --------------- below threshold  5.58473003E-04
        15   17      --------------- below threshold  5.58484995E-04
        16   18      --------------- below threshold  5.58484995E-04
     ---------------------------------------------------------------

 Number of problematic transitions =                    24

--

 Electric-dipole - electric-octupole not included
++ Total transition strengths for the second-order expansion of the wave vector (SO states):
   -----------------------------------------------------------------------------------------
    for osc. strength at least    1.0000000000000001E-005

      From   To        Osc. strength
     -------------------------------
         1   11       5.84992994E-05
         2   12       5.84992994E-05
         3   11       5.84992993E-05
         4   12       5.84992993E-05
         5   11       5.84922399E-05
         6   12       5.84922399E-05
         7   11       5.84922394E-05
         8   12       5.84922394E-05
         9   11       5.84898742E-05
        10   12       5.84898742E-05
     -------------------------------
--

++ I/O STATISTICS
 
  I. General I/O information
  - - - - - - - - - - - - - - - - - - - - - - - - - - - - - - - - - - - - - - - - - - -
  Unit  Name          Flsize      Write/Read            MBytes           Write/Read
                      (MBytes)       Calls              In/Out           Time, sec.
  - - - - - - - - - - - - - - - - - - - - - - - - - - - - - - - - - - - - - - - - - - -
   1  SCRATCH           0.00 .       9/      45 .      0.0/      0.0 .       0/       0
   2  ANNI              0.00 .       0/       0 .      0.0/      0.0 .       0/       0
   3  RUNFILE          15.31 .     322/   10301 .      2.3/     74.7 .       0/       0
   4  ONEINT            6.58 .       0/   28767 .      0.0/   3777.9 .       0/       0
   5  JOBIPH            7.70 .       0/      92 .      0.0/      0.9 .       0/       0
   6  ORDINT          771.03 .       1/    6169 .      0.0/   1542.0 .       0/       0
  - - - - - - - - - - - - - - - - - - - - - - - - - - - - - - - - - - - - - - - - - - -
   *  TOTAL           800.62 .     332/   45374 .      2.3/   5395.5 .       0/       0
  - - - - - - - - - - - - - - - - - - - - - - - - - - - - - - - - - - - - - - - - - - -
 
  II. I/O Access Patterns
  - - - - - - - - - - - - - - - - - - - -
  Unit  Name               % of random
                         Write/Read calls
  - - - - - - - - - - - - - - - - - - - -
   1  SCRATCH             88.9/ 100.0
   2  ANNI                 0.0/   0.0
   3  RUNFILE             28.6/  10.8
   4  ONEINT               0.0/  13.4
   5  JOBIPH               0.0/  76.1
   6  ORDINT             100.0/   0.0
  - - - - - - - - - - - - - - - - - - - -
--
--- Stop Module: rassi at Thu Mar 27 00:13:33 2025 /rc=_RC_ALL_IS_WELL_ ---
*** files: xmldump
    saved to directory /home4/s4752295/Internship/Initial_simulations/Point_charge_model/1_electron/Madelung_charges_9_active_space/W
--- Module rassi spent 4 seconds ---

.##################.
.# Happy landing! #.
.##################.

    Timing: Wall=65.70 User=54.69 System=9.73

###############################################################################
Hbrk Cluster
Job 15913437 for user s4752295
Finished at: Thu Mar 27 00:13:37 CET 2025

Job details:
============

Job ID                         : 15913437
Name                           : W_no_SO
User                           : s4752295
Partition                      : regularmedium
Nodes                          : node101
Number of Nodes                : 1
Cores                          : 1
Number of Tasks                : 1
State                          : COMPLETED  
Submit                         : 2025-03-27T00:10:27
Start                          : 2025-03-27T00:12:23
End                            : 2025-03-27T00:13:33
Reserved walltime              : 15:00:00
Used walltime                  : 00:01:10
Used CPU time                  : 00:01:06 (Efficiency: 93.59%)
% User (Computation)           : 84.79%
% System (I/O)                 : 15.21%
Total memory reserved          : 25000M
Maximum memory used            : 3.06G

Acknowledgements:
=================

Please see this page for information about acknowledging Hbrk in your publications:

https://wiki.hpc.rug.nl/habrok/introduction/scientific_output

################################################################################
