   This run of MOLCAS is using the pymolcas driver

                             OPE
                             OPE          NMOL  CASOP  ENMOLC A   SO
                 OPE        NMOLC        AS  OP EN  MO LC     AS  OP
                OPENM       OL CA        SO  PE NM  OL CA     SOP EN
                OP EN      MO   LC       AS  OP ENMOL  CASO   PENMOL
                OP  EN     MO   LC       AS  OP EN     MO     LC ASO
               OP   E  NMOL  C  AS       OP  EN MO     LC     AS  OP
               OP  E   NMO   LC AS        OPEN  MO     LCASOP EN   M
               O  PEN   MO  LCA  SO
            OPE   NMO   L   CAS    OP
        OPENMOL  CASOP     ENMOL   CASOPE
     OPENMOLCA   SOPENMOLCASOPEN   MOLCASOPE
    OPENMOLCAS   OP           EN   MOL    CAS
    OPENMOLCAS       OP  ENM        O     LCA
    OPENMOLCAS    OPEN  MOLCASO     P  E  NMO
    OPENMOLCAS     OP               E  N  MOL
    OPENMOLCA   SO           PENM   O  L  CAS    OPEN    MO    LCAS
    OPENMOLCA   SOP           ENM   O  L  CAS   OP  EN  MOLC  AS   O
    OPENMOLCA   SOPE           NM      O  LCA   S      OP  EN MO
    OPENMOLC                AS         O  PEN   M      OL  CA  SOPE
    OPENMO        LCASOPE  NMOL        C  ASO   P      ENMOLC     AS
    OPE     NMO      LCA  SO     P     E   NM   OL  CA SO  PE N   MO
          OPENMOLCA            SOPE   NMO        LCAS  O    P  ENMO
     OPENMOLCASOPENMOLCASOPENMOLCASOPENMOLCA
        OPENMOLCASOPENMOLCASOPENMOLCASOPE
            OPENMOLCASOPENMOLCASOPENM
               OPENMOLCASOPENMOLCA        version: o91e1abe7de707b ?
                   OPENMOLCASO
                       OPE                tag:

 OpenMolcas is free software; you can redistribute it and/or modify it
 under the terms of the GNU Lesser General Public License version 2.1.
 OpenMolcas is distributed in the hope that it will be useful, but it
 is provided "as is" and without any express or implied warranties.
 For more details see the full text of the license in the file
 LICENSE or in <http://www.gnu.org/licenses/>.

                 Copyright (C) The OpenMolcas Authors
           For the author list and the recommended citation,
                   consult the file CONTRIBUTORS.md

           *************************************************
           * pymolcas version py2.10                       *
           *   build 3068ae8b88c9345ec6cfef6fef7f1169      *
           *   (after the EMIL interpreter by V. Veryazov) *
           *************************************************

configuration info
------------------
Host name: login1 (Linux)
C Compiler ID: GNU
C flags: -std=gnu99
Fortran Compiler ID: GNU
Fortran flags: -fno-aggressive-loop-optimizations -cpp -fdefault-integer-8 -fmax-stack-var-size=1048576
Definitions: _MOLCAS_;_I8_;_LINUX_;_MKL_
Parallel: OFF (GA=OFF)


   ----------------------------------------------------------------------------------------------------------------------------------
  |
  |           Project: tungsten_so_cf
  |    Submitted from: /home4/s4752295/Internship/Initial_simulations/Point_charge_model/1_electron/Madelung_charges_9_active_space/W
  |      Scratch area: /tmp/tungsten_so_cf
  |   Save outputs to: /home4/s4752295/Internship/Initial_simulations/Point_charge_model/1_electron/Madelung_charges_9_active_space/W
  |            Molcas: /home4/s4752295/Internship/Molcas/recomp_try/OpenMolcas-master/build
  |
  | Scratch area is empty
  |
  |    MOLCAS_DRIVER = /home4/s4752295/Internship/Molcas/bin/pymolcas
  |    MOLCAS_NPROCS = 1
  |    MOLCAS_SOURCE = /home4/s4752295/Internship/Molcas/recomp_try/OpenMolcas-master
  | MOLCAS_STRUCTURE = 0
  |
   ----------------------------------------------------------------------------------------------------------------------------------

++ ---------   Input file   ---------

&SEWARD
AMFi

CLIG
$R

Basis Set
W.ANO-rcc.Roos.24s21p15d11f4g2h.11s10p9d8f4g2h.
Spherical d
W            -1.0658140267135469e-14    -3.5527134223784897e-15 0.008753588724385739
End of Basis

Xfield

414
-4.402421188,-1.6940000000000002,0.9780309      -0.625931
-4.402421188,-0.0,-1.9560629    -0.625931
-4.402421188,1.6940000000000002,0.9780309       -0.625931
-4.394880677000001,0.0,0.0      1.892092
2.9250976590000004,-1.6940000000000002,-0.9780309       2.515516
2.9250976590000004,0.0,1.9560629        2.515516
2.9250976590000004,1.6940000000000002,-0.9780309        2.515516
3.9192871080000002,-3.3880000000000003,0.0      0.004632
3.9192871080000002,-1.6940000000000002,-2.9340938000000003      0.004632
3.9192871080000002,-1.6940000000000002,2.9340938000000003       0.004632
3.9192871080000002,1.6940000000000002,-2.9340938000000003       0.004632
3.9192871080000002,1.6940000000000002,2.9340938000000003        0.004632
3.9192871080000002,3.3880000000000003,0.0       0.004632
4.542065429000001,-1.6940000000000002,0.9780309 -2.519484
4.542065429000001,-0.0,-1.9560629       -2.519484
4.542065429000001,1.6940000000000002,0.9780309  -2.519484
-3.2264160170000005,-0.0,-0.0   -3.142907
-5.472607426000001,-3.3880000000000003,-1.9560629       -0.625931
-5.472607426000001,0.0,3.9121247000000006       -0.625931
-5.472607426000001,3.3880000000000003,-1.9560629        -0.625931
-7.2703125,-3.3880000000000003,0.0      1.892092
-7.2703125,-1.6940000000000002,-2.9340938000000003      1.892092
-7.2703125,-1.6940000000000002,2.9340938000000003       1.892092
-7.2703125,1.6940000000000002,-2.9340938000000003       1.892092
-7.2703125,1.6940000000000002,2.9340938000000003        1.892092
-7.2703125,3.3880000000000003,0.0       1.892092
27.689062500000002,-3.3880000000000003,1.9560629        2.515516
27.689062500000002,-0.0,-3.9121247000000006     2.515516
27.689062500000002,3.3880000000000003,1.9560629 2.515516
4.002539068,-3.3880000000000003,-1.9560629      -2.519484
4.002539068,0.0,3.9121247000000006      -2.519484
4.002539068,3.3880000000000003,-1.9560629       -2.519484
-3.5556640680000005,-3.3880000000000003,-0.0    -3.142907
-3.5556640680000005,-1.6940000000000002,-2.9340938000000003     -3.142907
-3.5556640680000005,-1.6940000000000002,2.9340938000000003      -3.142907
-3.5556640680000005,1.6940000000000002,-2.9340938000000003      -3.142907
-3.5556640680000005,1.6940000000000002,2.9340938000000003       -3.142907
-3.5556640680000005,3.3880000000000003,-0.0     -3.142907
-10.47578125,-3.3880000000000003,3.9121247000000006     -0.625931
-10.47578125,3.3880000000000003,3.9121247000000006      -0.625931
-10.47578125,-5.082000000000001,0.9780309       -0.625931
-10.47578125,5.082000000000001,0.9780309        -0.625931
-10.47578125,-1.6940000000000002,-4.8901567     -0.625931
-10.47578125,1.6940000000000002,-4.8901567      -0.625931
6.608593750000001,-1.6940000000000002,-0.9780309        4.409069
6.608593750000001,1.6940000000000002,-0.9780309 4.409069
6.608593750000001,0.0,1.9560629 4.409069
-192.775,-0.0,-0.0      -5.030367
-192.775,0.0,0.0        5.039632
14.869335932,-3.3880000000000003,-3.9121247000000006    2.515516
14.869335932,3.3880000000000003,-3.9121247000000006     2.515516
14.869335932,-5.082000000000001,-0.9780309      2.515516
14.869335932,5.082000000000001,-0.9780309       2.515516
14.869335932,-1.6940000000000002,4.8901567      2.515516
14.869335932,1.6940000000000002,4.8901567       2.515516
20.942968750000002,-5.082000000000001,-2.9340938000000003       0.004632
20.942968750000002,-5.082000000000001,2.9340938000000003        0.004632
20.942968750000002,5.082000000000001,-2.9340938000000003        0.004632
20.942968750000002,5.082000000000001,2.9340938000000003 0.004632
20.942968750000002,-0.0,-5.868187600000001      0.004632
20.942968750000002,0.0,5.868187600000001        0.004632
52.885937500000004,-3.3880000000000003,3.9121247000000006       -2.519484
52.885937500000004,3.3880000000000003,3.9121247000000006        -2.519484
52.885937500000004,-5.082000000000001,0.9780309 -2.519484
52.885937500000004,5.082000000000001,0.9780309  -2.519484
52.885937500000004,-1.6940000000000002,-4.8901567       -2.519484
52.885937500000004,1.6940000000000002,-4.8901567        -2.519484
-160.4625,-5.082000000000001,-2.9340938000000003        1.892092
-160.4625,-5.082000000000001,2.9340938000000003 1.892092
-160.4625,5.082000000000001,-2.9340938000000003 1.892092
-160.4625,5.082000000000001,2.9340938000000003  1.892092
-160.4625,-0.0,-5.868187600000001       1.892092
-160.4625,0.0,5.868187600000001 1.892092
-129.525,-3.3880000000000003,1.9560629  4.409069
-129.525,-0.0,-3.9121247000000006       4.409069
-129.525,3.3880000000000003,1.9560629   4.409069
-97.9,-3.3880000000000003,-0.0  -5.030367
-97.9,-1.6940000000000002,-2.9340938000000003   -5.030367
-97.9,-1.6940000000000002,2.9340938000000003    -5.030367
-97.9,1.6940000000000002,-2.9340938000000003    -5.030367
-97.9,-3.3880000000000003,0.0   5.039632
-97.9,3.3880000000000003,-0.0   -5.030367
-97.9,1.6940000000000002,2.9340938000000003     -5.030367
-97.9,-1.6940000000000002,-2.9340938000000003   5.039632
-97.9,-1.6940000000000002,2.9340938000000003    5.039632
-97.9,1.6940000000000002,-2.9340938000000003    5.039632
-97.9,3.3880000000000003,0.0    5.039632
-97.9,1.6940000000000002,2.9340938000000003     5.039632
-51.2875,-1.6940000000000002,-0.9780309 -5.660931
-51.2875,0.0,1.9560629  -5.660931
-51.2875,1.6940000000000002,-0.9780309  -5.660931
0.9710937500000001,-6.7759989,0.0       0.004632
0.9710937500000001,-3.3880000000000003,-5.868187600000001       0.004632
0.9710937500000001,-3.3880000000000003,5.868187600000001        0.004632
0.9710937500000001,3.3880000000000003,-5.868187600000001        0.004632
0.9710937500000001,6.7759989,0.0        0.004632
0.9710937500000001,3.3880000000000003,5.868187600000001 0.004632
74.73125,-5.082000000000001,2.9340938000000003  -3.142907
74.73125,-5.082000000000001,-2.9340938000000003 -3.142907
74.73125,5.082000000000001,-2.9340938000000003  -3.142907
74.73125,5.082000000000001,2.9340938000000003   -3.142907
74.73125,-0.0,-5.868187600000001        -3.142907
74.73125,0.0,5.868187600000001  -3.142907
95.0125,-6.7759989,-1.9560629   -0.625931
95.0125,-5.082000000000001,-4.8901567   -0.625931
95.0125,-1.6940000000000002,6.846218500000001   -0.625931
95.0125,5.082000000000001,-4.8901567    -0.625931
95.0125,6.7759989,-1.9560629    -0.625931
95.0125,1.6940000000000002,6.846218500000001    -0.625931
1.3169921820000001,-6.7759989,0.0       1.892092
1.3169921820000001,-3.3880000000000003,-5.868187600000001       1.892092
1.3169921820000001,-3.3880000000000003,5.868187600000001        1.892092
1.3169921820000001,3.3880000000000003,-5.868187600000001        1.892092
1.3169921820000001,6.7759989,0.0        1.892092
1.3169921820000001,3.3880000000000003,5.868187600000001 1.892092
37.228125000000006,-3.3880000000000003,-3.9121247000000006      4.409069
37.228125000000006,3.3880000000000003,-3.9121247000000006       4.409069
37.228125000000006,-5.082000000000001,-0.9780309        4.409069
37.228125000000006,5.082000000000001,-0.9780309 4.409069
37.228125000000006,-1.6940000000000002,4.8901567        4.409069
37.228125000000006,1.6940000000000002,4.8901567 4.409069
178.64687500000002,-3.3880000000000003,1.9560629        -5.660931
178.64687500000002,-0.0,-3.9121247000000006     -5.660931
178.64687500000002,3.3880000000000003,1.9560629 -5.660931
0.37812500000000004,-6.7759989,1.9560629        2.515516
0.37812500000000004,-1.6940000000000002,-6.846218500000001      2.515516
0.37812500000000004,-5.082000000000001,4.8901567        2.515516
0.37812500000000004,1.6940000000000002,-6.846218500000001       2.515516
0.37812500000000004,6.7759989,1.9560629 2.515516
0.37812500000000004,5.082000000000001,4.8901567 2.515516
-103.60625,-6.7759989,-1.9560629        -2.519484
-103.60625,-5.082000000000001,-4.8901567        -2.519484
-103.60625,-1.6940000000000002,6.846218500000001        -2.519484
-103.60625,5.082000000000001,-4.8901567 -2.519484
-103.60625,1.6940000000000002,6.846218500000001 -2.519484
-103.60625,6.7759989,-1.9560629 -2.519484
-24.277343750000004,-6.7759989,-0.0     -3.142907
-24.277343750000004,-3.3880000000000003,-5.868187600000001      -3.142907
-24.277343750000004,-3.3880000000000003,5.868187600000001       -3.142907
-24.277343750000004,3.3880000000000003,-5.868187600000001       -3.142907
-24.277343750000004,3.3880000000000003,5.868187600000001        -3.142907
-24.277343750000004,6.7759989,-0.0      -3.142907
667.1500000000001,0.0,0.0       6.927092
355.57500000000005,-6.7759989,3.9121247000000006        -0.625931
355.57500000000005,6.7759989,3.9121247000000006 -0.625931
355.57500000000005,-0.0,-7.824250500000001      -0.625931
-5.964062500000001,-5.082000000000001,2.9340938000000003        -5.030367
-5.964062500000001,-5.082000000000001,-2.9340938000000003       -5.030367
-5.964062500000001,-5.082000000000001,2.9340938000000003        5.039632
-5.964062500000001,-5.082000000000001,-2.9340938000000003       5.039632
-5.964062500000001,5.082000000000001,-2.9340938000000003        -5.030367
-5.964062500000001,5.082000000000001,2.9340938000000003 -5.030367
-5.964062500000001,5.082000000000001,-2.9340938000000003        5.039632
-5.964062500000001,5.082000000000001,2.9340938000000003 5.039632
-5.964062500000001,-0.0,-5.868187600000001      -5.030367
-5.964062500000001,0.0,5.868187600000001        -5.030367
-5.964062500000001,-0.0,-5.868187600000001      5.039632
-5.964062500000001,0.0,5.868187600000001        5.039632
100.99375,-3.3880000000000003,-3.9121247000000006       -5.660931
100.99375,3.3880000000000003,-3.9121247000000006        -5.660931
100.99375,-5.082000000000001,-0.9780309 -5.660931
100.99375,5.082000000000001,-0.9780309  -5.660931
100.99375,-1.6940000000000002,4.8901567 -5.660931
100.99375,1.6940000000000002,4.8901567  -5.660931
330.55,-6.7759989,-3.9121247000000006   2.515516
330.55,6.7759989,-3.9121247000000006    2.515516
330.55,0.0,7.824250500000001    2.515516
-568.975,-6.7759989,3.9121247000000006  -2.519484
-568.975,6.7759989,3.9121247000000006   -2.519484
-568.975,-0.0,-7.824250500000001        -2.519484
58.91875,-3.3880000000000003,0.0        6.927092
58.91875,-1.6940000000000002,-2.9340938000000003        6.927092
58.91875,-1.6940000000000002,2.9340938000000003 6.927092
58.91875,1.6940000000000002,-2.9340938000000003 6.927092
58.91875,1.6940000000000002,2.9340938000000003  6.927092
58.91875,3.3880000000000003,0.0 6.927092
-60.775000000000006,-1.6940000000000002,0.9780309       7.550516
-60.775000000000006,0.0,-1.9560629      7.550516
-60.775000000000006,1.6940000000000002,0.9780309        7.550516
17.084375,-1.6940000000000002,-0.9780309        -7.554483
17.084375,1.6940000000000002,-0.9780309 -7.554483
17.084375,-0.0,1.9560629        -7.554483
-137.3625,-8.4699989,0.9780309  -0.625931
-137.3625,-5.082000000000001,6.846218500000001  -0.625931
-137.3625,-3.3880000000000003,-7.824250500000001        -0.625931
-137.3625,3.3880000000000003,-7.824250500000001 -0.625931
-137.3625,8.4699989,0.9780309   -0.625931
-137.3625,5.082000000000001,6.846218500000001   -0.625931
-74.18125,-6.7759989,1.9560629  4.409069
-74.18125,-5.082000000000001,4.8901567  4.409069
-74.18125,-1.6940000000000002,-6.846218500000001        4.409069
-74.18125,1.6940000000000002,-6.846218500000001 4.409069
-74.18125,5.082000000000001,4.8901567   4.409069
-74.18125,6.7759989,1.9560629   4.409069
54.071875000000006,-6.7759989,-0.0      -5.030367
54.071875000000006,-3.3880000000000003,-5.868187600000001       -5.030367
54.071875000000006,-3.3880000000000003,5.868187600000001        -5.030367
54.071875000000006,-6.7759989,0.0       5.039632
54.071875000000006,-3.3880000000000003,-5.868187600000001       5.039632
54.071875000000006,3.3880000000000003,-5.868187600000001        -5.030367
54.071875000000006,3.3880000000000003,5.868187600000001 -5.030367
54.071875000000006,6.7759989,-0.0       -5.030367
54.071875000000006,-3.3880000000000003,5.868187600000001        5.039632
54.071875000000006,3.3880000000000003,-5.868187600000001        5.039632
54.071875000000006,6.7759989,0.0        5.039632
54.071875000000006,3.3880000000000003,5.868187600000001 5.039632
198.82500000000002,-8.4699989,-0.9780309        2.515516
198.82500000000002,-5.082000000000001,-6.846218500000001        2.515516
198.82500000000002,-3.3880000000000003,7.824250500000001        2.515516
198.82500000000002,5.082000000000001,-6.846218500000001 2.515516
198.82500000000002,8.4699989,-0.9780309 2.515516
198.82500000000002,3.3880000000000003,7.824250500000001 2.515516
-25.678125,-8.4699989,-2.9340938000000003       0.004632
-25.678125,-8.4699989,2.9340938000000003        0.004632
-25.678125,-6.7759989,-5.868187600000001        0.004632
-25.678125,-6.7759989,5.868187600000001 0.004632
-25.678125,-1.6940000000000002,-8.802281400000002       0.004632
-25.678125,1.6940000000000002,-8.802281400000002        0.004632
-25.678125,-1.6940000000000002,8.802281400000002        0.004632
-25.678125,6.7759989,-5.868187600000001 0.004632
-25.678125,1.6940000000000002,8.802281400000002 0.004632
-25.678125,8.4699989,-2.9340938000000003        0.004632
-25.678125,8.4699989,2.9340938000000003 0.004632
-25.678125,6.7759989,5.868187600000001  0.004632
-157.4375,-8.4699989,0.9780309  -2.519484
-157.4375,-5.082000000000001,6.846218500000001  -2.519484
-157.4375,-3.3880000000000003,-7.824250500000001        -2.519484
-157.4375,3.3880000000000003,-7.824250500000001 -2.519484
-157.4375,8.4699989,0.9780309   -2.519484
-157.4375,5.082000000000001,6.846218500000001   -2.519484
3335.2000000000003,-0.0,-0.0    -8.177907
-127.60000000000001,-3.3880000000000003,-1.9560629      7.550516
-127.60000000000001,0.0,3.9121247000000006      7.550516
-127.60000000000001,3.3880000000000003,-1.9560629       7.550516
-663.85,-3.3880000000000003,1.9560629   -7.554483
-663.85,-0.0,-3.9121247000000006        -7.554483
-663.85,3.3880000000000003,1.9560629    -7.554483
53.79687500000001,-8.4699989,2.9340938000000003 1.892092
53.79687500000001,-8.4699989,-2.9340938000000003        1.892092
53.79687500000001,-6.7759989,-5.868187600000001 1.892092
53.79687500000001,-6.7759989,5.868187600000001  1.892092
53.79687500000001,-1.6940000000000002,-8.802281400000002        1.892092
53.79687500000001,1.6940000000000002,-8.802281400000002 1.892092
53.79687500000001,-1.6940000000000002,8.802281400000002 1.892092
53.79687500000001,6.7759989,-5.868187600000001  1.892092
53.79687500000001,1.6940000000000002,8.802281400000002  1.892092
53.79687500000001,8.4699989,-2.9340938000000003 1.892092
53.79687500000001,8.4699989,2.9340938000000003  1.892092
53.79687500000001,6.7759989,5.868187600000001   1.892092
-555.5,-6.7759989,-3.9121247000000006   4.409069
-555.5,6.7759989,-3.9121247000000006    4.409069
-555.5,0.0,7.824250500000001    4.409069
28.402343750000004,-6.7759989,1.9560629 -5.660931
28.402343750000004,-1.6940000000000002,-6.846218500000001       -5.660931
28.402343750000004,-5.082000000000001,4.8901567 -5.660931
28.402343750000004,1.6940000000000002,-6.846218500000001        -5.660931
28.402343750000004,5.082000000000001,4.8901567  -5.660931
28.402343750000004,6.7759989,1.9560629  -5.660931
-64.00625000000001,-6.7759989,-5.868187600000001        -3.142907
-64.00625000000001,-8.4699989,2.9340938000000003        -3.142907
-64.00625000000001,-8.4699989,-2.9340938000000003       -3.142907
-64.00625000000001,-6.7759989,5.868187600000001 -3.142907
-64.00625000000001,-1.6940000000000002,-8.802281400000002       -3.142907
-64.00625000000001,1.6940000000000002,-8.802281400000002        -3.142907
-64.00625000000001,-1.6940000000000002,8.802281400000002        -3.142907
-64.00625000000001,8.4699989,-2.9340938000000003        -3.142907
-64.00625000000001,6.7759989,-5.868187600000001 -3.142907
-64.00625000000001,1.6940000000000002,8.802281400000002 -3.142907
-64.00625000000001,8.4699989,2.9340938000000003 -3.142907
-64.00625000000001,6.7759989,5.868187600000001  -3.142907
71.946875,-5.082000000000001,-2.9340938000000003        6.927092
71.946875,-5.082000000000001,2.9340938000000003 6.927092
71.946875,5.082000000000001,-2.9340938000000003 6.927092
71.946875,5.082000000000001,2.9340938000000003  6.927092
71.946875,-0.0,-5.868187600000001       6.927092
71.946875,0.0,5.868187600000001 6.927092
-91.575,-3.3880000000000003,-0.0        -8.177907
-91.575,-1.6940000000000002,2.9340938000000003  -8.177907
-91.575,-1.6940000000000002,-2.9340938000000003 -8.177907
-91.575,1.6940000000000002,-2.9340938000000003  -8.177907
-91.575,3.3880000000000003,-0.0 -8.177907
-91.575,1.6940000000000002,2.9340938000000003   -8.177907
-99.996875,-3.3880000000000003,3.9121247000000006       7.550516
-99.996875,3.3880000000000003,3.9121247000000006        7.550516
-99.996875,-5.082000000000001,0.9780309 7.550516
-99.996875,5.082000000000001,0.9780309  7.550516
-99.996875,-1.6940000000000002,-4.8901567       7.550516
-99.996875,1.6940000000000002,-4.8901567        7.550516
-50.25625,-3.3880000000000003,-3.9121247000000006       -7.554483
-50.25625,3.3880000000000003,-3.9121247000000006        -7.554483
-50.25625,-5.082000000000001,-0.9780309 -7.554483
-50.25625,5.082000000000001,-0.9780309  -7.554483
-50.25625,-1.6940000000000002,4.8901567 -7.554483
-50.25625,1.6940000000000002,4.8901567  -7.554483
-550.2750000000001,0.0,9.7803123        -0.625931
-550.2750000000001,-8.4699989,-4.8901567        -0.625931
-550.2750000000001,8.4699989,-4.8901567 -0.625931
-296.725,-8.4699989,-0.9780309  4.409069
-296.725,-5.082000000000001,-6.846218500000001  4.409069
-296.725,-3.3880000000000003,7.824250500000001  4.409069
-296.725,5.082000000000001,-6.846218500000001   4.409069
-296.725,8.4699989,-0.9780309   4.409069
-296.725,3.3880000000000003,7.824250500000001   4.409069
341.4125,-6.7759989,-3.9121247000000006 -5.660931
341.4125,6.7759989,-3.9121247000000006  -5.660931
341.4125,0.0,7.824250500000001  -5.660931
645.7,-0.0,-9.7803123   2.515516
645.7,-8.4699989,4.8901567      2.515516
645.7,8.4699989,4.8901567       2.515516
-103.2625,-10.1639989,-0.0      0.004632
-103.2625,5.082000000000001,-8.802281400000002  0.004632
-103.2625,-5.082000000000001,8.802281400000002  0.004632
-103.2625,10.1639989,-0.0       0.004632
-103.2625,-5.082000000000001,-8.802281400000002 0.004632
-103.2625,5.082000000000001,8.802281400000002   0.004632
-424.32500000000005,0.0,9.7803123       -2.519484
-424.32500000000005,-8.4699989,-4.8901567       -2.519484
-424.32500000000005,8.4699989,-4.8901567        -2.519484
250.8,-6.7759989,0.0    6.927092
250.8,-3.3880000000000003,-5.868187600000001    6.927092
250.8,-3.3880000000000003,5.868187600000001     6.927092
250.8,3.3880000000000003,-5.868187600000001     6.927092
250.8,6.7759989,0.0     6.927092
250.8,3.3880000000000003,5.868187600000001      6.927092
233.06250000000003,-10.1639989,-1.9560629       -0.625931
233.06250000000003,-3.3880000000000003,9.7803123        -0.625931
233.06250000000003,-6.7759989,-7.824250500000001        -0.625931
233.06250000000003,6.7759989,-7.824250500000001 -0.625931
233.06250000000003,3.3880000000000003,9.7803123 -0.625931
233.06250000000003,10.1639989,-1.9560629        -0.625931
123.13125000000001,-10.1639989,0.0      1.892092
123.13125000000001,-5.082000000000001,-8.802281400000002        1.892092
123.13125000000001,-5.082000000000001,8.802281400000002 1.892092
123.13125000000001,5.082000000000001,-8.802281400000002 1.892092
123.13125000000001,10.1639989,0.0       1.892092
123.13125000000001,5.082000000000001,8.802281400000002  1.892092
-4.7523437500000005,-8.4699989,2.9340938000000003       -5.030367
-4.7523437500000005,-8.4699989,-2.9340938000000003      -5.030367
-4.7523437500000005,-6.7759989,-5.868187600000001       -5.030367
-4.7523437500000005,-6.7759989,5.868187600000001        -5.030367
-4.7523437500000005,-8.4699989,2.9340938000000003       5.039632
-4.7523437500000005,1.6940000000000002,-8.802281400000002       -5.030367
-4.7523437500000005,-1.6940000000000002,-8.802281400000002      -5.030367
-4.7523437500000005,-8.4699989,-2.9340938000000003      5.039632
-4.7523437500000005,-6.7759989,-5.868187600000001       5.039632
-4.7523437500000005,-1.6940000000000002,8.802281400000002       -5.030367
-4.7523437500000005,1.6940000000000002,-8.802281400000002       5.039632
-4.7523437500000005,-6.7759989,5.868187600000001        5.039632
-4.7523437500000005,-1.6940000000000002,-8.802281400000002      5.039632
-4.7523437500000005,6.7759989,-5.868187600000001        -5.030367
-4.7523437500000005,1.6940000000000002,8.802281400000002        -5.030367
-4.7523437500000005,8.4699989,-2.9340938000000003       -5.030367
-4.7523437500000005,8.4699989,2.9340938000000003        -5.030367
-4.7523437500000005,6.7759989,5.868187600000001 -5.030367
-4.7523437500000005,-1.6940000000000002,8.802281400000002       5.039632
-4.7523437500000005,6.7759989,-5.868187600000001        5.039632
-4.7523437500000005,8.4699989,-2.9340938000000003       5.039632
-4.7523437500000005,1.6940000000000002,8.802281400000002        5.039632
-4.7523437500000005,8.4699989,2.9340938000000003        5.039632
-4.7523437500000005,6.7759989,5.868187600000001 5.039632
-0.7562500000000001,-8.4699989,-0.9780309       -5.660931
-0.7562500000000001,-5.082000000000001,-6.846218500000001       -5.660931
-0.7562500000000001,-3.3880000000000003,7.824250500000001       -5.660931
-0.7562500000000001,5.082000000000001,-6.846218500000001        -5.660931
-0.7562500000000001,3.3880000000000003,7.824250500000001        -5.660931
-0.7562500000000001,8.4699989,-0.9780309        -5.660931
127.60000000000001,-1.6940000000000002,0.9780309        9.444068
127.60000000000001,0.0,-1.9560629       9.444068
127.60000000000001,1.6940000000000002,0.9780309 9.444068
56.44375,-10.1639989,1.9560629  2.515516
56.44375,-3.3880000000000003,-9.7803123 2.515516
56.44375,3.3880000000000003,-9.7803123  2.515516
56.44375,-6.7759989,7.824250500000001   2.515516
56.44375,10.1639989,1.9560629   2.515516
56.44375,6.7759989,7.824250500000001    2.515516
172.5625,-10.1639989,-1.9560629 -2.519484
172.5625,-3.3880000000000003,9.7803123  -2.519484
172.5625,-6.7759989,-7.824250500000001  -2.519484
172.5625,6.7759989,-7.824250500000001   -2.519484
172.5625,10.1639989,-1.9560629  -2.519484
172.5625,3.3880000000000003,9.7803123   -2.519484
241.5875,-10.1639989,-0.0       -3.142907
241.5875,-5.082000000000001,-8.802281400000002  -3.142907
241.5875,-5.082000000000001,8.802281400000002   -3.142907
241.5875,5.082000000000001,-8.802281400000002   -3.142907
241.5875,10.1639989,-0.0        -3.142907
241.5875,5.082000000000001,8.802281400000002    -3.142907
9.510058591,-5.082000000000001,-2.9340938000000003      -8.177907
9.510058591,-5.082000000000001,2.9340938000000003       -8.177907
9.510058591,5.082000000000001,2.9340938000000003        -8.177907
9.510058591,5.082000000000001,-2.9340938000000003       -8.177907
9.510058591,-0.0,-5.868187600000001     -8.177907
9.510058591,0.0,5.868187600000001       -8.177907
277.0625,-5.082000000000001,-4.8901567  7.550516
277.0625,-6.7759989,-1.9560629  7.550516
277.0625,-1.6940000000000002,6.846218500000001  7.550516
277.0625,5.082000000000001,-4.8901567   7.550516
277.0625,1.6940000000000002,6.846218500000001   7.550516
277.0625,6.7759989,-1.9560629   7.550516
-382.8,-5.082000000000001,4.8901567     -7.554483
-382.8,-6.7759989,1.9560629     -7.554483
-382.8,-1.6940000000000002,-6.846218500000001   -7.554483
-382.8,1.6940000000000002,-6.846218500000001    -7.554483
-382.8,6.7759989,1.9560629      -7.554483
-382.8,5.082000000000001,4.8901567      -7.554483
78.3921875,-8.4699989,6.846218500000001 -0.625931
78.3921875,-10.1639989,3.9121247000000006       -0.625931
78.3921875,-1.6940000000000002,-10.758344300000001      -0.625931
78.3921875,1.6940000000000002,-10.758344300000001       -0.625931
78.3921875,10.1639989,3.9121247000000006        -0.625931
78.3921875,8.4699989,6.846218500000001  -0.625931
-532.125,-0.0,-9.7803123        4.409069
-532.125,-8.4699989,4.8901567   4.409069
-532.125,8.4699989,4.8901567    4.409069

End of input

&SCF
Occupied
9
Iterations
   50  100
End of Input

&RASSCF
LumOrb
Symmetry
1
Spin
2
Nactel
1 0 0
CIRoot
9 9 1
inactive
9
ras2
9
End of Input

>>> COPY tungsten_so_cf.JobIph $SLURM_SUBMIT_DIR/tungsten_so_cf.doublet.JobIph

>>> COPY $SLURM_SUBMIT_DIR/tungsten_so_cf.doublet.JobIph ./JOB002

&RASSI
NROFJobIph
1 All
SpinOrbit
End of Input

EOF

-- ----------------------------------

--- Start Module: seward at Wed Mar 26 12:29:12 2025 ---

()()()()()()()()()()()()()()()()()()()()()()()()()()()()()()()()()()()()()()()()()()()()()()()()()()

                                              &SEWARD

                                   only a single process is used
                       available to each process: 4.1 GB of memory, 1 thread?
                                            pid: 3933368
()()()()()()()()()()()()()()()()()()()()()()()()()()()()()()()()()()()()()()()()()()()()()()()()()()

 The speed of LIGHT in this CALCULATION =   137.03599917700001     
               SEWARD will generate:
                  Multipole Moment integrals up to order  2
                  Kinetic Energy integrals
                  Nuclear Attraction integrals (point charge)
                  One-Electron Hamiltonian integrals
                  Velocity integrals
                  Relativistic Douglas-Kroll-Hess integrals:
                    - Parametrization         : EXP
                    - DKH order of Hamiltonian: 2
                    - DKH order of Properties : 0
                         - multipole moment operators
                         - electric potential operators
                         - contact operators
                  External field from   414 point(s) added to the one-electron Hamiltonian
                  Orbital angular momentum around (-0.0000 -0.0000  0.0088 )
                  Velocity quadrupole around (-0.0000 -0.0000  0.0088 )
                  Atomic mean-field integrals
                  Two-Electron Repulsion integrals

                   Integrals are discarded if absolute value <: 0.10E-13
                   Integral cutoff threshold is set to       <: 0.10E-15

++    Symmetry information:
      ---------------------

                    Character Table for C1 

                             E  
                    a        1  x, y, xy, Rz, z, xz, Ry, yz, Rx, I
--


++    Basis set information:
      ----------------------


      Basis set label: W.ANO-RCC.ROOS.24S21P15D11F4G2H.11S10P9D8F4G2H......

      Electronic valence basis set:
      ------------------
      Associated Effective Charge  74.000000 au
      Associated Actual Charge     74.000000 au
      Nuclear Model: Point charge

      Shell  nPrim  nBasis  Cartesian Spherical Contaminant
         s      24      11        X                  
         p      21      10        X                  
         d      15       9                 X         
         f      11       8                 X         
         g       4       4                 X         
         h       2       2                 X         
--


++    Molecular structure info:
      -------------------------

                    ************************************************ 
                    **** Cartesian Coordinates / Bohr, Angstrom **** 
                    ************************************************ 

     Center  Label                x              y              z                     x              y              z
        1      W               -0.000000      -0.000000       0.008754             -0.000000      -0.000000       0.004632
--


++    Operator info:
      --------------


  Net charge from external field:   -39.268449999999902     
--


            Nuclear Potential Energy              0.00000000 au

                    Nuclear-External Field Potential Energy    -615.47600626 au
                    External Field Potential Energy            1459.66991035 au 


            Total Nuclear Potential Energy           -615.47600626 au


      Basis set specifications :
      Symmetry species         a  
      Basis functions          200

 Sorry, Molden does not know how to handle
 functions with angular momentum larger than g
Note: The following floating-point exceptions are signalling: IEEE_UNDERFLOW_FLAG IEEE_DENORMAL
--- Stop Module: seward at Wed Mar 26 12:29:30 2025 /rc=_RC_ALL_IS_WELL_ ---
*** files: tungsten_so_cf.GssOrb xmldump
    saved to directory /home4/s4752295/Internship/Initial_simulations/Point_charge_model/1_electron/Madelung_charges_9_active_space/W
--- Module seward spent 17 seconds ---

*** symbolic link created: INPORB -> tungsten_so_cf.GssOrb
--- Start Module: scf at Wed Mar 26 12:29:30 2025 ---

()()()()()()()()()()()()()()()()()()()()()()()()()()()()()()()()()()()()()()()()()()()()()()()()()()

                                                &SCF

                                   only a single process is used
                       available to each process: 4.1 GB of memory, 1 thread?
                                            pid: 3933455
()()()()()()()()()()()()()()()()()()()()()()()()()()()()()()()()()()()()()()()()()()()()()()()()()()

++    Input section:
      --------------

      Header of the integral files:
      
       Integrals generated by seward 4.2.0  , Wed Mar 26 12:29:12 2025


      Cartesian coordinates in Angstrom:
      -----------------------------------------------------
      No.  Label        X            Y            Z        
      -----------------------------------------------------
       1   W         -0.00000000  -0.00000000   0.00463220
      -----------------------------------------------------
      Nuclear repulsion energy = -615.47600626
--

++    Orbital specifications:
      -----------------------

      Symmetry species               1
                                     a
      Frozen orbitals                0
      Occupied orbitals              9
      Secondary orbitals           191
      Deleted orbitals               0
      Total number of orbitals     200
      Number of basis functions    200
--

      Molecular charge                          56.000

++    Optimization specifications:
      ----------------------------

      SCF Algorithm: Conventional
      Minimized density differences are used
      Number of density matrices in core                5
      Maximum number of NDDO SCF iterations            50
      Maximum number of HF SCF iterations             100
      Threshold for SCF energy change            0.10E-08
      Threshold for density matrix               0.10E-03
      Threshold for Fock matrix                  0.15E-03
      Threshold for linear dependence            0.10E-08
      Threshold at which DIIS is turned on       0.15E+00
      Threshold at which QNR/C2DIIS is turned on 0.75E-01
      Threshold for Norm(delta) (QNR/C2DIIS)     0.20E-04
      DIIS extrapolation of the SCF procedure
      All orbitals punched on: SCFORB
--

      Detected guessorb starting orbitals                                             


++ Convergence information
                                   SCF        iterations: Energy and convergence statistics

Iter     Tot. SCF        One-elec.       Two-elec.     Energy      Max Dij or  Max Fij      DNorm      TNorm      AccCon     Time
         Energy          Energy          Energy        Change      Delta Norm                                                in Sec.

 The total and one-electron energies are shifted by a value of     13000. a.u.

   1  -379.767977533 -1033.138937874  1268.846966605   0.00E+00    0.22E+00*   0.90E+01*    0.60E+01   0.65E+03   None         1.
   2  -390.836976847 -1089.238124106  1313.877153524  -0.11E+02*   0.16E-02*   0.20E+00*    0.90E+00   0.66E+03   EDIIS        1.
   3  -390.840069065 -1088.695870210  1313.331807409  -0.31E-02*   0.66E-04    0.38E-02*    0.96E-02   0.66E+03   EDIIS        1.
   4  -390.840069925 -1088.706577298  1313.342513637  -0.86E-06*   0.29E-05    0.86E-04     0.16E-03   0.66E+03   c2DIIS       1.
   5  -390.840069926 -1088.706463460  1313.342399798  -0.77E-09    0.22E-06    0.55E-05     0.52E-05   0.66E+03   QNRc2DIIS    1.

       Convergence after  5 Macro Iterations
--

 *****************************************************************************************************************************
 *                                                                                                                           *
 *                                             SCF/KS-DFT Program, Final results                                             *
 *                                                                                                                           *
 *                                                                                                                           *
 *                                                                                                                           *
 *                                                       Final Results                                                       *
 *                                                                                                                           *
 *****************************************************************************************************************************

::    Total SCF energy                             -13390.8400699258
      One-electron energy                          -14088.7064634598
      Two-electron energy                            1313.3423997983
      Nuclear repulsion energy                       -615.4760062643
      Kinetic energy (interpolated)                 19280.3758540852
      Virial theorem                                    0.6945321072
      Total spin, S(S+1)                                0.0000000000
      Total spin, S                                     0.0000000000
      Max non-diagonal density matrix element           0.0000002962
      Max non-diagonal Fock matrix element              0.0000000000


      All orbitals with orbital energies smaller than  E(LUMO)+0.5 are printed

++    Molecular orbitals:
      -------------------

      Title: SCF orbitals

      Molecular orbitals for symmetry species 1: a  

          Some orbital energies have been scaled by powers of 10, the power is written right after the orbital index


          Orbital            1 (1)     2         3         4         5         6         7         8         9        10    
          Energy         -270.6717 -585.9860 -532.0367 -532.0367 -532.0364 -223.0579 -206.3807 -206.3807 -206.3785 -186.4063
          Occ. No.          2.0000    2.0000    2.0000    2.0000    2.0000    2.0000    2.0000    2.0000    2.0000    0.0000

        1 W      1s         1.0000    0.0001    0.0000    0.0000   -0.0000   -0.0000   -0.0000    0.0000    0.0000   -0.0000
        2 W      2s        -0.0001    0.9999    0.0000    0.0000   -0.0003    0.0122    0.0000   -0.0000   -0.0001    0.0000
        3 W      3s         0.0000   -0.0118   -0.0000   -0.0000    0.0000    0.9952    0.0000   -0.0000   -0.0044    0.0000
        4 W      4s        -0.0000    0.0034    0.0000    0.0000   -0.0000   -0.0799   -0.0000    0.0000    0.0006   -0.0000
        5 W      5s         0.0000   -0.0012   -0.0000   -0.0000    0.0000    0.0234    0.0000   -0.0000   -0.0002    0.0000
        6 W      6s        -0.0000    0.0003    0.0000    0.0000   -0.0000   -0.0062   -0.0000    0.0000    0.0000   -0.0000
        7 W      7s         0.0000   -0.0004   -0.0000   -0.0000    0.0000    0.0069    0.0000   -0.0000   -0.0001    0.0000
        8 W      8s        -0.0000    0.0010    0.0000    0.0000   -0.0000   -0.0175   -0.0000    0.0000    0.0001    0.0000
        9 W      9s         0.0000   -0.0013   -0.0000   -0.0000    0.0000    0.0223    0.0000   -0.0000   -0.0002    0.0000
       10 W     10s        -0.0000    0.0016    0.0000    0.0000   -0.0000   -0.0252   -0.0000    0.0000    0.0002   -0.0000
       11 W     11s         0.0000   -0.0024   -0.0000   -0.0000    0.0000    0.0312    0.0000   -0.0000   -0.0002    0.0000
       12 W      2px        0.0000    0.0003   -0.0026   -0.0000    0.9999    0.0000   -0.0000    0.0000    0.0143   -0.0000
       13 W      3px       -0.0000    0.0000    0.0000    0.0000   -0.0137    0.0045   -0.0024    0.0000    0.9931   -0.0000
       14 W      4px        0.0000   -0.0000   -0.0000   -0.0000    0.0038   -0.0002    0.0002   -0.0000   -0.0913    0.0000
       15 W      5px       -0.0000    0.0000    0.0000    0.0000   -0.0012    0.0001   -0.0001    0.0000    0.0253   -0.0000
       16 W      6px        0.0000   -0.0000   -0.0000   -0.0000    0.0005   -0.0000    0.0000   -0.0000   -0.0102    0.0000
       17 W      7px       -0.0000    0.0000    0.0000    0.0000   -0.0016    0.0001   -0.0001    0.0000    0.0303   -0.0000
       18 W      8px        0.0000   -0.0000   -0.0000   -0.0000    0.0017   -0.0001    0.0001   -0.0000   -0.0301    0.0000
       19 W      9px       -0.0000    0.0000    0.0000    0.0000   -0.0019    0.0001   -0.0001    0.0000    0.0310   -0.0000
       20 W     10px        0.0000   -0.0000   -0.0000   -0.0000    0.0020   -0.0001    0.0001   -0.0000   -0.0284    0.0000
       21 W     11px       -0.0000    0.0000    0.0000    0.0000   -0.0027    0.0000   -0.0001    0.0000    0.0287   -0.0000
       22 W      2py        0.0000    0.0000   -0.0005    0.9999   -0.0000   -0.0000    0.0000    0.0143    0.0000    0.0000
       23 W      3py       -0.0000   -0.0000    0.0000   -0.0137    0.0000   -0.0000    0.0000    0.9931    0.0000    0.0000
       24 W      4py        0.0000    0.0000   -0.0000    0.0038   -0.0000    0.0000   -0.0000   -0.0913   -0.0000   -0.0000
       25 W      5py       -0.0000   -0.0000    0.0000   -0.0012    0.0000   -0.0000    0.0000    0.0253    0.0000    0.0000
       26 W      6py        0.0000    0.0000   -0.0000    0.0005   -0.0000    0.0000   -0.0000   -0.0102   -0.0000   -0.0000
       27 W      7py       -0.0000   -0.0000    0.0000   -0.0016    0.0000   -0.0000    0.0000    0.0303    0.0000    0.0000
       28 W      8py        0.0000    0.0000   -0.0000    0.0017   -0.0000    0.0000   -0.0000   -0.0301   -0.0000   -0.0000
       29 W      9py       -0.0000   -0.0000    0.0000   -0.0019    0.0000   -0.0000    0.0000    0.0310    0.0000    0.0000
       30 W     10py        0.0000    0.0000   -0.0000    0.0020   -0.0000    0.0000   -0.0000   -0.0284   -0.0000   -0.0000
       31 W     11py       -0.0000   -0.0000    0.0000   -0.0027    0.0000   -0.0000    0.0000    0.0287    0.0000    0.0000
       32 W      2pz        0.0000    0.0000    0.9999    0.0005    0.0026    0.0000    0.0143   -0.0000    0.0000   -0.0000
       33 W      3pz       -0.0000    0.0000   -0.0137   -0.0000   -0.0000    0.0000    0.9931   -0.0000    0.0024   -0.0000
       34 W      4pz        0.0000   -0.0000    0.0038    0.0000    0.0000   -0.0000   -0.0913    0.0000   -0.0002    0.0000
       35 W      5pz       -0.0000    0.0000   -0.0012   -0.0000   -0.0000    0.0000    0.0253   -0.0000    0.0001   -0.0000
       36 W      6pz        0.0000   -0.0000    0.0005    0.0000    0.0000   -0.0000   -0.0102    0.0000   -0.0000    0.0000
       37 W      7pz       -0.0000    0.0000   -0.0016   -0.0000   -0.0000    0.0000    0.0303   -0.0000    0.0001   -0.0000
       38 W      8pz        0.0000   -0.0000    0.0017    0.0000    0.0000   -0.0000   -0.0301    0.0000   -0.0001    0.0000
       39 W      9pz       -0.0000    0.0000   -0.0019   -0.0000   -0.0000    0.0000    0.0310   -0.0000    0.0001    0.0000
       40 W     10pz        0.0000   -0.0000    0.0020    0.0000    0.0000   -0.0000   -0.0284    0.0000   -0.0001    0.0000
       41 W     11pz       -0.0000    0.0000   -0.0027   -0.0000   -0.0000    0.0000    0.0287   -0.0000    0.0001   -0.0000
       42 W      3d2-      -0.0000   -0.0000   -0.0000    0.0000   -0.0000   -0.0000    0.0000    0.0030    0.0000   -0.0034
       43 W      4d2-       0.0000    0.0000    0.0000   -0.0000    0.0000    0.0000   -0.0000   -0.0001   -0.0000    0.0003
       44 W      5d2-      -0.0000   -0.0000   -0.0000    0.0000   -0.0000   -0.0000    0.0000    0.0000    0.0000   -0.0001
       45 W      6d2-       0.0000    0.0000    0.0000   -0.0000    0.0000    0.0000   -0.0000   -0.0000   -0.0000    0.0001
       46 W      7d2-      -0.0000   -0.0000   -0.0000    0.0000   -0.0000   -0.0000    0.0000    0.0000    0.0000   -0.0001
       47 W      8d2-       0.0000    0.0000    0.0000   -0.0000    0.0000    0.0000   -0.0000   -0.0000   -0.0000    0.0001
       48 W      9d2-      -0.0000   -0.0000   -0.0000    0.0000   -0.0000   -0.0000    0.0000    0.0000    0.0000   -0.0001
       49 W     10d2-       0.0000    0.0000    0.0000   -0.0000    0.0000    0.0000    0.0000    0.0000    0.0000    0.0001
       50 W     11d2-      -0.0000   -0.0000   -0.0000    0.0000   -0.0000   -0.0000   -0.0000   -0.0000   -0.0000   -0.0001
       51 W      3d1-       0.0000   -0.0000   -0.0000    0.0000   -0.0000   -0.0000    0.0000    0.0000    0.0000    0.9917
       52 W      4d1-      -0.0000    0.0000    0.0000   -0.0000    0.0000    0.0000   -0.0000   -0.0000   -0.0000   -0.0959
       53 W      5d1-       0.0000   -0.0000   -0.0000    0.0000   -0.0000   -0.0000   -0.0000   -0.0000   -0.0000    0.0186
       54 W      6d1-      -0.0000    0.0000    0.0000   -0.0000    0.0000    0.0000   -0.0000   -0.0000   -0.0000   -0.0254
       55 W      7d1-       0.0000   -0.0000    0.0000   -0.0000   -0.0000   -0.0000    0.0000    0.0000    0.0000    0.0328
       56 W      8d1-      -0.0000    0.0000    0.0000   -0.0000    0.0000    0.0000    0.0000    0.0000    0.0000   -0.0372
       57 W      9d1-       0.0000    0.0000    0.0000   -0.0000   -0.0000    0.0000    0.0000    0.0000    0.0000    0.0370
       58 W     10d1-      -0.0000   -0.0000    0.0000   -0.0000    0.0000   -0.0000    0.0000    0.0000   -0.0000   -0.0397
       59 W     11d1-       0.0000    0.0000   -0.0000    0.0000   -0.0000    0.0000    0.0000    0.0000    0.0000    0.0299
       60 W      3d0        0.0000    0.0000    0.0000    0.0000   -0.0000    0.0000    0.0000   -0.0000   -0.0018   -0.0000
       61 W      4d0       -0.0000   -0.0000   -0.0000   -0.0000    0.0000    0.0000   -0.0000    0.0000    0.0001    0.0000
       62 W      5d0        0.0000    0.0000    0.0000    0.0000   -0.0000   -0.0000    0.0000   -0.0000   -0.0000   -0.0000
       63 W      6d0       -0.0000   -0.0000   -0.0000   -0.0000    0.0000    0.0000   -0.0000    0.0000    0.0000    0.0000
       64 W      7d0        0.0000    0.0000    0.0000    0.0000   -0.0000   -0.0000   -0.0000    0.0000   -0.0000   -0.0000
       65 W      8d0       -0.0000   -0.0000    0.0000    0.0000    0.0000    0.0000   -0.0000    0.0000    0.0000    0.0000
       66 W      9d0        0.0000    0.0000    0.0000    0.0000   -0.0000   -0.0000   -0.0000    0.0000   -0.0000   -0.0000
       67 W     10d0       -0.0000   -0.0000   -0.0000   -0.0000    0.0000    0.0000   -0.0000    0.0000   -0.0000    0.0000
       68 W     11d0        0.0000    0.0000    0.0000    0.0000   -0.0000   -0.0000   -0.0000    0.0000    0.0000   -0.0000
       69 W      3d1+      -0.0000   -0.0000    0.0000    0.0000    0.0000   -0.0000    0.0030   -0.0000    0.0000    0.0000
       70 W      4d1+       0.0000    0.0000   -0.0000   -0.0000   -0.0000   -0.0000   -0.0001    0.0000   -0.0000   -0.0000
       71 W      5d1+      -0.0000   -0.0000    0.0000    0.0000    0.0000    0.0000    0.0000   -0.0000    0.0000    0.0000
       72 W      6d1+       0.0000    0.0000   -0.0000   -0.0000   -0.0000   -0.0000   -0.0000    0.0000   -0.0000   -0.0000
       73 W      7d1+      -0.0000   -0.0000    0.0000    0.0000    0.0000    0.0000    0.0000   -0.0000    0.0000    0.0000
       74 W      8d1+       0.0000    0.0000   -0.0000   -0.0000   -0.0000   -0.0000   -0.0000    0.0000   -0.0000   -0.0000
       75 W      9d1+      -0.0000   -0.0000    0.0000    0.0000    0.0000    0.0000    0.0000   -0.0000    0.0000    0.0000
       76 W     10d1+       0.0000    0.0000   -0.0000   -0.0000   -0.0000   -0.0000    0.0000   -0.0000    0.0000   -0.0000
       77 W     11d1+      -0.0000   -0.0000    0.0000    0.0000    0.0000    0.0000   -0.0000    0.0000   -0.0000    0.0000
       78 W      3d2+      -0.0000   -0.0000   -0.0000   -0.0000    0.0000   -0.0000   -0.0000    0.0000    0.0030   -0.0000
       79 W      4d2+       0.0000    0.0000    0.0000    0.0000   -0.0000   -0.0000    0.0000   -0.0000   -0.0001    0.0000
       80 W      5d2+      -0.0000   -0.0000   -0.0000   -0.0000    0.0000    0.0000   -0.0000    0.0000    0.0000   -0.0000
       81 W      6d2+       0.0000    0.0000    0.0000    0.0000   -0.0000   -0.0000    0.0000   -0.0000   -0.0000    0.0000
       82 W      7d2+      -0.0000   -0.0000   -0.0000   -0.0000    0.0000    0.0000   -0.0000    0.0000    0.0000   -0.0000
       83 W      8d2+       0.0000    0.0000    0.0000    0.0000   -0.0000   -0.0000   -0.0000    0.0000   -0.0000    0.0000
       84 W      9d2+      -0.0000   -0.0000   -0.0000   -0.0000    0.0000    0.0000   -0.0000    0.0000    0.0000   -0.0000
       85 W     10d2+       0.0000    0.0000    0.0000    0.0000   -0.0000   -0.0000   -0.0000    0.0000    0.0000    0.0000
       86 W     11d2+      -0.0000   -0.0000   -0.0000   -0.0000    0.0000    0.0000    0.0000   -0.0000   -0.0000   -0.0000
       87 W      4f3-       0.0000   -0.0000    0.0000   -0.0000    0.0000   -0.0000   -0.0000   -0.0000   -0.0000   -0.0000
       88 W      5f3-      -0.0000    0.0000   -0.0000    0.0000   -0.0000   -0.0000    0.0000    0.0000    0.0000    0.0000
       89 W      6f3-       0.0000   -0.0000    0.0000   -0.0000    0.0000    0.0000   -0.0000   -0.0000   -0.0000   -0.0000
       90 W      7f3-      -0.0000   -0.0000   -0.0000    0.0000   -0.0000   -0.0000    0.0000    0.0000    0.0000    0.0000
       91 W      8f3-       0.0000    0.0000    0.0000   -0.0000    0.0000    0.0000   -0.0000   -0.0000   -0.0000   -0.0000
       92 W      9f3-      -0.0000   -0.0000   -0.0000    0.0000   -0.0000   -0.0000    0.0000    0.0000    0.0000    0.0000
       93 W     10f3-       0.0000    0.0000    0.0000   -0.0000    0.0000    0.0000   -0.0000   -0.0000   -0.0000   -0.0000
       94 W     11f3-      -0.0000   -0.0000   -0.0000    0.0000   -0.0000   -0.0000    0.0000    0.0000    0.0000    0.0000
       95 W      4f2-       0.0000    0.0000    0.0000   -0.0000    0.0000    0.0000   -0.0000   -0.0000   -0.0000    0.0003
       96 W      5f2-      -0.0000   -0.0000   -0.0000    0.0000   -0.0000   -0.0000    0.0000    0.0000    0.0000   -0.0002
       97 W      6f2-       0.0000    0.0000   -0.0000    0.0000    0.0000    0.0000   -0.0000   -0.0000   -0.0000    0.0002
       98 W      7f2-      -0.0000   -0.0000   -0.0000    0.0000   -0.0000   -0.0000   -0.0000   -0.0000    0.0000   -0.0002
       99 W      8f2-       0.0000    0.0000    0.0000   -0.0000    0.0000    0.0000   -0.0000   -0.0000    0.0000    0.0001
      100 W      9f2-      -0.0000   -0.0000    0.0000   -0.0000    0.0000   -0.0000    0.0000    0.0000   -0.0000   -0.0001
      101 W     10f2-       0.0000    0.0000    0.0000   -0.0000    0.0000   -0.0000    0.0000    0.0000    0.0000    0.0001
      102 W     11f2-      -0.0000   -0.0000    0.0000   -0.0000    0.0000    0.0000    0.0000    0.0000   -0.0000   -0.0001
      103 W      4f1-       0.0000    0.0000   -0.0000    0.0000   -0.0000    0.0000    0.0000    0.0000    0.0000    0.0000
      104 W      5f1-      -0.0000   -0.0000    0.0000   -0.0000    0.0000   -0.0000   -0.0000   -0.0000   -0.0000   -0.0000
      105 W      6f1-       0.0000    0.0000   -0.0000    0.0000   -0.0000    0.0000    0.0000    0.0000    0.0000    0.0000
      106 W      7f1-      -0.0000   -0.0000    0.0000   -0.0000    0.0000   -0.0000   -0.0000   -0.0000   -0.0000   -0.0000
      107 W      8f1-       0.0000    0.0000   -0.0000    0.0000   -0.0000    0.0000    0.0000    0.0000    0.0000    0.0000
      108 W      9f1-      -0.0000    0.0000    0.0000   -0.0000    0.0000   -0.0000   -0.0000   -0.0000   -0.0000   -0.0000
      109 W     10f1-      -0.0000   -0.0000   -0.0000    0.0000   -0.0000   -0.0000    0.0000    0.0000    0.0000    0.0000
      110 W     11f1-       0.0000    0.0000    0.0000   -0.0000    0.0000    0.0000   -0.0000   -0.0000    0.0000   -0.0000
      111 W      4f0        0.0000   -0.0000    0.0000    0.0000    0.0000    0.0000    0.0000   -0.0000    0.0000   -0.0000
      112 W      5f0        0.0000   -0.0000   -0.0000   -0.0000   -0.0000    0.0000   -0.0000    0.0000   -0.0000    0.0000
      113 W      6f0        0.0000   -0.0000    0.0000    0.0000   -0.0000    0.0000    0.0000   -0.0000    0.0000   -0.0000
      114 W      7f0        0.0000   -0.0000   -0.0000   -0.0000   -0.0000    0.0000   -0.0000    0.0000    0.0000    0.0000
      115 W      8f0        0.0000   -0.0000    0.0000    0.0000    0.0000    0.0000    0.0000   -0.0000    0.0000   -0.0000
      116 W      9f0        0.0000   -0.0000   -0.0000   -0.0000    0.0000    0.0000   -0.0000    0.0000   -0.0000    0.0000
      117 W     10f0        0.0000   -0.0000    0.0000    0.0000    0.0000    0.0000    0.0000   -0.0000   -0.0000   -0.0000
      118 W     11f0        0.0000   -0.0000   -0.0000   -0.0000    0.0000    0.0000   -0.0000    0.0000   -0.0000    0.0000
      119 W      4f1+       0.0000   -0.0000   -0.0000   -0.0000    0.0000   -0.0000   -0.0000    0.0000    0.0000   -0.0000
      120 W      5f1+      -0.0000    0.0000   -0.0000   -0.0000   -0.0000    0.0000    0.0000   -0.0000   -0.0000    0.0000
      121 W      6f1+       0.0000   -0.0000   -0.0000   -0.0000    0.0000   -0.0000    0.0000   -0.0000    0.0000   -0.0000
      122 W      7f1+      -0.0000    0.0000   -0.0000   -0.0000   -0.0000   -0.0000    0.0000   -0.0000   -0.0000    0.0000
      123 W      8f1+      -0.0000    0.0000   -0.0000   -0.0000    0.0000   -0.0000   -0.0000    0.0000    0.0000   -0.0000
      124 W      9f1+      -0.0000    0.0000    0.0000    0.0000   -0.0000   -0.0000   -0.0000    0.0000   -0.0000    0.0000
      125 W     10f1+       0.0000   -0.0000    0.0000    0.0000    0.0000    0.0000   -0.0000    0.0000    0.0000   -0.0000
      126 W     11f1+      -0.0000   -0.0000    0.0000    0.0000   -0.0000    0.0000   -0.0000    0.0000   -0.0000    0.0000
      127 W      4f2+      -0.0000    0.0000   -0.0000   -0.0000   -0.0000    0.0000   -0.0000    0.0000   -0.0000    0.0000
      128 W      5f2+       0.0000   -0.0000    0.0000    0.0000   -0.0000    0.0000    0.0000   -0.0000    0.0000   -0.0000
      129 W      6f2+       0.0000   -0.0000   -0.0000   -0.0000   -0.0000    0.0000   -0.0000    0.0000    0.0000    0.0000
      130 W      7f2+       0.0000   -0.0000    0.0000    0.0000   -0.0000    0.0000    0.0000   -0.0000    0.0000   -0.0000
      131 W      8f2+       0.0000   -0.0000   -0.0000   -0.0000   -0.0000    0.0000   -0.0000    0.0000   -0.0000    0.0000
      132 W      9f2+       0.0000   -0.0000    0.0000    0.0000    0.0000    0.0000    0.0000   -0.0000   -0.0000   -0.0000
      133 W     10f2+       0.0000   -0.0000   -0.0000   -0.0000    0.0000    0.0000   -0.0000    0.0000   -0.0000    0.0000
      134 W     11f2+       0.0000   -0.0000    0.0000    0.0000    0.0000    0.0000    0.0000   -0.0000   -0.0000   -0.0000
      135 W      4f3+      -0.0000    0.0000    0.0000    0.0000   -0.0000    0.0000    0.0000   -0.0000   -0.0000   -0.0000
      136 W      5f3+       0.0000   -0.0000   -0.0000   -0.0000    0.0000   -0.0000   -0.0000    0.0000    0.0000    0.0000
      137 W      6f3+      -0.0000    0.0000   -0.0000   -0.0000   -0.0000    0.0000    0.0000   -0.0000   -0.0000   -0.0000
      138 W      7f3+       0.0000   -0.0000   -0.0000   -0.0000    0.0000    0.0000    0.0000   -0.0000    0.0000    0.0000
      139 W      8f3+       0.0000   -0.0000    0.0000    0.0000   -0.0000    0.0000    0.0000   -0.0000   -0.0000   -0.0000
      140 W      9f3+       0.0000   -0.0000    0.0000    0.0000    0.0000    0.0000   -0.0000    0.0000    0.0000    0.0000
      141 W     10f3+      -0.0000    0.0000    0.0000    0.0000   -0.0000   -0.0000   -0.0000    0.0000   -0.0000   -0.0000
      142 W     11f3+       0.0000    0.0000    0.0000    0.0000    0.0000   -0.0000   -0.0000    0.0000    0.0000    0.0000
      143 W      5g4-      -0.0000    0.0000   -0.0000    0.0000    0.0000   -0.0000    0.0000    0.0000    0.0000    0.0000
      144 W      6g4-       0.0000   -0.0000    0.0000   -0.0000    0.0000    0.0000   -0.0000   -0.0000   -0.0000   -0.0000
      145 W      7g4-      -0.0000    0.0000    0.0000   -0.0000    0.0000   -0.0000    0.0000    0.0000    0.0000    0.0000
      146 W      8g4-       0.0000   -0.0000    0.0000   -0.0000    0.0000    0.0000    0.0000    0.0000    0.0000    0.0000
      147 W      5g3-       0.0000    0.0000   -0.0000    0.0000    0.0000    0.0000   -0.0000   -0.0000    0.0000   -0.0000
      148 W      6g3-      -0.0000   -0.0000   -0.0000    0.0000   -0.0000   -0.0000   -0.0000   -0.0000   -0.0000    0.0000
      149 W      7g3-       0.0000    0.0000   -0.0000    0.0000   -0.0000    0.0000   -0.0000   -0.0000   -0.0000   -0.0000
      150 W      8g3-      -0.0000   -0.0000   -0.0000    0.0000   -0.0000   -0.0000   -0.0000   -0.0000   -0.0000    0.0000
      151 W      5g2-       0.0000   -0.0000    0.0000   -0.0000    0.0000   -0.0000   -0.0000   -0.0000   -0.0000   -0.0000
      152 W      6g2-      -0.0000    0.0000   -0.0000    0.0000   -0.0000    0.0000    0.0000    0.0000    0.0000    0.0000
      153 W      7g2-       0.0000   -0.0000   -0.0000    0.0000   -0.0000   -0.0000   -0.0000   -0.0000   -0.0000   -0.0000
      154 W      8g2-      -0.0000    0.0000   -0.0000    0.0000   -0.0000    0.0000   -0.0000   -0.0000   -0.0000   -0.0000
      155 W      5g1-       0.0000   -0.0000    0.0000   -0.0000    0.0000    0.0000    0.0000    0.0000   -0.0000    0.0000
      156 W      6g1-      -0.0000    0.0000    0.0000   -0.0000   -0.0000   -0.0000    0.0000    0.0000    0.0000   -0.0000
      157 W      7g1-       0.0000   -0.0000    0.0000   -0.0000    0.0000    0.0000    0.0000    0.0000   -0.0000    0.0000
      158 W      8g1-      -0.0000    0.0000    0.0000   -0.0000   -0.0000    0.0000    0.0000    0.0000    0.0000   -0.0000
      159 W      5g0        0.0000   -0.0000    0.0000    0.0000    0.0000   -0.0000   -0.0000    0.0000    0.0000   -0.0000
      160 W      6g0        0.0000   -0.0000    0.0000    0.0000   -0.0000    0.0000   -0.0000    0.0000   -0.0000    0.0000
      161 W      7g0        0.0000    0.0000    0.0000    0.0000   -0.0000   -0.0000   -0.0000    0.0000    0.0000   -0.0000
      162 W      8g0       -0.0000    0.0000    0.0000    0.0000   -0.0000   -0.0000   -0.0000    0.0000    0.0000    0.0000
      163 W      5g1+      -0.0000    0.0000   -0.0000   -0.0000   -0.0000    0.0000   -0.0000    0.0000    0.0000    0.0000
      164 W      6g1+       0.0000   -0.0000    0.0000    0.0000   -0.0000    0.0000    0.0000   -0.0000    0.0000   -0.0000
      165 W      7g1+       0.0000   -0.0000    0.0000    0.0000   -0.0000    0.0000   -0.0000    0.0000    0.0000   -0.0000
      166 W      8g1+       0.0000   -0.0000    0.0000    0.0000   -0.0000    0.0000   -0.0000    0.0000    0.0000   -0.0000
      167 W      5g2+      -0.0000    0.0000   -0.0000   -0.0000   -0.0000    0.0000    0.0000   -0.0000   -0.0000    0.0000
      168 W      6g2+      -0.0000    0.0000   -0.0000   -0.0000    0.0000   -0.0000    0.0000   -0.0000    0.0000   -0.0000
      169 W      7g2+      -0.0000   -0.0000   -0.0000   -0.0000    0.0000    0.0000    0.0000   -0.0000   -0.0000    0.0000
      170 W      8g2+       0.0000   -0.0000   -0.0000   -0.0000    0.0000    0.0000    0.0000   -0.0000   -0.0000   -0.0000
      171 W      5g3+      -0.0000    0.0000    0.0000    0.0000   -0.0000    0.0000    0.0000   -0.0000    0.0000    0.0000
      172 W      6g3+       0.0000   -0.0000   -0.0000   -0.0000   -0.0000    0.0000   -0.0000    0.0000    0.0000   -0.0000
      173 W      7g3+       0.0000   -0.0000   -0.0000   -0.0000   -0.0000    0.0000    0.0000   -0.0000    0.0000    0.0000
      174 W      8g3+       0.0000   -0.0000   -0.0000   -0.0000   -0.0000    0.0000    0.0000   -0.0000    0.0000    0.0000
      175 W      5g4+       0.0000   -0.0000   -0.0000   -0.0000    0.0000   -0.0000    0.0000   -0.0000    0.0000    0.0000
      176 W      6g4+       0.0000   -0.0000   -0.0000   -0.0000   -0.0000    0.0000    0.0000   -0.0000   -0.0000   -0.0000
      177 W      7g4+       0.0000    0.0000   -0.0000   -0.0000   -0.0000   -0.0000    0.0000   -0.0000    0.0000    0.0000
      178 W      8g4+      -0.0000    0.0000   -0.0000   -0.0000   -0.0000   -0.0000    0.0000   -0.0000    0.0000   -0.0000
      179 W      6h5-      -0.0000   -0.0000    0.0000   -0.0000   -0.0000   -0.0000    0.0000    0.0000    0.0000   -0.0000
      180 W      7h5-       0.0000    0.0000    0.0000   -0.0000   -0.0000    0.0000    0.0000    0.0000    0.0000   -0.0000
      181 W      6h4-      -0.0000    0.0000   -0.0000    0.0000   -0.0000    0.0000   -0.0000   -0.0000   -0.0000    0.0000
      182 W      7h4-       0.0000    0.0000   -0.0000    0.0000   -0.0000    0.0000   -0.0000   -0.0000   -0.0000   -0.0000
      183 W      6h3-       0.0000    0.0000   -0.0000    0.0000    0.0000    0.0000   -0.0000   -0.0000    0.0000    0.0000
      184 W      7h3-      -0.0000   -0.0000   -0.0000    0.0000   -0.0000   -0.0000   -0.0000   -0.0000    0.0000    0.0000
      185 W      6h2-      -0.0000   -0.0000   -0.0000    0.0000   -0.0000   -0.0000   -0.0000   -0.0000   -0.0000   -0.0000
      186 W      7h2-       0.0000   -0.0000   -0.0000    0.0000   -0.0000    0.0000   -0.0000   -0.0000   -0.0000    0.0000
      187 W      6h1-       0.0000   -0.0000    0.0000   -0.0000   -0.0000    0.0000    0.0000    0.0000    0.0000    0.0000
      188 W      7h1-      -0.0000    0.0000    0.0000   -0.0000   -0.0000   -0.0000    0.0000    0.0000   -0.0000    0.0000
      189 W      6h0        0.0000   -0.0000   -0.0000   -0.0000   -0.0000    0.0000    0.0000   -0.0000    0.0000   -0.0000
      190 W      7h0        0.0000   -0.0000   -0.0000   -0.0000   -0.0000    0.0000    0.0000   -0.0000    0.0000   -0.0000
      191 W      6h1+      -0.0000    0.0000    0.0000    0.0000   -0.0000   -0.0000   -0.0000    0.0000    0.0000    0.0000
      192 W      7h1+      -0.0000    0.0000    0.0000    0.0000   -0.0000   -0.0000   -0.0000    0.0000    0.0000   -0.0000
      193 W      6h2+      -0.0000    0.0000    0.0000    0.0000    0.0000   -0.0000   -0.0000    0.0000   -0.0000    0.0000
      194 W      7h2+      -0.0000    0.0000    0.0000    0.0000    0.0000   -0.0000   -0.0000    0.0000   -0.0000    0.0000
      195 W      6h3+       0.0000   -0.0000    0.0000    0.0000    0.0000    0.0000   -0.0000    0.0000   -0.0000   -0.0000
      196 W      7h3+       0.0000   -0.0000    0.0000    0.0000    0.0000    0.0000   -0.0000    0.0000   -0.0000    0.0000
      197 W      6h4+      -0.0000    0.0000   -0.0000   -0.0000    0.0000   -0.0000    0.0000   -0.0000   -0.0000   -0.0000
      198 W      7h4+      -0.0000    0.0000   -0.0000   -0.0000    0.0000   -0.0000    0.0000   -0.0000   -0.0000   -0.0000
      199 W      6h5+      -0.0000    0.0000    0.0000    0.0000   -0.0000   -0.0000   -0.0000    0.0000    0.0000   -0.0000
      200 W      7h5+      -0.0000    0.0000    0.0000    0.0000   -0.0000   -0.0000   -0.0000    0.0000    0.0000    0.0000

          Orbital           11        12        13        14    
          Energy         -186.4063 -186.4051 -186.4051 -186.4047
          Occ. No.          0.0000    0.0000    0.0000    0.0000

        1 W      1s        -0.0000    0.0000    0.0000   -0.0000
        2 W      2s        -0.0000   -0.0000   -0.0000    0.0000
        3 W      3s        -0.0000   -0.0000   -0.0000    0.0000
        4 W      4s         0.0000   -0.0000    0.0000   -0.0000
        5 W      5s        -0.0000   -0.0000   -0.0000    0.0000
        6 W      6s         0.0000   -0.0000   -0.0000   -0.0000
        7 W      7s        -0.0000   -0.0000   -0.0000    0.0000
        8 W      8s        -0.0000    0.0000    0.0000   -0.0000
        9 W      9s        -0.0000    0.0000   -0.0000    0.0000
       10 W     10s         0.0000    0.0000    0.0000   -0.0000
       11 W     11s         0.0000   -0.0000   -0.0000    0.0000
       12 W      2px        0.0000    0.0000    0.0000   -0.0001
       13 W      3px        0.0000    0.0000    0.0000   -0.0034
       14 W      4px        0.0000   -0.0000   -0.0000    0.0005
       15 W      5px       -0.0000    0.0000    0.0000   -0.0001
       16 W      6px        0.0000   -0.0000   -0.0000    0.0001
       17 W      7px       -0.0000    0.0000    0.0000   -0.0002
       18 W      8px       -0.0000   -0.0000   -0.0000    0.0002
       19 W      9px       -0.0000    0.0000    0.0000   -0.0002
       20 W     10px        0.0000   -0.0000   -0.0000    0.0002
       21 W     11px        0.0000    0.0000    0.0000   -0.0001
       22 W      2py        0.0000    0.0000   -0.0001   -0.0000
       23 W      3py        0.0000    0.0000   -0.0030   -0.0000
       24 W      4py       -0.0000   -0.0000    0.0004    0.0000
       25 W      5py        0.0000    0.0000   -0.0001   -0.0000
       26 W      6py       -0.0000   -0.0000    0.0000    0.0000
       27 W      7py        0.0000    0.0000   -0.0001   -0.0000
       28 W      8py       -0.0000   -0.0000    0.0001    0.0000
       29 W      9py        0.0000    0.0000   -0.0001   -0.0000
       30 W     10py       -0.0000   -0.0000    0.0001    0.0000
       31 W     11py        0.0000    0.0000   -0.0001   -0.0000
       32 W      2pz        0.0000   -0.0001   -0.0000   -0.0000
       33 W      3pz        0.0000   -0.0030   -0.0000   -0.0000
       34 W      4pz       -0.0000    0.0004    0.0000    0.0000
       35 W      5pz        0.0000   -0.0001   -0.0000   -0.0000
       36 W      6pz       -0.0000    0.0000    0.0000    0.0000
       37 W      7pz        0.0000   -0.0001   -0.0000   -0.0000
       38 W      8pz       -0.0000    0.0001    0.0000    0.0000
       39 W      9pz       -0.0000   -0.0001   -0.0000   -0.0000
       40 W     10pz       -0.0000    0.0001    0.0000    0.0000
       41 W     11pz        0.0000   -0.0001   -0.0000   -0.0000
       42 W      3d2-      -0.0000   -0.0000    0.9917    0.0000
       43 W      4d2-       0.0000    0.0000   -0.0959   -0.0000
       44 W      5d2-      -0.0000   -0.0000    0.0186    0.0000
       45 W      6d2-       0.0000    0.0000   -0.0254   -0.0000
       46 W      7d2-      -0.0000   -0.0000    0.0328    0.0000
       47 W      8d2-       0.0000    0.0000   -0.0372   -0.0000
       48 W      9d2-      -0.0000   -0.0000    0.0370    0.0000
       49 W     10d2-       0.0000    0.0000   -0.0397   -0.0000
       50 W     11d2-      -0.0000   -0.0000    0.0299    0.0000
       51 W      3d1-       0.0000   -0.0000    0.0034   -0.0000
       52 W      4d1-      -0.0000    0.0000   -0.0003    0.0000
       53 W      5d1-       0.0000   -0.0000    0.0001   -0.0000
       54 W      6d1-      -0.0000    0.0000   -0.0001    0.0000
       55 W      7d1-       0.0000   -0.0000    0.0001   -0.0000
       56 W      8d1-      -0.0000    0.0000   -0.0001    0.0000
       57 W      9d1-       0.0000   -0.0000    0.0001   -0.0000
       58 W     10d1-      -0.0000    0.0000   -0.0001    0.0000
       59 W     11d1-       0.0000   -0.0000    0.0001   -0.0000
       60 W      3d0        0.8589    0.0032    0.0000   -0.4958
       61 W      4d0       -0.0830   -0.0003   -0.0000    0.0479
       62 W      5d0        0.0161    0.0001    0.0000   -0.0093
       63 W      6d0       -0.0220   -0.0001   -0.0000    0.0127
       64 W      7d0        0.0284    0.0001    0.0000   -0.0164
       65 W      8d0       -0.0322   -0.0001   -0.0000    0.0186
       66 W      9d0        0.0320    0.0001    0.0000   -0.0185
       67 W     10d0       -0.0344   -0.0001   -0.0000    0.0198
       68 W     11d0        0.0259    0.0001    0.0000   -0.0150
       69 W      3d1+      -0.0013    0.9917    0.0000    0.0041
       70 W      4d1+       0.0001   -0.0959   -0.0000   -0.0004
       71 W      5d1+      -0.0000    0.0186    0.0000    0.0001
       72 W      6d1+       0.0000   -0.0254   -0.0000   -0.0001
       73 W      7d1+      -0.0000    0.0328    0.0000    0.0001
       74 W      8d1+       0.0001   -0.0372   -0.0000   -0.0002
       75 W      9d1+      -0.0001    0.0370    0.0000    0.0002
       76 W     10d1+       0.0001   -0.0397   -0.0000   -0.0002
       77 W     11d1+      -0.0000    0.0299    0.0000    0.0001
       78 W      3d2+       0.4959   -0.0029   -0.0000    0.8588
       79 W      4d2+      -0.0479    0.0003    0.0000   -0.0831
       80 W      5d2+       0.0093   -0.0001   -0.0000    0.0161
       81 W      6d2+      -0.0127    0.0001    0.0000   -0.0220
       82 W      7d2+       0.0164   -0.0001   -0.0000    0.0284
       83 W      8d2+      -0.0186    0.0001    0.0000   -0.0322
       84 W      9d2+       0.0185   -0.0001   -0.0000    0.0320
       85 W     10d2+      -0.0198    0.0001    0.0000   -0.0344
       86 W     11d2+       0.0150   -0.0001   -0.0000    0.0259
       87 W      4f3-      -0.0000   -0.0000    0.0003    0.0000
       88 W      5f3-       0.0000    0.0000   -0.0002   -0.0000
       89 W      6f3-      -0.0000   -0.0000    0.0002    0.0000
       90 W      7f3-       0.0000    0.0000   -0.0002   -0.0000
       91 W      8f3-      -0.0000   -0.0000    0.0002    0.0000
       92 W      9f3-       0.0000    0.0000   -0.0001   -0.0000
       93 W     10f3-      -0.0000   -0.0000    0.0001    0.0000
       94 W     11f3-       0.0000    0.0000   -0.0001   -0.0000
       95 W      4f2-       0.0000   -0.0000    0.0000   -0.0000
       96 W      5f2-      -0.0000    0.0000   -0.0000    0.0000
       97 W      6f2-       0.0000   -0.0000    0.0000   -0.0000
       98 W      7f2-      -0.0000    0.0000   -0.0000    0.0000
       99 W      8f2-       0.0000   -0.0000    0.0000   -0.0000
      100 W      9f2-      -0.0000    0.0000   -0.0000    0.0000
      101 W     10f2-       0.0000   -0.0000    0.0000   -0.0000
      102 W     11f2-      -0.0000    0.0000   -0.0000    0.0000
      103 W      4f1-       0.0000    0.0000   -0.0001   -0.0000
      104 W      5f1-      -0.0000   -0.0000    0.0001    0.0000
      105 W      6f1-       0.0000    0.0000   -0.0001   -0.0000
      106 W      7f1-      -0.0000   -0.0000    0.0001    0.0000
      107 W      8f1-       0.0000    0.0000   -0.0000   -0.0000
      108 W      9f1-      -0.0000   -0.0000    0.0000    0.0000
      109 W     10f1-       0.0000    0.0000   -0.0000   -0.0000
      110 W     11f1-      -0.0000   -0.0000    0.0000    0.0000
      111 W      4f0        0.0000   -0.0002   -0.0000   -0.0000
      112 W      5f0       -0.0000    0.0001    0.0000    0.0000
      113 W      6f0        0.0000   -0.0001   -0.0000   -0.0000
      114 W      7f0       -0.0000    0.0001    0.0000    0.0000
      115 W      8f0        0.0000   -0.0001   -0.0000   -0.0000
      116 W      9f0       -0.0000    0.0001    0.0000    0.0000
      117 W     10f0        0.0000   -0.0001   -0.0000   -0.0000
      118 W     11f0       -0.0000    0.0000    0.0000    0.0000
      119 W      4f1+       0.0002    0.0000    0.0000   -0.0002
      120 W      5f1+      -0.0002   -0.0000   -0.0000    0.0002
      121 W      6f1+       0.0001    0.0000    0.0000   -0.0002
      122 W      7f1+      -0.0001   -0.0000   -0.0000    0.0001
      123 W      8f1+       0.0001    0.0000    0.0000   -0.0001
      124 W      9f1+      -0.0001   -0.0000   -0.0000    0.0001
      125 W     10f1+       0.0001    0.0000    0.0000   -0.0001
      126 W     11f1+      -0.0000   -0.0000   -0.0000    0.0000
      127 W      4f2+      -0.0000    0.0003    0.0000    0.0000
      128 W      5f2+       0.0000   -0.0002   -0.0000   -0.0000
      129 W      6f2+      -0.0000    0.0002    0.0000    0.0000
      130 W      7f2+       0.0000   -0.0002   -0.0000   -0.0000
      131 W      8f2+      -0.0000    0.0001    0.0000    0.0000
      132 W      9f2+       0.0000   -0.0001   -0.0000   -0.0000
      133 W     10f2+      -0.0000    0.0001    0.0000    0.0000
      134 W     11f2+       0.0000   -0.0001   -0.0000   -0.0000
      135 W      4f3+       0.0002   -0.0000   -0.0000    0.0003
      136 W      5f3+      -0.0001    0.0000    0.0000   -0.0002
      137 W      6f3+       0.0001   -0.0000   -0.0000    0.0002
      138 W      7f3+      -0.0001    0.0000    0.0000   -0.0002
      139 W      8f3+       0.0001   -0.0000   -0.0000    0.0001
      140 W      9f3+      -0.0001    0.0000    0.0000   -0.0001
      141 W     10f3+       0.0001   -0.0000   -0.0000    0.0001
      142 W     11f3+      -0.0000    0.0000    0.0000   -0.0001
      143 W      5g4-       0.0000    0.0000   -0.0000   -0.0000
      144 W      6g4-      -0.0000   -0.0000    0.0000    0.0000
      145 W      7g4-       0.0000    0.0000   -0.0000   -0.0000
      146 W      8g4-       0.0000   -0.0000    0.0000    0.0000
      147 W      5g3-      -0.0000    0.0000   -0.0000    0.0000
      148 W      6g3-       0.0000    0.0000   -0.0000   -0.0000
      149 W      7g3-      -0.0000    0.0000   -0.0000    0.0000
      150 W      8g3-       0.0000    0.0000   -0.0000   -0.0000
      151 W      5g2-      -0.0000   -0.0000    0.0000    0.0000
      152 W      6g2-       0.0000    0.0000   -0.0000   -0.0000
      153 W      7g2-      -0.0000   -0.0000    0.0000    0.0000
      154 W      8g2-      -0.0000    0.0000   -0.0000   -0.0000
      155 W      5g1-       0.0000   -0.0000    0.0000   -0.0000
      156 W      6g1-      -0.0000   -0.0000    0.0000    0.0000
      157 W      7g1-       0.0000   -0.0000    0.0000   -0.0000
      158 W      8g1-      -0.0000   -0.0000    0.0000   -0.0000
      159 W      5g0        0.0000    0.0000    0.0000   -0.0000
      160 W      6g0       -0.0000   -0.0000   -0.0000    0.0000
      161 W      7g0        0.0000    0.0000    0.0000   -0.0000
      162 W      8g0       -0.0000   -0.0000   -0.0000    0.0000
      163 W      5g1+      -0.0000    0.0000    0.0000    0.0000
      164 W      6g1+       0.0000   -0.0000   -0.0000   -0.0000
      165 W      7g1+       0.0000    0.0000    0.0000    0.0000
      166 W      8g1+       0.0000   -0.0000   -0.0000   -0.0000
      167 W      5g2+      -0.0000   -0.0000   -0.0000    0.0000
      168 W      6g2+       0.0000    0.0000    0.0000   -0.0000
      169 W      7g2+      -0.0000    0.0000    0.0000    0.0000
      170 W      8g2+       0.0000    0.0000    0.0000   -0.0000
      171 W      5g3+      -0.0000   -0.0000   -0.0000   -0.0000
      172 W      6g3+       0.0000    0.0000    0.0000    0.0000
      173 W      7g3+      -0.0000   -0.0000   -0.0000   -0.0000
      174 W      8g3+      -0.0000    0.0000    0.0000    0.0000
      175 W      5g4+      -0.0000    0.0000    0.0000   -0.0000
      176 W      6g4+       0.0000    0.0000    0.0000    0.0000
      177 W      7g4+      -0.0000    0.0000    0.0000   -0.0000
      178 W      8g4+       0.0000    0.0000    0.0000    0.0000
      179 W      6h5-      -0.0000   -0.0000    0.0000   -0.0000
      180 W      7h5-      -0.0000    0.0000   -0.0000    0.0000
      181 W      6h4-       0.0000    0.0000   -0.0000    0.0000
      182 W      7h4-      -0.0000    0.0000   -0.0000   -0.0000
      183 W      6h3-       0.0000    0.0000   -0.0000   -0.0000
      184 W      7h3-       0.0000   -0.0000    0.0000    0.0000
      185 W      6h2-      -0.0000    0.0000   -0.0000    0.0000
      186 W      7h2-       0.0000    0.0000   -0.0000   -0.0000
      187 W      6h1-       0.0000   -0.0000    0.0000   -0.0000
      188 W      7h1-       0.0000    0.0000   -0.0000    0.0000
      189 W      6h0        0.0000    0.0000    0.0000   -0.0000
      190 W      7h0        0.0000   -0.0000   -0.0000   -0.0000
      191 W      6h1+      -0.0000   -0.0000   -0.0000    0.0000
      192 W      7h1+       0.0000   -0.0000   -0.0000   -0.0000
      193 W      6h2+      -0.0000   -0.0000   -0.0000    0.0000
      194 W      7h2+      -0.0000    0.0000    0.0000    0.0000
      195 W      6h3+       0.0000   -0.0000   -0.0000   -0.0000
      196 W      7h3+      -0.0000   -0.0000   -0.0000    0.0000
      197 W      6h4+       0.0000    0.0000    0.0000    0.0000
      198 W      7h4+       0.0000   -0.0000   -0.0000    0.0000
      199 W      6h5+       0.0000    0.0000    0.0000    0.0000
      200 W      7h5+      -0.0000   -0.0000   -0.0000   -0.0000
--


++    Molecular charges:
      ------------------

      Mulliken charges per centre and basis function type
      ---------------------------------------------------

                W     
      1s       2.0000
      2s       2.0000
      2px      2.0000
      2pz      2.0000
      2py      2.0000
      3s       1.9811
      3px      1.9730
      3pz      1.9730
      3py      1.9730
      4s       0.0128
      3d2+     0.0000
      3d1+     0.0000
      3d0      0.0000
      3d1-     0.0000
      3d2-     0.0000
      4px      0.0167
      4pz      0.0167
      4py      0.0167
      5s       0.0011
      4d2+     0.0000
      4d1+     0.0000
      4d0      0.0000
      4d1-     0.0000
      4d2-     0.0000
      5px      0.0013
      5pz      0.0013
      5py      0.0013
      6s       0.0001
      4f3+     0.0000
      4f2+     0.0000
      4f1+     0.0000
      4f0      0.0000
      4f1-     0.0000
      4f2-     0.0000
      4f3-     0.0000
      5d2+     0.0000
      5d1+     0.0000
      5d0      0.0000
      5d1-     0.0000
      5d2-     0.0000
      6px      0.0002
      6pz      0.0002
      6py      0.0002
      7s       0.0001
      5f3+     0.0000
      5f2+     0.0000
      5f1+     0.0000
      5f0      0.0000
      5f1-     0.0000
      5f2-     0.0000
      5f3-     0.0000
      6d2+     0.0000
      6d1+     0.0000
      6d0      0.0000
      6d1-     0.0000
      6d2-     0.0000
      7px      0.0018
      7pz      0.0018
      7py      0.0018
      5g4+     0.0000
      5g3+     0.0000
      5g2+     0.0000
      5g1+     0.0000
      5g0      0.0000
      5g1-     0.0000
      5g2-     0.0000
      5g3-     0.0000
      5g4-     0.0000
      6f3+     0.0000
      6f2+     0.0000
      6f1+     0.0000
      6f0      0.0000
      6f1-     0.0000
      6f2-     0.0000
      6f3-     0.0000
      6g4+     0.0000
      6g3+     0.0000
      6g2+     0.0000
      6g1+     0.0000
      6g0      0.0000
      6g1-     0.0000
      6g2-     0.0000
      6g3-     0.0000
      6g4-     0.0000
      6h5+     0.0000
      6h4+     0.0000
      6h3+     0.0000
      6h2+     0.0000
      6h1+     0.0000
      6h0      0.0000
      6h1-     0.0000
      6h2-     0.0000
      6h3-     0.0000
      6h4-     0.0000
      6h5-     0.0000
      7d2+     0.0000
      7d1+     0.0000
      7d0      0.0000
      7d1-     0.0000
      7d2-     0.0000
      7f3+     0.0000
      7f2+     0.0000
      7f1+     0.0000
      7f0      0.0000
      7f1-     0.0000
      7f2-     0.0000
      7f3-     0.0000
      7g4+     0.0000
      7g3+     0.0000
      7g2+     0.0000
      7g1+     0.0000
      7g0      0.0000
      7g1-     0.0000
      7g2-     0.0000
      7g3-     0.0000
      7g4-     0.0000
      7h5+     0.0000
      7h4+     0.0000
      7h3+     0.0000
      7h2+     0.0000
      7h1+     0.0000
      7h0      0.0000
      7h1-     0.0000
      7h2-     0.0000
      7h3-     0.0000
      7h4-     0.0000
      7h5-     0.0000
      8s       0.0006
      8px      0.0018
      8pz      0.0018
      8py      0.0018
      8d2+     0.0000
      8d1+     0.0000
      8d0      0.0000
      8d1-     0.0000
[...]
   -----------------------------------
  (Shifted by EMIN (a.u.) =     -13577.2937036969)

 SO State       Relative EMIN(au)   Rel lowest level(eV)    D:o, cm**(-1)     J-value

     1             0.0000000000        0.0000000000              0.0000         2.1
     2             0.0000000000        0.0000000000              0.0000         2.1
     3             0.0000000231        0.0000006298              0.0051         2.1
     4             0.0000000231        0.0000006298              0.0051         2.1
     5             0.0011866040        0.0322891409            260.4295         2.1
     6             0.0011866040        0.0322891409            260.4295         2.1
     7             0.0011867099        0.0322920211            260.4527         2.1
     8             0.0011867099        0.0322920211            260.4527         2.1
     9             0.0015891025        0.0432416822            348.7677         2.1
    10             0.0015891025        0.0432416822            348.7677         2.1
    11            77.1185528444     2098.5027281812       16925565.9568         0.5
    12            77.1185528444     2098.5027281812       16925565.9568         0.5
    13            83.2429998704     2265.1574217479       18269726.7101         1.2
    14            83.2429998704     2265.1574217479       18269726.7101         1.2
    15            83.2430003526     2265.1574348703       18269726.8160         1.2
    16            83.2430003526     2265.1574348703       18269726.8160         1.2
    17            83.2539290769     2265.4548206067       18272125.3937         1.2
    18            83.2539290769     2265.4548206067       18272125.3937         1.2


 Weights of the five most important spin-orbit-free states for each spin-orbit state.

 SO State  Total energy (au)           Spin-free states, spin, and weights
 -------------------------------------------------------------------------------------------------------
    1         0.000000       1 0.5  1.0000    9 0.5  0.0000    8 0.5  0.0000    7 0.5  0.0000    6 0.5  0.0000
    2         0.000000       1 0.5  1.0000    9 0.5  0.0000    8 0.5  0.0000    7 0.5  0.0000    6 0.5  0.0000
    3         0.000000       2 0.5  1.0000    9 0.5  0.0000    8 0.5  0.0000    7 0.5  0.0000    6 0.5  0.0000
    4         0.000000       2 0.5  1.0000    9 0.5  0.0000    8 0.5  0.0000    7 0.5  0.0000    6 0.5  0.0000
    5         0.001187       3 0.5  1.0000    9 0.5  0.0000    8 0.5  0.0000    7 0.5  0.0000    6 0.5  0.0000
    6         0.001187       3 0.5  1.0000    9 0.5  0.0000    8 0.5  0.0000    7 0.5  0.0000    6 0.5  0.0000
    7         0.001187       4 0.5  1.0000    9 0.5  0.0000    8 0.5  0.0000    7 0.5  0.0000    6 0.5  0.0000
    8         0.001187       4 0.5  1.0000    9 0.5  0.0000    8 0.5  0.0000    7 0.5  0.0000    6 0.5  0.0000
    9         0.001589       5 0.5  1.0000    9 0.5  0.0000    8 0.5  0.0000    7 0.5  0.0000    6 0.5  0.0000
   10         0.001589       5 0.5  1.0000    9 0.5  0.0000    8 0.5  0.0000    7 0.5  0.0000    6 0.5  0.0000
   11        77.118553       6 0.5  1.0000    9 0.5  0.0000    8 0.5  0.0000    7 0.5  0.0000    5 0.5  0.0000
   12        77.118553       6 0.5  1.0000    9 0.5  0.0000    8 0.5  0.0000    7 0.5  0.0000    5 0.5  0.0000
   13        83.243000       7 0.5  1.0000    9 0.5  0.0000    8 0.5  0.0000    6 0.5  0.0000    5 0.5  0.0000
   14        83.243000       7 0.5  1.0000    9 0.5  0.0000    8 0.5  0.0000    6 0.5  0.0000    5 0.5  0.0000
   15        83.243000       8 0.5  1.0000    9 0.5  0.0000    7 0.5  0.0000    6 0.5  0.0000    5 0.5  0.0000
   16        83.243000       8 0.5  1.0000    9 0.5  0.0000    7 0.5  0.0000    6 0.5  0.0000    5 0.5  0.0000
   17        83.253929       9 0.5  1.0000    8 0.5  0.0000    7 0.5  0.0000    6 0.5  0.0000    5 0.5  0.0000
   18        83.253929       9 0.5  1.0000    8 0.5  0.0000    7 0.5  0.0000    6 0.5  0.0000    5 0.5  0.0000
 -------------------------------------------------------------------------------------------------------


      ****************************************************************************************************
      *                                                                                                  *
      *                                    Special properties section                                    *
      *                                                                                                  *
      ****************************************************************************************************


++ Dipole transition strengths (SO states):
   ----------------------------------------
    for osc. strength at least    1.0000000000000001E-005

      From   To        Osc. strength     Einstein coefficients Ax, Ay, Az (sec-1)    Total A (sec-1)
     -----------------------------------------------------------------------------------------------
         1   13       1.34016981E-02  2.58467513E-03  2.98376523E+12  3.90018505E+02  2.98376523E+12
         1   15       1.34017309E-02  3.58634932E+07  3.90011511E+02  2.98373670E+12  2.98377256E+12
         2   14       1.34016981E-02  2.58467513E-03  2.98376523E+12  3.90018505E+02  2.98376523E+12
         2   16       1.34017309E-02  3.58634932E+07  3.90011511E+02  2.98373670E+12  2.98377256E+12
         3   13       1.34017946E-02  5.47568265E+06  3.90015080E+02  2.98378125E+12  2.98378672E+12
         3   15       1.34016515E-02  2.09700430E-03  2.98375490E+12  3.90015326E+02  2.98375490E+12
         4   14       1.34017946E-02  5.47568265E+06  3.90015080E+02  2.98378125E+12  2.98378672E+12
         4   16       1.34016515E-02  2.09700430E-03  2.98375490E+12  3.90015326E+02  2.98375490E+12
         5   13       1.33884775E-02  2.98072769E+12  1.19192192E-03  9.12402752E+06  2.98073681E+12
         5   17       1.34014463E-02  2.30244254E+07  2.41652479E+02  2.98438460E+12  2.98440763E+12
         6   14       1.33884775E-02  2.98072769E+12  1.19192192E-03  9.12402752E+06  2.98073681E+12
         6   18       1.34014463E-02  2.30244254E+07  2.41652479E+02  2.98438460E+12  2.98440763E+12
         7   15       1.33884812E-02  2.98070213E+12  1.03118935E-03  3.55281601E+07  2.98073766E+12
         7   17       1.34014126E-02  2.06382696E-03  2.98440012E+12  2.41651110E+02  2.98440012E+12
         8   16       1.33884812E-02  2.98070213E+12  1.03118935E-03  3.55281601E+07  2.98073766E+12
         8   18       1.34014126E-02  2.06382696E-03  2.98440012E+12  2.41651110E+02  2.98440012E+12
         9   13       4.47154293E-03  9.98452585E+06  4.16954739E+01  9.95500050E+11  9.95510035E+11
         9   15       4.47166522E-03  4.95936068E-04  9.95537273E+11  4.16981226E+01  9.95537273E+11
         9   17       1.78409113E-02  3.97298035E+12  4.35076462E-06  2.64281747E+07  3.97300678E+12
        10   14       4.47154293E-03  9.98452585E+06  4.16954739E+01  9.95500050E+11  9.95510035E+11
        10   16       4.47166522E-03  4.95936068E-04  9.95537273E+11  4.16981226E+01  9.95537273E+11
        10   18       1.78409113E-02  3.97298035E+12  4.35076462E-06  2.64281747E+07  3.97300678E+12
        11   13       1.77729726E-01  8.55448887E+05  8.97132519E+00  2.14191126E+11  2.14191982E+11
        11   15       1.77729725E-01  3.73192108E-05  2.14192015E+11  8.97129070E+00  2.14192015E+11
        11   17       1.77617494E-01  2.14820525E+11  1.52786779E-08  8.58622089E+05  2.14821384E+11
        12   14       1.77729726E-01  8.55448887E+05  8.97132519E+00  2.14191126E+11  2.14191982E+11
        12   16       1.77729725E-01  3.73192108E-05  2.14192015E+11  8.97129070E+00  2.14192015E+11
        12   18       1.77617494E-01  2.14820525E+11  1.52786779E-08  8.58622089E+05  2.14821384E+11
     -----------------------------------------------------------------------------------------------
--

++ Velocity transition strengths (SO states):
   ------------------------------------------
    for osc. strength at least    1.0000000000000001E-005

      From   To        Osc. strength     Einstein coefficients Ax, Ay, Az (sec-1)    Total A (sec-1)
     -----------------------------------------------------------------------------------------------
         1    3       3.81429465E-05  1.53530938E-22  6.56393868E-10  3.89472455E-22  6.56393868E-10
         1    5       7.43579883E-05  5.77949809E-16  3.36395488E+00  6.55609769E-10  3.36395488E+00
         1    7       7.43502612E-05  2.29757423E-06  6.55669098E-10  3.36420310E+00  3.36420540E+00
         1   13       1.32352101E-02  2.55264202E-03  2.94670846E+12  3.85174617E+02  2.94670847E+12
         1   15       1.32352426E-02  3.54181093E+07  3.85167762E+02  2.94668030E+12  2.94671571E+12
         2    4       3.81429465E-05  1.53530938E-22  6.56393868E-10  3.89472455E-22  6.56393868E-10
         2    6       7.43579883E-05  5.77949809E-16  3.36395488E+00  6.55609769E-10  3.36395488E+00
         2    8       7.43502612E-05  2.29757423E-06  6.55669098E-10  3.36420310E+00  3.36420540E+00
         2   14       1.32352101E-02  2.55264202E-03  2.94670846E+12  3.85174617E+02  2.94670847E+12
         2   16       1.32352426E-02  3.54181093E+07  3.85167762E+02  2.94668030E+12  2.94671571E+12
         3    5       7.43596154E-05  2.32372148E-06  6.55605984E-10  3.36389495E+00  3.36389728E+00
         3    7       7.43500645E-05  3.60449266E-16  3.36406529E+00  6.55693368E-10  3.36406529E+00
         3   13       1.32353055E-02  5.40769704E+06  3.85171262E+02  2.94672428E+12  2.94672969E+12
         3   15       1.32351642E-02  2.07088825E-03  2.94669828E+12  3.85171507E+02  2.94669828E+12
         4    6       7.43596154E-05  2.32372148E-06  6.55605984E-10  3.36389495E+00  3.36389728E+00
         4    8       7.43500645E-05  3.60449266E-16  3.36406529E+00  6.55693368E-10  3.36406529E+00
         4   14       1.32353055E-02  5.40769704E+06  3.85171262E+02  2.94672428E+12  2.94672969E+12
         4   16       1.32351642E-02  2.07088825E-03  2.94669828E+12  3.85171507E+02  2.94669828E+12
         5    9       6.57759060E-04  2.34892837E-06  2.77242502E-10  3.42378033E+00  3.42378268E+00
         5   13       1.32222947E-02  2.94374002E+12  1.17716850E-03  9.01084358E+06  2.94374903E+12
         5   17       1.32348273E-02  2.27381890E+07  2.38648882E+02  2.94729025E+12  2.94731299E+12
         6   10       6.57759060E-04  2.34892837E-06  2.77242502E-10  3.42378033E+00  3.42378268E+00
         6   14       1.32222947E-02  2.94374002E+12  1.17716850E-03  9.01084358E+06  2.94374903E+12
         6   18       1.32348273E-02  2.27381890E+07  2.38648882E+02  2.94729025E+12  2.94731299E+12
         7    9       6.57934650E-04  1.85681410E-16  3.42289571E+00  2.77175522E-10  3.42289571E+00
         7   15       1.32222984E-02  2.94371478E+12  1.01844248E-03  3.50872543E+07  2.94374987E+12
         7   17       1.32347940E-02  2.03820291E-03  2.94730558E+12  2.38647530E+02  2.94730558E+12
         8   10       6.57934650E-04  1.85681410E-16  3.42289571E+00  2.77175522E-10  3.42289571E+00
         8   16       1.32222984E-02  2.94371478E+12  1.01844248E-03  3.50872543E+07  2.94374987E+12
         8   18       1.32347940E-02  2.03820291E-03  2.94730558E+12  2.38647530E+02  2.94730558E+12
         9   13       4.41586528E-03  9.86052521E+06  4.11764506E+01  9.83107948E+11  9.83117808E+11
         9   15       4.41598606E-03  4.89702408E-04  9.83144709E+11  4.11790535E+01  9.83144709E+11
         9   17       1.76195426E-02  3.92369755E+12  4.28935259E-06  2.61000857E+07  3.92372366E+12
        10   14       4.41586528E-03  9.86052521E+06  4.11764506E+01  9.83107948E+11  9.83117808E+11
        10   16       4.41598606E-03  4.89702408E-04  9.83144709E+11  4.11790535E+01  9.83144709E+11
        10   18       1.76195426E-02  3.92369755E+12  4.28935259E-06  2.61000857E+07  3.92372366E+12
        11   13       1.46103288E-01  7.03168627E+05  7.37493335E+00  1.76077111E+11  1.76077814E+11
        11   15       1.46103288E-01  3.06780554E-05  1.76077842E+11  7.37490275E+00  1.76077842E+11
        11   17       1.46017011E-01  1.76601749E+11  1.25556889E-08  7.05923058E+05  1.76602455E+11
        12   14       1.46103288E-01  7.03168627E+05  7.37493335E+00  1.76077111E+11  1.76077814E+11
        12   16       1.46103288E-01  3.06780554E-05  1.76077842E+11  7.37490275E+00  1.76077842E+11
        12   18       1.46017011E-01  1.76601749E+11  1.25556889E-08  7.05923058E+05  1.76602455E+11
        13   15       2.69653835E-05  2.14427015E-21  2.01485198E-07  6.92443252E-20  2.01485198E-07
        13   17       8.85342941E-04  2.48474188E-03  1.42318628E-07  3.39781209E+03  3.39781457E+03
        14   16       2.69653835E-05  2.14427015E-21  2.01485198E-07  6.92443252E-20  2.01485198E-07
        14   18       8.85342941E-04  2.48474188E-03  1.42318628E-07  3.39781209E+03  3.39781457E+03
        15   17       8.85380704E-04  8.54255970E-14  3.39765965E+03  1.42311708E-07  3.39765965E+03
        16   18       8.85380704E-04  8.54255970E-14  3.39765965E+03  1.42311708E-07  3.39765965E+03
     -----------------------------------------------------------------------------------------------
--

++ Length and velocity gauge comparison (SO states):

 --------------------------------------------------
 A comparison between the dipole oscillator strengths in 
 length and velocity gauge will be performed

 All dipole oscillator differences above the tolerance of   0.10000000000000001       will be printed 

 Due to basis set deficiency these oscillator may be problematic 

 The tolerance is defined as ABS(1-O_l/O_v) 
 O_l : dipole oscillator strength in length gauge
 O_p : dipole oscillator strength in velocity gauge
 --------------------------------------------------

  Problematic transitions have been found

      From   To       Difference (%) Osc. st. (len.) Osc. st. (vel.)
     ---------------------------------------------------------------
         1    3      --------------- below threshold  3.81429465E-05
         1    5      --------------- below threshold  7.43579883E-05
         1    7      --------------- below threshold  7.43502612E-05
         2    4      --------------- below threshold  3.81429465E-05
         2    6      --------------- below threshold  7.43579883E-05
         2    8      --------------- below threshold  7.43502612E-05
         3    5      --------------- below threshold  7.43596154E-05
         3    7      --------------- below threshold  7.43500645E-05
         4    6      --------------- below threshold  7.43596154E-05
         4    8      --------------- below threshold  7.43500645E-05
         5    9      --------------- below threshold  6.57759060E-04
         6   10      --------------- below threshold  6.57759060E-04
         7    9      --------------- below threshold  6.57934650E-04
         8   10      --------------- below threshold  6.57934650E-04
        11   13            21.646630  1.77729726E-01  1.46103288E-01
        11   15            21.646629  1.77729725E-01  1.46103288E-01
        11   17            21.641645  1.77617494E-01  1.46017011E-01
        12   14            21.646630  1.77729726E-01  1.46103288E-01
        12   16            21.646629  1.77729725E-01  1.46103288E-01
        12   18            21.641645  1.77617494E-01  1.46017011E-01
        13   15      --------------- below threshold  2.69653835E-05
        13   17      --------------- below threshold  8.85342941E-04
        14   16      --------------- below threshold  2.69653835E-05
        14   18      --------------- below threshold  8.85342941E-04
        15   17      --------------- below threshold  8.85380704E-04
        16   18      --------------- below threshold  8.85380704E-04
     ---------------------------------------------------------------

 Number of problematic transitions =                    26

--

 Electric-dipole - electric-octupole not included
++ Total transition strengths for the second-order expansion of the wave vector (SO states):
   -----------------------------------------------------------------------------------------
    for osc. strength at least    1.0000000000000001E-005

      From   To        Osc. strength
     -------------------------------
         1   11       5.84587574E-05
         2   12       5.84587574E-05
         3   11       5.84587559E-05
         4   12       5.84587559E-05
         5   11       5.84333928E-05
         6   12       5.84333928E-05
         7   11       5.84333863E-05
         8   12       5.84333863E-05
         9   11       5.84247293E-05
        10   12       5.84247293E-05
     -------------------------------
--

++ I/O STATISTICS
 
  I. General I/O information
  - - - - - - - - - - - - - - - - - - - - - - - - - - - - - - - - - - - - - - - - - - -
  Unit  Name          Flsize      Write/Read            MBytes           Write/Read
                      (MBytes)       Calls              In/Out           Time, sec.
  - - - - - - - - - - - - - - - - - - - - - - - - - - - - - - - - - - - - - - - - - - -
   1  SCRATCH           0.00 .       9/      45 .      0.0/      0.0 .       0/       0
   2  ANNI              0.00 .       0/       0 .      0.0/      0.0 .       0/       0
   3  RUNFILE          15.31 .     322/   10733 .      2.3/     77.8 .       0/       0
   4  ONEINT            6.58 .       0/   28767 .      0.0/   3777.9 .       0/       0
   5  JOBIPH            7.70 .       0/      92 .      0.0/      0.9 .       0/       0
   6  ORDINT          771.03 .       1/    6169 .      0.0/   1542.0 .       0/       0
  - - - - - - - - - - - - - - - - - - - - - - - - - - - - - - - - - - - - - - - - - - -
   *  TOTAL           800.62 .     332/   45806 .      2.3/   5398.7 .       0/       0
  - - - - - - - - - - - - - - - - - - - - - - - - - - - - - - - - - - - - - - - - - - -
 
  II. I/O Access Patterns
  - - - - - - - - - - - - - - - - - - - -
  Unit  Name               % of random
                         Write/Read calls
  - - - - - - - - - - - - - - - - - - - -
   1  SCRATCH             88.9/ 100.0
   2  ANNI                 0.0/   0.0
   3  RUNFILE             28.6/  10.8
   4  ONEINT               0.0/  13.4
   5  JOBIPH               0.0/  76.1
   6  ORDINT             100.0/   0.0
  - - - - - - - - - - - - - - - - - - - -
--
--- Stop Module: rassi at Wed Mar 26 12:30:17 2025 /rc=_RC_ALL_IS_WELL_ ---
*** files: xmldump
    saved to directory /home4/s4752295/Internship/Initial_simulations/Point_charge_model/1_electron/Madelung_charges_9_active_space/W
--- Module rassi spent 3 seconds ---

.##################.
.# Happy landing! #.
.##################.

    Timing: Wall=64.31 User=53.82 System=9.47

###############################################################################
Hbrk Cluster
Job 15906023 for user s4752295
Finished at: Wed Mar 26 12:30:21 CET 2025

Job details:
============

Job ID                         : 15906023
Name                           : W_no_SO
User                           : s4752295
Partition                      : regularmedium
Nodes                          : node100
Number of Nodes                : 1
Cores                          : 1
Number of Tasks                : 1
State                          : COMPLETED  
Submit                         : 2025-03-26T12:27:17
Start                          : 2025-03-26T12:29:09
End                            : 2025-03-26T12:30:17
Reserved walltime              : 15:00:00
Used walltime                  : 00:01:08
Used CPU time                  : 00:01:04 (Efficiency: 94.75%)
% User (Computation)           : 84.92%
% System (I/O)                 : 15.08%
Total memory reserved          : 25000M
Maximum memory used            : 3.06G

Acknowledgements:
=================

Please see this page for information about acknowledging Hbrk in your publications:

https://wiki.hpc.rug.nl/habrok/introduction/scientific_output

################################################################################
