   This run of MOLCAS is using the pymolcas driver

                             OPE
                             OPE          NMOL  CASOP  ENMOLC A   SO
                 OPE        NMOLC        AS  OP EN  MO LC     AS  OP
                OPENM       OL CA        SO  PE NM  OL CA     SOP EN
                OP EN      MO   LC       AS  OP ENMOL  CASO   PENMOL
                OP  EN     MO   LC       AS  OP EN     MO     LC ASO
               OP   E  NMOL  C  AS       OP  EN MO     LC     AS  OP
               OP  E   NMO   LC AS        OPEN  MO     LCASOP EN   M
               O  PEN   MO  LCA  SO
            OPE   NMO   L   CAS    OP
        OPENMOL  CASOP     ENMOL   CASOPE
     OPENMOLCA   SOPENMOLCASOPEN   MOLCASOPE
    OPENMOLCAS   OP           EN   MOL    CAS
    OPENMOLCAS       OP  ENM        O     LCA
    OPENMOLCAS    OPEN  MOLCASO     P  E  NMO
    OPENMOLCAS     OP               E  N  MOL
    OPENMOLCA   SO           PENM   O  L  CAS    OPEN    MO    LCAS
    OPENMOLCA   SOP           ENM   O  L  CAS   OP  EN  MOLC  AS   O
    OPENMOLCA   SOPE           NM      O  LCA   S      OP  EN MO
    OPENMOLC                AS         O  PEN   M      OL  CA  SOPE
    OPENMO        LCASOPE  NMOL        C  ASO   P      ENMOLC     AS
    OPE     NMO      LCA  SO     P     E   NM   OL  CA SO  PE N   MO
          OPENMOLCA            SOPE   NMO        LCAS  O    P  ENMO
     OPENMOLCASOPENMOLCASOPENMOLCASOPENMOLCA
        OPENMOLCASOPENMOLCASOPENMOLCASOPE
            OPENMOLCASOPENMOLCASOPENM
               OPENMOLCASOPENMOLCA        version: o91e1abe7de707b ?
                   OPENMOLCASO
                       OPE                tag:

 OpenMolcas is free software; you can redistribute it and/or modify it
 under the terms of the GNU Lesser General Public License version 2.1.
 OpenMolcas is distributed in the hope that it will be useful, but it
 is provided "as is" and without any express or implied warranties.
 For more details see the full text of the license in the file
 LICENSE or in <http://www.gnu.org/licenses/>.

                 Copyright (C) The OpenMolcas Authors
           For the author list and the recommended citation,
                   consult the file CONTRIBUTORS.md

           *************************************************
           * pymolcas version py2.10                       *
           *   build 3068ae8b88c9345ec6cfef6fef7f1169      *
           *   (after the EMIL interpreter by V. Veryazov) *
           *************************************************

configuration info
------------------
Host name: login1 (Linux)
C Compiler ID: GNU
C flags: -std=gnu99
Fortran Compiler ID: GNU
Fortran flags: -fno-aggressive-loop-optimizations -cpp -fdefault-integer-8 -fmax-stack-var-size=1048576
Definitions: _MOLCAS_;_I8_;_LINUX_;_MKL_
Parallel: OFF (GA=OFF)


   ----------------------------------------------------------------------------------------------------------------------------------
  |
  |           Project: tungsten_so_cf
  |    Submitted from: /home4/s4752295/Internship/Initial_simulations/Point_charge_model/1_electron/Madelung_charges_9_active_space/W
  |      Scratch area: /tmp/tungsten_so_cf
  |   Save outputs to: /home4/s4752295/Internship/Initial_simulations/Point_charge_model/1_electron/Madelung_charges_9_active_space/W
  |            Molcas: /home4/s4752295/Internship/Molcas/recomp_try/OpenMolcas-master/build
  |
  | Scratch area is empty
  |
  |    MOLCAS_DRIVER = /home4/s4752295/Internship/Molcas/bin/pymolcas
  |    MOLCAS_NPROCS = 1
  |    MOLCAS_SOURCE = /home4/s4752295/Internship/Molcas/recomp_try/OpenMolcas-master
  | MOLCAS_STRUCTURE = 0
  |
   ----------------------------------------------------------------------------------------------------------------------------------

++ ---------   Input file   ---------

&SEWARD
AMFi

CLIG
$R

Basis Set
W.ANO-rcc.Roos.24s21p15d11f4g2h.11s10p9d8f4g2h.
Spherical d
W            -1.0658140267135469e-14    -3.5527134223784897e-15 0.008753588724385739
End of Basis

Xfield

414
-7.604182052,-2.9259999999999997,1.6893261      -0.625931
-7.604182052,-0.0,-3.3786540999999994   -0.625931
-7.604182052,2.9259999999999997,1.6893261       -0.625931
-7.591157533,0.0,0.0    1.892092
5.052441411,-2.9259999999999997,-1.6893261      2.515516
5.052441411,0.0,3.3786540999999994      2.515516
5.052441411,2.9259999999999997,-1.6893261       2.515516
6.769677732,-5.851999999999999,0.0      0.004632
6.769677732,-2.9259999999999997,-5.0679802      0.004632
6.769677732,-2.9259999999999997,5.0679802       0.004632
6.769677732,2.9259999999999997,-5.0679802       0.004632
6.769677732,2.9259999999999997,5.0679802        0.004632
6.769677732,5.851999999999999,0.0       0.004632
7.845385741,-2.9259999999999997,1.6893261       -2.519484
7.845385741,-0.0,-3.3786540999999994    -2.519484
7.845385741,2.9259999999999997,1.6893261        -2.519484
-5.572900393,-0.0,-0.0  -3.142907
-9.452685554,-5.851999999999999,-3.3786540999999994     -0.625931
-9.452685554,0.0,6.7573063      -0.625931
-9.452685554,5.851999999999999,-3.3786540999999994      -0.625931
-12.557812499999999,-5.851999999999999,0.0      1.892092
-12.557812499999999,-2.9259999999999997,-5.0679802      1.892092
-12.557812499999999,-2.9259999999999997,5.0679802       1.892092
-12.557812499999999,2.9259999999999997,-5.0679802       1.892092
-12.557812499999999,2.9259999999999997,5.0679802        1.892092
-12.557812499999999,5.851999999999999,0.0       1.892092
47.826562499999994,-5.851999999999999,3.3786540999999994        2.515516
47.826562499999994,-0.0,-6.7573063      2.515516
47.826562499999994,5.851999999999999,3.3786540999999994 2.515516
6.9134765719999995,-5.851999999999999,-3.3786540999999994       -2.519484
6.9134765719999995,0.0,6.7573063        -2.519484
6.9134765719999995,5.851999999999999,-3.3786540999999994        -2.519484
-6.141601572,-5.851999999999999,-0.0    -3.142907
-6.141601572,-2.9259999999999997,-5.0679802     -3.142907
-6.141601572,-2.9259999999999997,5.0679802      -3.142907
-6.141601572,2.9259999999999997,-5.0679802      -3.142907
-6.141601572,2.9259999999999997,5.0679802       -3.142907
-6.141601572,5.851999999999999,-0.0     -3.142907
-18.09453125,-5.851999999999999,6.7573063       -0.625931
-18.09453125,5.851999999999999,6.7573063        -0.625931
-18.09453125,-8.778,1.6893261   -0.625931
-18.09453125,8.778,1.6893261    -0.625931
-18.09453125,-2.9259999999999997,-8.4466343     -0.625931
-18.09453125,2.9259999999999997,-8.4466343      -0.625931
11.41484375,-2.9259999999999997,-1.6893261      4.409069
11.41484375,2.9259999999999997,-1.6893261       4.409069
11.41484375,0.0,3.3786540999999994      4.409069
-332.97499999999997,-0.0,-0.0   -5.030367
-332.97499999999997,0.0,0.0     5.039632
25.683398427999997,-5.851999999999999,-6.7573063        2.515516
25.683398427999997,5.851999999999999,-6.7573063 2.515516
25.683398427999997,-8.778,-1.6893261    2.515516
25.683398427999997,8.778,-1.6893261     2.515516
25.683398427999997,-2.9259999999999997,8.4466343        2.515516
25.683398427999997,2.9259999999999997,8.4466343 2.515516
36.17421875,-8.778,-5.0679802   0.004632
36.17421875,-8.778,5.0679802    0.004632
36.17421875,8.778,-5.0679802    0.004632
36.17421875,8.778,5.0679802     0.004632
36.17421875,-0.0,-10.1359604    0.004632
36.17421875,0.0,10.1359604      0.004632
91.34843749999999,-5.851999999999999,6.7573063  -2.519484
91.34843749999999,5.851999999999999,6.7573063   -2.519484
91.34843749999999,-8.778,1.6893261      -2.519484
91.34843749999999,8.778,1.6893261       -2.519484
91.34843749999999,-2.9259999999999997,-8.4466343        -2.519484
91.34843749999999,2.9259999999999997,-8.4466343 -2.519484
-277.16249999999997,-8.778,-5.0679802   1.892092
-277.16249999999997,-8.778,5.0679802    1.892092
-277.16249999999997,8.778,-5.0679802    1.892092
-277.16249999999997,8.778,5.0679802     1.892092
-277.16249999999997,-0.0,-10.1359604    1.892092
-277.16249999999997,0.0,10.1359604      1.892092
-223.725,-5.851999999999999,3.3786540999999994  4.409069
-223.725,-0.0,-6.7573063        4.409069
-223.725,5.851999999999999,3.3786540999999994   4.409069
-169.1,-5.851999999999999,-0.0  -5.030367
-169.1,-2.9259999999999997,-5.0679802   -5.030367
-169.1,-2.9259999999999997,5.0679802    -5.030367
-169.1,2.9259999999999997,-5.0679802    -5.030367
-169.1,-5.851999999999999,0.0   5.039632
-169.1,5.851999999999999,-0.0   -5.030367
-169.1,2.9259999999999997,5.0679802     -5.030367
-169.1,-2.9259999999999997,-5.0679802   5.039632
-169.1,-2.9259999999999997,5.0679802    5.039632
-169.1,2.9259999999999997,-5.0679802    5.039632
-169.1,5.851999999999999,0.0    5.039632
-169.1,2.9259999999999997,5.0679802     5.039632
-88.58749999999999,-2.9259999999999997,-1.6893261       -5.660931
-88.58749999999999,0.0,3.3786540999999994       -5.660931
-88.58749999999999,2.9259999999999997,-1.6893261        -5.660931
1.67734375,-11.7039981,0.0      0.004632
1.67734375,-5.851999999999999,-10.1359604       0.004632
1.67734375,-5.851999999999999,10.1359604        0.004632
1.67734375,5.851999999999999,-10.1359604        0.004632
1.67734375,11.7039981,0.0       0.004632
1.67734375,5.851999999999999,10.1359604 0.004632
129.08124999999998,-8.778,5.0679802     -3.142907
129.08124999999998,-8.778,-5.0679802    -3.142907
129.08124999999998,8.778,-5.0679802     -3.142907
129.08124999999998,8.778,5.0679802      -3.142907
129.08124999999998,-0.0,-10.1359604     -3.142907
129.08124999999998,0.0,10.1359604       -3.142907
164.11249999999998,-11.7039981,-3.3786540999999994      -0.625931
164.11249999999998,-8.778,-8.4466343    -0.625931
164.11249999999998,-2.9259999999999997,11.8252865       -0.625931
164.11249999999998,8.778,-8.4466343     -0.625931
164.11249999999998,11.7039981,-3.3786540999999994       -0.625931
164.11249999999998,2.9259999999999997,11.8252865        -0.625931
2.2748046779999997,-11.7039981,0.0      1.892092
2.2748046779999997,-5.851999999999999,-10.1359604       1.892092
2.2748046779999997,-5.851999999999999,10.1359604        1.892092
2.2748046779999997,5.851999999999999,-10.1359604        1.892092
2.2748046779999997,11.7039981,0.0       1.892092
2.2748046779999997,5.851999999999999,10.1359604 1.892092
64.303125,-5.851999999999999,-6.7573063 4.409069
64.303125,5.851999999999999,-6.7573063  4.409069
64.303125,-8.778,-1.6893261     4.409069
64.303125,8.778,-1.6893261      4.409069
64.303125,-2.9259999999999997,8.4466343 4.409069
64.303125,2.9259999999999997,8.4466343  4.409069
308.571875,-5.851999999999999,3.3786540999999994        -5.660931
308.571875,-0.0,-6.7573063      -5.660931
308.571875,5.851999999999999,3.3786540999999994 -5.660931
0.653125,-11.7039981,3.3786540999999994 2.515516
0.653125,-2.9259999999999997,-11.8252865        2.515516
0.653125,-8.778,8.4466343       2.515516
0.653125,2.9259999999999997,-11.8252865 2.515516
0.653125,11.7039981,3.3786540999999994  2.515516
0.653125,8.778,8.4466343        2.515516
-178.95624999999998,-11.7039981,-3.3786540999999994     -2.519484
-178.95624999999998,-8.778,-8.4466343   -2.519484
-178.95624999999998,-2.9259999999999997,11.8252865      -2.519484
-178.95624999999998,8.778,-8.4466343    -2.519484
-178.95624999999998,2.9259999999999997,11.8252865       -2.519484
-178.95624999999998,11.7039981,-3.3786540999999994      -2.519484
-41.93359375,-11.7039981,-0.0   -3.142907
-41.93359375,-5.851999999999999,-10.1359604     -3.142907
-41.93359375,-5.851999999999999,10.1359604      -3.142907
-41.93359375,5.851999999999999,-10.1359604      -3.142907
-41.93359375,5.851999999999999,10.1359604       -3.142907
-41.93359375,11.7039981,-0.0    -3.142907
1152.35,0.0,0.0 6.927092
614.175,-11.7039981,6.7573063   -0.625931
614.175,11.7039981,6.7573063    -0.625931
614.175,-0.0,-13.5146145        -0.625931
-10.3015625,-8.778,5.0679802    -5.030367
-10.3015625,-8.778,-5.0679802   -5.030367
-10.3015625,-8.778,5.0679802    5.039632
-10.3015625,-8.778,-5.0679802   5.039632
-10.3015625,8.778,-5.0679802    -5.030367
-10.3015625,8.778,5.0679802     -5.030367
-10.3015625,8.778,-5.0679802    5.039632
-10.3015625,8.778,5.0679802     5.039632
-10.3015625,-0.0,-10.1359604    -5.030367
-10.3015625,0.0,10.1359604      -5.030367
-10.3015625,-0.0,-10.1359604    5.039632
-10.3015625,0.0,10.1359604      5.039632
174.44375,-5.851999999999999,-6.7573063 -5.660931
174.44375,5.851999999999999,-6.7573063  -5.660931
174.44375,-8.778,-1.6893261     -5.660931
174.44375,8.778,-1.6893261      -5.660931
174.44375,-2.9259999999999997,8.4466343 -5.660931
174.44375,2.9259999999999997,8.4466343  -5.660931
570.9499999999999,-11.7039981,-6.7573063        2.515516
570.9499999999999,11.7039981,-6.7573063 2.515516
570.9499999999999,0.0,13.5146145        2.515516
-982.775,-11.7039981,6.7573063  -2.519484
-982.775,11.7039981,6.7573063   -2.519484
-982.775,-0.0,-13.5146145       -2.519484
101.76875,-5.851999999999999,0.0        6.927092
101.76875,-2.9259999999999997,-5.0679802        6.927092
101.76875,-2.9259999999999997,5.0679802 6.927092
101.76875,2.9259999999999997,-5.0679802 6.927092
101.76875,2.9259999999999997,5.0679802  6.927092
101.76875,5.851999999999999,0.0 6.927092
-104.975,-2.9259999999999997,1.6893261  7.550516
-104.975,0.0,-3.3786540999999994        7.550516
-104.975,2.9259999999999997,1.6893261   7.550516
29.509375,-2.9259999999999997,-1.6893261        -7.554483
29.509375,2.9259999999999997,-1.6893261 -7.554483
29.509375,-0.0,3.3786540999999994       -7.554483
-237.2625,-14.6299981,1.6893261 -0.625931
-237.2625,-8.778,11.8252865     -0.625931
-237.2625,-5.851999999999999,-13.5146145        -0.625931
-237.2625,5.851999999999999,-13.5146145 -0.625931
-237.2625,14.6299981,1.6893261  -0.625931
-237.2625,8.778,11.8252865      -0.625931
-128.13125,-11.7039981,3.3786540999999994       4.409069
-128.13125,-8.778,8.4466343     4.409069
-128.13125,-2.9259999999999997,-11.8252865      4.409069
-128.13125,2.9259999999999997,-11.8252865       4.409069
-128.13125,8.778,8.4466343      4.409069
-128.13125,11.7039981,3.3786540999999994        4.409069
93.396875,-11.7039981,-0.0      -5.030367
93.396875,-5.851999999999999,-10.1359604        -5.030367
93.396875,-5.851999999999999,10.1359604 -5.030367
93.396875,-11.7039981,0.0       5.039632
93.396875,-5.851999999999999,-10.1359604        5.039632
93.396875,5.851999999999999,-10.1359604 -5.030367
93.396875,5.851999999999999,10.1359604  -5.030367
93.396875,11.7039981,-0.0       -5.030367
93.396875,-5.851999999999999,10.1359604 5.039632
93.396875,5.851999999999999,-10.1359604 5.039632
93.396875,11.7039981,0.0        5.039632
93.396875,5.851999999999999,10.1359604  5.039632
343.425,-14.6299981,-1.6893261  2.515516
343.425,-8.778,-11.8252865      2.515516
343.425,-5.851999999999999,13.5146145   2.515516
343.425,8.778,-11.8252865       2.515516
343.425,14.6299981,-1.6893261   2.515516
343.425,5.851999999999999,13.5146145    2.515516
-44.353125,-14.6299981,-5.0679802       0.004632
-44.353125,-14.6299981,5.0679802        0.004632
-44.353125,-11.7039981,-10.1359604      0.004632
-44.353125,-11.7039981,10.1359604       0.004632
-44.353125,-2.9259999999999997,-15.2039406      0.004632
-44.353125,2.9259999999999997,-15.2039406       0.004632
-44.353125,-2.9259999999999997,15.2039406       0.004632
-44.353125,11.7039981,-10.1359604       0.004632
-44.353125,2.9259999999999997,15.2039406        0.004632
-44.353125,14.6299981,-5.0679802        0.004632
-44.353125,14.6299981,5.0679802 0.004632
-44.353125,11.7039981,10.1359604        0.004632
-271.9375,-14.6299981,1.6893261 -2.519484
-271.9375,-8.778,11.8252865     -2.519484
-271.9375,-5.851999999999999,-13.5146145        -2.519484
-271.9375,5.851999999999999,-13.5146145 -2.519484
-271.9375,14.6299981,1.6893261  -2.519484
-271.9375,8.778,11.8252865      -2.519484
5760.8,-0.0,-0.0        -8.177907
-220.39999999999998,-5.851999999999999,-3.3786540999999994      7.550516
-220.39999999999998,0.0,6.7573063       7.550516
-220.39999999999998,5.851999999999999,-3.3786540999999994       7.550516
-1146.6499999999999,-5.851999999999999,3.3786540999999994       -7.554483
-1146.6499999999999,-0.0,-6.7573063     -7.554483
-1146.6499999999999,5.851999999999999,3.3786540999999994        -7.554483
92.921875,-14.6299981,5.0679802 1.892092
92.921875,-14.6299981,-5.0679802        1.892092
92.921875,-11.7039981,-10.1359604       1.892092
92.921875,-11.7039981,10.1359604        1.892092
92.921875,-2.9259999999999997,-15.2039406       1.892092
92.921875,2.9259999999999997,-15.2039406        1.892092
92.921875,-2.9259999999999997,15.2039406        1.892092
92.921875,11.7039981,-10.1359604        1.892092
92.921875,2.9259999999999997,15.2039406 1.892092
92.921875,14.6299981,-5.0679802 1.892092
92.921875,14.6299981,5.0679802  1.892092
92.921875,11.7039981,10.1359604 1.892092
-959.5,-11.7039981,-6.7573063   4.409069
-959.5,11.7039981,-6.7573063    4.409069
-959.5,0.0,13.5146145   4.409069
49.05859375,-11.7039981,3.3786540999999994      -5.660931
49.05859375,-2.9259999999999997,-11.8252865     -5.660931
49.05859375,-8.778,8.4466343    -5.660931
49.05859375,2.9259999999999997,-11.8252865      -5.660931
49.05859375,8.778,8.4466343     -5.660931
49.05859375,11.7039981,3.3786540999999994       -5.660931
-110.55624999999999,-11.7039981,-10.1359604     -3.142907
-110.55624999999999,-14.6299981,5.0679802       -3.142907
-110.55624999999999,-14.6299981,-5.0679802      -3.142907
-110.55624999999999,-11.7039981,10.1359604      -3.142907
-110.55624999999999,-2.9259999999999997,-15.2039406     -3.142907
-110.55624999999999,2.9259999999999997,-15.2039406      -3.142907
-110.55624999999999,-2.9259999999999997,15.2039406      -3.142907
-110.55624999999999,14.6299981,-5.0679802       -3.142907
-110.55624999999999,11.7039981,-10.1359604      -3.142907
-110.55624999999999,2.9259999999999997,15.2039406       -3.142907
-110.55624999999999,14.6299981,5.0679802        -3.142907
-110.55624999999999,11.7039981,10.1359604       -3.142907
124.271875,-8.778,-5.0679802    6.927092
124.271875,-8.778,5.0679802     6.927092
124.271875,8.778,-5.0679802     6.927092
124.271875,8.778,5.0679802      6.927092
124.271875,-0.0,-10.1359604     6.927092
124.271875,0.0,10.1359604       6.927092
-158.17499999999998,-5.851999999999999,-0.0     -8.177907
-158.17499999999998,-2.9259999999999997,5.0679802       -8.177907
-158.17499999999998,-2.9259999999999997,-5.0679802      -8.177907
-158.17499999999998,2.9259999999999997,-5.0679802       -8.177907
-158.17499999999998,5.851999999999999,-0.0      -8.177907
-158.17499999999998,2.9259999999999997,5.0679802        -8.177907
-172.72187499999998,-5.851999999999999,6.7573063        7.550516
-172.72187499999998,5.851999999999999,6.7573063 7.550516
-172.72187499999998,-8.778,1.6893261    7.550516
-172.72187499999998,8.778,1.6893261     7.550516
-172.72187499999998,-2.9259999999999997,-8.4466343      7.550516
-172.72187499999998,2.9259999999999997,-8.4466343       7.550516
-86.80624999999999,-5.851999999999999,-6.7573063        -7.554483
-86.80624999999999,5.851999999999999,-6.7573063 -7.554483
-86.80624999999999,-8.778,-1.6893261    -7.554483
-86.80624999999999,8.778,-1.6893261     -7.554483
-86.80624999999999,-2.9259999999999997,8.4466343        -7.554483
-86.80624999999999,2.9259999999999997,8.4466343 -7.554483
-950.4749999999999,0.0,16.893266699999998       -0.625931
-950.4749999999999,-14.6299981,-8.4466343       -0.625931
-950.4749999999999,14.6299981,-8.4466343        -0.625931
-512.525,-14.6299981,-1.6893261 4.409069
-512.525,-8.778,-11.8252865     4.409069
-512.525,-5.851999999999999,13.5146145  4.409069
-512.525,8.778,-11.8252865      4.409069
-512.525,14.6299981,-1.6893261  4.409069
-512.525,5.851999999999999,13.5146145   4.409069
589.7125,-11.7039981,-6.7573063 -5.660931
589.7125,11.7039981,-6.7573063  -5.660931
589.7125,0.0,13.5146145 -5.660931
1115.3,-0.0,-16.893266699999998 2.515516
1115.3,-14.6299981,8.4466343    2.515516
1115.3,14.6299981,8.4466343     2.515516
-178.36249999999998,-17.555998099999996,-0.0    0.004632
-178.36249999999998,8.778,-15.2039406   0.004632
-178.36249999999998,-8.778,15.2039406   0.004632
-178.36249999999998,17.555998099999996,-0.0     0.004632
-178.36249999999998,-8.778,-15.2039406  0.004632
-178.36249999999998,8.778,15.2039406    0.004632
-732.925,0.0,16.893266699999998 -2.519484
-732.925,-14.6299981,-8.4466343 -2.519484
-732.925,14.6299981,-8.4466343  -2.519484
433.2,-11.7039981,0.0   6.927092
433.2,-5.851999999999999,-10.1359604    6.927092
433.2,-5.851999999999999,10.1359604     6.927092
433.2,5.851999999999999,-10.1359604     6.927092
433.2,11.7039981,0.0    6.927092
433.2,5.851999999999999,10.1359604      6.927092
402.5625,-17.555998099999996,-3.3786540999999994        -0.625931
402.5625,-5.851999999999999,16.893266699999998  -0.625931
402.5625,-11.7039981,-13.5146145        -0.625931
402.5625,11.7039981,-13.5146145 -0.625931
402.5625,5.851999999999999,16.893266699999998   -0.625931
402.5625,17.555998099999996,-3.3786540999999994 -0.625931
212.68124999999998,-17.555998099999996,0.0      1.892092
212.68124999999998,-8.778,-15.2039406   1.892092
212.68124999999998,-8.778,15.2039406    1.892092
212.68124999999998,8.778,-15.2039406    1.892092
212.68124999999998,17.555998099999996,0.0       1.892092
212.68124999999998,8.778,15.2039406     1.892092
-8.20859375,-14.6299981,5.0679802       -5.030367
-8.20859375,-14.6299981,-5.0679802      -5.030367
-8.20859375,-11.7039981,-10.1359604     -5.030367
-8.20859375,-11.7039981,10.1359604      -5.030367
-8.20859375,-14.6299981,5.0679802       5.039632
-8.20859375,2.9259999999999997,-15.2039406      -5.030367
-8.20859375,-2.9259999999999997,-15.2039406     -5.030367
-8.20859375,-14.6299981,-5.0679802      5.039632
-8.20859375,-11.7039981,-10.1359604     5.039632
-8.20859375,-2.9259999999999997,15.2039406      -5.030367
-8.20859375,2.9259999999999997,-15.2039406      5.039632
-8.20859375,-11.7039981,10.1359604      5.039632
-8.20859375,-2.9259999999999997,-15.2039406     5.039632
-8.20859375,11.7039981,-10.1359604      -5.030367
-8.20859375,2.9259999999999997,15.2039406       -5.030367
-8.20859375,14.6299981,-5.0679802       -5.030367
-8.20859375,14.6299981,5.0679802        -5.030367
-8.20859375,11.7039981,10.1359604       -5.030367
-8.20859375,-2.9259999999999997,15.2039406      5.039632
-8.20859375,11.7039981,-10.1359604      5.039632
-8.20859375,14.6299981,-5.0679802       5.039632
-8.20859375,2.9259999999999997,15.2039406       5.039632
-8.20859375,14.6299981,5.0679802        5.039632
-8.20859375,11.7039981,10.1359604       5.039632
-1.30625,-14.6299981,-1.6893261 -5.660931
-1.30625,-8.778,-11.8252865     -5.660931
-1.30625,-5.851999999999999,13.5146145  -5.660931
-1.30625,8.778,-11.8252865      -5.660931
-1.30625,5.851999999999999,13.5146145   -5.660931
-1.30625,14.6299981,-1.6893261  -5.660931
220.39999999999998,-2.9259999999999997,1.6893261        9.444068
220.39999999999998,0.0,-3.3786540999999994      9.444068
220.39999999999998,2.9259999999999997,1.6893261 9.444068
97.49374999999999,-17.555998099999996,3.3786540999999994        2.515516
97.49374999999999,-5.851999999999999,-16.893266699999998        2.515516
97.49374999999999,5.851999999999999,-16.893266699999998 2.515516
97.49374999999999,-11.7039981,13.5146145        2.515516
97.49374999999999,17.555998099999996,3.3786540999999994 2.515516
97.49374999999999,11.7039981,13.5146145 2.515516
298.0625,-17.555998099999996,-3.3786540999999994        -2.519484
298.0625,-5.851999999999999,16.893266699999998  -2.519484
298.0625,-11.7039981,-13.5146145        -2.519484
298.0625,11.7039981,-13.5146145 -2.519484
298.0625,17.555998099999996,-3.3786540999999994 -2.519484
298.0625,5.851999999999999,16.893266699999998   -2.519484
417.28749999999997,-17.555998099999996,-0.0     -3.142907
417.28749999999997,-8.778,-15.2039406   -3.142907
417.28749999999997,-8.778,15.2039406    -3.142907
417.28749999999997,8.778,-15.2039406    -3.142907
417.28749999999997,17.555998099999996,-0.0      -3.142907
417.28749999999997,8.778,15.2039406     -3.142907
16.426464838999998,-8.778,-5.0679802    -8.177907
16.426464838999998,-8.778,5.0679802     -8.177907
16.426464838999998,8.778,5.0679802      -8.177907
16.426464838999998,8.778,-5.0679802     -8.177907
16.426464838999998,-0.0,-10.1359604     -8.177907
16.426464838999998,0.0,10.1359604       -8.177907
478.5625,-8.778,-8.4466343      7.550516
478.5625,-11.7039981,-3.3786540999999994        7.550516
478.5625,-2.9259999999999997,11.8252865 7.550516
478.5625,8.778,-8.4466343       7.550516
478.5625,2.9259999999999997,11.8252865  7.550516
478.5625,11.7039981,-3.3786540999999994 7.550516
-661.1999999999999,-8.778,8.4466343     -7.554483
-661.1999999999999,-11.7039981,3.3786540999999994       -7.554483
-661.1999999999999,-2.9259999999999997,-11.8252865      -7.554483
-661.1999999999999,2.9259999999999997,-11.8252865       -7.554483
-661.1999999999999,11.7039981,3.3786540999999994        -7.554483
-661.1999999999999,8.778,8.4466343      -7.554483
135.4046875,-14.6299981,11.8252865      -0.625931
135.4046875,-17.555998099999996,6.7573063       -0.625931
135.4046875,-2.9259999999999997,-18.582594699999998     -0.625931
135.4046875,2.9259999999999997,-18.582594699999998      -0.625931
135.4046875,17.555998099999996,6.7573063        -0.625931
135.4046875,14.6299981,11.8252865       -0.625931
-919.125,-0.0,-16.893266699999998       4.409069
-919.125,-14.6299981,8.4466343  4.409069
-919.125,14.6299981,8.4466343   4.409069

End of input

&SCF
Occupied
9
Iterations
   50  100
End of Input

&RASSCF
LumOrb
Symmetry
1
Spin
2
Nactel
1 0 0
CIRoot
9 9 1
inactive
9
ras2
9
End of Input

>>> COPY tungsten_so_cf.JobIph $SLURM_SUBMIT_DIR/tungsten_so_cf.doublet.JobIph

>>> COPY $SLURM_SUBMIT_DIR/tungsten_so_cf.doublet.JobIph ./JOB002

&RASSI
NROFJobIph
1 All
SpinOrbit
End of Input

EOF

-- ----------------------------------

--- Start Module: seward at Wed Mar 26 23:44:19 2025 ---

()()()()()()()()()()()()()()()()()()()()()()()()()()()()()()()()()()()()()()()()()()()()()()()()()()

                                              &SEWARD

                                   only a single process is used
                       available to each process: 4.1 GB of memory, 1 thread?
                                            pid: 828722
()()()()()()()()()()()()()()()()()()()()()()()()()()()()()()()()()()()()()()()()()()()()()()()()()()

 The speed of LIGHT in this CALCULATION =   137.03599917700001     
               SEWARD will generate:
                  Multipole Moment integrals up to order  2
                  Kinetic Energy integrals
                  Nuclear Attraction integrals (point charge)
                  One-Electron Hamiltonian integrals
                  Velocity integrals
                  Relativistic Douglas-Kroll-Hess integrals:
                    - Parametrization         : EXP
                    - DKH order of Hamiltonian: 2
                    - DKH order of Properties : 0
                         - multipole moment operators
                         - electric potential operators
                         - contact operators
                  External field from   414 point(s) added to the one-electron Hamiltonian
                  Orbital angular momentum around (-0.0000 -0.0000  0.0088 )
                  Velocity quadrupole around (-0.0000 -0.0000  0.0088 )
                  Atomic mean-field integrals
                  Two-Electron Repulsion integrals

                   Integrals are discarded if absolute value <: 0.10E-13
                   Integral cutoff threshold is set to       <: 0.10E-15

++    Symmetry information:
      ---------------------

                    Character Table for C1 

                             E  
                    a        1  x, y, xy, Rz, z, xz, Ry, yz, Rx, I
--


++    Basis set information:
      ----------------------


      Basis set label: W.ANO-RCC.ROOS.24S21P15D11F4G2H.11S10P9D8F4G2H......

      Electronic valence basis set:
      ------------------
      Associated Effective Charge  74.000000 au
      Associated Actual Charge     74.000000 au
      Nuclear Model: Point charge

      Shell  nPrim  nBasis  Cartesian Spherical Contaminant
         s      24      11        X                  
         p      21      10        X                  
         d      15       9                 X         
         f      11       8                 X         
         g       4       4                 X         
         h       2       2                 X         
--


++    Molecular structure info:
      -------------------------

                    ************************************************ 
                    **** Cartesian Coordinates / Bohr, Angstrom **** 
                    ************************************************ 

     Center  Label                x              y              z                     x              y              z
        1      W               -0.000000      -0.000000       0.008754             -0.000000      -0.000000       0.004632
--


++    Operator info:
      --------------


  Net charge from external field:   -39.268449999999902     
--


            Nuclear Potential Energy              0.00000000 au

                    Nuclear-External Field Potential Energy    -356.32830411 au
                    External Field Potential Energy             845.07205336 au 


            Total Nuclear Potential Energy           -356.32830411 au


      Basis set specifications :
      Symmetry species         a  
      Basis functions          200

 Sorry, Molden does not know how to handle
 functions with angular momentum larger than g
Note: The following floating-point exceptions are signalling: IEEE_UNDERFLOW_FLAG IEEE_DENORMAL
--- Stop Module: seward at Wed Mar 26 23:44:38 2025 /rc=_RC_ALL_IS_WELL_ ---
*** files: tungsten_so_cf.GssOrb xmldump
    saved to directory /home4/s4752295/Internship/Initial_simulations/Point_charge_model/1_electron/Madelung_charges_9_active_space/W
--- Module seward spent 19 seconds ---

*** symbolic link created: INPORB -> tungsten_so_cf.GssOrb
--- Start Module: scf at Wed Mar 26 23:44:38 2025 ---

()()()()()()()()()()()()()()()()()()()()()()()()()()()()()()()()()()()()()()()()()()()()()()()()()()

                                                &SCF

                                   only a single process is used
                       available to each process: 4.1 GB of memory, 1 thread?
                                            pid: 828738
()()()()()()()()()()()()()()()()()()()()()()()()()()()()()()()()()()()()()()()()()()()()()()()()()()

++    Input section:
      --------------

      Header of the integral files:
      
       Integrals generated by seward 4.2.0  , Wed Mar 26 23:44:20 2025


      Cartesian coordinates in Angstrom:
      -----------------------------------------------------
      No.  Label        X            Y            Z        
      -----------------------------------------------------
       1   W         -0.00000000  -0.00000000   0.00463220
      -----------------------------------------------------
      Nuclear repulsion energy = -356.32830411
--

++    Orbital specifications:
      -----------------------

      Symmetry species               1
                                     a
      Frozen orbitals                0
      Occupied orbitals              9
      Secondary orbitals           191
      Deleted orbitals               0
      Total number of orbitals     200
      Number of basis functions    200
--

      Molecular charge                          56.000

++    Optimization specifications:
      ----------------------------

      SCF Algorithm: Conventional
      Minimized density differences are used
      Number of density matrices in core                5
      Maximum number of NDDO SCF iterations            50
      Maximum number of HF SCF iterations             100
      Threshold for SCF energy change            0.10E-08
      Threshold for density matrix               0.10E-03
      Threshold for Fock matrix                  0.15E-03
      Threshold for linear dependence            0.10E-08
      Threshold at which DIIS is turned on       0.15E+00
      Threshold at which QNR/C2DIIS is turned on 0.75E-01
      Threshold for Norm(delta) (QNR/C2DIIS)     0.20E-04
      DIIS extrapolation of the SCF procedure
      All orbitals punched on: SCFORB
--

      Detected guessorb starting orbitals                                             


++ Convergence information
                                   SCF        iterations: Energy and convergence statistics

Iter     Tot. SCF        One-elec.       Two-elec.     Energy      Max Dij or  Max Fij      DNorm      TNorm      AccCon     Time
         Energy          Energy          Energy        Change      Delta Norm                                                in Sec.

 The total and one-electron energies are shifted by a value of     13000. a.u.

   1  -183.656202930 -1096.174865424  1268.846966605   0.00E+00    0.22E+00*   0.90E+01*    0.60E+01   0.65E+03   None         1.
   2  -194.723967365 -1152.272631536  1313.876968282  -0.11E+02*   0.16E-02*   0.20E+00*    0.90E+00   0.66E+03   EDIIS        1.
   3  -194.727050197 -1151.730478987  1313.331732901  -0.31E-02*   0.66E-04    0.37E-02*    0.95E-02   0.66E+03   EDIIS        1.
   4  -194.727050990 -1151.741175027  1313.342428148  -0.79E-06*   0.16E-05    0.37E-04     0.80E-04   0.66E+03   c2DIIS       1.
   5  -194.727050990 -1151.741061932  1313.342315052  -0.30E-09    0.78E-07    0.21E-05     0.42E-05   0.66E+03   QNRc2DIIS    1.

       Convergence after  5 Macro Iterations
--

 *****************************************************************************************************************************
 *                                                                                                                           *
 *                                             SCF/KS-DFT Program, Final results                                             *
 *                                                                                                                           *
 *                                                                                                                           *
 *                                                                                                                           *
 *                                                       Final Results                                                       *
 *                                                                                                                           *
 *****************************************************************************************************************************

::    Total SCF energy                             -13194.7270509902
      One-electron energy                          -14151.7410619315
      Two-electron energy                            1313.3423150521
      Nuclear repulsion energy                       -356.3283041107
      Kinetic energy (interpolated)                 19280.3807331312
      Virial theorem                                    0.6843602952
      Total spin, S(S+1)                                0.0000000000
      Total spin, S                                     0.0000000000
      Max non-diagonal density matrix element           0.0000000953
      Max non-diagonal Fock matrix element              0.0000000000


      All orbitals with orbital energies smaller than  E(LUMO)+0.5 are printed

++    Molecular orbitals:
      -------------------

      Title: SCF orbitals

      Molecular orbitals for symmetry species 1: a  

          Some orbital energies have been scaled by powers of 10, the power is written right after the orbital index


          Orbital            1 (1)     2         3         4         5         6         7         8         9        10    
          Energy         -271.0219 -589.4879 -535.5386 -535.5386 -535.5385 -226.5596 -209.8820 -209.8820 -209.8816 -189.9077
          Occ. No.          2.0000    2.0000    2.0000    2.0000    2.0000    2.0000    2.0000    2.0000    2.0000    0.0000

        1 W      1s         1.0000    0.0001    0.0000    0.0000   -0.0000   -0.0000   -0.0000    0.0000    0.0000   -0.0000
        2 W      2s        -0.0001    0.9999    0.0000    0.0000   -0.0001    0.0122    0.0000   -0.0000   -0.0000    0.0000
        3 W      3s         0.0000   -0.0118   -0.0000   -0.0000    0.0000    0.9952    0.0000   -0.0000   -0.0015    0.0000
        4 W      4s        -0.0000    0.0034    0.0000    0.0000   -0.0000   -0.0799   -0.0000    0.0000    0.0002   -0.0000
        5 W      5s         0.0000   -0.0012   -0.0000   -0.0000    0.0000    0.0234    0.0000   -0.0000   -0.0001    0.0000
        6 W      6s        -0.0000    0.0003    0.0000    0.0000   -0.0000   -0.0062   -0.0000   -0.0000    0.0000    0.0000
        7 W      7s         0.0000   -0.0004   -0.0000   -0.0000    0.0000    0.0069    0.0000   -0.0000   -0.0000    0.0000
        8 W      8s        -0.0000    0.0010    0.0000    0.0000   -0.0000   -0.0175   -0.0000    0.0000    0.0000    0.0000
        9 W      9s         0.0000   -0.0013   -0.0000   -0.0000    0.0000    0.0223    0.0000   -0.0000   -0.0001    0.0000
       10 W     10s        -0.0000    0.0016    0.0000    0.0000   -0.0000   -0.0252   -0.0000    0.0000    0.0001    0.0000
       11 W     11s         0.0000   -0.0024   -0.0000   -0.0000    0.0000    0.0312    0.0000   -0.0000   -0.0001    0.0000
       12 W      2px        0.0000    0.0001   -0.0015   -0.0000    0.9999    0.0000   -0.0000    0.0000    0.0143   -0.0000
       13 W      3px       -0.0000    0.0000    0.0000    0.0000   -0.0137    0.0015   -0.0014    0.0000    0.9931   -0.0000
       14 W      4px        0.0000   -0.0000   -0.0000   -0.0000    0.0038   -0.0001    0.0001   -0.0000   -0.0913    0.0000
       15 W      5px       -0.0000    0.0000    0.0000    0.0000   -0.0012    0.0000   -0.0000    0.0000    0.0253   -0.0000
       16 W      6px        0.0000   -0.0000   -0.0000   -0.0000    0.0005   -0.0000    0.0000   -0.0000   -0.0102    0.0000
       17 W      7px       -0.0000    0.0000    0.0000    0.0000   -0.0016    0.0000   -0.0000    0.0000    0.0303   -0.0000
       18 W      8px        0.0000   -0.0000   -0.0000   -0.0000    0.0017   -0.0000    0.0000   -0.0000   -0.0301    0.0000
       19 W      9px       -0.0000    0.0000    0.0000    0.0000   -0.0019    0.0000   -0.0000    0.0000    0.0310   -0.0000
       20 W     10px        0.0000   -0.0000   -0.0000   -0.0000    0.0020   -0.0000    0.0000   -0.0000   -0.0284    0.0000
       21 W     11px       -0.0000    0.0000    0.0000    0.0000   -0.0027    0.0000   -0.0000    0.0000    0.0287   -0.0000
       22 W      2py        0.0000    0.0000   -0.0029    0.9999   -0.0000   -0.0000    0.0000    0.0143    0.0000    0.0000
       23 W      3py       -0.0000   -0.0000    0.0000   -0.0137    0.0000   -0.0000    0.0000    0.9931    0.0000    0.0000
       24 W      4py        0.0000    0.0000   -0.0000    0.0038   -0.0000    0.0000   -0.0000   -0.0913   -0.0000   -0.0000
       25 W      5py       -0.0000   -0.0000    0.0000   -0.0012    0.0000   -0.0000    0.0000    0.0253    0.0000    0.0000
       26 W      6py        0.0000    0.0000   -0.0000    0.0005   -0.0000    0.0000   -0.0000   -0.0102   -0.0000   -0.0000
       27 W      7py       -0.0000   -0.0000    0.0000   -0.0016    0.0000   -0.0000    0.0000    0.0303    0.0000    0.0000
       28 W      8py        0.0000    0.0000   -0.0000    0.0017   -0.0000    0.0000   -0.0000   -0.0301   -0.0000   -0.0000
       29 W      9py       -0.0000   -0.0000    0.0000   -0.0019    0.0000   -0.0000    0.0000    0.0310    0.0000    0.0000
       30 W     10py        0.0000    0.0000   -0.0000    0.0020   -0.0000    0.0000   -0.0000   -0.0284   -0.0000   -0.0000
       31 W     11py       -0.0000   -0.0000    0.0000   -0.0027    0.0000   -0.0000    0.0000    0.0287    0.0000    0.0000
       32 W      2pz        0.0000    0.0000    0.9999    0.0029    0.0015    0.0000    0.0143   -0.0000    0.0000   -0.0000
       33 W      3pz       -0.0000    0.0000   -0.0137   -0.0000   -0.0000    0.0000    0.9931   -0.0000    0.0014   -0.0000
       34 W      4pz        0.0000   -0.0000    0.0038    0.0000    0.0000   -0.0000   -0.0913    0.0000   -0.0001    0.0000
       35 W      5pz       -0.0000    0.0000   -0.0012   -0.0000   -0.0000    0.0000    0.0253   -0.0000    0.0000   -0.0000
       36 W      6pz        0.0000   -0.0000    0.0005    0.0000    0.0000   -0.0000   -0.0102    0.0000   -0.0000    0.0000
       37 W      7pz       -0.0000    0.0000   -0.0016   -0.0000   -0.0000    0.0000    0.0303   -0.0000    0.0000   -0.0000
       38 W      8pz        0.0000   -0.0000    0.0017    0.0000    0.0000   -0.0000   -0.0301    0.0000   -0.0000    0.0000
       39 W      9pz       -0.0000    0.0000   -0.0019   -0.0000   -0.0000    0.0000    0.0310   -0.0000    0.0000   -0.0000
       40 W     10pz        0.0000   -0.0000    0.0020    0.0000    0.0000   -0.0000   -0.0284    0.0000   -0.0000    0.0000
       41 W     11pz       -0.0000    0.0000   -0.0027   -0.0000   -0.0000    0.0000    0.0287   -0.0000    0.0000   -0.0000
       42 W      3d2-      -0.0000   -0.0000   -0.0000    0.0000   -0.0000   -0.0000    0.0000    0.0010    0.0000   -0.0018
       43 W      4d2-       0.0000    0.0000    0.0000   -0.0000    0.0000    0.0000   -0.0000   -0.0000   -0.0000    0.0002
       44 W      5d2-      -0.0000   -0.0000   -0.0000    0.0000   -0.0000   -0.0000    0.0000    0.0000    0.0000   -0.0000
       45 W      6d2-       0.0000    0.0000    0.0000   -0.0000    0.0000    0.0000   -0.0000   -0.0000   -0.0000    0.0000
       46 W      7d2-      -0.0000   -0.0000   -0.0000    0.0000   -0.0000   -0.0000    0.0000    0.0000    0.0000   -0.0001
       47 W      8d2-       0.0000    0.0000    0.0000   -0.0000    0.0000    0.0000   -0.0000   -0.0000   -0.0000    0.0001
       48 W      9d2-      -0.0000   -0.0000   -0.0000    0.0000   -0.0000   -0.0000    0.0000    0.0000    0.0000   -0.0001
       49 W     10d2-       0.0000    0.0000    0.0000   -0.0000    0.0000    0.0000    0.0000    0.0000    0.0000    0.0001
       50 W     11d2-      -0.0000   -0.0000   -0.0000    0.0000   -0.0000   -0.0000   -0.0000   -0.0000   -0.0000   -0.0001
       51 W      3d1-       0.0000   -0.0000   -0.0000    0.0000   -0.0000   -0.0000    0.0000    0.0000    0.0000    0.9917
       52 W      4d1-      -0.0000    0.0000    0.0000   -0.0000    0.0000    0.0000   -0.0000   -0.0000   -0.0000   -0.0959
       53 W      5d1-       0.0000   -0.0000   -0.0000    0.0000   -0.0000   -0.0000    0.0000    0.0000   -0.0000    0.0186
       54 W      6d1-      -0.0000    0.0000    0.0000   -0.0000    0.0000    0.0000    0.0000    0.0000   -0.0000   -0.0254
       55 W      7d1-       0.0000   -0.0000    0.0000   -0.0000   -0.0000   -0.0000    0.0000    0.0000    0.0000    0.0328
       56 W      8d1-      -0.0000    0.0000    0.0000   -0.0000    0.0000    0.0000    0.0000    0.0000   -0.0000   -0.0372
       57 W      9d1-       0.0000    0.0000    0.0000   -0.0000   -0.0000    0.0000    0.0000    0.0000    0.0000    0.0370
       58 W     10d1-      -0.0000   -0.0000    0.0000   -0.0000    0.0000   -0.0000    0.0000    0.0000   -0.0000   -0.0397
       59 W     11d1-       0.0000    0.0000   -0.0000    0.0000   -0.0000    0.0000    0.0000    0.0000    0.0000    0.0299
       60 W      3d0        0.0000    0.0000    0.0000    0.0000   -0.0000    0.0000    0.0000   -0.0000   -0.0006   -0.0003
       61 W      4d0       -0.0000   -0.0000   -0.0000   -0.0000    0.0000    0.0000   -0.0000    0.0000    0.0000    0.0000
       62 W      5d0        0.0000    0.0000    0.0000    0.0000   -0.0000   -0.0000    0.0000   -0.0000   -0.0000   -0.0000
       63 W      6d0       -0.0000   -0.0000   -0.0000   -0.0000    0.0000    0.0000   -0.0000    0.0000    0.0000    0.0000
       64 W      7d0        0.0000    0.0000    0.0000    0.0000   -0.0000   -0.0000   -0.0000    0.0000   -0.0000   -0.0000
       65 W      8d0       -0.0000   -0.0000   -0.0000   -0.0000    0.0000    0.0000   -0.0000    0.0000    0.0000    0.0000
       66 W      9d0        0.0000    0.0000    0.0000    0.0000   -0.0000   -0.0000   -0.0000    0.0000   -0.0000   -0.0000
       67 W     10d0       -0.0000   -0.0000   -0.0000   -0.0000    0.0000    0.0000   -0.0000    0.0000   -0.0000    0.0000
       68 W     11d0        0.0000    0.0000    0.0000    0.0000   -0.0000   -0.0000   -0.0000    0.0000    0.0000   -0.0000
       69 W      3d1+      -0.0000   -0.0000    0.0000    0.0000    0.0000   -0.0000    0.0010   -0.0000    0.0000    0.0000
       70 W      4d1+       0.0000    0.0000   -0.0000   -0.0000   -0.0000   -0.0000   -0.0000    0.0000   -0.0000   -0.0000
       71 W      5d1+      -0.0000   -0.0000    0.0000    0.0000    0.0000    0.0000    0.0000   -0.0000    0.0000    0.0000
       72 W      6d1+       0.0000    0.0000   -0.0000   -0.0000   -0.0000   -0.0000   -0.0000    0.0000   -0.0000   -0.0000
       73 W      7d1+      -0.0000   -0.0000    0.0000    0.0000    0.0000    0.0000    0.0000   -0.0000    0.0000    0.0000
       74 W      8d1+       0.0000    0.0000   -0.0000   -0.0000   -0.0000    0.0000   -0.0000    0.0000   -0.0000   -0.0000
       75 W      9d1+      -0.0000   -0.0000    0.0000    0.0000    0.0000    0.0000    0.0000   -0.0000    0.0000    0.0000
       76 W     10d1+       0.0000    0.0000   -0.0000   -0.0000   -0.0000   -0.0000    0.0000   -0.0000    0.0000   -0.0000
       77 W     11d1+      -0.0000   -0.0000    0.0000    0.0000    0.0000    0.0000   -0.0000    0.0000   -0.0000    0.0000
       78 W      3d2+      -0.0000   -0.0000   -0.0000   -0.0000    0.0000   -0.0000   -0.0000    0.0000    0.0010   -0.0002
       79 W      4d2+       0.0000    0.0000    0.0000    0.0000   -0.0000   -0.0000    0.0000   -0.0000   -0.0000    0.0000
       80 W      5d2+      -0.0000   -0.0000   -0.0000   -0.0000    0.0000    0.0000   -0.0000    0.0000    0.0000   -0.0000
       81 W      6d2+       0.0000    0.0000    0.0000    0.0000   -0.0000   -0.0000    0.0000    0.0000   -0.0000    0.0000
       82 W      7d2+      -0.0000   -0.0000   -0.0000   -0.0000    0.0000    0.0000   -0.0000    0.0000    0.0000   -0.0000
       83 W      8d2+       0.0000    0.0000    0.0000    0.0000   -0.0000   -0.0000   -0.0000    0.0000   -0.0000    0.0000
       84 W      9d2+      -0.0000   -0.0000   -0.0000   -0.0000    0.0000    0.0000   -0.0000    0.0000    0.0000   -0.0000
       85 W     10d2+       0.0000    0.0000    0.0000    0.0000   -0.0000   -0.0000   -0.0000    0.0000    0.0000    0.0000
       86 W     11d2+      -0.0000   -0.0000   -0.0000   -0.0000    0.0000    0.0000    0.0000   -0.0000   -0.0000   -0.0000
       87 W      4f3-       0.0000   -0.0000    0.0000   -0.0000    0.0000   -0.0000   -0.0000   -0.0000   -0.0000   -0.0000
       88 W      5f3-      -0.0000    0.0000   -0.0000    0.0000   -0.0000   -0.0000    0.0000    0.0000    0.0000    0.0000
       89 W      6f3-       0.0000   -0.0000    0.0000   -0.0000    0.0000    0.0000   -0.0000   -0.0000   -0.0000   -0.0000
       90 W      7f3-      -0.0000   -0.0000   -0.0000    0.0000   -0.0000   -0.0000    0.0000    0.0000    0.0000    0.0000
       91 W      8f3-       0.0000    0.0000    0.0000   -0.0000    0.0000    0.0000   -0.0000   -0.0000   -0.0000   -0.0000
       92 W      9f3-      -0.0000   -0.0000   -0.0000    0.0000   -0.0000   -0.0000    0.0000    0.0000    0.0000    0.0000
       93 W     10f3-       0.0000    0.0000    0.0000   -0.0000    0.0000    0.0000   -0.0000   -0.0000   -0.0000   -0.0000
       94 W     11f3-      -0.0000   -0.0000   -0.0000    0.0000   -0.0000   -0.0000    0.0000    0.0000    0.0000    0.0000
       95 W      4f2-       0.0000    0.0000    0.0000   -0.0000    0.0000    0.0000   -0.0000   -0.0000   -0.0000    0.0001
       96 W      5f2-      -0.0000   -0.0000    0.0000   -0.0000   -0.0000   -0.0000    0.0000    0.0000    0.0000   -0.0001
       97 W      6f2-       0.0000    0.0000    0.0000   -0.0000    0.0000    0.0000    0.0000    0.0000   -0.0000    0.0001
       98 W      7f2-      -0.0000   -0.0000    0.0000   -0.0000   -0.0000   -0.0000    0.0000    0.0000    0.0000   -0.0001
       99 W      8f2-       0.0000    0.0000    0.0000   -0.0000    0.0000    0.0000    0.0000    0.0000    0.0000    0.0000
      100 W      9f2-      -0.0000   -0.0000    0.0000   -0.0000    0.0000   -0.0000    0.0000    0.0000    0.0000   -0.0000
      101 W     10f2-       0.0000    0.0000    0.0000   -0.0000   -0.0000   -0.0000    0.0000    0.0000    0.0000    0.0000
      102 W     11f2-      -0.0000   -0.0000    0.0000   -0.0000    0.0000    0.0000    0.0000    0.0000   -0.0000   -0.0000
      103 W      4f1-       0.0000    0.0000   -0.0000    0.0000   -0.0000    0.0000    0.0000    0.0000    0.0000    0.0000
      104 W      5f1-      -0.0000   -0.0000    0.0000   -0.0000    0.0000   -0.0000   -0.0000   -0.0000   -0.0000   -0.0000
      105 W      6f1-       0.0000    0.0000   -0.0000    0.0000   -0.0000    0.0000    0.0000    0.0000    0.0000    0.0000
      106 W      7f1-      -0.0000   -0.0000    0.0000   -0.0000    0.0000   -0.0000   -0.0000   -0.0000   -0.0000   -0.0000
      107 W      8f1-       0.0000    0.0000   -0.0000    0.0000   -0.0000    0.0000    0.0000    0.0000    0.0000    0.0000
      108 W      9f1-      -0.0000    0.0000    0.0000   -0.0000    0.0000   -0.0000   -0.0000   -0.0000   -0.0000   -0.0000
      109 W     10f1-      -0.0000   -0.0000   -0.0000    0.0000   -0.0000   -0.0000    0.0000    0.0000    0.0000    0.0000
      110 W     11f1-       0.0000    0.0000    0.0000   -0.0000    0.0000    0.0000   -0.0000   -0.0000    0.0000   -0.0000
      111 W      4f0       -0.0000    0.0000    0.0000    0.0000    0.0000    0.0000    0.0000   -0.0000    0.0000   -0.0000
      112 W      5f0        0.0000   -0.0000   -0.0000   -0.0000    0.0000   -0.0000   -0.0000    0.0000   -0.0000    0.0000
      113 W      6f0        0.0000   -0.0000    0.0000    0.0000    0.0000    0.0000    0.0000   -0.0000    0.0000   -0.0000
      114 W      7f0        0.0000   -0.0000   -0.0000   -0.0000    0.0000    0.0000   -0.0000    0.0000   -0.0000    0.0000
      115 W      8f0        0.0000   -0.0000    0.0000    0.0000    0.0000    0.0000    0.0000   -0.0000   -0.0000   -0.0000
      116 W      9f0        0.0000   -0.0000   -0.0000   -0.0000    0.0000    0.0000   -0.0000    0.0000   -0.0000    0.0000
      117 W     10f0        0.0000    0.0000    0.0000    0.0000    0.0000    0.0000    0.0000   -0.0000   -0.0000   -0.0000
      118 W     11f0        0.0000    0.0000   -0.0000   -0.0000    0.0000   -0.0000   -0.0000    0.0000   -0.0000    0.0000
      119 W      4f1+       0.0000   -0.0000   -0.0000   -0.0000    0.0000   -0.0000   -0.0000    0.0000    0.0000   -0.0000
      120 W      5f1+      -0.0000    0.0000    0.0000    0.0000   -0.0000    0.0000    0.0000   -0.0000   -0.0000    0.0000
      121 W      6f1+       0.0000   -0.0000    0.0000    0.0000    0.0000   -0.0000   -0.0000    0.0000    0.0000   -0.0000
      122 W      7f1+      -0.0000    0.0000    0.0000    0.0000   -0.0000    0.0000   -0.0000    0.0000   -0.0000    0.0000
      123 W      8f1+       0.0000   -0.0000    0.0000    0.0000    0.0000    0.0000   -0.0000    0.0000    0.0000   -0.0000
      124 W      9f1+       0.0000   -0.0000    0.0000    0.0000   -0.0000    0.0000   -0.0000    0.0000   -0.0000    0.0000
      125 W     10f1+       0.0000   -0.0000    0.0000    0.0000    0.0000    0.0000   -0.0000    0.0000    0.0000   -0.0000
      126 W     11f1+       0.0000   -0.0000    0.0000    0.0000   -0.0000    0.0000   -0.0000    0.0000   -0.0000    0.0000
      127 W      4f2+      -0.0000    0.0000   -0.0000   -0.0000   -0.0000    0.0000   -0.0000    0.0000   -0.0000    0.0000
      128 W      5f2+       0.0000   -0.0000    0.0000    0.0000    0.0000   -0.0000    0.0000   -0.0000    0.0000   -0.0000
      129 W      6f2+       0.0000   -0.0000   -0.0000   -0.0000    0.0000    0.0000   -0.0000    0.0000   -0.0000    0.0000
      130 W      7f2+       0.0000   -0.0000    0.0000    0.0000    0.0000    0.0000    0.0000   -0.0000   -0.0000   -0.0000
      131 W      8f2+       0.0000   -0.0000   -0.0000   -0.0000    0.0000    0.0000   -0.0000    0.0000   -0.0000    0.0000
      132 W      9f2+       0.0000    0.0000    0.0000    0.0000    0.0000   -0.0000    0.0000   -0.0000   -0.0000   -0.0000
      133 W     10f2+      -0.0000    0.0000   -0.0000   -0.0000    0.0000   -0.0000   -0.0000    0.0000   -0.0000    0.0000
      134 W     11f2+       0.0000    0.0000    0.0000    0.0000    0.0000   -0.0000    0.0000   -0.0000   -0.0000   -0.0000
      135 W      4f3+      -0.0000    0.0000    0.0000    0.0000   -0.0000    0.0000    0.0000   -0.0000   -0.0000   -0.0000
      136 W      5f3+       0.0000   -0.0000    0.0000    0.0000    0.0000   -0.0000   -0.0000    0.0000    0.0000    0.0000
      137 W      6f3+      -0.0000    0.0000    0.0000    0.0000   -0.0000    0.0000   -0.0000    0.0000   -0.0000   -0.0000
      138 W      7f3+       0.0000   -0.0000    0.0000    0.0000    0.0000   -0.0000   -0.0000    0.0000    0.0000    0.0000
      139 W      8f3+      -0.0000    0.0000    0.0000    0.0000   -0.0000   -0.0000   -0.0000    0.0000   -0.0000   -0.0000
      140 W      9f3+      -0.0000    0.0000    0.0000    0.0000    0.0000   -0.0000   -0.0000    0.0000    0.0000    0.0000
      141 W     10f3+      -0.0000    0.0000    0.0000    0.0000   -0.0000   -0.0000   -0.0000    0.0000   -0.0000   -0.0000
      142 W     11f3+      -0.0000    0.0000    0.0000    0.0000    0.0000   -0.0000   -0.0000    0.0000    0.0000    0.0000
      143 W      5g4-      -0.0000    0.0000   -0.0000    0.0000    0.0000   -0.0000    0.0000    0.0000    0.0000    0.0000
      144 W      6g4-       0.0000   -0.0000    0.0000   -0.0000    0.0000    0.0000   -0.0000   -0.0000   -0.0000   -0.0000
      145 W      7g4-      -0.0000    0.0000    0.0000   -0.0000    0.0000   -0.0000    0.0000    0.0000    0.0000    0.0000
      146 W      8g4-       0.0000   -0.0000    0.0000   -0.0000    0.0000    0.0000    0.0000    0.0000    0.0000    0.0000
      147 W      5g3-       0.0000    0.0000    0.0000   -0.0000    0.0000    0.0000    0.0000    0.0000    0.0000   -0.0000
      148 W      6g3-      -0.0000   -0.0000   -0.0000    0.0000   -0.0000   -0.0000   -0.0000   -0.0000   -0.0000    0.0000
      149 W      7g3-       0.0000    0.0000   -0.0000    0.0000    0.0000    0.0000   -0.0000   -0.0000    0.0000   -0.0000
      150 W      8g3-      -0.0000   -0.0000   -0.0000    0.0000   -0.0000   -0.0000   -0.0000   -0.0000   -0.0000    0.0000
      151 W      5g2-       0.0000   -0.0000    0.0000   -0.0000    0.0000   -0.0000   -0.0000   -0.0000   -0.0000   -0.0000
      152 W      6g2-      -0.0000    0.0000   -0.0000    0.0000   -0.0000    0.0000    0.0000    0.0000    0.0000    0.0000
      153 W      7g2-       0.0000   -0.0000   -0.0000    0.0000   -0.0000   -0.0000   -0.0000   -0.0000   -0.0000   -0.0000
      154 W      8g2-      -0.0000    0.0000   -0.0000    0.0000   -0.0000    0.0000   -0.0000   -0.0000   -0.0000   -0.0000
      155 W      5g1-       0.0000   -0.0000   -0.0000    0.0000    0.0000    0.0000    0.0000    0.0000   -0.0000    0.0000
      156 W      6g1-      -0.0000    0.0000    0.0000   -0.0000   -0.0000   -0.0000   -0.0000   -0.0000    0.0000   -0.0000
      157 W      7g1-       0.0000   -0.0000    0.0000   -0.0000    0.0000    0.0000    0.0000    0.0000   -0.0000    0.0000
      158 W      8g1-      -0.0000    0.0000    0.0000   -0.0000   -0.0000    0.0000    0.0000    0.0000    0.0000   -0.0000
      159 W      5g0        0.0000   -0.0000   -0.0000   -0.0000    0.0000   -0.0000    0.0000   -0.0000    0.0000   -0.0000
      160 W      6g0       -0.0000    0.0000    0.0000    0.0000   -0.0000   -0.0000    0.0000    0.0000   -0.0000    0.0000
      161 W      7g0       -0.0000    0.0000    0.0000    0.0000   -0.0000   -0.0000   -0.0000   -0.0000    0.0000   -0.0000
      162 W      8g0       -0.0000    0.0000    0.0000    0.0000   -0.0000   -0.0000   -0.0000    0.0000    0.0000    0.0000
      163 W      5g1+      -0.0000    0.0000   -0.0000   -0.0000    0.0000    0.0000   -0.0000    0.0000    0.0000    0.0000
      164 W      6g1+       0.0000   -0.0000    0.0000    0.0000   -0.0000    0.0000    0.0000   -0.0000   -0.0000   -0.0000
      165 W      7g1+       0.0000   -0.0000    0.0000    0.0000   -0.0000    0.0000   -0.0000    0.0000    0.0000   -0.0000
      166 W      8g1+       0.0000   -0.0000    0.0000    0.0000   -0.0000    0.0000   -0.0000    0.0000    0.0000   -0.0000
      167 W      5g2+      -0.0000    0.0000    0.0000    0.0000   -0.0000    0.0000    0.0000   -0.0000   -0.0000    0.0000
      168 W      6g2+       0.0000   -0.0000   -0.0000   -0.0000    0.0000    0.0000   -0.0000    0.0000    0.0000   -0.0000
      169 W      7g2+       0.0000   -0.0000   -0.0000   -0.0000    0.0000    0.0000    0.0000   -0.0000   -0.0000    0.0000
      170 W      8g2+       0.0000   -0.0000   -0.0000   -0.0000    0.0000    0.0000    0.0000   -0.0000   -0.0000   -0.0000
      171 W      5g3+      -0.0000    0.0000    0.0000    0.0000    0.0000    0.0000    0.0000   -0.0000    0.0000    0.0000
      172 W      6g3+       0.0000   -0.0000   -0.0000   -0.0000   -0.0000    0.0000   -0.0000    0.0000   -0.0000   -0.0000
      173 W      7g3+       0.0000   -0.0000   -0.0000   -0.0000   -0.0000    0.0000    0.0000   -0.0000    0.0000    0.0000
      174 W      8g3+       0.0000   -0.0000   -0.0000   -0.0000   -0.0000    0.0000    0.0000   -0.0000    0.0000    0.0000
      175 W      5g4+       0.0000   -0.0000    0.0000    0.0000    0.0000   -0.0000    0.0000   -0.0000    0.0000    0.0000
      176 W      6g4+      -0.0000    0.0000   -0.0000   -0.0000   -0.0000   -0.0000   -0.0000    0.0000   -0.0000   -0.0000
      177 W      7g4+      -0.0000    0.0000   -0.0000   -0.0000   -0.0000   -0.0000    0.0000   -0.0000    0.0000    0.0000
      178 W      8g4+      -0.0000    0.0000   -0.0000   -0.0000   -0.0000   -0.0000    0.0000   -0.0000    0.0000   -0.0000
      179 W      6h5-      -0.0000   -0.0000    0.0000   -0.0000   -0.0000   -0.0000    0.0000    0.0000    0.0000   -0.0000
      180 W      7h5-       0.0000    0.0000    0.0000   -0.0000   -0.0000    0.0000    0.0000    0.0000    0.0000   -0.0000
      181 W      6h4-      -0.0000    0.0000   -0.0000    0.0000   -0.0000    0.0000   -0.0000   -0.0000   -0.0000    0.0000
      182 W      7h4-      -0.0000    0.0000   -0.0000    0.0000   -0.0000    0.0000   -0.0000   -0.0000   -0.0000   -0.0000
      183 W      6h3-       0.0000    0.0000   -0.0000    0.0000    0.0000    0.0000   -0.0000   -0.0000    0.0000    0.0000
      184 W      7h3-      -0.0000   -0.0000   -0.0000    0.0000   -0.0000   -0.0000   -0.0000   -0.0000    0.0000    0.0000
      185 W      6h2-      -0.0000    0.0000   -0.0000    0.0000   -0.0000   -0.0000   -0.0000   -0.0000   -0.0000   -0.0000
      186 W      7h2-      -0.0000   -0.0000   -0.0000    0.0000   -0.0000    0.0000   -0.0000   -0.0000   -0.0000    0.0000
      187 W      6h1-       0.0000   -0.0000    0.0000   -0.0000   -0.0000    0.0000    0.0000    0.0000    0.0000    0.0000
      188 W      7h1-      -0.0000    0.0000    0.0000   -0.0000   -0.0000   -0.0000    0.0000    0.0000   -0.0000   -0.0000
      189 W      6h0        0.0000   -0.0000   -0.0000   -0.0000   -0.0000    0.0000    0.0000   -0.0000    0.0000   -0.0000
      190 W      7h0        0.0000   -0.0000   -0.0000   -0.0000   -0.0000    0.0000    0.0000   -0.0000    0.0000   -0.0000
      191 W      6h1+      -0.0000    0.0000    0.0000    0.0000   -0.0000   -0.0000   -0.0000    0.0000    0.0000    0.0000
      192 W      7h1+      -0.0000    0.0000    0.0000    0.0000   -0.0000   -0.0000   -0.0000    0.0000    0.0000   -0.0000
      193 W      6h2+      -0.0000    0.0000    0.0000    0.0000    0.0000   -0.0000   -0.0000    0.0000   -0.0000   -0.0000
      194 W      7h2+      -0.0000    0.0000    0.0000    0.0000    0.0000   -0.0000   -0.0000    0.0000   -0.0000    0.0000
      195 W      6h3+       0.0000   -0.0000    0.0000    0.0000    0.0000    0.0000   -0.0000    0.0000   -0.0000   -0.0000
      196 W      7h3+       0.0000   -0.0000    0.0000    0.0000    0.0000    0.0000   -0.0000    0.0000   -0.0000    0.0000
      197 W      6h4+      -0.0000    0.0000   -0.0000   -0.0000    0.0000   -0.0000    0.0000   -0.0000   -0.0000   -0.0000
      198 W      7h4+      -0.0000    0.0000   -0.0000   -0.0000    0.0000   -0.0000    0.0000   -0.0000   -0.0000   -0.0000
      199 W      6h5+      -0.0000    0.0000    0.0000    0.0000   -0.0000   -0.0000   -0.0000    0.0000    0.0000   -0.0000
      200 W      7h5+      -0.0000    0.0000    0.0000    0.0000   -0.0000   -0.0000   -0.0000    0.0000    0.0000    0.0000

          Orbital           11        12        13        14    
          Energy         -189.9077 -189.9075 -189.9075 -189.9074
          Occ. No.          0.0000    0.0000    0.0000    0.0000

        1 W      1s        -0.0000    0.0000    0.0000    0.0000
        2 W      2s        -0.0000   -0.0000    0.0000    0.0000
        3 W      3s        -0.0000   -0.0000    0.0000    0.0000
        4 W      4s         0.0000   -0.0000   -0.0000   -0.0000
        5 W      5s        -0.0000   -0.0000    0.0000    0.0000
        6 W      6s        -0.0000    0.0000   -0.0000   -0.0000
        7 W      7s        -0.0000    0.0000   -0.0000    0.0000
        8 W      8s        -0.0000    0.0000   -0.0000   -0.0000
        9 W      9s        -0.0000    0.0000    0.0000    0.0000
       10 W     10s        -0.0000    0.0000   -0.0000   -0.0000
       11 W     11s        -0.0000    0.0000    0.0000    0.0000
       12 W      2px        0.0000    0.0000   -0.0000   -0.0000
       13 W      3px        0.0000    0.0000   -0.0000   -0.0012
       14 W      4px       -0.0000   -0.0000    0.0000    0.0002
       15 W      5px        0.0000    0.0000   -0.0000   -0.0000
       16 W      6px       -0.0000   -0.0000    0.0000    0.0000
       17 W      7px        0.0000    0.0000   -0.0000   -0.0001
       18 W      8px       -0.0000   -0.0000    0.0000    0.0001
       19 W      9px        0.0000    0.0000   -0.0000   -0.0001
       20 W     10px       -0.0000   -0.0000    0.0000    0.0001
       21 W     11px        0.0000    0.0000   -0.0000   -0.0000
       22 W      2py        0.0000   -0.0000   -0.0000    0.0000
       23 W      3py        0.0000   -0.0000   -0.0010    0.0000
       24 W      4py       -0.0000    0.0000    0.0001   -0.0000
       25 W      5py        0.0000   -0.0000   -0.0000    0.0000
       26 W      6py       -0.0000    0.0000    0.0000   -0.0000
       27 W      7py        0.0000   -0.0000   -0.0000    0.0000
       28 W      8py       -0.0000    0.0000    0.0000   -0.0000
       29 W      9py        0.0000   -0.0000   -0.0000    0.0000
       30 W     10py       -0.0000    0.0000    0.0000   -0.0000
       31 W     11py        0.0000   -0.0000   -0.0000    0.0000
       32 W      2pz        0.0000   -0.0000    0.0000   -0.0000
       33 W      3pz        0.0000   -0.0010    0.0000   -0.0000
       34 W      4pz       -0.0000    0.0001   -0.0000    0.0000
       35 W      5pz        0.0000   -0.0000    0.0000   -0.0000
       36 W      6pz       -0.0000    0.0000   -0.0000    0.0000
       37 W      7pz        0.0000   -0.0000    0.0000   -0.0000
       38 W      8pz       -0.0000    0.0000   -0.0000    0.0000
       39 W      9pz        0.0000   -0.0000    0.0000   -0.0000
       40 W     10pz       -0.0000    0.0000   -0.0000    0.0000
       41 W     11pz        0.0000   -0.0000    0.0000   -0.0000
       42 W      3d2-      -0.0000    0.0000    0.9917   -0.0000
       43 W      4d2-       0.0000   -0.0000   -0.0959    0.0000
       44 W      5d2-      -0.0000    0.0000    0.0186   -0.0000
       45 W      6d2-       0.0000   -0.0000   -0.0254    0.0000
       46 W      7d2-      -0.0000    0.0000    0.0328   -0.0000
       47 W      8d2-       0.0000   -0.0000   -0.0372    0.0000
       48 W      9d2-      -0.0000    0.0000    0.0370   -0.0000
       49 W     10d2-       0.0000   -0.0000   -0.0397    0.0000
       50 W     11d2-      -0.0000    0.0000    0.0299   -0.0000
       51 W      3d1-       0.0004    0.0000    0.0018   -0.0000
       52 W      4d1-      -0.0000   -0.0000   -0.0002    0.0000
       53 W      5d1-       0.0000    0.0000    0.0000   -0.0000
       54 W      6d1-      -0.0000   -0.0000   -0.0000    0.0000
       55 W      7d1-       0.0000    0.0000    0.0001   -0.0000
       56 W      8d1-      -0.0000   -0.0000   -0.0001    0.0000
       57 W      9d1-       0.0000    0.0000    0.0001   -0.0000
       58 W     10d1-      -0.0000   -0.0000   -0.0001    0.0000
       59 W     11d1-       0.0000    0.0000    0.0001   -0.0000
       60 W      3d0        0.8589    0.0021   -0.0000   -0.4958
       61 W      4d0       -0.0830   -0.0002    0.0000    0.0479
       62 W      5d0        0.0161    0.0000   -0.0000   -0.0093
       63 W      6d0       -0.0220   -0.0001    0.0000    0.0127
       64 W      7d0        0.0284    0.0001   -0.0000   -0.0164
       65 W      8d0       -0.0322   -0.0001    0.0000    0.0186
       66 W      9d0        0.0320    0.0001   -0.0000   -0.0185
       67 W     10d0       -0.0344   -0.0001    0.0000    0.0198
       68 W     11d0        0.0259    0.0001   -0.0000   -0.0150
       69 W      3d1+      -0.0011    0.9917   -0.0000    0.0025
       70 W      4d1+       0.0001   -0.0959    0.0000   -0.0002
       71 W      5d1+      -0.0000    0.0186   -0.0000    0.0000
       72 W      6d1+       0.0000   -0.0254    0.0000   -0.0001
       73 W      7d1+      -0.0000    0.0328   -0.0000    0.0001
       74 W      8d1+       0.0000   -0.0372    0.0000   -0.0001
       75 W      9d1+      -0.0000    0.0370   -0.0000    0.0001
       76 W     10d1+       0.0000   -0.0397    0.0000   -0.0001
       77 W     11d1+      -0.0000    0.0299   -0.0000    0.0001
       78 W      3d2+       0.4959   -0.0016    0.0000    0.8589
       79 W      4d2+      -0.0479    0.0002   -0.0000   -0.0830
       80 W      5d2+       0.0093   -0.0000    0.0000    0.0161
       81 W      6d2+      -0.0127    0.0000   -0.0000   -0.0220
       82 W      7d2+       0.0164   -0.0001    0.0000    0.0284
       83 W      8d2+      -0.0186    0.0001   -0.0000   -0.0322
       84 W      9d2+       0.0185   -0.0001    0.0000    0.0320
       85 W     10d2+      -0.0198    0.0001   -0.0000   -0.0344
       86 W     11d2+       0.0150   -0.0000    0.0000    0.0259
       87 W      4f3-      -0.0000    0.0000    0.0001   -0.0000
       88 W      5f3-       0.0000   -0.0000   -0.0001    0.0000
       89 W      6f3-      -0.0000    0.0000    0.0001   -0.0000
       90 W      7f3-       0.0000   -0.0000   -0.0001    0.0000
       91 W      8f3-      -0.0000    0.0000    0.0001   -0.0000
       92 W      9f3-       0.0000   -0.0000   -0.0000    0.0000
       93 W     10f3-      -0.0000    0.0000    0.0000   -0.0000
       94 W     11f3-       0.0000   -0.0000   -0.0000    0.0000
       95 W      4f2-       0.0000    0.0000    0.0000   -0.0000
       96 W      5f2-      -0.0000   -0.0000   -0.0000    0.0000
       97 W      6f2-       0.0000    0.0000    0.0000   -0.0000
       98 W      7f2-      -0.0000   -0.0000   -0.0000    0.0000
       99 W      8f2-       0.0000    0.0000    0.0000   -0.0000
      100 W      9f2-      -0.0000   -0.0000   -0.0000    0.0000
      101 W     10f2-       0.0000    0.0000    0.0000   -0.0000
      102 W     11f2-      -0.0000   -0.0000   -0.0000    0.0000
      103 W      4f1-       0.0000   -0.0000   -0.0000    0.0000
      104 W      5f1-      -0.0000    0.0000    0.0000   -0.0000
      105 W      6f1-       0.0000   -0.0000   -0.0000    0.0000
      106 W      7f1-      -0.0000    0.0000    0.0000   -0.0000
      107 W      8f1-       0.0000   -0.0000   -0.0000    0.0000
      108 W      9f1-      -0.0000    0.0000    0.0000   -0.0000
      109 W     10f1-       0.0000   -0.0000   -0.0000    0.0000
      110 W     11f1-      -0.0000    0.0000    0.0000   -0.0000
      111 W      4f0        0.0000   -0.0001    0.0000   -0.0000
      112 W      5f0       -0.0000    0.0000   -0.0000    0.0000
      113 W      6f0        0.0000   -0.0000    0.0000   -0.0000
      114 W      7f0       -0.0000    0.0000   -0.0000    0.0000
      115 W      8f0        0.0000   -0.0000    0.0000   -0.0000
      116 W      9f0       -0.0000    0.0000   -0.0000    0.0000
      117 W     10f0        0.0000   -0.0000    0.0000   -0.0000
      118 W     11f0       -0.0000    0.0000   -0.0000    0.0000
      119 W      4f1+       0.0001    0.0000   -0.0000   -0.0001
      120 W      5f1+      -0.0001   -0.0000    0.0000    0.0001
      121 W      6f1+       0.0000    0.0000   -0.0000   -0.0001
      122 W      7f1+      -0.0000   -0.0000    0.0000    0.0000
      123 W      8f1+       0.0000    0.0000   -0.0000   -0.0000
      124 W      9f1+      -0.0000   -0.0000    0.0000    0.0000
      125 W     10f1+       0.0000    0.0000   -0.0000   -0.0000
      126 W     11f1+      -0.0000   -0.0000    0.0000    0.0000
      127 W      4f2+      -0.0000    0.0001   -0.0000    0.0000
      128 W      5f2+       0.0000   -0.0001    0.0000   -0.0000
      129 W      6f2+      -0.0000    0.0001   -0.0000    0.0000
      130 W      7f2+       0.0000   -0.0001    0.0000   -0.0000
      131 W      8f2+      -0.0000    0.0000   -0.0000    0.0000
      132 W      9f2+       0.0000   -0.0000    0.0000   -0.0000
      133 W     10f2+      -0.0000    0.0000   -0.0000    0.0000
      134 W     11f2+       0.0000   -0.0000    0.0000   -0.0000
      135 W      4f3+       0.0001   -0.0000    0.0000    0.0001
      136 W      5f3+      -0.0000    0.0000   -0.0000   -0.0001
      137 W      6f3+       0.0000   -0.0000    0.0000    0.0001
      138 W      7f3+      -0.0000    0.0000   -0.0000   -0.0001
      139 W      8f3+       0.0000   -0.0000    0.0000    0.0000
      140 W      9f3+      -0.0000    0.0000   -0.0000   -0.0000
      141 W     10f3+       0.0000   -0.0000    0.0000    0.0000
      142 W     11f3+      -0.0000    0.0000   -0.0000   -0.0000
      143 W      5g4-       0.0000   -0.0000   -0.0000    0.0000
      144 W      6g4-      -0.0000    0.0000    0.0000   -0.0000
      145 W      7g4-       0.0000   -0.0000   -0.0000    0.0000
      146 W      8g4-       0.0000    0.0000    0.0000   -0.0000
      147 W      5g3-      -0.0000   -0.0000   -0.0000    0.0000
      148 W      6g3-       0.0000    0.0000    0.0000   -0.0000
      149 W      7g3-      -0.0000    0.0000    0.0000    0.0000
      150 W      8g3-       0.0000    0.0000    0.0000   -0.0000
      151 W      5g2-      -0.0000    0.0000    0.0000   -0.0000
      152 W      6g2-       0.0000   -0.0000   -0.0000    0.0000
      153 W      7g2-      -0.0000    0.0000    0.0000   -0.0000
      154 W      8g2-      -0.0000   -0.0000   -0.0000    0.0000
      155 W      5g1-       0.0000    0.0000    0.0000   -0.0000
      156 W      6g1-      -0.0000   -0.0000   -0.0000    0.0000
      157 W      7g1-       0.0000    0.0000    0.0000   -0.0000
      158 W      8g1-      -0.0000   -0.0000   -0.0000    0.0000
      159 W      5g0        0.0000    0.0000   -0.0000   -0.0000
      160 W      6g0       -0.0000   -0.0000    0.0000    0.0000
      161 W      7g0        0.0000    0.0000   -0.0000   -0.0000
      162 W      8g0       -0.0000    0.0000   -0.0000    0.0000
      163 W      5g1+      -0.0000    0.0000   -0.0000    0.0000
      164 W      6g1+       0.0000   -0.0000    0.0000   -0.0000
      165 W      7g1+       0.0000    0.0000   -0.0000    0.0000
      166 W      8g1+       0.0000   -0.0000    0.0000   -0.0000
      167 W      5g2+      -0.0000   -0.0000    0.0000    0.0000
      168 W      6g2+       0.0000    0.0000   -0.0000   -0.0000
      169 W      7g2+      -0.0000   -0.0000    0.0000    0.0000
      170 W      8g2+       0.0000   -0.0000    0.0000   -0.0000
      171 W      5g3+      -0.0000   -0.0000    0.0000   -0.0000
      172 W      6g3+       0.0000    0.0000   -0.0000    0.0000
      173 W      7g3+      -0.0000   -0.0000    0.0000   -0.0000
      174 W      8g3+      -0.0000    0.0000   -0.0000   -0.0000
      175 W      5g4+      -0.0000    0.0000   -0.0000   -0.0000
      176 W      6g4+       0.0000   -0.0000    0.0000    0.0000
      177 W      7g4+      -0.0000   -0.0000    0.0000   -0.0000
      178 W      8g4+       0.0000   -0.0000    0.0000    0.0000
      179 W      6h5-      -0.0000    0.0000    0.0000   -0.0000
      180 W      7h5-      -0.0000   -0.0000   -0.0000    0.0000
      181 W      6h4-       0.0000    0.0000    0.0000    0.0000
      182 W      7h4-      -0.0000   -0.0000   -0.0000   -0.0000
      183 W      6h3-       0.0000   -0.0000   -0.0000   -0.0000
      184 W      7h3-       0.0000    0.0000    0.0000    0.0000
      185 W      6h2-      -0.0000   -0.0000   -0.0000    0.0000
      186 W      7h2-       0.0000   -0.0000   -0.0000   -0.0000
      187 W      6h1-       0.0000    0.0000    0.0000   -0.0000
      188 W      7h1-      -0.0000   -0.0000   -0.0000    0.0000
      189 W      6h0        0.0000    0.0000   -0.0000   -0.0000
      190 W      7h0        0.0000   -0.0000    0.0000   -0.0000
      191 W      6h1+      -0.0000   -0.0000    0.0000    0.0000
      192 W      7h1+       0.0000   -0.0000   -0.0000   -0.0000
      193 W      6h2+       0.0000   -0.0000    0.0000   -0.0000
      194 W      7h2+      -0.0000    0.0000   -0.0000    0.0000
      195 W      6h3+       0.0000    0.0000    0.0000   -0.0000
      196 W      7h3+      -0.0000   -0.0000    0.0000    0.0000
      197 W      6h4+       0.0000    0.0000   -0.0000    0.0000
      198 W      7h4+       0.0000   -0.0000    0.0000   -0.0000
      199 W      6h5+       0.0000   -0.0000    0.0000    0.0000
      200 W      7h5+      -0.0000   -0.0000    0.0000   -0.0000
--


++    Molecular charges:
      ------------------

      Mulliken charges per centre and basis function type
      ---------------------------------------------------

                W     
      1s       2.0000
      2s       2.0000
      2px      2.0000
      2pz      2.0000
      2py      2.0000
      3s       1.9811
      3px      1.9730
      3pz      1.9730
      3py      1.9730
      4s       0.0128
      3d2+     0.0000
      3d1+     0.0000
      3d0      0.0000
      3d1-     0.0000
      3d2-     0.0000
      4px      0.0167
      4pz      0.0167
      4py      0.0167
      5s       0.0011
      4d2+     0.0000
      4d1+     0.0000
      4d0      0.0000
      4d1-     0.0000
      4d2-     0.0000
      5px      0.0013
      5pz      0.0013
      5py      0.0013
      6s       0.0001
      4f3+     0.0000
      4f2+     0.0000
      4f1+     0.0000
      4f0      0.0000
      4f1-     0.0000
      4f2-     0.0000
      4f3-     0.0000
      5d2+     0.0000
      5d1+     0.0000
      5d0      0.0000
      5d1-     0.0000
      5d2-     0.0000
      6px      0.0002
      6pz      0.0002
      6py      0.0002
      7s       0.0001
      5f3+     0.0000
      5f2+     0.0000
      5f1+     0.0000
      5f0      0.0000
      5f1-     0.0000
      5f2-     0.0000
      5f3-     0.0000
      6d2+     0.0000
      6d1+     0.0000
      6d0      0.0000
      6d1-     0.0000
      6d2-     0.0000
      7px      0.0018
      7pz      0.0018
      7py      0.0018
      5g4+     0.0000
      5g3+     0.0000
      5g2+     0.0000
      5g1+     0.0000
      5g0      0.0000
      5g1-     0.0000
      5g2-     0.0000
      5g3-     0.0000
      5g4-     0.0000
      6f3+     0.0000
      6f2+     0.0000
      6f1+     0.0000
      6f0      0.0000
      6f1-     0.0000
      6f2-     0.0000
      6f3-     0.0000
      6g4+     0.0000
      6g3+     0.0000
      6g2+     0.0000
      6g1+     0.0000
      6g0      0.0000
      6g1-     0.0000
      6g2-     0.0000
      6g3-     0.0000
      6g4-     0.0000
      6h5+     0.0000
      6h4+     0.0000
      6h3+     0.0000
      6h2+     0.0000
      6h1+     0.0000
      6h0      0.0000
      6h1-     0.0000
      6h2-     0.0000
      6h3-     0.0000
      6h4-     0.0000
      6h5-     0.0000
      7d2+     0.0000
      7d1+     0.0000
      7d0      0.0000
      7d1-     0.0000
      7d2-     0.0000
      7f3+     0.0000
      7f2+     0.0000
      7f1+     0.0000
      7f0      0.0000
      7f1-     0.0000
      7f2-     0.0000
      7f3-     0.0000
      7g4+     0.0000
      7g3+     0.0000
      7g2+     0.0000
      7g1+     0.0000
      7g0      0.0000
      7g1-     0.0000
      7g2-     0.0000
      7g3-     0.0000
      7g4-     0.0000
      7h5+     0.0000
      7h4+     0.0000
      7h3+     0.0000
      7h2+     0.0000
      7h1+     0.0000
      7h0      0.0000
      7h1-     0.0000
      7h2-     0.0000
      7h3-     0.0000
      7h4-     0.0000
      7h5-     0.0000
      8s       0.0006
      8px      0.0018
      8pz      0.0018
      8py      0.0018
      8d2+     0.0000
      8d1+     0.0000
      8d0      0.0000
      8d1-     0.0000
      8d2-     0.0000
      8f3+     0.0000
      8f2+     0.0000
      8f1+     0.0000
      8f0      0.0000
      8f1-     0.0000
      8f2-     0.0000
      8f3-     0.0000
      8g4+     0.0000
      8g3+     0.0000
      8g2+     0.0000
      8g1+     0.0000
      8g0      0.0000
      8g1-     0.0000
      8g2-     0.0000
      8g3-     0.0000
      8g4-     0.0000
      9s       0.0010
      9px      0.0019
      9pz      0.0019
      9py      0.0019
      9d2+     0.0000
      9d1+     0.0000
      9d0      0.0000
      9d1-     0.0000
      9d2-     0.0000
      9f3+     0.0000
      9f2+     0.0000
      9f1+     0.0000
      9f0      0.0000
      9f1-     0.0000
      9f2-     0.0000
      9f3-     0.0000
     10s       0.0013
     10px      0.0016
     10pz      0.0016
     10py      0.0016
     10d2+     0.0000
     10d1+     0.0000
     10d0      0.0000
     10d1-     0.0000
     10d2-     0.0000
     10f3+     0.0000
     10f2+     0.0000
     10f1+     0.0000
     10f0      0.0000
     10f1-     0.0000
     10f2-     0.0000
     10f3-     0.0000
     11s       0.0020
     11px      0.0017
     11pz      0.0017
     11py      0.0017
     11d2+     0.0000
     11d1+     0.0000
     11d0      0.0000
     11d1-     0.0000
     11d2-     0.0000
     11f3+     0.0000
     11f2+     0.0000
     11f1+     0.0000
     11f0      0.0000
     11f1-     0.0000
     11f2-     0.0000
     11f3-     0.0000
      Total   18.0000

      N-E     56.0000

      Total electronic charge=   18.000000

      Total            charge=   56.000000
--

 Sorry, Molden does not know how to handle
 functions with angular momentum larger than g

++    Static properties:
      ------------------


      LoProp Charges per center


                   W     
      Nuclear     74.0000
      Electronic -18.0000

      Total       56.0000
--


++    Molecular properties:
      ---------------------

      Charge (e):
                      =   56.0000
      Dipole Moment (Debye):
      Origin of the operator (Ang)=    0.0000    0.0000    0.0000
                   X= -2.7367E-03               Y= -4.9651E-13               Z=  1.2460E+00           Total=  1.2460E+00
      Center of Charge (Ang)
                     X=   -0.00001017               Y=   -0.00000000               Z=    0.00463219
      Quadrupole Moment (Debye*Ang):
      Origin of the operator (Ang)=   -0.0000   -0.0000    0.0046
[...]
::    SO-RASSI State   14     Total energy: -13301.43549475
::    SO-RASSI State   15     Total energy: -13301.43549471
::    SO-RASSI State   16     Total energy: -13301.43549471
::    SO-RASSI State   17     Total energy: -13301.43367038
::    SO-RASSI State   18     Total energy: -13301.43367038


   Eigenvalues of complex Hamiltonian:
   -----------------------------------
  (Shifted by EMIN (a.u.) =     -13384.6820989068)

 SO State       Relative EMIN(au)   Rel lowest level(eV)    D:o, cm**(-1)     J-value

     1             0.0000000000        0.0000000000              0.0000         2.1
     2             0.0000000000        0.0000000000              0.0000         2.1
     3             0.0000000009        0.0000000244              0.0002         2.1
     4             0.0000000009        0.0000000244              0.0002         2.1
     5             0.0002197337        0.0059792594             48.2260         2.1
     6             0.0002197337        0.0059792594             48.2260         2.1
     7             0.0002197416        0.0059794747             48.2277         2.1
     8             0.0002197416        0.0059794747             48.2277         2.1
     9             0.0002934149        0.0079842260             64.3971         2.1
    10             0.0002934149        0.0079842260             64.3971         2.1
    11            77.1221398006     2098.6003342305       16926353.2027         0.5
    12            77.1221398006     2098.6003342305       16926353.2027         0.5
    13            83.2466041546     2265.2554993181       18270517.7591         1.2
    14            83.2466041546     2265.2554993181       18270517.7591         1.2
    15            83.2466041970     2265.2555004711       18270517.7684         1.2
    16            83.2466041970     2265.2555004711       18270517.7684         1.2
    17            83.2484285255     2265.3051429796       18270918.1622         1.2
    18            83.2484285255     2265.3051429796       18270918.1622         1.2


 Weights of the five most important spin-orbit-free states for each spin-orbit state.

 SO State  Total energy (au)           Spin-free states, spin, and weights
 -------------------------------------------------------------------------------------------------------
    1         0.000000       1 0.5  1.0000    9 0.5  0.0000    8 0.5  0.0000    7 0.5  0.0000    6 0.5  0.0000
    2         0.000000       1 0.5  1.0000    9 0.5  0.0000    8 0.5  0.0000    7 0.5  0.0000    6 0.5  0.0000
    3         0.000000       2 0.5  1.0000    9 0.5  0.0000    8 0.5  0.0000    7 0.5  0.0000    6 0.5  0.0000
    4         0.000000       2 0.5  1.0000    9 0.5  0.0000    8 0.5  0.0000    7 0.5  0.0000    6 0.5  0.0000
    5         0.000220       3 0.5  1.0000    9 0.5  0.0000    8 0.5  0.0000    7 0.5  0.0000    6 0.5  0.0000
    6         0.000220       3 0.5  1.0000    9 0.5  0.0000    8 0.5  0.0000    7 0.5  0.0000    6 0.5  0.0000
    7         0.000220       4 0.5  1.0000    9 0.5  0.0000    8 0.5  0.0000    7 0.5  0.0000    6 0.5  0.0000
    8         0.000220       4 0.5  1.0000    9 0.5  0.0000    8 0.5  0.0000    7 0.5  0.0000    6 0.5  0.0000
    9         0.000293       5 0.5  1.0000    9 0.5  0.0000    8 0.5  0.0000    7 0.5  0.0000    6 0.5  0.0000
   10         0.000293       5 0.5  1.0000    9 0.5  0.0000    8 0.5  0.0000    7 0.5  0.0000    6 0.5  0.0000
   11        77.122140       6 0.5  1.0000    9 0.5  0.0000    8 0.5  0.0000    7 0.5  0.0000    5 0.5  0.0000
   12        77.122140       6 0.5  1.0000    9 0.5  0.0000    8 0.5  0.0000    7 0.5  0.0000    5 0.5  0.0000
   13        83.246604       7 0.5  1.0000    9 0.5  0.0000    8 0.5  0.0000    6 0.5  0.0000    5 0.5  0.0000
   14        83.246604       7 0.5  1.0000    9 0.5  0.0000    8 0.5  0.0000    6 0.5  0.0000    5 0.5  0.0000
   15        83.246604       8 0.5  1.0000    9 0.5  0.0000    7 0.5  0.0000    6 0.5  0.0000    5 0.5  0.0000
   16        83.246604       8 0.5  1.0000    9 0.5  0.0000    7 0.5  0.0000    6 0.5  0.0000    5 0.5  0.0000
   17        83.248429       9 0.5  1.0000    8 0.5  0.0000    7 0.5  0.0000    6 0.5  0.0000    5 0.5  0.0000
   18        83.248429       9 0.5  1.0000    8 0.5  0.0000    7 0.5  0.0000    6 0.5  0.0000    5 0.5  0.0000
 -------------------------------------------------------------------------------------------------------


      ****************************************************************************************************
      *                                                                                                  *
      *                                    Special properties section                                    *
      *                                                                                                  *
      ****************************************************************************************************


++ Dipole transition strengths (SO states):
   ----------------------------------------
    for osc. strength at least    1.0000000000000001E-005

      From   To        Osc. strength     Einstein coefficients Ax, Ay, Az (sec-1)    Total A (sec-1)
     -----------------------------------------------------------------------------------------------
         1   13       1.34053147E-02  2.65970822E+00  2.98482694E+12  1.96038868E+06  2.98482890E+12
         1   15       1.34053190E-02  9.85244675E+06  1.96036985E+06  2.98481805E+12  2.98482986E+12
         2   14       1.34053147E-02  2.65970822E+00  2.98482694E+12  1.96038868E+06  2.98482890E+12
         2   16       1.34053190E-02  9.85244675E+06  1.96036985E+06  2.98481805E+12  2.98482986E+12
         3   13       1.34054472E-02  3.38243855E+06  1.96037764E+06  2.98485305E+12  2.98485840E+12
         3   15       1.34051897E-02  5.55546892E+00  2.98479910E+12  1.96037775E+06  2.98480106E+12
         4   14       1.34054472E-02  3.38243855E+06  1.96037764E+06  2.98485305E+12  2.98485840E+12
         4   16       1.34051897E-02  5.55546892E+00  2.98479910E+12  1.96037775E+06  2.98480106E+12
         5   13       1.34005317E-02  2.98374366E+12  1.75231123E-01  4.49449630E+06  2.98374816E+12
         5   17       1.34066258E-02  7.62725688E+06  4.24421412E+05  2.98522786E+12  2.98523591E+12
         6   14       1.34005317E-02  2.98374366E+12  1.75231123E-01  4.49449630E+06  2.98374816E+12
         6   18       1.34066258E-02  7.62725688E+06  4.24421412E+05  2.98522786E+12  2.98523591E+12
         7   15       1.34005331E-02  2.98373863E+12  1.22435830E-01  9.83931392E+06  2.98374847E+12
         7   17       1.34066216E-02  9.29360948E-01  2.98523455E+12  4.24420595E+05  2.98523497E+12
         8   16       1.34005331E-02  2.98373863E+12  1.22435830E-01  9.83931392E+06  2.98374847E+12
         8   18       1.34066216E-02  9.29360948E-01  2.98523455E+12  4.24420595E+05  2.98523497E+12
         9   13       4.46980001E-03  3.08607867E+06  1.29762891E+04  9.95236064E+11  9.95239163E+11
         9   15       4.47005395E-03  1.81126369E-02  9.95295694E+11  1.29740224E+04  9.95295707E+11
         9   17       1.78660528E-02  3.97819451E+12  4.61447935E-03  9.15449719E+06  3.97820367E+12
        10   14       4.46980001E-03  3.08607867E+06  1.29762891E+04  9.95236064E+11  9.95239163E+11
        10   16       4.47005395E-03  1.81126369E-02  9.95295694E+11  1.29740224E+04  9.95295707E+11
        10   18       1.78660528E-02  3.97819451E+12  4.61447935E-03  9.15449719E+06  3.97820367E+12
        11   13       1.77764874E-01  3.47395102E+05  2.79295983E+03  2.14235204E+11  2.14235554E+11
        11   15       1.77764874E-01  4.40988034E-03  2.14235554E+11  2.79295550E+03  2.14235557E+11
        11   17       1.77752414E-01  2.14347834E+11  7.94005606E-07  3.47609681E+05  2.14348182E+11
        12   14       1.77764874E-01  3.47395102E+05  2.79295983E+03  2.14235204E+11  2.14235554E+11
        12   16       1.77764874E-01  4.40988034E-03  2.14235554E+11  2.79295550E+03  2.14235557E+11
        12   18       1.77752414E-01  2.14347834E+11  7.94005606E-07  3.47609681E+05  2.14348182E+11
     -----------------------------------------------------------------------------------------------
--

++ Velocity transition strengths (SO states):
   ------------------------------------------
    for osc. strength at least    1.0000000000000001E-005

      From   To        Osc. strength     Einstein coefficients Ax, Ay, Az (sec-1)    Total A (sec-1)
     -----------------------------------------------------------------------------------------------
         1    5       4.53536452E-05  1.83149969E-14  7.03584128E-02  8.10520164E-08  7.03584939E-02
         1    7       4.53518857E-05  1.61793450E-08  8.10528407E-08  7.03607354E-02  7.03608326E-02
         1   13       1.32386199E-02  2.62664911E+00  2.94772092E+12  1.93601801E+06  2.94772286E+12
         1   15       1.32386241E-02  9.72996357E+06  1.93599942E+06  2.94771214E+12  2.94772380E+12
         2    6       4.53536452E-05  1.83149969E-14  7.03584128E-02  8.10520164E-08  7.03584939E-02
         2    8       4.53518857E-05  1.61793450E-08  8.10528407E-08  7.03607354E-02  7.03608326E-02
         2   14       1.32386199E-02  2.62664911E+00  2.94772092E+12  1.93601801E+06  2.94772286E+12
         2   16       1.32386241E-02  9.72996357E+06  1.93599942E+06  2.94771214E+12  2.94772380E+12
         3    5       4.53550284E-05  1.61496791E-08  8.10498799E-08  7.03599682E-02  7.03600654E-02
         3    7       4.53506769E-05  1.85986226E-14  7.03583018E-02  8.10543856E-08  7.03583828E-02
         3   13       1.32387507E-02  3.34039225E+06  1.93600711E+06  2.94774671E+12  2.94775199E+12
         3   15       1.32384964E-02  5.48639919E+00  2.94769343E+12  1.93600722E+06  2.94769537E+12
         4    6       4.53550284E-05  1.61496791E-08  8.10498799E-08  7.03599682E-02  7.03600654E-02
         4    8       4.53506769E-05  1.85986226E-14  7.03583018E-02  8.10543856E-08  7.03583828E-02
         4   14       1.32387507E-02  3.34039225E+06  1.93600711E+06  2.94774671E+12  2.94775199E+12
         4   16       1.32384964E-02  5.48639919E+00  2.94769343E+12  1.93600722E+06  2.94769537E+12
         5    9       4.05854000E-04  1.62677077E-08  1.00652373E-08  7.07935194E-02  7.07935458E-02
         5   13       1.32339208E-02  2.94665656E+12  1.73053519E-01  4.43863120E+06  2.94666100E+12
         5   17       1.32399065E-02  7.53243078E+06  4.19144940E+05  2.94811504E+12  2.94812299E+12
         6   10       4.05854000E-04  1.62677077E-08  1.00652373E-08  7.07935194E-02  7.07935458E-02
         6   14       1.32339208E-02  2.94665656E+12  1.73053519E-01  4.43863120E+06  2.94666100E+12
         6   18       1.32399065E-02  7.53243078E+06  4.19144940E+05  2.94811504E+12  2.94812299E+12
         7    9       4.05904706E-04  2.29833984E-15  7.07871707E-02  1.00638680E-08  7.07871808E-02
         7   15       1.32339222E-02  2.94665159E+12  1.20915399E-01  9.71701577E+06  2.94666131E+12
         7   17       1.32399024E-02  9.17807293E-01  2.94812165E+12  4.19144132E+05  2.94812207E+12
         8   10       4.05904706E-04  2.29833984E-15  7.07871707E-02  1.00638680E-08  7.07871808E-02
         8   16       1.32339222E-02  2.94665159E+12  1.20915399E-01  9.71701577E+06  2.94666131E+12
         8   18       1.32399024E-02  9.17807293E-01  2.94812165E+12  4.19144132E+05  2.94812207E+12
         9   13       4.41419696E-03  3.04771101E+06  1.28149127E+04  9.82859026E+11  9.82862086E+11
         9   15       4.41444775E-03  1.78873110E-02  9.82917915E+11  1.28126733E+04  9.82917928E+11
         9   17       1.76439532E-02  3.92875374E+12  4.55710229E-03  9.04071443E+06  3.92876278E+12
        10   14       4.41419696E-03  3.04771101E+06  1.28149127E+04  9.82859026E+11  9.82862086E+11
        10   16       4.41444775E-03  1.78873110E-02  9.82917915E+11  1.28126733E+04  9.82917928E+11
        10   18       1.76439532E-02  3.92875374E+12  4.55710229E-03  9.04071443E+06  3.92876278E+12
        11   13       1.46118045E-01  2.85547773E+05  2.29574744E+03  1.76096307E+11  1.76096595E+11
        11   15       1.46118045E-01  3.62476660E-03  1.76096595E+11  2.29574381E+03  1.76096597E+11
        11   17       1.46109911E-01  1.76191429E+11  6.52447755E-07  2.85733965E+05  1.76191715E+11
        12   14       1.46118045E-01  2.85547773E+05  2.29574744E+03  1.76096307E+11  1.76096595E+11
        12   16       1.46118045E-01  3.62476660E-03  1.76096595E+11  2.29574381E+03  1.76096597E+11
        12   18       1.46109911E-01  1.76191429E+11  6.52447755E-07  2.85733965E+05  1.76191715E+11
        13   15       1.57384014E-05  2.30996504E-23  9.07862302E-10  7.71566217E-21  9.07862302E-10
        13   17       5.81543513E-04  1.44721786E-05  8.10758642E-07  6.21898159E+01  6.21898312E+01
        14   16       1.57384014E-05  2.30996504E-23  9.07862302E-10  7.71566217E-21  9.07862302E-10
        14   18       5.81543513E-04  1.44721786E-05  8.10758642E-07  6.21898159E+01  6.21898312E+01
        15   17       5.81556614E-04  1.99939525E-13  6.21883427E+01  8.10740730E-07  6.21883435E+01
        16   18       5.81556614E-04  1.99939525E-13  6.21883427E+01  8.10740730E-07  6.21883435E+01
     -----------------------------------------------------------------------------------------------
--

++ Length and velocity gauge comparison (SO states):

 --------------------------------------------------
 A comparison between the dipole oscillator strengths in 
 length and velocity gauge will be performed

 All dipole oscillator differences above the tolerance of   0.10000000000000001       will be printed 

 Due to basis set deficiency these oscillator may be problematic 

 The tolerance is defined as ABS(1-O_l/O_v) 
 O_l : dipole oscillator strength in length gauge
 O_p : dipole oscillator strength in velocity gauge
 --------------------------------------------------

  Problematic transitions have been found

      From   To       Difference (%) Osc. st. (len.) Osc. st. (vel.)
     ---------------------------------------------------------------
         1    5      --------------- below threshold  4.53536452E-05
         1    7      --------------- below threshold  4.53518857E-05
         2    6      --------------- below threshold  4.53536452E-05
         2    8      --------------- below threshold  4.53518857E-05
         3    5      --------------- below threshold  4.53550284E-05
         3    7      --------------- below threshold  4.53506769E-05
         4    6      --------------- below threshold  4.53550284E-05
         4    8      --------------- below threshold  4.53506769E-05
         5    9      --------------- below threshold  4.05854000E-04
         6   10      --------------- below threshold  4.05854000E-04
         7    9      --------------- below threshold  4.05904706E-04
         8   10      --------------- below threshold  4.05904706E-04
        11   13            21.658399  1.77764874E-01  1.46118045E-01
        11   15            21.658399  1.77764874E-01  1.46118045E-01
        11   17            21.656644  1.77752414E-01  1.46109911E-01
        12   14            21.658399  1.77764874E-01  1.46118045E-01
        12   16            21.658399  1.77764874E-01  1.46118045E-01
        12   18            21.656644  1.77752414E-01  1.46109911E-01
        13   15      --------------- below threshold  1.57384014E-05
        13   17      --------------- below threshold  5.81543513E-04
        14   16      --------------- below threshold  1.57384014E-05
        14   18      --------------- below threshold  5.81543513E-04
        15   17      --------------- below threshold  5.81556614E-04
        16   18      --------------- below threshold  5.81556614E-04
     ---------------------------------------------------------------

 Number of problematic transitions =                    24

--

 Electric-dipole - electric-octupole not included
++ Total transition strengths for the second-order expansion of the wave vector (SO states):
   -----------------------------------------------------------------------------------------
    for osc. strength at least    1.0000000000000001E-005

      From   To        Osc. strength
     -------------------------------
         1   11       5.84987250E-05
         2   12       5.84987250E-05
         3   11       5.84987249E-05
         4   12       5.84987249E-05
         5   11       5.84906983E-05
         6   12       5.84906983E-05
         7   11       5.84906978E-05
         8   12       5.84906978E-05
         9   11       5.84880145E-05
        10   12       5.84880145E-05
     -------------------------------
--

++ I/O STATISTICS
 
  I. General I/O information
  - - - - - - - - - - - - - - - - - - - - - - - - - - - - - - - - - - - - - - - - - - -
  Unit  Name          Flsize      Write/Read            MBytes           Write/Read
                      (MBytes)       Calls              In/Out           Time, sec.
  - - - - - - - - - - - - - - - - - - - - - - - - - - - - - - - - - - - - - - - - - - -
   1  SCRATCH           0.00 .       9/      45 .      0.0/      0.0 .       0/       0
   2  ANNI              0.00 .       0/       0 .      0.0/      0.0 .       0/       0
   3  RUNFILE          15.31 .     322/   10301 .      2.3/     74.7 .       0/       0
   4  ONEINT            6.58 .       0/   28767 .      0.0/   3777.9 .       0/       0
   5  JOBIPH            7.70 .       0/      92 .      0.0/      0.9 .       0/       0
   6  ORDINT          771.03 .       1/    6169 .      0.0/   1542.0 .       0/       0
  - - - - - - - - - - - - - - - - - - - - - - - - - - - - - - - - - - - - - - - - - - -
   *  TOTAL           800.62 .     332/   45374 .      2.3/   5395.5 .       0/       0
  - - - - - - - - - - - - - - - - - - - - - - - - - - - - - - - - - - - - - - - - - - -
 
  II. I/O Access Patterns
  - - - - - - - - - - - - - - - - - - - -
  Unit  Name               % of random
                         Write/Read calls
  - - - - - - - - - - - - - - - - - - - -
   1  SCRATCH             88.9/ 100.0
   2  ANNI                 0.0/   0.0
   3  RUNFILE             28.6/  10.8
   4  ONEINT               0.0/  13.4
   5  JOBIPH               0.0/  76.1
   6  ORDINT             100.0/   0.0
  - - - - - - - - - - - - - - - - - - - -
--
--- Stop Module: rassi at Wed Mar 26 23:45:29 2025 /rc=_RC_ALL_IS_WELL_ ---
*** files: xmldump
    saved to directory /home4/s4752295/Internship/Initial_simulations/Point_charge_model/1_electron/Madelung_charges_9_active_space/W
--- Module rassi spent 5 seconds ---

.##################.
.# Happy landing! #.
.##################.

    Timing: Wall=68.19 User=55.36 System=9.10

###############################################################################
Hbrk Cluster
Job 15913394 for user s4752295
Finished at: Wed Mar 26 23:45:33 CET 2025

Job details:
============

Job ID                         : 15913394
Name                           : W_no_SO
User                           : s4752295
Partition                      : regularmedium
Nodes                          : node93
Number of Nodes                : 1
Cores                          : 1
Number of Tasks                : 1
State                          : COMPLETED  
Submit                         : 2025-03-26T23:42:40
Start                          : 2025-03-26T23:44:14
End                            : 2025-03-26T23:45:29
Reserved walltime              : 15:00:00
Used walltime                  : 00:01:15
Used CPU time                  : 00:01:06 (Efficiency: 87.46%)
% User (Computation)           : 85.82%
% System (I/O)                 : 14.18%
Total memory reserved          : 25000M
Maximum memory used            : 3.07G

Acknowledgements:
=================

Please see this page for information about acknowledging Hbrk in your publications:

https://wiki.hpc.rug.nl/habrok/introduction/scientific_output

################################################################################
