   This run of MOLCAS is using the pymolcas driver

                             OPE
                             OPE          NMOL  CASOP  ENMOLC A   SO
                 OPE        NMOLC        AS  OP EN  MO LC     AS  OP
                OPENM       OL CA        SO  PE NM  OL CA     SOP EN
                OP EN      MO   LC       AS  OP ENMOL  CASO   PENMOL
                OP  EN     MO   LC       AS  OP EN     MO     LC ASO
               OP   E  NMOL  C  AS       OP  EN MO     LC     AS  OP
               OP  E   NMO   LC AS        OPEN  MO     LCASOP EN   M
               O  PEN   MO  LCA  SO
            OPE   NMO   L   CAS    OP
        OPENMOL  CASOP     ENMOL   CASOPE
     OPENMOLCA   SOPENMOLCASOPEN   MOLCASOPE
    OPENMOLCAS   OP           EN   MOL    CAS
    OPENMOLCAS       OP  ENM        O     LCA
    OPENMOLCAS    OPEN  MOLCASO     P  E  NMO
    OPENMOLCAS     OP               E  N  MOL
    OPENMOLCA   SO           PENM   O  L  CAS    OPEN    MO    LCAS
    OPENMOLCA   SOP           ENM   O  L  CAS   OP  EN  MOLC  AS   O
    OPENMOLCA   SOPE           NM      O  LCA   S      OP  EN MO
    OPENMOLC                AS         O  PEN   M      OL  CA  SOPE
    OPENMO        LCASOPE  NMOL        C  ASO   P      ENMOLC     AS
    OPE     NMO      LCA  SO     P     E   NM   OL  CA SO  PE N   MO
          OPENMOLCA            SOPE   NMO        LCAS  O    P  ENMO
     OPENMOLCASOPENMOLCASOPENMOLCASOPENMOLCA
        OPENMOLCASOPENMOLCASOPENMOLCASOPE
            OPENMOLCASOPENMOLCASOPENM
               OPENMOLCASOPENMOLCA        version: o91e1abe7de707b ?
                   OPENMOLCASO
                       OPE                tag:

 OpenMolcas is free software; you can redistribute it and/or modify it
 under the terms of the GNU Lesser General Public License version 2.1.
 OpenMolcas is distributed in the hope that it will be useful, but it
 is provided "as is" and without any express or implied warranties.
 For more details see the full text of the license in the file
 LICENSE or in <http://www.gnu.org/licenses/>.

                 Copyright (C) The OpenMolcas Authors
           For the author list and the recommended citation,
                   consult the file CONTRIBUTORS.md

           *************************************************
           * pymolcas version py2.10                       *
           *   build 3068ae8b88c9345ec6cfef6fef7f1169      *
           *   (after the EMIL interpreter by V. Veryazov) *
           *************************************************

configuration info
------------------
Host name: login1 (Linux)
C Compiler ID: GNU
C flags: -std=gnu99
Fortran Compiler ID: GNU
Fortran flags: -fno-aggressive-loop-optimizations -cpp -fdefault-integer-8 -fmax-stack-var-size=1048576
Definitions: _MOLCAS_;_I8_;_LINUX_;_MKL_
Parallel: OFF (GA=OFF)


   ----------------------------------------------------------------------------------------------------------------------------------
  |
  |           Project: vanadium_so_cf
  |    Submitted from: /home4/s4752295/Internship/Initial_simulations/Point_charge_model/1_electron/Madelung_charges_9_active_space/V
  |      Scratch area: /tmp/vanadium_so_cf
  |   Save outputs to: /home4/s4752295/Internship/Initial_simulations/Point_charge_model/1_electron/Madelung_charges_9_active_space/V
  |            Molcas: /home4/s4752295/Internship/Molcas/recomp_try/OpenMolcas-master/build
  |
  | Scratch area is empty
  |
  |    MOLCAS_DRIVER = /home4/s4752295/Internship/Molcas/bin/pymolcas
  |    MOLCAS_NPROCS = 1
  |    MOLCAS_SOURCE = /home4/s4752295/Internship/Molcas/recomp_try/OpenMolcas-master
  | MOLCAS_STRUCTURE = 0
  |
   ----------------------------------------------------------------------------------------------------------------------------------

++ ---------   Input file   ---------

&SEWARD
AMFi

CLIG
$R

Basis Set
V.ANO-rcc.Roos.21s15p10d6f4g2h.10s9p8d6f4g2h.
Spherical d
V            -1.0658140267135469e-14    -3.5527134223784897e-15 0.008753588724385739
End of Basis

Xfield

414
-0.800440216,-0.30800000000000005,0.1778238     -0.625931
-0.800440216,-0.0,-0.3556478    -0.625931
-0.800440216,0.30800000000000005,0.1778238      -0.625931
-0.7990692140000001,0.0,0.0     1.892092
0.5318359380000001,-0.30800000000000005,-0.1778238      2.515516
0.5318359380000001,0.0,0.3556478        2.515516
0.5318359380000001,0.30800000000000005,-0.1778238       2.515516
0.712597656,-0.6160000000000001,0.0     0.004632
0.712597656,-0.30800000000000005,-0.5334716     0.004632
0.712597656,-0.30800000000000005,0.5334716      0.004632
0.712597656,0.30800000000000005,-0.5334716      0.004632
0.712597656,0.30800000000000005,0.5334716       0.004632
0.712597656,0.6160000000000001,0.0      0.004632
0.8258300780000001,-0.30800000000000005,0.1778238       -2.519484
0.8258300780000001,-0.0,-0.3556478      -2.519484
0.8258300780000001,0.30800000000000005,0.1778238        -2.519484
-0.5866210940000001,-0.0,-0.0   -3.142907
-0.9950195320000002,-0.6160000000000001,-0.3556478      -0.625931
-0.9950195320000002,0.0,0.7112954       -0.625931
-0.9950195320000002,0.6160000000000001,-0.3556478       -0.625931
-1.3218750000000001,-0.6160000000000001,0.0     1.892092
-1.3218750000000001,-0.30800000000000005,-0.5334716     1.892092
-1.3218750000000001,-0.30800000000000005,0.5334716      1.892092
-1.3218750000000001,0.30800000000000005,-0.5334716      1.892092
-1.3218750000000001,0.30800000000000005,0.5334716       1.892092
-1.3218750000000001,0.6160000000000001,0.0      1.892092
5.034375000000001,-0.6160000000000001,0.3556478 2.515516
5.034375000000001,-0.0,-0.7112954       2.515516
5.034375000000001,0.6160000000000001,0.3556478  2.515516
0.727734376,-0.6160000000000001,-0.3556478      -2.519484
0.727734376,0.0,0.7112954       -2.519484
0.727734376,0.6160000000000001,-0.3556478       -2.519484
-0.6464843760000001,-0.6160000000000001,-0.0    -3.142907
-0.6464843760000001,-0.30800000000000005,-0.5334716     -3.142907
-0.6464843760000001,-0.30800000000000005,0.5334716      -3.142907
-0.6464843760000001,0.30800000000000005,-0.5334716      -3.142907
-0.6464843760000001,0.30800000000000005,0.5334716       -3.142907
-0.6464843760000001,0.6160000000000001,-0.0     -3.142907
-1.9046875,-0.6160000000000001,0.7112954        -0.625931
-1.9046875,0.6160000000000001,0.7112954 -0.625931
-1.9046875,-0.924,0.1778238     -0.625931
-1.9046875,0.924,0.1778238      -0.625931
-1.9046875,-0.30800000000000005,-0.8891194000000001     -0.625931
-1.9046875,0.30800000000000005,-0.8891194000000001      -0.625931
1.2015625,-0.30800000000000005,-0.1778238       4.409069
1.2015625,0.30800000000000005,-0.1778238        4.409069
1.2015625,0.0,0.3556478 4.409069
-35.050000000000004,-0.0,-0.0   -5.030367
-35.050000000000004,0.0,0.0     5.039632
2.703515624,-0.6160000000000001,-0.7112954      2.515516
2.703515624,0.6160000000000001,-0.7112954       2.515516
2.703515624,-0.924,-0.1778238   2.515516
2.703515624,0.924,-0.1778238    2.515516
2.703515624,-0.30800000000000005,0.8891194000000001     2.515516
2.703515624,0.30800000000000005,0.8891194000000001      2.515516
3.8078125000000003,-0.924,-0.5334716    0.004632
3.8078125000000003,-0.924,0.5334716     0.004632
3.8078125000000003,0.924,-0.5334716     0.004632
3.8078125000000003,0.924,0.5334716      0.004632
3.8078125000000003,-0.0,-1.0669432      0.004632
3.8078125000000003,0.0,1.0669432        0.004632
9.615625000000001,-0.6160000000000001,0.7112954 -2.519484
9.615625000000001,0.6160000000000001,0.7112954  -2.519484
9.615625000000001,-0.924,0.1778238      -2.519484
9.615625000000001,0.924,0.1778238       -2.519484
9.615625000000001,-0.30800000000000005,-0.8891194000000001      -2.519484
9.615625000000001,0.30800000000000005,-0.8891194000000001       -2.519484
-29.175,-0.924,-0.5334716       1.892092
-29.175,-0.924,0.5334716        1.892092
-29.175,0.924,-0.5334716        1.892092
-29.175,0.924,0.5334716 1.892092
-29.175,-0.0,-1.0669432 1.892092
-29.175,0.0,1.0669432   1.892092
-23.55,-0.6160000000000001,0.3556478    4.409069
-23.55,-0.0,-0.7112954  4.409069
-23.55,0.6160000000000001,0.3556478     4.409069
-17.8,-0.6160000000000001,-0.0  -5.030367
-17.8,-0.30800000000000005,-0.5334716   -5.030367
-17.8,-0.30800000000000005,0.5334716    -5.030367
-17.8,0.30800000000000005,-0.5334716    -5.030367
-17.8,-0.6160000000000001,0.0   5.039632
-17.8,0.6160000000000001,-0.0   -5.030367
-17.8,0.30800000000000005,0.5334716     -5.030367
-17.8,-0.30800000000000005,-0.5334716   5.039632
-17.8,-0.30800000000000005,0.5334716    5.039632
-17.8,0.30800000000000005,-0.5334716    5.039632
-17.8,0.6160000000000001,0.0    5.039632
-17.8,0.30800000000000005,0.5334716     5.039632
-9.325000000000001,-0.30800000000000005,-0.1778238      -5.660931
-9.325000000000001,0.0,0.3556478        -5.660931
-9.325000000000001,0.30800000000000005,-0.1778238       -5.660931
0.1765625,-1.2319998,0.0        0.004632
0.1765625,-0.6160000000000001,-1.0669432        0.004632
0.1765625,-0.6160000000000001,1.0669432 0.004632
0.1765625,0.6160000000000001,-1.0669432 0.004632
0.1765625,1.2319998,0.0 0.004632
0.1765625,0.6160000000000001,1.0669432  0.004632
13.5875,-0.924,0.5334716        -3.142907
13.5875,-0.924,-0.5334716       -3.142907
13.5875,0.924,-0.5334716        -3.142907
13.5875,0.924,0.5334716 -3.142907
13.5875,-0.0,-1.0669432 -3.142907
13.5875,0.0,1.0669432   -3.142907
17.275000000000002,-1.2319998,-0.3556478        -0.625931
17.275000000000002,-0.924,-0.8891194000000001   -0.625931
17.275000000000002,-0.30800000000000005,1.2447670000000002      -0.625931
17.275000000000002,0.924,-0.8891194000000001    -0.625931
17.275000000000002,1.2319998,-0.3556478 -0.625931
17.275000000000002,0.30800000000000005,1.2447670000000002       -0.625931
0.23945312400000002,-1.2319998,0.0      1.892092
0.23945312400000002,-0.6160000000000001,-1.0669432      1.892092
0.23945312400000002,-0.6160000000000001,1.0669432       1.892092
0.23945312400000002,0.6160000000000001,-1.0669432       1.892092
0.23945312400000002,1.2319998,0.0       1.892092
0.23945312400000002,0.6160000000000001,1.0669432        1.892092
6.768750000000001,-0.6160000000000001,-0.7112954        4.409069
6.768750000000001,0.6160000000000001,-0.7112954 4.409069
6.768750000000001,-0.924,-0.1778238     4.409069
6.768750000000001,0.924,-0.1778238      4.409069
6.768750000000001,-0.30800000000000005,0.8891194000000001       4.409069
6.768750000000001,0.30800000000000005,0.8891194000000001        4.409069
32.48125,-0.6160000000000001,0.3556478  -5.660931
32.48125,-0.0,-0.7112954        -5.660931
32.48125,0.6160000000000001,0.3556478   -5.660931
0.06875,-1.2319998,0.3556478    2.515516
0.06875,-0.30800000000000005,-1.2447670000000002        2.515516
0.06875,-0.924,0.8891194000000001       2.515516
0.06875,0.30800000000000005,-1.2447670000000002 2.515516
0.06875,1.2319998,0.3556478     2.515516
0.06875,0.924,0.8891194000000001        2.515516
-18.837500000000002,-1.2319998,-0.3556478       -2.519484
-18.837500000000002,-0.924,-0.8891194000000001  -2.519484
-18.837500000000002,-0.30800000000000005,1.2447670000000002     -2.519484
-18.837500000000002,0.924,-0.8891194000000001   -2.519484
-18.837500000000002,0.30800000000000005,1.2447670000000002      -2.519484
-18.837500000000002,1.2319998,-0.3556478        -2.519484
-4.4140625,-1.2319998,-0.0      -3.142907
-4.4140625,-0.6160000000000001,-1.0669432       -3.142907
-4.4140625,-0.6160000000000001,1.0669432        -3.142907
-4.4140625,0.6160000000000001,-1.0669432        -3.142907
-4.4140625,0.6160000000000001,1.0669432 -3.142907
-4.4140625,1.2319998,-0.0       -3.142907
121.30000000000001,0.0,0.0      6.927092
64.65,-1.2319998,0.7112954      -0.625931
64.65,1.2319998,0.7112954       -0.625931
64.65,-0.0,-1.4225910000000002  -0.625931
-1.084375,-0.924,0.5334716      -5.030367
-1.084375,-0.924,-0.5334716     -5.030367
-1.084375,-0.924,0.5334716      5.039632
-1.084375,-0.924,-0.5334716     5.039632
-1.084375,0.924,-0.5334716      -5.030367
-1.084375,0.924,0.5334716       -5.030367
-1.084375,0.924,-0.5334716      5.039632
-1.084375,0.924,0.5334716       5.039632
-1.084375,-0.0,-1.0669432       -5.030367
-1.084375,0.0,1.0669432 -5.030367
-1.084375,-0.0,-1.0669432       5.039632
-1.084375,0.0,1.0669432 5.039632
18.3625,-0.6160000000000001,-0.7112954  -5.660931
18.3625,0.6160000000000001,-0.7112954   -5.660931
18.3625,-0.924,-0.1778238       -5.660931
18.3625,0.924,-0.1778238        -5.660931
18.3625,-0.30800000000000005,0.8891194000000001 -5.660931
18.3625,0.30800000000000005,0.8891194000000001  -5.660931
60.1,-1.2319998,-0.7112954      2.515516
60.1,1.2319998,-0.7112954       2.515516
60.1,0.0,1.4225910000000002     2.515516
-103.45,-1.2319998,0.7112954    -2.519484
-103.45,1.2319998,0.7112954     -2.519484
-103.45,-0.0,-1.4225910000000002        -2.519484
10.7125,-0.6160000000000001,0.0 6.927092
10.7125,-0.30800000000000005,-0.5334716 6.927092
10.7125,-0.30800000000000005,0.5334716  6.927092
10.7125,0.30800000000000005,-0.5334716  6.927092
10.7125,0.30800000000000005,0.5334716   6.927092
10.7125,0.6160000000000001,0.0  6.927092
-11.05,-0.30800000000000005,0.1778238   7.550516
-11.05,0.0,-0.3556478   7.550516
-11.05,0.30800000000000005,0.1778238    7.550516
3.10625,-0.30800000000000005,-0.1778238 -7.554483
3.10625,0.30800000000000005,-0.1778238  -7.554483
3.10625,-0.0,0.3556478  -7.554483
-24.975,-1.5399998000000001,0.1778238   -0.625931
-24.975,-0.924,1.2447670000000002       -0.625931
-24.975,-0.6160000000000001,-1.4225910000000002 -0.625931
-24.975,0.6160000000000001,-1.4225910000000002  -0.625931
-24.975,1.5399998000000001,0.1778238    -0.625931
-24.975,0.924,1.2447670000000002        -0.625931
-13.4875,-1.2319998,0.3556478   4.409069
-13.4875,-0.924,0.8891194000000001      4.409069
-13.4875,-0.30800000000000005,-1.2447670000000002       4.409069
-13.4875,0.30800000000000005,-1.2447670000000002        4.409069
-13.4875,0.924,0.8891194000000001       4.409069
-13.4875,1.2319998,0.3556478    4.409069
9.83125,-1.2319998,-0.0 -5.030367
9.83125,-0.6160000000000001,-1.0669432  -5.030367
9.83125,-0.6160000000000001,1.0669432   -5.030367
9.83125,-1.2319998,0.0  5.039632
9.83125,-0.6160000000000001,-1.0669432  5.039632
9.83125,0.6160000000000001,-1.0669432   -5.030367
9.83125,0.6160000000000001,1.0669432    -5.030367
9.83125,1.2319998,-0.0  -5.030367
9.83125,-0.6160000000000001,1.0669432   5.039632
9.83125,0.6160000000000001,-1.0669432   5.039632
9.83125,1.2319998,0.0   5.039632
9.83125,0.6160000000000001,1.0669432    5.039632
36.15,-1.5399998000000001,-0.1778238    2.515516
36.15,-0.924,-1.2447670000000002        2.515516
36.15,-0.6160000000000001,1.4225910000000002    2.515516
36.15,0.924,-1.2447670000000002 2.515516
36.15,1.5399998000000001,-0.1778238     2.515516
36.15,0.6160000000000001,1.4225910000000002     2.515516
-4.66875,-1.5399998000000001,-0.5334716 0.004632
-4.66875,-1.5399998000000001,0.5334716  0.004632
-4.66875,-1.2319998,-1.0669432  0.004632
-4.66875,-1.2319998,1.0669432   0.004632
-4.66875,-0.30800000000000005,-1.6004148000000002       0.004632
-4.66875,0.30800000000000005,-1.6004148000000002        0.004632
-4.66875,-0.30800000000000005,1.6004148000000002        0.004632
-4.66875,1.2319998,-1.0669432   0.004632
-4.66875,0.30800000000000005,1.6004148000000002 0.004632
-4.66875,1.5399998000000001,-0.5334716  0.004632
-4.66875,1.5399998000000001,0.5334716   0.004632
-4.66875,1.2319998,1.0669432    0.004632
-28.625,-1.5399998000000001,0.1778238   -2.519484
-28.625,-0.924,1.2447670000000002       -2.519484
-28.625,-0.6160000000000001,-1.4225910000000002 -2.519484
-28.625,0.6160000000000001,-1.4225910000000002  -2.519484
-28.625,1.5399998000000001,0.1778238    -2.519484
-28.625,0.924,1.2447670000000002        -2.519484
606.4,-0.0,-0.0 -8.177907
-23.200000000000003,-0.6160000000000001,-0.3556478      7.550516
-23.200000000000003,0.0,0.7112954       7.550516
-23.200000000000003,0.6160000000000001,-0.3556478       7.550516
-120.7,-0.6160000000000001,0.3556478    -7.554483
-120.7,-0.0,-0.7112954  -7.554483
-120.7,0.6160000000000001,0.3556478     -7.554483
9.78125,-1.5399998000000001,0.5334716   1.892092
9.78125,-1.5399998000000001,-0.5334716  1.892092
9.78125,-1.2319998,-1.0669432   1.892092
9.78125,-1.2319998,1.0669432    1.892092
9.78125,-0.30800000000000005,-1.6004148000000002        1.892092
9.78125,0.30800000000000005,-1.6004148000000002 1.892092
9.78125,-0.30800000000000005,1.6004148000000002 1.892092
9.78125,1.2319998,-1.0669432    1.892092
9.78125,0.30800000000000005,1.6004148000000002  1.892092
9.78125,1.5399998000000001,-0.5334716   1.892092
9.78125,1.5399998000000001,0.5334716    1.892092
9.78125,1.2319998,1.0669432     1.892092
-101.0,-1.2319998,-0.7112954    4.409069
-101.0,1.2319998,-0.7112954     4.409069
-101.0,0.0,1.4225910000000002   4.409069
5.1640625,-1.2319998,0.3556478  -5.660931
5.1640625,-0.30800000000000005,-1.2447670000000002      -5.660931
5.1640625,-0.924,0.8891194000000001     -5.660931
5.1640625,0.30800000000000005,-1.2447670000000002       -5.660931
5.1640625,0.924,0.8891194000000001      -5.660931
5.1640625,1.2319998,0.3556478   -5.660931
-11.637500000000001,-1.2319998,-1.0669432       -3.142907
-11.637500000000001,-1.5399998000000001,0.5334716       -3.142907
-11.637500000000001,-1.5399998000000001,-0.5334716      -3.142907
-11.637500000000001,-1.2319998,1.0669432        -3.142907
-11.637500000000001,-0.30800000000000005,-1.6004148000000002    -3.142907
-11.637500000000001,0.30800000000000005,-1.6004148000000002     -3.142907
-11.637500000000001,-0.30800000000000005,1.6004148000000002     -3.142907
-11.637500000000001,1.5399998000000001,-0.5334716       -3.142907
-11.637500000000001,1.2319998,-1.0669432        -3.142907
-11.637500000000001,0.30800000000000005,1.6004148000000002      -3.142907
-11.637500000000001,1.5399998000000001,0.5334716        -3.142907
-11.637500000000001,1.2319998,1.0669432 -3.142907
13.08125,-0.924,-0.5334716      6.927092
13.08125,-0.924,0.5334716       6.927092
13.08125,0.924,-0.5334716       6.927092
13.08125,0.924,0.5334716        6.927092
13.08125,-0.0,-1.0669432        6.927092
13.08125,0.0,1.0669432  6.927092
-16.650000000000002,-0.6160000000000001,-0.0    -8.177907
-16.650000000000002,-0.30800000000000005,0.5334716      -8.177907
-16.650000000000002,-0.30800000000000005,-0.5334716     -8.177907
-16.650000000000002,0.30800000000000005,-0.5334716      -8.177907
-16.650000000000002,0.6160000000000001,-0.0     -8.177907
-16.650000000000002,0.30800000000000005,0.5334716       -8.177907
-18.181250000000002,-0.6160000000000001,0.7112954       7.550516
-18.181250000000002,0.6160000000000001,0.7112954        7.550516
-18.181250000000002,-0.924,0.1778238    7.550516
-18.181250000000002,0.924,0.1778238     7.550516
-18.181250000000002,-0.30800000000000005,-0.8891194000000001    7.550516
-18.181250000000002,0.30800000000000005,-0.8891194000000001     7.550516
-9.137500000000001,-0.6160000000000001,-0.7112954       -7.554483
-9.137500000000001,0.6160000000000001,-0.7112954        -7.554483
-9.137500000000001,-0.924,-0.1778238    -7.554483
-9.137500000000001,0.924,-0.1778238     -7.554483
-9.137500000000001,-0.30800000000000005,0.8891194000000001      -7.554483
-9.137500000000001,0.30800000000000005,0.8891194000000001       -7.554483
-100.05000000000001,0.0,1.7782386       -0.625931
-100.05000000000001,-1.5399998000000001,-0.8891194000000001     -0.625931
-100.05000000000001,1.5399998000000001,-0.8891194000000001      -0.625931
-53.95,-1.5399998000000001,-0.1778238   4.409069
-53.95,-0.924,-1.2447670000000002       4.409069
-53.95,-0.6160000000000001,1.4225910000000002   4.409069
-53.95,0.924,-1.2447670000000002        4.409069
-53.95,1.5399998000000001,-0.1778238    4.409069
-53.95,0.6160000000000001,1.4225910000000002    4.409069
62.075,-1.2319998,-0.7112954    -5.660931
62.075,1.2319998,-0.7112954     -5.660931
62.075,0.0,1.4225910000000002   -5.660931
117.4,-0.0,-1.7782386   2.515516
117.4,-1.5399998000000001,0.8891194000000001    2.515516
117.4,1.5399998000000001,0.8891194000000001     2.515516
-18.775000000000002,-1.8479998,-0.0     0.004632
-18.775000000000002,0.924,-1.6004148000000002   0.004632
-18.775000000000002,-0.924,1.6004148000000002   0.004632
-18.775000000000002,1.8479998,-0.0      0.004632
-18.775000000000002,-0.924,-1.6004148000000002  0.004632
-18.775000000000002,0.924,1.6004148000000002    0.004632
-77.15,0.0,1.7782386    -2.519484
-77.15,-1.5399998000000001,-0.8891194000000001  -2.519484
-77.15,1.5399998000000001,-0.8891194000000001   -2.519484
45.6,-1.2319998,0.0     6.927092
45.6,-0.6160000000000001,-1.0669432     6.927092
45.6,-0.6160000000000001,1.0669432      6.927092
45.6,0.6160000000000001,-1.0669432      6.927092
45.6,1.2319998,0.0      6.927092
45.6,0.6160000000000001,1.0669432       6.927092
42.375,-1.8479998,-0.3556478    -0.625931
42.375,-0.6160000000000001,1.7782386    -0.625931
42.375,-1.2319998,-1.4225910000000002   -0.625931
42.375,1.2319998,-1.4225910000000002    -0.625931
42.375,0.6160000000000001,1.7782386     -0.625931
42.375,1.8479998,-0.3556478     -0.625931
22.387500000000003,-1.8479998,0.0       1.892092
22.387500000000003,-0.924,-1.6004148000000002   1.892092
22.387500000000003,-0.924,1.6004148000000002    1.892092
22.387500000000003,0.924,-1.6004148000000002    1.892092
22.387500000000003,1.8479998,0.0        1.892092
22.387500000000003,0.924,1.6004148000000002     1.892092
-0.8640625000000001,-1.5399998000000001,0.5334716       -5.030367
-0.8640625000000001,-1.5399998000000001,-0.5334716      -5.030367
-0.8640625000000001,-1.2319998,-1.0669432       -5.030367
-0.8640625000000001,-1.2319998,1.0669432        -5.030367
-0.8640625000000001,-1.5399998000000001,0.5334716       5.039632
-0.8640625000000001,0.30800000000000005,-1.6004148000000002     -5.030367
-0.8640625000000001,-0.30800000000000005,-1.6004148000000002    -5.030367
-0.8640625000000001,-1.5399998000000001,-0.5334716      5.039632
-0.8640625000000001,-1.2319998,-1.0669432       5.039632
-0.8640625000000001,-0.30800000000000005,1.6004148000000002     -5.030367
-0.8640625000000001,0.30800000000000005,-1.6004148000000002     5.039632
-0.8640625000000001,-1.2319998,1.0669432        5.039632
-0.8640625000000001,-0.30800000000000005,-1.6004148000000002    5.039632
-0.8640625000000001,1.2319998,-1.0669432        -5.030367
-0.8640625000000001,0.30800000000000005,1.6004148000000002      -5.030367
-0.8640625000000001,1.5399998000000001,-0.5334716       -5.030367
-0.8640625000000001,1.5399998000000001,0.5334716        -5.030367
-0.8640625000000001,1.2319998,1.0669432 -5.030367
-0.8640625000000001,-0.30800000000000005,1.6004148000000002     5.039632
-0.8640625000000001,1.2319998,-1.0669432        5.039632
-0.8640625000000001,1.5399998000000001,-0.5334716       5.039632
-0.8640625000000001,0.30800000000000005,1.6004148000000002      5.039632
-0.8640625000000001,1.5399998000000001,0.5334716        5.039632
-0.8640625000000001,1.2319998,1.0669432 5.039632
-0.1375,-1.5399998000000001,-0.1778238  -5.660931
-0.1375,-0.924,-1.2447670000000002      -5.660931
-0.1375,-0.6160000000000001,1.4225910000000002  -5.660931
-0.1375,0.924,-1.2447670000000002       -5.660931
-0.1375,0.6160000000000001,1.4225910000000002   -5.660931
-0.1375,1.5399998000000001,-0.1778238   -5.660931
23.200000000000003,-0.30800000000000005,0.1778238       9.444068
23.200000000000003,0.0,-0.3556478       9.444068
23.200000000000003,0.30800000000000005,0.1778238        9.444068
10.262500000000001,-1.8479998,0.3556478 2.515516
10.262500000000001,-0.6160000000000001,-1.7782386       2.515516
10.262500000000001,0.6160000000000001,-1.7782386        2.515516
10.262500000000001,-1.2319998,1.4225910000000002        2.515516
10.262500000000001,1.8479998,0.3556478  2.515516
10.262500000000001,1.2319998,1.4225910000000002 2.515516
31.375,-1.8479998,-0.3556478    -2.519484
31.375,-0.6160000000000001,1.7782386    -2.519484
31.375,-1.2319998,-1.4225910000000002   -2.519484
31.375,1.2319998,-1.4225910000000002    -2.519484
31.375,1.8479998,-0.3556478     -2.519484
31.375,0.6160000000000001,1.7782386     -2.519484
43.925000000000004,-1.8479998,-0.0      -3.142907
43.925000000000004,-0.924,-1.6004148000000002   -3.142907
43.925000000000004,-0.924,1.6004148000000002    -3.142907
43.925000000000004,0.924,-1.6004148000000002    -3.142907
43.925000000000004,1.8479998,-0.0       -3.142907
43.925000000000004,0.924,1.6004148000000002     -3.142907
1.729101562,-0.924,-0.5334716   -8.177907
1.729101562,-0.924,0.5334716    -8.177907
1.729101562,0.924,0.5334716     -8.177907
1.729101562,0.924,-0.5334716    -8.177907
1.729101562,-0.0,-1.0669432     -8.177907
1.729101562,0.0,1.0669432       -8.177907
50.375,-0.924,-0.8891194000000001       7.550516
50.375,-1.2319998,-0.3556478    7.550516
50.375,-0.30800000000000005,1.2447670000000002  7.550516
50.375,0.924,-0.8891194000000001        7.550516
50.375,0.30800000000000005,1.2447670000000002   7.550516
50.375,1.2319998,-0.3556478     7.550516
-69.60000000000001,-0.924,0.8891194000000001    -7.554483
-69.60000000000001,-1.2319998,0.3556478 -7.554483
-69.60000000000001,-0.30800000000000005,-1.2447670000000002     -7.554483
-69.60000000000001,0.30800000000000005,-1.2447670000000002      -7.554483
-69.60000000000001,1.2319998,0.3556478  -7.554483
-69.60000000000001,0.924,0.8891194000000001     -7.554483
14.253125,-1.5399998000000001,1.2447670000000002        -0.625931
14.253125,-1.8479998,0.7112954  -0.625931
14.253125,-0.30800000000000005,-1.9560626       -0.625931
14.253125,0.30800000000000005,-1.9560626        -0.625931
14.253125,1.8479998,0.7112954   -0.625931
14.253125,1.5399998000000001,1.2447670000000002 -0.625931
-96.75,-0.0,-1.7782386  4.409069
-96.75,-1.5399998000000001,0.8891194000000001   4.409069
-96.75,1.5399998000000001,0.8891194000000001    4.409069

End of input

&SCF
Occupied
9
Iterations
   50  100
End of Input

&RASSCF
LumOrb
Symmetry
1
Spin
2
Nactel
1 0 0
CIRoot
9 9 1
inactive
9
ras2
9
End of Input

>>> COPY vanadium_so_cf.JobIph $SLURM_SUBMIT_DIR/vanadium_so_cf.doublet.JobIph

>>> COPY $SLURM_SUBMIT_DIR/vanadium_so_cf.doublet.JobIph ./JOB002

&RASSI
NROFJobIph
1 All
SpinOrbit
End of Input

EOF

-- ----------------------------------

--- Start Module: seward at Tue Mar 25 14:29:44 2025 ---

()()()()()()()()()()()()()()()()()()()()()()()()()()()()()()()()()()()()()()()()()()()()()()()()()()

                                              &SEWARD

                                   only a single process is used
                       available to each process: 4.1 GB of memory, 1 thread?
                                            pid: 955994
()()()()()()()()()()()()()()()()()()()()()()()()()()()()()()()()()()()()()()()()()()()()()()()()()()

 The speed of LIGHT in this CALCULATION =   137.03599917700001     
               SEWARD will generate:
                  Multipole Moment integrals up to order  2
                  Kinetic Energy integrals
                  Nuclear Attraction integrals (point charge)
                  One-Electron Hamiltonian integrals
                  Velocity integrals
                  Relativistic Douglas-Kroll-Hess integrals:
                    - Parametrization         : EXP
                    - DKH order of Hamiltonian: 2
                    - DKH order of Properties : 0
                         - multipole moment operators
                         - electric potential operators
                         - contact operators
                  External field from   414 point(s) added to the one-electron Hamiltonian
                  Orbital angular momentum around (-0.0000 -0.0000  0.0088 )
                  Velocity quadrupole around (-0.0000 -0.0000  0.0088 )
                  Atomic mean-field integrals
                  Two-Electron Repulsion integrals

                   Integrals are discarded if absolute value <: 0.10E-13
                   Integral cutoff threshold is set to       <: 0.10E-15

++    Symmetry information:
      ---------------------

                    Character Table for C1 

                             E  
                    a        1  x, y, xy, Rz, z, xz, Ry, yz, Rx, I
--


++    Basis set information:
      ----------------------


      Basis set label: V.ANO-RCC.ROOS.21S15P10D6F4G2H.10S9P8D6F4G2H......

      Electronic valence basis set:
      ------------------
      Associated Effective Charge  23.000000 au
      Associated Actual Charge     23.000000 au
      Nuclear Model: Point charge

      Shell  nPrim  nBasis  Cartesian Spherical Contaminant
         s      21      10        X                  
         p      15       9        X                  
         d      10       8                 X         
         f       6       6                 X         
         g       4       4                 X         
         h       2       2                 X         
--


++    Molecular structure info:
      -------------------------

                    ************************************************ 
                    **** Cartesian Coordinates / Bohr, Angstrom **** 
                    ************************************************ 

     Center  Label                x              y              z                     x              y              z
        1      V               -0.000000      -0.000000       0.008754             -0.000000      -0.000000       0.004632
--


++    Operator info:
      --------------


  Net charge from external field:   -39.268449999999902     
--


            Nuclear Potential Energy              0.00000000 au

                    Nuclear-External Field Potential Energy   -1052.11959613 au
                    External Field Potential Energy            8028.18450693 au 


            Total Nuclear Potential Energy          -1052.11959613 au


      Basis set specifications :
      Symmetry species         a  
      Basis functions          177

 Sorry, Molden does not know how to handle
 functions with angular momentum larger than g
Note: The following floating-point exceptions are signalling: IEEE_UNDERFLOW_FLAG IEEE_DENORMAL
--- Stop Module: seward at Tue Mar 25 14:29:53 2025 /rc=_RC_ALL_IS_WELL_ ---
*** files: vanadium_so_cf.GssOrb xmldump
    saved to directory /home4/s4752295/Internship/Initial_simulations/Point_charge_model/1_electron/Madelung_charges_9_active_space/V
--- Module seward spent 9 seconds ---

*** symbolic link created: INPORB -> vanadium_so_cf.GssOrb
--- Start Module: scf at Tue Mar 25 14:29:54 2025 ---

()()()()()()()()()()()()()()()()()()()()()()()()()()()()()()()()()()()()()()()()()()()()()()()()()()

                                                &SCF

                                   only a single process is used
                       available to each process: 4.1 GB of memory, 1 thread?
                                            pid: 956008
()()()()()()()()()()()()()()()()()()()()()()()()()()()()()()()()()()()()()()()()()()()()()()()()()()

++    Input section:
      --------------

      Header of the integral files:
      
       Integrals generated by seward 4.2.0  , Tue Mar 25 14:29:44 2025


      Cartesian coordinates in Angstrom:
      -----------------------------------------------------
      No.  Label        X            Y            Z        
      -----------------------------------------------------
       1   V         -0.00000000  -0.00000000   0.00463220
      -----------------------------------------------------
      Nuclear repulsion energy =-1052.11959613
--

++    Orbital specifications:
      -----------------------

      Symmetry species               1
                                     a
      Frozen orbitals                0
      Occupied orbitals              9
      Secondary orbitals           168
      Deleted orbitals               0
      Total number of orbitals     177
      Number of basis functions    177
--

      Molecular charge                           5.000

++    Optimization specifications:
      ----------------------------

      SCF Algorithm: Conventional
      Minimized density differences are used
      Number of density matrices in core                5
      Maximum number of NDDO SCF iterations            50
      Maximum number of HF SCF iterations             100
      Threshold for SCF energy change            0.10E-08
      Threshold for density matrix               0.10E-03
      Threshold for Fock matrix                  0.15E-03
      Threshold for linear dependence            0.10E-08
      Threshold at which DIIS is turned on       0.15E+00
      Threshold at which QNR/C2DIIS is turned on 0.75E-01
      Threshold for Norm(delta) (QNR/C2DIIS)     0.20E-04
      DIIS extrapolation of the SCF procedure
      All orbitals punched on: SCFORB
--

      Detected guessorb starting orbitals                                             


++ Convergence information
                                   SCF        iterations: Energy and convergence statistics

Iter     Tot. SCF        One-elec.       Two-elec.     Energy      Max Dij or  Max Fij      DNorm      TNorm      AccCon     Time
         Energy          Energy          Energy        Change      Delta Norm                                                in Sec.

 The total and one-electron energies are shifted by a value of      1000. a.u.

   1  -187.944210549   574.695617969   289.479767612   0.00E+00    0.38E-02*   0.30E+01*    0.60E+01   0.22E+03   None         1.
   2  -401.011250640   619.255363307    31.852982184  -0.21E+03*   0.12E-01*   0.13E+01*    0.79E+01   0.60E+02   EDIIS        1.
   3  -445.955845119   405.205554179   200.958196833  -0.45E+02*   0.98E-01*   0.28E+01*    0.50E+01   0.17E+03   EDIIS        1.
   4  -439.712432282   561.248905445    51.158258403   0.62E+01*   0.67E-01*   0.32E+00*    0.32E+01   0.85E+02   EDIIS        1.
   5  -463.204535068   458.270241079   130.644819984  -0.23E+02*   0.56E-01*   0.28E+00*    0.29E+01   0.14E+03   EDIIS        1.
   6  -463.243400342   458.773481065   130.102714723  -0.39E-01*   0.90E-02*   0.45E-01*    0.11E+00   0.14E+03   EDIIS        1.
   7  -463.244019615   458.774280146   130.101296369  -0.62E-03*   0.57E-03*   0.13E-01*    0.10E-01   0.14E+03   c2DIIS       1.
   8  -463.244051089   458.780527480   130.095017561  -0.31E-04*   0.55E-04*   0.53E-03*    0.62E-03   0.14E+03   QNRc2DIIS    1.
   9  -463.244051173   458.780431211   130.095113747  -0.83E-07*   0.16E-04    0.12E-03     0.37E-04   0.14E+03   QNRc2DIIS    1.
  10  -463.244051177   458.780508769   130.095036185  -0.43E-08*   0.54E-06    0.24E-05     0.13E-04   0.14E+03   QNRc2DIIS    1.
  11  -463.244051177   458.780505130   130.095039823  -0.57E-11    0.47E-06    0.11E-05     0.45E-02   0.14E+03   QNRc2DIIS    1.

       Convergence after 11 Macro Iterations
--

 *****************************************************************************************************************************
 *                                                                                                                           *
 *                                             SCF/KS-DFT Program, Final results                                             *
 *                                                                                                                           *
 *                                                                                                                           *
 *                                                                                                                           *
 *                                                       Final Results                                                       *
 *                                                                                                                           *
 *****************************************************************************************************************************

::    Total SCF energy                              -1463.2440511770
      One-electron energy                            -541.2194948701
      Two-electron energy                             130.0950398233
      Nuclear repulsion energy                      -1052.1195961302
      Kinetic energy (interpolated)                   824.2968494037
      Virial theorem                                    1.7751421132
      Total spin, S(S+1)                                0.0000000000
      Total spin, S                                     0.0000000000
      Max non-diagonal density matrix element           0.0000008774
      Max non-diagonal Fock matrix element              0.0000010868


      All orbitals with orbital energies smaller than  E(LUMO)+0.5 are printed

++    Molecular orbitals:
      -------------------

      Title: SCF orbitals

      Molecular orbitals for symmetry species 1: a  

          Orbital            1         2         3         4         5         6         7         8         9        10    
          Energy         -178.3502   -1.5765    2.2644    3.7522    5.4653    5.4729    7.2099    7.2116    8.0356    8.1236
          Occ. No.          2.0000    2.0000    2.0000    2.0000    2.0000    2.0000    2.0000    2.0000    2.0000    0.0000

        1 V      1s         1.0000   -0.0000    0.0012   -0.0000    0.0000   -0.0000    0.0000    0.0000    0.0000   -0.0000
        2 V      2s        -0.0024   -0.0002    0.8651    0.0078    0.0000    0.0000    0.0017    0.0000    0.0000   -0.0000
        3 V      3s         0.0007    0.0000   -0.0173   -0.0012    0.0000   -0.0000   -0.0002   -0.0000    0.0000   -0.0000
        4 V      4s        -0.0001    0.0984    0.0022    0.0406   -0.0000    0.0003    0.0000   -0.0000    0.0005    0.0000
        5 V      5s         0.0002    0.3822   -0.0024   -0.1115   -0.0000    0.0008   -0.0000   -0.0000    0.0007    0.0000
        6 V      6s        -0.0006    0.2219    0.0086   -0.1633   -0.0000    0.0003    0.0002   -0.0000    0.0000    0.0000
        7 V      7s         0.0005    0.2691   -0.0018   -0.3263   -0.0000    0.0002   -0.0001   -0.0000   -0.0005    0.0000
        8 V      8s        -0.0007    0.1311    0.0054   -0.2763   -0.0000   -0.0001    0.0001    0.0000   -0.0006   -0.0000
        9 V      9s         0.0005    0.1047    0.0034   -0.5023    0.0000   -0.0003   -0.0000    0.0000   -0.0008   -0.0000
       10 V     10s        -0.0008    0.0222    0.0056   -0.2091    0.0000   -0.0001   -0.0000    0.0000   -0.0003   -0.0000
       11 V      2px        0.0019    0.0001    0.4987    0.0042   -0.0000    0.0000   -0.0054   -0.0000   -0.0000    0.0000
       12 V      3px       -0.0004    0.0002    0.0097   -0.0024   -0.0000    0.0000    0.0001    0.0000    0.0000   -0.0000
       13 V      4px        0.0001    0.1287   -0.0046    0.1165   -0.0000    0.0003   -0.0000   -0.0000    0.0006   -0.0000
       14 V      5px       -0.0004    0.1587    0.0130    0.1093   -0.0000    0.0003    0.0000   -0.0000    0.0006   -0.0000
       15 V      6px        0.0003    0.3750   -0.0125    0.1550   -0.0000    0.0005   -0.0000   -0.0000    0.0013   -0.0000
       16 V      7px       -0.0004    0.3107    0.0165   -0.0032   -0.0000    0.0002    0.0001   -0.0000    0.0008   -0.0000
       17 V      8px        0.0003    0.3697   -0.0099   -0.1903    0.0000   -0.0003   -0.0001   -0.0000    0.0006   -0.0000
       18 V      9px       -0.0003    0.1851    0.0114   -0.2213    0.0000   -0.0004    0.0001    0.0000    0.0001   -0.0000
       19 V     10px        0.0003    0.0424   -0.0025   -0.0974    0.0000   -0.0002   -0.0001   -0.0000   -0.0000   -0.0000
       20 V      2py        0.0000   -0.0000    0.0000    0.0000    0.0010    0.0000   -0.0000    0.9946    0.0000    0.0079
       21 V      3py       -0.0000   -0.0000    0.0000   -0.0000    0.0000    0.0000    0.0000   -0.0312   -0.0000   -0.0009
       22 V      4py        0.0000    0.0000   -0.0000    0.0000    0.1447    0.0000   -0.0000    0.0071    0.0000    0.0292
       23 V      5py       -0.0000    0.0000    0.0000    0.0000    0.1797    0.0000    0.0000   -0.0230   -0.0000   -0.0070
       24 V      6py        0.0000    0.0000   -0.0000   -0.0000    0.4288    0.0000   -0.0000    0.0138   -0.0000   -0.1333
       25 V      7py       -0.0000    0.0000    0.0000   -0.0000    0.3657    0.0000    0.0000   -0.0156   -0.0000   -0.2497
       26 V      8py        0.0000    0.0000   -0.0000   -0.0000    0.4503    0.0000   -0.0000    0.0137   -0.0000   -0.4713
       27 V      9py       -0.0000    0.0000    0.0000   -0.0000    0.2333    0.0000   -0.0000   -0.0050   -0.0000   -0.3403
       28 V     10py        0.0000    0.0000    0.0000   -0.0000    0.0556    0.0000   -0.0000    0.0092   -0.0000   -0.1122
       29 V      2pz        0.0000   -0.0000    0.0013    0.0000   -0.0000    0.0010    0.9945    0.0000    0.0077   -0.0000
       30 V      3pz       -0.0000    0.0000   -0.0000    0.0000    0.0000   -0.0000   -0.0313   -0.0000   -0.0009    0.0000
       31 V      4pz        0.0000   -0.0001    0.0000    0.0000   -0.0000    0.1451    0.0071    0.0000    0.0286   -0.0000
       32 V      5pz       -0.0000   -0.0001   -0.0000   -0.0000   -0.0000    0.1798   -0.0230   -0.0000   -0.0078    0.0000
       33 V      6pz        0.0000   -0.0002    0.0000   -0.0001   -0.0000    0.4282    0.0137    0.0000   -0.1355    0.0000
       34 V      7pz       -0.0000   -0.0001   -0.0000   -0.0001   -0.0000    0.3643   -0.0156   -0.0000   -0.2518    0.0000
       35 V      8pz        0.0000   -0.0002   -0.0000   -0.0003   -0.0000    0.4474    0.0135    0.0000   -0.4741    0.0000
       36 V      9pz        0.0000   -0.0001    0.0000   -0.0003   -0.0000    0.2313   -0.0050   -0.0000   -0.3418    0.0000
       37 V     10pz       -0.0000   -0.0000   -0.0001   -0.0001   -0.0000    0.0549    0.0092    0.0000   -0.1125    0.0000
       38 V      3d2-      -0.0000    0.0000    0.0000    0.0000    0.0192    0.0000   -0.0000    0.0409    0.0000    0.0283
       39 V      4d2-       0.0000    0.0000   -0.0000    0.0000    0.1238    0.0000    0.0000   -0.0390    0.0000    0.1607
       40 V      5d2-      -0.0000    0.0000    0.0000    0.0000    0.2361    0.0000   -0.0000    0.0357    0.0000    0.2834
       41 V      6d2-       0.0000    0.0000   -0.0000    0.0000    0.2363    0.0000    0.0000   -0.0506    0.0000    0.2584
       42 V      7d2-      -0.0000    0.0000    0.0000    0.0000    0.2620    0.0000   -0.0000    0.0333    0.0000    0.2637
       43 V      8d2-       0.0000    0.0000   -0.0000    0.0000    0.2283    0.0000    0.0000   -0.0186    0.0000    0.2040
       44 V      9d2-      -0.0000    0.0000   -0.0000    0.0000    0.1620    0.0000   -0.0000    0.0040    0.0000    0.1309
       45 V     10d2-       0.0000    0.0000   -0.0000    0.0000    0.0397    0.0000    0.0000   -0.0006    0.0000    0.0296
       46 V      3d1-      -0.0000    0.0000   -0.0000    0.0000    0.0002    0.0000   -0.0000    0.0012   -0.0000   -0.0012
       47 V      4d1-       0.0000    0.0000    0.0000    0.0000   -0.0011   -0.0000    0.0000   -0.0005   -0.0000   -0.0070
       48 V      5d1-      -0.0000    0.0000   -0.0000    0.0000   -0.0016   -0.0000   -0.0000    0.0001   -0.0000   -0.0122
       49 V      6d1-       0.0000   -0.0000    0.0000    0.0000   -0.0010   -0.0000   -0.0000    0.0012   -0.0000   -0.0118
       50 V      7d1-      -0.0000   -0.0000   -0.0000    0.0000   -0.0016   -0.0000    0.0000   -0.0006   -0.0000   -0.0124
       51 V      8d1-       0.0000   -0.0000    0.0000    0.0000   -0.0016   -0.0000   -0.0000    0.0002   -0.0000   -0.0098
       52 V      9d1-      -0.0000   -0.0000    0.0000    0.0000   -0.0007   -0.0000   -0.0000    0.0006   -0.0000   -0.0067
       53 V     10d1-       0.0000   -0.0000    0.0000    0.0000    0.0000    0.0000    0.0000   -0.0002   -0.0000   -0.0017
       54 V      3d0        0.0000   -0.0069   -0.0072   -0.0098    0.0000   -0.0001   -0.0006   -0.0000    0.0012   -0.0000
       55 V      4d0       -0.0000   -0.0461    0.0074   -0.0624   -0.0000    0.0012    0.0000    0.0000    0.0071   -0.0000
       56 V      5d0        0.0000   -0.0902   -0.0066   -0.1128   -0.0000    0.0018    0.0003    0.0000    0.0123   -0.0000
       57 V      6d0       -0.0001   -0.0918    0.0111   -0.1055   -0.0000    0.0013   -0.0014   -0.0000    0.0119   -0.0000
       58 V      7d0        0.0001   -0.1038   -0.0070   -0.1096   -0.0000    0.0019    0.0008    0.0000    0.0124   -0.0000
       59 V      8d0       -0.0001   -0.0949    0.0041   -0.0895   -0.0000    0.0018   -0.0003   -0.0000    0.0097   -0.0000
       60 V      9d0        0.0001   -0.0714   -0.0001   -0.0629   -0.0000    0.0009   -0.0004   -0.0000    0.0065   -0.0000
       61 V     10d0       -0.0001   -0.0183   -0.0008   -0.0154   -0.0000    0.0001    0.0002    0.0000    0.0016   -0.0000
       62 V      3d1+      -0.0000   -0.0000   -0.0001    0.0000   -0.0000    0.0194    0.0411    0.0000    0.0282   -0.0000
       63 V      4d1+       0.0000   -0.0001    0.0001    0.0000   -0.0000    0.1248   -0.0391   -0.0000    0.1600   -0.0000
       64 V      5d1+      -0.0000   -0.0001   -0.0001    0.0000   -0.0000    0.2377    0.0360    0.0000    0.2820   -0.0000
       65 V      6d1+       0.0000   -0.0001    0.0001    0.0000   -0.0000    0.2377   -0.0509   -0.0000    0.2568   -0.0000
       66 V      7d1+      -0.0000   -0.0002    0.0000    0.0000   -0.0000    0.2634    0.0336    0.0000    0.2619   -0.0000
       67 V      8d1+       0.0000   -0.0002   -0.0001   -0.0001   -0.0000    0.2292   -0.0187   -0.0000    0.2023   -0.0000
       68 V      9d1+      -0.0000   -0.0001    0.0000   -0.0001   -0.0000    0.1625    0.0040    0.0000    0.1296   -0.0000
       69 V     10d1+       0.0000   -0.0000    0.0000   -0.0000   -0.0000    0.0398   -0.0005    0.0000    0.0292   -0.0000
       70 V      3d2+      -0.0001    0.0120    0.0124    0.0170    0.0000   -0.0001   -0.0008   -0.0000    0.0006   -0.0000
       71 V      4d2+       0.0001    0.0799   -0.0128    0.1083   -0.0000    0.0007    0.0004    0.0000    0.0037   -0.0000
       72 V      5d2+      -0.0001    0.1562    0.0115    0.1958   -0.0000    0.0011   -0.0002    0.0000    0.0065   -0.0000
       73 V      6d2+       0.0002    0.1590   -0.0194    0.1831   -0.0000    0.0008   -0.0004    0.0000    0.0063   -0.0000
       74 V      7d2+      -0.0002    0.1798    0.0123    0.1902   -0.0000    0.0011    0.0002    0.0000    0.0066   -0.0000
       75 V      8d2+       0.0002    0.1642   -0.0071    0.1552   -0.0000    0.0011   -0.0001    0.0000    0.0051   -0.0000
       76 V      9d2+      -0.0002    0.1235    0.0001    0.1090   -0.0000    0.0005   -0.0003   -0.0000    0.0034   -0.0000
       77 V     10d2+       0.0002    0.0317    0.0015    0.0267   -0.0000    0.0000    0.0001    0.0000    0.0008   -0.0000
       78 V      4f3-      -0.0000    0.0000    0.0000    0.0000    0.0084    0.0000    0.0000   -0.0007    0.0000    0.0141
       79 V      5f3-       0.0000    0.0000   -0.0000    0.0000    0.0440    0.0000    0.0000   -0.0004    0.0000    0.0778
       80 V      6f3-      -0.0000    0.0000   -0.0000    0.0000    0.0897    0.0000    0.0000   -0.0004    0.0000    0.1544
       81 V      7f3-       0.0000    0.0000   -0.0000    0.0000    0.1421    0.0000    0.0000   -0.0036    0.0000    0.2388
       82 V      8f3-      -0.0000    0.0000   -0.0000    0.0000    0.1557    0.0000    0.0000    0.0009    0.0000    0.2616
       83 V      9f3-       0.0000    0.0000   -0.0000    0.0000    0.1800    0.0000    0.0000   -0.0035    0.0000    0.3034
       84 V      4f2-      -0.0000    0.0000   -0.0000    0.0000   -0.0001   -0.0000    0.0000   -0.0011   -0.0000   -0.0007
       85 V      5f2-       0.0000    0.0000    0.0000    0.0000   -0.0008   -0.0000   -0.0000    0.0015   -0.0000   -0.0039
       86 V      6f2-      -0.0000    0.0000   -0.0000    0.0000   -0.0012   -0.0000    0.0000   -0.0016   -0.0000   -0.0072
       87 V      7f2-       0.0000   -0.0000   -0.0000    0.0000   -0.0022   -0.0000   -0.0000    0.0021   -0.0000   -0.0111
       88 V      8f2-      -0.0000   -0.0000   -0.0000    0.0000   -0.0020   -0.0000    0.0000   -0.0019   -0.0000   -0.0112
       89 V      9f2-       0.0000   -0.0000   -0.0000    0.0000   -0.0017   -0.0000   -0.0000    0.0011   -0.0000   -0.0120
       90 V      4f1-       0.0000   -0.0000   -0.0000   -0.0000   -0.0022   -0.0000   -0.0000    0.0002   -0.0000   -0.0036
       91 V      5f1-      -0.0000   -0.0000    0.0000   -0.0000   -0.0114   -0.0000   -0.0000    0.0001   -0.0000   -0.0201
       92 V      6f1-       0.0000   -0.0000    0.0000   -0.0000   -0.0233   -0.0000   -0.0000    0.0001   -0.0000   -0.0399
       93 V      7f1-      -0.0000   -0.0000    0.0000   -0.0000   -0.0370   -0.0000   -0.0000    0.0009   -0.0000   -0.0616
       94 V      8f1-       0.0000   -0.0000    0.0000   -0.0000   -0.0406   -0.0000   -0.0000   -0.0002   -0.0000   -0.0675
       95 V      9f1-      -0.0000   -0.0000    0.0000   -0.0000   -0.0470   -0.0000   -0.0000    0.0009   -0.0000   -0.0782
       96 V      4f0       -0.0000   -0.0002   -0.0004    0.0001    0.0000   -0.0054    0.0002    0.0000   -0.0089    0.0000
       97 V      5f0        0.0000    0.0000    0.0001    0.0001    0.0000   -0.0282    0.0005   -0.0000   -0.0491    0.0000
       98 V      6f0        0.0000    0.0004    0.0002    0.0003    0.0000   -0.0575    0.0000   -0.0000   -0.0974    0.0000
       99 V      7f0       -0.0000    0.0001   -0.0006    0.0008    0.0000   -0.0912    0.0024   -0.0000   -0.1505    0.0000
      100 V      8f0        0.0000    0.0001    0.0009    0.0004    0.0000   -0.0999   -0.0008   -0.0000   -0.1648    0.0000
      101 V      9f0        0.0000    0.0006   -0.0004    0.0002    0.0000   -0.1155    0.0023   -0.0000   -0.1911    0.0000
      102 V      4f1+       0.0000   -0.0041    0.0004   -0.0055   -0.0000    0.0001    0.0007    0.0000    0.0007   -0.0000
      103 V      5f1+      -0.0000   -0.0216    0.0001   -0.0326   -0.0000    0.0008   -0.0010   -0.0000    0.0039   -0.0000
      104 V      6f1+       0.0000   -0.0443    0.0003   -0.0642   -0.0000    0.0013    0.0011    0.0000    0.0073   -0.0000
      105 V      7f1+      -0.0000   -0.0715    0.0015   -0.0987   -0.0000    0.0022   -0.0014   -0.0000    0.0112   -0.0000
      106 V      8f1+       0.0000   -0.0834   -0.0005   -0.1140   -0.0000    0.0022    0.0013    0.0000    0.0114   -0.0000
      107 V      9f1+      -0.0000   -0.1021    0.0017   -0.1393   -0.0000    0.0021   -0.0008   -0.0000    0.0123   -0.0000
      108 V      4f2+      -0.0000   -0.0001   -0.0004    0.0001   -0.0000    0.0069   -0.0005   -0.0000    0.0114   -0.0000
      109 V      5f2+       0.0000   -0.0000    0.0002    0.0001   -0.0000    0.0363   -0.0004    0.0000    0.0634   -0.0000
      110 V      6f2+       0.0000    0.0002    0.0001    0.0002   -0.0000    0.0740   -0.0002    0.0000    0.1257   -0.0000
      111 V      7f2+      -0.0000   -0.0001   -0.0005    0.0008   -0.0000    0.1172   -0.0030    0.0000    0.1944   -0.0000
      112 V      8f2+       0.0000   -0.0000    0.0007    0.0005   -0.0000    0.1283    0.0010    0.0000    0.2129   -0.0000
      113 V      9f2+       0.0000    0.0003   -0.0004    0.0003   -0.0000    0.1483   -0.0029    0.0000    0.2470   -0.0000
      114 V      4f3+      -0.0000    0.0053   -0.0004    0.0072   -0.0000    0.0001    0.0007    0.0000    0.0005   -0.0000
      115 V      5f3+       0.0000    0.0279   -0.0002    0.0423   -0.0000    0.0006   -0.0008   -0.0000    0.0025   -0.0000
      116 V      6f3+      -0.0000    0.0572   -0.0001    0.0833   -0.0000    0.0009    0.0009    0.0000    0.0047   -0.0000
      117 V      7f3+       0.0000    0.0923   -0.0021    0.1280   -0.0000    0.0015   -0.0012   -0.0000    0.0072   -0.0000
      118 V      8f3+      -0.0000    0.1076    0.0009    0.1477   -0.0000    0.0015    0.0011    0.0000    0.0072   -0.0000
      119 V      9f3+       0.0000    0.1316   -0.0023    0.1806   -0.0000    0.0013   -0.0007   -0.0000    0.0077   -0.0000
      120 V      5g4-      -0.0000   -0.0000    0.0000    0.0000   -0.0001   -0.0000    0.0000   -0.0004    0.0000    0.0000
      121 V      6g4-       0.0000    0.0000   -0.0000    0.0000    0.0018    0.0000    0.0000   -0.0003    0.0000    0.0015
      122 V      7g4-      -0.0000    0.0000    0.0000    0.0000    0.0055    0.0000   -0.0000    0.0007    0.0000    0.0064
      123 V      8g4-       0.0000    0.0000    0.0000    0.0000    0.0099    0.0000    0.0000   -0.0008    0.0000    0.0131
      124 V      5g3-      -0.0000    0.0000   -0.0000    0.0000   -0.0003   -0.0000    0.0000   -0.0022   -0.0000   -0.0000
      125 V      6g3-      -0.0000    0.0000    0.0000    0.0000   -0.0001   -0.0000   -0.0000    0.0020   -0.0000   -0.0004
      126 V      7g3-       0.0000    0.0000   -0.0000    0.0000    0.0000    0.0000    0.0000   -0.0019   -0.0000   -0.0008
      127 V      8g3-      -0.0000    0.0000   -0.0000    0.0000   -0.0010   -0.0000   -0.0000    0.0011   -0.0000   -0.0011
      128 V      5g2-       0.0000    0.0000   -0.0000   -0.0000    0.0000    0.0000   -0.0000    0.0002   -0.0000   -0.0000
      129 V      6g2-      -0.0000   -0.0000    0.0000   -0.0000   -0.0007   -0.0000   -0.0000    0.0001   -0.0000   -0.0006
      130 V      7g2-       0.0000   -0.0000   -0.0000   -0.0000   -0.0021   -0.0000    0.0000   -0.0002   -0.0000   -0.0025
      131 V      8g2-      -0.0000   -0.0000   -0.0000   -0.0000   -0.0037   -0.0000   -0.0000    0.0002   -0.0000   -0.0050
      132 V      5g1-      -0.0000   -0.0000    0.0000   -0.0000   -0.0003   -0.0000    0.0000   -0.0006    0.0000    0.0001
      133 V      6g1-       0.0000   -0.0000   -0.0000   -0.0000    0.0002    0.0000   -0.0000    0.0002    0.0000    0.0002
      134 V      7g1-      -0.0000   -0.0000    0.0000   -0.0000    0.0002    0.0000   -0.0000    0.0001    0.0000    0.0002
      135 V      8g1-       0.0000   -0.0000    0.0000   -0.0000   -0.0004   -0.0000    0.0000   -0.0003    0.0000    0.0008
      136 V      5g0       -0.0000    0.0002    0.0000    0.0001    0.0000   -0.0004   -0.0019   -0.0000    0.0000   -0.0000
      137 V      6g0        0.0000    0.0009    0.0001    0.0016   -0.0000    0.0000    0.0015    0.0000   -0.0002    0.0000
      138 V      7g0       -0.0000    0.0027   -0.0002    0.0037   -0.0000    0.0001   -0.0013   -0.0000   -0.0006    0.0000
      139 V      8g0        0.0000    0.0042    0.0002    0.0051    0.0000   -0.0009    0.0006    0.0000   -0.0005    0.0000
      140 V      5g1+       0.0000   -0.0001    0.0006   -0.0001   -0.0000    0.0001    0.0002    0.0000   -0.0000    0.0000
      141 V      6g1+      -0.0000    0.0001   -0.0008    0.0002    0.0000   -0.0015    0.0003    0.0000   -0.0012    0.0000
      142 V      7g1+       0.0000    0.0001    0.0011    0.0001    0.0000   -0.0045   -0.0007   -0.0000   -0.0051    0.0000
      143 V      8g1+      -0.0000   -0.0002   -0.0008    0.0002    0.0000   -0.0080    0.0007    0.0000   -0.0105    0.0000
      144 V      5g2+       0.0000   -0.0003   -0.0001   -0.0002    0.0000   -0.0001   -0.0001   -0.0000    0.0001   -0.0000
      145 V      6g2+      -0.0000   -0.0014   -0.0000   -0.0024   -0.0000    0.0002   -0.0002   -0.0000    0.0003   -0.0000
      146 V      7g2+       0.0000   -0.0040    0.0002   -0.0056   -0.0000    0.0002    0.0004    0.0000    0.0004   -0.0000
      147 V      8g2+      -0.0000   -0.0062   -0.0002   -0.0076    0.0000   -0.0001   -0.0004   -0.0000    0.0009   -0.0000
      148 V      5g3+       0.0000   -0.0001    0.0007   -0.0001    0.0000   -0.0001   -0.0003   -0.0000    0.0000   -0.0000
      149 V      6g3+      -0.0000    0.0001   -0.0010    0.0002   -0.0000    0.0013   -0.0002   -0.0000    0.0010   -0.0000
      150 V      7g3+       0.0000    0.0001    0.0013    0.0000   -0.0000    0.0039    0.0006    0.0000    0.0045   -0.0000
      151 V      8g3+      -0.0000   -0.0003   -0.0009    0.0001   -0.0000    0.0070   -0.0006   -0.0000    0.0092   -0.0000
      152 V      5g4+      -0.0000    0.0004    0.0002    0.0003   -0.0000    0.0001    0.0011    0.0000    0.0001   -0.0000
      153 V      6g4+       0.0000    0.0018   -0.0001    0.0032   -0.0000    0.0001   -0.0011   -0.0000    0.0003   -0.0000
      154 V      7g4+      -0.0000    0.0053   -0.0002    0.0074   -0.0000    0.0001    0.0011    0.0000    0.0005   -0.0000
      155 V      8g4+       0.0000    0.0083    0.0001    0.0101   -0.0000    0.0004   -0.0007   -0.0000    0.0009   -0.0000
      156 V      6h5-       0.0000    0.0000    0.0000   -0.0000    0.0001    0.0000   -0.0000    0.0007   -0.0000   -0.0008
      157 V      7h5-      -0.0000   -0.0000    0.0000    0.0000   -0.0006   -0.0000    0.0000   -0.0004   -0.0000   -0.0010
      158 V      6h4-       0.0000    0.0000    0.0000   -0.0000    0.0001    0.0000    0.0000   -0.0006    0.0000    0.0002
      159 V      7h4-      -0.0000    0.0000   -0.0000   -0.0000   -0.0002   -0.0000   -0.0000    0.0004   -0.0000   -0.0000
      160 V      6h3-      -0.0000   -0.0000    0.0000    0.0000   -0.0002   -0.0000    0.0000   -0.0003    0.0000    0.0003
      161 V      7h3-       0.0000    0.0000   -0.0000   -0.0000    0.0004    0.0000   -0.0000    0.0002    0.0000    0.0005
      162 V      6h2-       0.0000   -0.0000   -0.0000    0.0000    0.0000    0.0000   -0.0000    0.0002   -0.0000   -0.0000
      163 V      7h2-       0.0000   -0.0000    0.0000    0.0000   -0.0001   -0.0000    0.0000   -0.0001   -0.0000   -0.0001
      164 V      6h1-      -0.0000   -0.0000    0.0000    0.0000   -0.0002   -0.0000    0.0000   -0.0000   -0.0000   -0.0002
      165 V      7h1-       0.0000    0.0000   -0.0000    0.0000    0.0001    0.0000   -0.0000    0.0000   -0.0000   -0.0001
      166 V      6h0       -0.0000   -0.0001   -0.0004    0.0001   -0.0000    0.0002    0.0004    0.0000   -0.0004    0.0000
      167 V      7h0        0.0000    0.0000    0.0003   -0.0001    0.0000   -0.0005   -0.0002   -0.0000   -0.0006    0.0000
      168 V      6h1+       0.0000    0.0000    0.0000   -0.0004   -0.0000    0.0001   -0.0005   -0.0000    0.0002   -0.0000
      169 V      7h1+      -0.0000   -0.0000    0.0001    0.0011    0.0000   -0.0002    0.0003    0.0000   -0.0001    0.0000
      170 V      6h2+       0.0000    0.0000    0.0003   -0.0001   -0.0000    0.0001   -0.0004   -0.0000    0.0006   -0.0000
      171 V      7h2+      -0.0000   -0.0000   -0.0001    0.0001   -0.0000    0.0003    0.0002    0.0000    0.0007   -0.0000
      172 V      6h3+      -0.0000    0.0000   -0.0001    0.0004   -0.0000    0.0000    0.0000    0.0000    0.0000   -0.0000
      173 V      7h3+       0.0000    0.0000   -0.0000   -0.0012    0.0000   -0.0001   -0.0000   -0.0000   -0.0000    0.0000
      174 V      6h4+       0.0000    0.0002    0.0007   -0.0002   -0.0000    0.0001    0.0004    0.0000   -0.0005    0.0000
      175 V      7h4+      -0.0000   -0.0000   -0.0004    0.0001    0.0000   -0.0004   -0.0002   -0.0000   -0.0007    0.0000
      176 V      6h5+       0.0000    0.0000    0.0001   -0.0005    0.0000   -0.0001    0.0004    0.0000   -0.0001    0.0000
      177 V      7h5+      -0.0000   -0.0000    0.0000    0.0016   -0.0000    0.0001   -0.0002   -0.0000   -0.0000    0.0000

          Orbital           11    
          Energy            8.4979
          Occ. No.          0.0000

        1 V      1s         0.0000
        2 V      2s        -0.0013
        3 V      3s        -0.0003
        4 V      4s        -0.1859
        5 V      5s        -0.3904
        6 V      6s        -0.1029
        7 V      7s         0.0454
        8 V      8s         0.1791
        9 V      9s         0.4824
       10 V     10s         0.2197
       11 V      2px       -0.0006
       12 V      3px        0.0006
       13 V      4px       -0.1078
       14 V      5px       -0.1196
       15 V      6px       -0.2384
       16 V      7px       -0.1385
       17 V      8px       -0.0820
       18 V      9px        0.0133
       19 V     10px        0.0214
       20 V      2py       -0.0000
       21 V      3py       -0.0000
       22 V      4py        0.0000
       23 V      5py        0.0000
       24 V      6py       -0.0000
       25 V      7py       -0.0000
       26 V      8py       -0.0000
       27 V      9py       -0.0000
       28 V     10py       -0.0000
       29 V      2pz        0.0001
       30 V      3pz       -0.0000
       31 V      4pz       -0.0006
       32 V      5pz       -0.0006
       33 V      6pz       -0.0010
       34 V      7pz       -0.0004
       35 V      8pz        0.0003
       36 V      9pz        0.0008
       37 V     10pz        0.0004
       38 V      3d2-       0.0000
       39 V      4d2-       0.0000
       40 V      5d2-       0.0000
       41 V      6d2-       0.0000
       42 V      7d2-       0.0000
       43 V      8d2-       0.0000
       44 V      9d2-       0.0000
       45 V     10d2-       0.0000
       46 V      3d1-       0.0000
       47 V      4d1-       0.0000
       48 V      5d1-       0.0000
       49 V      6d1-       0.0000
       50 V      7d1-       0.0000
       51 V      8d1-       0.0000
       52 V      9d1-       0.0000
       53 V     10d1-       0.0000
       54 V      3d0       -0.0078
       55 V      4d0       -0.0441
       56 V      5d0       -0.0820
       57 V      6d0       -0.0805
       58 V      7d0       -0.0880
       59 V      8d0       -0.0750
       60 V      9d0       -0.0508
       61 V     10d0       -0.0118
       62 V      3d1+       0.0000
       63 V      4d1+       0.0001
       64 V      5d1+       0.0003
       65 V      6d1+       0.0003
       66 V      7d1+       0.0003
       67 V      8d1+       0.0002
       68 V      9d1+       0.0002
       69 V     10d1+       0.0001
       70 V      3d2+       0.0174
       71 V      4d2+       0.0989
       72 V      5d2+       0.1830
       73 V      6d2+       0.1786
       74 V      7d2+       0.1944
       75 V      8d2+       0.1645
       76 V      9d2+       0.1110
       77 V     10d2+       0.0258
       78 V      4f3-       0.0000
       79 V      5f3-       0.0000
       80 V      6f3-       0.0000
       81 V      7f3-       0.0000
       82 V      8f3-       0.0000
       83 V      9f3-       0.0000
       84 V      4f2-       0.0000
       85 V      5f2-       0.0000
       86 V      6f2-       0.0000
       87 V      7f2-       0.0000
       88 V      8f2-       0.0000
       89 V      9f2-       0.0000
       90 V      4f1-      -0.0000
       91 V      5f1-      -0.0000
       92 V      6f1-      -0.0000
       93 V      7f1-      -0.0000
       94 V      8f1-      -0.0000
       95 V      9f1-      -0.0000
       96 V      4f0       -0.0007
       97 V      5f0        0.0002
       98 V      6f0        0.0009
       99 V      7f0       -0.0011
      100 V      8f0       -0.0001
      101 V      9f0        0.0021
      102 V      4f1+      -0.0077
      103 V      5f1+      -0.0395
      104 V      6f1+      -0.0778
      105 V      7f1+      -0.1180
      106 V      8f1+      -0.1274
      107 V      9f1+      -0.1460
      108 V      4f2+      -0.0005
      109 V      5f2+       0.0005
      110 V      6f2+       0.0015
      111 V      7f2+       0.0004
      112 V      8f2+       0.0012
      113 V      9f2+       0.0031
      114 V      4f3+       0.0117
      115 V      5f3+       0.0595
      116 V      6f3+       0.1172
      117 V      7f3+       0.1780
      118 V      8f3+       0.1918
      119 V      9f3+       0.2194
      120 V      5g4-       0.0000
      121 V      6g4-      -0.0000
      122 V      7g4-       0.0000
      123 V      8g4-       0.0000
      124 V      5g3-       0.0000
      125 V      6g3-       0.0000
      126 V      7g3-       0.0000
      127 V      8g3-       0.0000
      128 V      5g2-      -0.0000
      129 V      6g2-       0.0000
      130 V      7g2-      -0.0000
      131 V      8g2-      -0.0000
      132 V      5g1-       0.0000
      133 V      6g1-      -0.0000
      134 V      7g1-      -0.0000
      135 V      8g1-      -0.0000
      136 V      5g0        0.0002
      137 V      6g0        0.0012
      138 V      7g0        0.0027
      139 V      8g0        0.0045
      140 V      5g1+      -0.0001
      141 V      6g1+      -0.0001
      142 V      7g1+       0.0002
      143 V      8g1+      -0.0005
      144 V      5g2+      -0.0003
      145 V      6g2+      -0.0019
      146 V      7g2+      -0.0042
      147 V      8g2+      -0.0069
      148 V      5g3+      -0.0001
      149 V      6g3+      -0.0000
      150 V      7g3+       0.0002
      151 V      8g3+      -0.0005
      152 V      5g4+       0.0005
      153 V      6g4+       0.0028
      154 V      7g4+       0.0062
      155 V      8g4+       0.0102
      156 V      6h5-      -0.0000
      157 V      7h5-       0.0000
      158 V      6h4-       0.0000
      159 V      7h4-      -0.0000
      160 V      6h3-       0.0000
      161 V      7h3-      -0.0000
      162 V      6h2-      -0.0000
      163 V      7h2-       0.0000
      164 V      6h1-       0.0000
      165 V      7h1-      -0.0000
      166 V      6h0       -0.0004
      167 V      7h0        0.0003
      168 V      6h1+       0.0003
      169 V      7h1+      -0.0005
      170 V      6h2+       0.0003
      171 V      7h2+      -0.0002
      172 V      6h3+      -0.0003
      173 V      7h3+       0.0006
      174 V      6h4+       0.0006
      175 V      7h4+      -0.0004
      176 V      6h5+       0.0004
      177 V      7h5+      -0.0009
--


++    Molecular charges:
      ------------------

      Mulliken charges per centre and basis function type
      ---------------------------------------------------

                V     
      1s       2.0000
      2s       1.4971
      2px      0.4975
      2pz      1.9782
      2py      1.9783
      3s       0.0006
      3px      0.0002
      3pz      0.0020
      3py      0.0019
      4s       0.0227
      3d2+     0.0012
      3d1+     0.0057
      3d0      0.0004
      3d1-     0.0000
      3d2-     0.0041
      4px      0.0603
      4pz      0.0438
      4py      0.0420
      5s       0.3170
      4d2+     0.0366
      4d1+     0.0854
      4d0      0.0122
      4d1-     0.0000
      4d2-     0.0337
      5px      0.0746
      5pz      0.0658
      5py      0.0656
      6s       0.1520
      4f3+     0.0002
      4f2+     0.0004
      4f1+     0.0001
      4f0      0.0002
      4f1-     0.0000
      4f2-     0.0000
      4f3-     0.0001
      5d2+     0.1258
      5d1+     0.2747
      5d0      0.0421
      5d1-     0.0000
      5d2-     0.1140
      6px      0.3296
      6pz      0.4038
      6py      0.3682
      7s       0.3577
      5f3+     0.0052
      5f2+     0.0107
      5f1+     0.0031
      5f0      0.0064
      5f1-     0.0003
      5f2-     0.0000
      5f3-     0.0039
      6d2+     0.1185
      6d1+     0.2501
      6d0      0.0397
      6d1-     0.0000
      6d2-     0.1168
      7px      0.1936
      7pz      0.3927
      7py      0.2680
      5g4+     0.0000
      5g3+     0.0000
      5g2+     0.0000
      5g1+     0.0000
      5g0      0.0000
      5g1-     0.0000
      5g2-     0.0000
      5g3-     0.0000
      5g4-     0.0000
      6f3+     0.0205
      6f2+     0.0426
      6f1+     0.0123
      6f0      0.0256
      6f1-     0.0011
      6f2-     0.0000
      6f3-     0.0161
      6g4+     0.0000
      6g3+     0.0000
      6g2+     0.0000
      6g1+     0.0000
      6g0      0.0000
      6g1-     0.0000
      6g2-     0.0000
      6g3-     0.0000
      6g4-     0.0000
      6h5+     0.0000
      6h4+     0.0000
      6h3+     0.0000
      6h2+     0.0000
      6h1+     0.0000
      6h0      0.0000
      6h1-     0.0000
      6h2-     0.0000
      6h3-     0.0000
      6h4-     0.0000
      6h5-     0.0000
      7d2+     0.1374
      7d1+     0.2781
      7d0      0.0460
      7d1-     0.0000
      7d2-     0.1395
      7f3+     0.0500
      7f2+     0.1031
      7f1+     0.0300
      7f0      0.0620
      7f1-     0.0027
      7f2-     0.0000
      7f3-     0.0404
      7g4+     0.0002
      7g3+     0.0001
      7g2+     0.0001
      7g1+     0.0001
      7g0      0.0000
      7g1-     0.0000
      7g2-     0.0000
      7g3-     0.0000
      7g4-     0.0001
      7h5+     0.0000
      7h4+     0.0000
      7h3+     0.0000
      7h2+     0.0000
      7h1+     0.0000
      7h0      0.0000
      7h1-     0.0000
      7h2-     0.0000
      7h3-     0.0000
      7h4-     0.0000
      7h5-     0.0000
      8s       0.1872
      8px      0.3459
      8pz      0.8502
      8py      0.4058
      8d2+     0.1023
      8d1+     0.1876
      8d0      0.0343
      8d1-     0.0000
      8d2-     0.1049
      8f3+     0.0669
      8f2+     0.1236
      8f1+     0.0402
      8f0      0.0743
      8f1-     0.0033
      8f2-     0.0000
      8f3-     0.0485
      8g4+     0.0003
      8g3+     0.0003
      8g2+     0.0002
      8g1+     0.0004
      8g0      0.0001
      8g1-     0.0000
      8g2-     0.0000
      8g3-     0.0000
      8g4-     0.0002
      9s       0.5265
      9px      0.1667
      9pz      0.3406
      9py      0.1089
      9d2+     0.0543
      9d1+     0.0865
      9d0      0.0182
      9d1-     0.0000
      9d2-     0.0525
      9f3+     0.1000
      9f2+     0.1660
      9f1+     0.0600
      9f0      0.0997
      9f1-     0.0044
      9f2-     0.0000
      9f3-     0.0648
     10s       0.0885
     10px      0.0226
     10pz      0.0315
     10py      0.0063
     10d2+     0.0034
     10d1+     0.0049
     10d0      0.0012
     10d1-     0.0000
     10d2-     0.0032
      Total   18.0000

      N-E      5.0000

      Total electronic charge=   18.000000

      Total            charge=    5.000000
--

 Sorry, Molden does not know how to handle
 functions with angular momentum larger than g

++    Static properties:
      ------------------


      LoProp Charges per center


                   V     
      Nuclear     23.0000
      Electronic -18.0000

      Total        5.0000
--


++    Molecular properties:
      ---------------------

      Charge (e):
                      =    5.0000
      Dipole Moment (Debye):
      Origin of the operator (Ang)=    0.0000    0.0000    0.0000
                   X= -9.4056E+01               Y=  5.4655E-07               Z= -1.1432E-01           Total=  9.4056E+01
      Center of Charge (Ang)
                     X=   -3.91637566               Y=    0.00000002               Z=   -0.00476021
      Quadrupole Moment (Debye*Ang):
      Origin of the operator (Ang)=   -0.0000   -0.0000    0.0046
                  XX= -4.7470E+02              XY=  2.7455E-05              XZ= -8.4005E-01              YY= -3.5099E+02
                  YZ= -1.4125E-03              ZZ= -4.2736E+02
      In traceless form (Debye*Ang)
                  XX= -8.5526E+01              XY=  4.1183E-05              XZ= -1.2601E+00              YY=  1.0004E+02
                  YZ= -2.1188E-03              ZZ= -1.4509E+01
--

 Sorry, Molden does not know how to handle
 functions with angular momentum larger than g
 ###############################################################################
 ###############################################################################
 ###                                                                         ###
 ###                                                                         ###
 ###    WARNING: RunFile label nBas                                          ###
 ###    was used       62 times                                              ###
 ###                                                                         ###
 ###                                                                         ###
 ###############################################################################
 ###############################################################################
Note: The following floating-point exceptions are signalling: IEEE_UNDERFLOW_FLAG IEEE_DENORMAL
--- Stop Module: scf at Tue Mar 25 14:30:07 2025 /rc=_RC_ALL_IS_WELL_ ---
*** files: vanadium_so_cf.LprOrb vanadium_so_cf.ScfOrb xmldump
    saved to directory /home4/s4752295/Internship/Initial_simulations/Point_charge_model/1_electron/Madelung_charges_9_active_space/V
--- Module scf spent 13 seconds ---

*** symbolic link created: INPORB -> vanadium_so_cf.ScfOrb
--- Start Module: rasscf at Tue Mar 25 14:30:07 2025 ---

()()()()()()()()()()()()()()()()()()()()()()()()()()()()()()()()()()()()()()()()()()()()()()()()()()

                                              &RASSCF

                                   only a single process is used
                       available to each process: 4.1 GB of memory, 1 thread?
                                            pid: 956035
()()()()()()()()()()()()()()()()()()()()()()()()()()()()()()()()()()()()()()()()()()()()()()()()()()


      Header of the ONEINT file:
      --------------------------
      
      Integrals generated by seward 4.2.0  , Tue Mar 25 14:29:44 2025


      OrdInt status: non-squared


      Cartesian coordinates in Angstrom:
      -----------------------------------------------------
      No.  Label        X            Y            Z        
      -----------------------------------------------------
       1   V         -0.00000000  -0.00000000   0.00463220
      -----------------------------------------------------
      Nuclear repulsion energy =-1052.11959613

++    Wave function specifications:
      -----------------------------

      Number of closed shell electrons          18
      Number of electrons in active shells       1
      Max number of holes in RAS1 space          0
      Max nr of electrons in RAS3 space          0
      Number of inactive orbitals                9
      Number of active orbitals                  9
      Number of secondary orbitals             159
      Spin quantum number                      0.5
      State symmetry                             1
--

++    Orbital specifications:
      -----------------------

      Symmetry species                           1
                                                 a
      Frozen orbitals                            0
      Inactive orbitals                          9
      Active orbitals                            9
      RAS1 orbitals                              0
      RAS2 orbitals                              9
      RAS3 orbitals                              0
      Secondary orbitals                       159
      Deleted orbitals                           0
      Number of basis functions                177
--

++    CI expansion specifications:
      ----------------------------

      Number of CSFs                             9
      Number of determinants                     9
      Number of root(s) required                 9
      Root chosen for geometry opt.              9
      CI roots used                              1     2     3     4     5     6     7     8     9
      weights                                0.111 0.111 0.111 0.111 0.111 0.111 0.111 0.111 0.111
      highest root included in the CI            9
      max. size of the explicit Hamiltonian      9
--

++    Optimization specifications:
      ----------------------------

      RASSCF algorithm: Conventional
      Maximum number of macro iterations       200
      Maximum number of SX iterations          100
      Threshold for RASSCF energy            0.100E-07
      Threshold for max MO rotation          0.100E+00
      Threshold for max BLB element          0.100E-03
      Level shift parameter                  0.500E+00
      Make Quasi-Newton update
--

      The MO-coefficients are taken from the file:
      INPORB                                                                                                                          
      Title: SCF orbitals                                                                  

      Total molecular charge    4.00

      ************************************************************************************************************************
      *                                                                                                                      *
      *                                            Wave function control section                                             *
      *                                                                                                                      *
      ************************************************************************************************************************


                                         RASSCF iterations: Energy and convergence statistics
                                         ----------------------------------------------------

      Iter CI   SX   CI       RASSCF       Energy    max ROT     max BLB   max BLB  Level Ln srch  Step   QN   Walltime
          iter iter root      energy       change     param      element    value   shift minimum  type update hh:mm:ss
 Nr of preliminary CI iterations:   1
      Total energies have been shifted. Add                -1000.00 au
        1   1    4    0  -453.19506778    0.00E+00  -0.47E-02    5  10 1  0.27E-01*  0.30   0.00    SX    NO    0:00:04
        2   1    3    0  -453.19529915   -0.23E-03* -0.66E-03    5  10 1  0.39E-02*  0.30   0.00    SX    NO    0:00:01
        3   1    3    0  -453.19530235   -0.32E-05*  0.99E-04    5  10 1  0.57E-03*  0.30   0.00    SX    NO    0:00:01
        4   1    3    0  -453.19530244   -0.86E-07* -0.28E-04    5  10 1  0.87E-04   0.30   0.00    SX    NO    0:00:02
        5   1    3    0  -453.19530245   -0.51E-08   0.19E-04    9  13 1  0.25E-04   0.30   1.50    QN   YES    0:00:02
      Convergence after  5 iterations
        6   1    3    0  -453.19530245   -0.90E-09   0.19E-04    5  10 1 -0.76E-05   0.30   1.50    QN   YES    0:00:02

      ************************************************************************************************************************
                                                      Wave function printout:
                       occupation of active orbitals, and spin coupling of open shells (u,d: Spin up or down)
      ************************************************************************************************************************

      Note: transformation to natural orbitals
      has been made, which may change the order of the CSFs.

      printout of CI-coefficients larger than  0.05 for root  1
      energy=   -1455.120736
      conf/sym  111111111     Coeff  Weight
             1  u00000000   0.95885 0.91940
             2  0u0000000  -0.05047 0.00255
             3  00u000000   0.26933 0.07254
             4  000u00000  -0.06292 0.00396

      printout of CI-coefficients larger than  0.05 for root  2
      energy=   -1454.746474
      conf/sym  111111111     Coeff  Weight
             2  0u0000000  -0.74787 0.55931
             4  000u00000   0.65133 0.42424
             8  0000000u0  -0.11351 0.01288

      printout of CI-coefficients larger than  0.05 for root  3
      energy=   -1454.452371
      conf/sym  111111111     Coeff  Weight
             1  u00000000  -0.26747 0.07154
             3  00u000000   0.96301 0.92738

      printout of CI-coefficients larger than  0.05 for root  4
      energy=   -1454.451081
      conf/sym  111111111     Coeff  Weight
             1  u00000000   0.08794 0.00773
             2  0u0000000   0.65368 0.42730
             4  000u00000   0.73689 0.54300
             5  0000u0000   0.12458 0.01552
             7  000000u00   0.07391 0.00546

      printout of CI-coefficients larger than  0.05 for root  5
      energy=   -1452.280527
      conf/sym  111111111     Coeff  Weight
             2  0u0000000  -0.06593 0.00435
             4  000u00000  -0.08610 0.00741
             5  0000u0000   0.97209 0.94496
[...]
         3    7       7.79558146E-04  1.41358709E+06  1.11011731E-03  7.71947650E+05  2.18553475E+06
         3    9       6.35932013E-02  2.01152763E+08  1.83602069E+01  1.22235899E+10  1.24247427E+10
         3   11       6.79273765E-02  1.20994914E-04  1.32924878E+10  1.61514694E+01  1.32924878E+10
         3   13       3.00459440E+00  7.17074099E+11  4.29759527E-02  3.34146619E+08  7.17408246E+11
         3   15       2.35545119E+01  3.17949297E-02  6.95400047E+12  2.34467431E+03  6.95400047E+12
         3   17       2.06828071E+01  1.64469401E+08  2.09558306E+03  6.19845128E+12  6.19861575E+12
         4    6       5.97987919E-04  1.97685573E-04  1.66187664E+06  3.71771448E-04  1.66187664E+06
         4    8       7.79558146E-04  1.41358709E+06  1.11011731E-03  7.71947650E+05  2.18553475E+06
         4   10       6.35932013E-02  2.01152763E+08  1.83602069E+01  1.22235899E+10  1.24247427E+10
         4   12       6.79273765E-02  1.20994914E-04  1.32924878E+10  1.61514694E+01  1.32924878E+10
         4   14       3.00459440E+00  7.17074099E+11  4.29759527E-02  3.34146619E+08  7.17408246E+11
         4   16       2.35545119E+01  3.17949297E-02  6.95400047E+12  2.34467431E+03  6.95400047E+12
         4   18       2.06828071E+01  1.64469401E+08  2.09558306E+03  6.19845128E+12  6.19861575E+12
         5    9       9.82986938E+00  1.04072433E-02  1.48975373E+12  8.25845191E+02  1.48975373E+12
         5   11       9.26499384E+00  1.25782349E+07  9.60838477E+02  1.40664782E+12  1.40666040E+12
         5   13       4.11805704E-03  2.57994202E-01  7.82553611E+08  1.40573157E+00  7.82553613E+08
         5   15       8.54817944E+00  1.01689703E+05  1.20079449E+02  2.05772808E+12  2.05772818E+12
         5   17       7.86767842E+00  4.38183662E-02  1.92567835E+12  3.96193183E+01  1.92567835E+12
         6   10       9.82986938E+00  1.04072433E-02  1.48975373E+12  8.25845191E+02  1.48975373E+12
         6   12       9.26499384E+00  1.25782349E+07  9.60838477E+02  1.40664782E+12  1.40666040E+12
         6   14       4.11805704E-03  2.57994202E-01  7.82553611E+08  1.40573157E+00  7.82553613E+08
         6   16       8.54817944E+00  1.01689703E+05  1.20079449E+02  2.05772808E+12  2.05772818E+12
         6   18       7.86767842E+00  4.38183662E-02  1.92567835E+12  3.96193183E+01  1.92567835E+12
         7    9       9.22282967E+00  8.02782452E+06  9.47742105E+02  1.39608602E+12  1.39609405E+12
         7   11       9.79791253E+00  8.65024365E-03  1.48580529E+12  8.18896416E+02  1.48580529E+12
         7   13       2.31742394E-02  1.73543065E+09  4.74733554E-01  2.66369346E+09  4.39912412E+09
         7   15       6.48713533E+00  3.75976316E-02  1.56011904E+12  2.92213580E+01  1.56011904E+12
         7   17       1.00123161E+01  1.07429339E+08  1.39223833E+02  2.44819744E+12  2.44830486E+12
         8   10       9.22282967E+00  8.02782452E+06  9.47742105E+02  1.39608602E+12  1.39609405E+12
         8   12       9.79791253E+00  8.65024365E-03  1.48580529E+12  8.18896416E+02  1.48580529E+12
         8   14       2.31742394E-02  1.73543065E+09  4.74733554E-01  2.66369346E+09  4.39912412E+09
         8   16       6.48713533E+00  3.75976316E-02  1.56011904E+12  2.92213580E+01  1.56011904E+12
         8   18       1.00123161E+01  1.07429339E+08  1.39223833E+02  2.44819744E+12  2.44830486E+12
         9   13       1.21975479E-04  2.18458868E+05  7.17866023E-05  4.67027179E+04  2.65161586E+05
         9   15       1.16130105E-05  5.37794724E-05  1.19250103E+05  1.01944260E-07  1.19250103E+05
        10   14       1.21975479E-04  2.18458868E+05  7.17866023E-05  4.67027179E+04  2.65161586E+05
        10   16       1.16130105E-05  5.37794724E-05  1.19250103E+05  1.01944260E-07  1.19250103E+05
        11   13       2.37279195E-05  2.11314659E-07  5.08135496E+04  5.97830972E-05  5.08135497E+04
        12   14       2.37279195E-05  2.11314659E-07  5.08135496E+04  5.97830972E-05  5.08135497E+04
        13   15       1.11539591E-01  1.74460701E-04  3.33851160E+08  1.12619916E-01  3.33851160E+08
        13   17       1.20992530E-01  7.85763715E+05  1.41125417E-01  4.17628033E+08  4.18413797E+08
        14   16       1.11539591E-01  1.74460701E-04  3.33851160E+08  1.12619916E-01  3.33851160E+08
        14   18       1.20992530E-01  7.85763715E+05  1.41125417E-01  4.17628033E+08  4.18413797E+08
     -----------------------------------------------------------------------------------------------
--

++ Velocity transition strengths (SO states):
   ------------------------------------------
    for osc. strength at least    1.0000000000000001E-005

      From   To        Osc. strength     Einstein coefficients Ax, Ay, Az (sec-1)    Total A (sec-1)
     -----------------------------------------------------------------------------------------------
         1    3       6.17105128E-02  7.87433079E-07  2.77730222E+08  9.39956055E-02  2.77730222E+08
         1    5       2.06825748E-02  4.98537827E+02  1.40493553E-02  2.96853539E+08  2.96854038E+08
         1    7       1.79131828E-02  1.50561732E-06  2.58099126E+08  6.90454984E-03  2.58099126E+08
         1   13       3.24931939E-04  2.90098728E-05  1.00349997E+08  3.41696508E-02  1.00349997E+08
         1   15       5.26506704E-03  1.96059004E+09  2.83392273E-03  1.35425116E+06  1.96194429E+09
         2    4       6.17105128E-02  7.87433079E-07  2.77730222E+08  9.39956055E-02  2.77730222E+08
         2    6       2.06825748E-02  4.98537827E+02  1.40493553E-02  2.96853539E+08  2.96854038E+08
         2    8       1.79131828E-02  1.50561732E-06  2.58099126E+08  6.90454984E-03  2.58099126E+08
         2   14       3.24931939E-04  2.90098728E-05  1.00349997E+08  3.41696508E-02  1.00349997E+08
         2   16       5.26506704E-03  1.96059004E+09  2.83392273E-03  1.35425116E+06  1.96194429E+09
         3    5       9.43910532E-05  1.93086496E-08  2.62324416E+05  1.71792182E-04  2.62324416E+05
         3    7       9.29950082E-05  2.26989820E+01  1.41226567E-04  2.60694900E+05  2.60717599E+05
         3   13       2.60611879E-03  6.22213797E+08  3.42730835E-06  5.24254936E+04  6.22266223E+08
         3   15       2.99237382E-03  1.55514183E-05  8.83441840E+08  2.97394606E-01  8.83441841E+08
         3   17       2.16380031E-03  3.09778614E+04  2.19761463E-01  6.48459975E+08  6.48490953E+08
         4    6       9.43910532E-05  1.93086496E-08  2.62324416E+05  1.71792182E-04  2.62324416E+05
         4    8       9.29950082E-05  2.26989820E+01  1.41226567E-04  2.60694900E+05  2.60717599E+05
         4   14       2.60611879E-03  6.22213797E+08  3.42730835E-06  5.24254936E+04  6.22266223E+08
         4   16       2.99237382E-03  1.55514183E-05  8.83441840E+08  2.97394606E-01  8.83441841E+08
         4   18       2.16380031E-03  3.09778614E+04  2.19761463E-01  6.48459975E+08  6.48490953E+08
         5    7       1.46326314E-05  5.61605565E-14  7.82920083E-01  4.15110742E-09  7.82920087E-01
         5    9       4.60707865E-03  2.33635903E-06  6.98222549E+08  5.04653467E-01  6.98222550E+08
         5   11       5.05183216E-03  2.15098171E+03  3.98186738E-01  7.66996412E+08  7.66998564E+08
         5   15       5.92089859E-03  3.23914726E+06  5.47012658E-02  1.42205174E+09  1.42529088E+09
         5   17       6.21970132E-03  6.03710553E-03  1.52232783E+09  5.58903393E-02  1.52232783E+09
         6    8       1.46326314E-05  5.61605565E-14  7.82920083E-01  4.15110742E-09  7.82920087E-01
         6   10       4.60707865E-03  2.33635903E-06  6.98222549E+08  5.04653467E-01  6.98222550E+08
         6   12       5.05183216E-03  2.15098171E+03  3.98186738E-01  7.66996412E+08  7.66998564E+08
         6   16       5.92089859E-03  3.23914726E+06  5.47012658E-02  1.42205174E+09  1.42529088E+09
         6   18       6.21970132E-03  6.03710553E-03  1.52232783E+09  5.58903393E-02  1.52232783E+09
         7    9       5.04832591E-03  1.14730322E+04  3.96581964E-01  7.64175064E+08  7.64186537E+08
         7   11       4.57847277E-03  5.18765963E-06  6.94305313E+08  5.01677902E-01  6.94305313E+08
         7   15       5.82252122E-03  6.14836581E-03  1.40028800E+09  5.06977672E-02  1.40028800E+09
         7   17       6.30993654E-03  3.44647785E+06  5.87098397E-02  1.53952339E+09  1.54296987E+09
         8   10       5.04832591E-03  1.14730322E+04  3.96581964E-01  7.64175064E+08  7.64186537E+08
         8   12       4.57847277E-03  5.18765963E-06  6.94305313E+08  5.01677902E-01  6.94305313E+08
         8   16       5.82252122E-03  6.14836581E-03  1.40028800E+09  5.06977672E-02  1.40028800E+09
         8   18       6.30993654E-03  3.44647785E+06  5.87098397E-02  1.53952339E+09  1.54296987E+09
        13   15       6.99626591E-04  9.34733978E-08  2.09407224E+06  7.05861052E-04  2.09407224E+06
        13   17       6.75181399E-04  2.20197486E+02  7.89637556E-04  2.33468588E+06  2.33490608E+06
        14   16       6.99626591E-04  9.34733978E-08  2.09407224E+06  7.05861052E-04  2.09407224E+06
        14   18       6.75181399E-04  2.20197486E+02  7.89637556E-04  2.33468588E+06  2.33490608E+06
     -----------------------------------------------------------------------------------------------
--

++ Length and velocity gauge comparison (SO states):

 --------------------------------------------------
 A comparison between the dipole oscillator strengths in 
 length and velocity gauge will be performed

 All dipole oscillator differences above the tolerance of   0.10000000000000001       will be printed 

 Due to basis set deficiency these oscillator may be problematic 

 The tolerance is defined as ABS(1-O_l/O_v) 
 O_l : dipole oscillator strength in length gauge
 O_p : dipole oscillator strength in velocity gauge
 --------------------------------------------------

  Problematic transitions have been found

      From   To       Difference (%) Osc. st. (len.) Osc. st. (vel.)
     ---------------------------------------------------------------
         1    3            26.274215  7.79244655E-02  6.17105128E-02
         1    5            93.754494  1.29173153E-03  2.06825748E-02
         1    7            99.701498  5.34711425E-05  1.79131828E-02
         1    9      ---------------  1.27924691E-02 below threshold
         1   11      ---------------  1.34741454E-02 below threshold
         1   13       5010810.339026  1.62820481E+01  3.24931939E-04
         1   15          6482.307520  3.46562903E-01  5.26506704E-03
         1   17      ---------------  5.98784724E-03 below threshold
         2    4            26.274215  7.79244655E-02  6.17105128E-02
         2    6            93.754494  1.29173153E-03  2.06825748E-02
         2    8            99.701498  5.34711425E-05  1.79131828E-02
         2   10      ---------------  1.27924691E-02 below threshold
         2   12      ---------------  1.34741454E-02 below threshold
         2   14       5010810.339026  1.62820481E+01  3.24931939E-04
         2   16          6482.307520  3.46562903E-01  5.26506704E-03
         2   18      ---------------  5.98784724E-03 below threshold
         3    5           533.521821  5.97987919E-04  9.43910532E-05
         3    7           738.279560  7.79558146E-04  9.29950082E-05
         3    9      ---------------  6.35932013E-02 below threshold
         3   11      ---------------  6.79273765E-02 below threshold
         3   13        115190.001989  3.00459440E+00  2.60611879E-03
         3   15        787051.381440  2.35545119E+01  2.99237382E-03
         3   17        955755.632061  2.06828071E+01  2.16380031E-03
         4    6           533.521821  5.97987919E-04  9.43910532E-05
         4    8           738.279560  7.79558146E-04  9.29950082E-05
         4   10      ---------------  6.35932013E-02 below threshold
         4   12      ---------------  6.79273765E-02 below threshold
         4   14        115190.001989  3.00459440E+00  2.60611879E-03
         4   16        787051.381440  2.35545119E+01  2.99237382E-03
         4   18        955755.632061  2.06828071E+01  2.16380031E-03
         5    7      --------------- below threshold  1.46326314E-05
         5    9        213264.479458  9.82986938E+00  4.60707865E-03
         5   11        183298.686892  9.26499384E+00  5.05183216E-03
         5   13      ---------------  4.11805704E-03 below threshold
         5   15        144273.008727  8.54817944E+00  5.92089859E-03
         5   17        126396.080949  7.86767842E+00  6.21970132E-03
         6    8      --------------- below threshold  1.46326314E-05
         6   10        213264.479458  9.82986938E+00  4.60707865E-03
         6   12        183298.686892  9.26499384E+00  5.05183216E-03
         6   14      ---------------  4.11805704E-03 below threshold
         6   16        144273.008727  8.54817944E+00  5.92089859E-03
         6   18        126396.080949  7.86767842E+00  6.21970132E-03
         7    9        182590.853112  9.22282967E+00  5.04832591E-03
         7   11        213899.580771  9.79791253E+00  4.57847277E-03
         7   13      ---------------  2.31742394E-02 below threshold
         7   15        111314.541661  6.48713533E+00  5.82252122E-03
         7   17        158575.384850  1.00123161E+01  6.30993654E-03
         8   10        182590.853112  9.22282967E+00  5.04832591E-03
         8   12        213899.580771  9.79791253E+00  4.57847277E-03
         8   14      ---------------  2.31742394E-02 below threshold
         8   16        111314.541661  6.48713533E+00  5.82252122E-03
         8   18        158575.384850  1.00123161E+01  6.30993654E-03
         9   13      ---------------  1.21975479E-04 below threshold
         9   15      ---------------  1.16130105E-05 below threshold
        10   14      ---------------  1.21975479E-04 below threshold
        10   16      ---------------  1.16130105E-05 below threshold
        11   13      ---------------  2.37279195E-05 below threshold
        12   14      ---------------  2.37279195E-05 below threshold
        13   15         15842.731810  1.11539591E-01  6.99626591E-04
        13   17         17820.003531  1.20992530E-01  6.75181399E-04
        14   16         15842.731810  1.11539591E-01  6.99626591E-04
        14   18         17820.003531  1.20992530E-01  6.75181399E-04
     ---------------------------------------------------------------

 Number of problematic transitions =                    62

--

 Electric-dipole - electric-octupole not included
++ Total transition strengths for the second-order expansion of the wave vector (SO states):
   -----------------------------------------------------------------------------------------
    for osc. strength at least    1.0000000000000001E-005

      From   To        Osc. strength
     -------------------------------
         1    5       3.11687064E-05
         1    7       2.98780686E-05
         1    9       2.08700821E-03
         1   11       2.08507981E-03
         1   13       3.10043324E-02
         1   15       2.75126436E-04
         1   17       6.30018102E-05
         2    6       3.11687064E-05
         2    8       2.98780686E-05
         2   10       2.08700821E-03
         2   12       2.08507981E-03
         2   14       3.10043324E-02
         2   16       2.75126436E-04
         2   18       6.30018102E-05
         3    5       2.64949101E-05
         3    7       2.65810902E-05
         3   13       4.07234870E-03
         3   15       9.86046670E-04
         3   17       8.29150472E-04
         4    6       2.64949101E-05
         4    8       2.65810902E-05
         4   14       4.07234870E-03
         4   16       9.86046670E-04
         4   18       8.29150472E-04
         5    9       9.19771707E-04
         5   11       8.88495395E-04
         5   13       1.68952038E-03
         5   15       6.03025036E-04
         5   17       5.37468236E-04
         6   10       9.19771707E-04
         6   12       8.88495395E-04
         6   14       1.68952038E-03
         6   16       6.03025036E-04
         6   18       5.37468236E-04
         7    9       8.82601124E-04
         7   11       9.19537887E-04
         7   13       1.69103425E-03
         7   15       4.63981618E-04
         7   17       6.82683230E-04
         8   10       8.82601124E-04
         8   12       9.19537887E-04
         8   14       1.69103425E-03
         8   16       4.63981618E-04
         8   18       6.82683230E-04
         9   15       8.05663741E-05
         9   17       8.34940515E-05
        10   16       8.05663741E-05
        10   18       8.34940515E-05
        11   15       7.98100206E-05
        11   17       8.25747508E-05
        12   16       7.98100206E-05
        12   18       8.25747508E-05
     -------------------------------
--

++ I/O STATISTICS
 
  I. General I/O information
  - - - - - - - - - - - - - - - - - - - - - - - - - - - - - - - - - - - - - - - - - - -
  Unit  Name          Flsize      Write/Read            MBytes           Write/Read
                      (MBytes)       Calls              In/Out           Time, sec.
  - - - - - - - - - - - - - - - - - - - - - - - - - - - - - - - - - - - - - - - - - - -
   1  SCRATCH           0.00 .       9/      45 .      0.0/      0.0 .       0/       0
   2  ANNI              0.00 .       0/       0 .      0.0/      0.0 .       0/       0
   3  RUNFILE          14.82 .     322/   10733 .      2.3/     77.8 .       0/       0
   4  ONEINT            5.45 .       0/   23543 .      0.0/   3734.6 .       0/       0
   5  JOBIPH            6.30 .       0/      92 .      0.0/      0.8 .       0/       0
   6  ORDINT          473.53 .       1/    3789 .      0.0/    947.0 .       0/       0
  - - - - - - - - - - - - - - - - - - - - - - - - - - - - - - - - - - - - - - - - - - -
   *  TOTAL           500.11 .     332/   38202 .      2.3/   4760.2 .       0/       0
  - - - - - - - - - - - - - - - - - - - - - - - - - - - - - - - - - - - - - - - - - - -
 
  II. I/O Access Patterns
  - - - - - - - - - - - - - - - - - - - -
  Unit  Name               % of random
                         Write/Read calls
  - - - - - - - - - - - - - - - - - - - -
   1  SCRATCH             88.9/ 100.0
   2  ANNI                 0.0/   0.0
   3  RUNFILE             28.6/  10.8
   4  ONEINT               0.0/  16.4
   5  JOBIPH               0.0/  76.1
   6  ORDINT             100.0/   0.1
  - - - - - - - - - - - - - - - - - - - -
--
--- Stop Module: rassi at Tue Mar 25 14:30:38 2025 /rc=_RC_ALL_IS_WELL_ ---
*** files: xmldump
    saved to directory /home4/s4752295/Internship/Initial_simulations/Point_charge_model/1_electron/Madelung_charges_9_active_space/V
--- Module rassi spent 4 seconds ---

.##################.
.# Happy landing! #.
.##################.

    Timing: Wall=52.31 User=39.79 System=9.12

###############################################################################
Hbrk Cluster
Job 15897496 for user s4752295
Finished at: Tue Mar 25 14:30:42 CET 2025

Job details:
============

Job ID                         : 15897496
Name                           : V_no_SO
User                           : s4752295
Partition                      : regularmedium
Nodes                          : node86
Number of Nodes                : 1
Cores                          : 1
Number of Tasks                : 1
State                          : COMPLETED  
Submit                         : 2025-03-25T14:28:34
Start                          : 2025-03-25T14:29:39
End                            : 2025-03-25T14:30:38
Reserved walltime              : 15:00:00
Used walltime                  : 00:00:59
Used CPU time                  : 00:00:50 (Efficiency: 85.09%)
% User (Computation)           : 81.37%
% System (I/O)                 : 18.63%
Total memory reserved          : 25000M
Maximum memory used            : 57.73M

Acknowledgements:
=================

Please see this page for information about acknowledging Hbrk in your publications:

https://wiki.hpc.rug.nl/habrok/introduction/scientific_output

################################################################################
