   This run of MOLCAS is using the pymolcas driver

                             OPE
                             OPE          NMOL  CASOP  ENMOLC A   SO
                 OPE        NMOLC        AS  OP EN  MO LC     AS  OP
                OPENM       OL CA        SO  PE NM  OL CA     SOP EN
                OP EN      MO   LC       AS  OP ENMOL  CASO   PENMOL
                OP  EN     MO   LC       AS  OP EN     MO     LC ASO
               OP   E  NMOL  C  AS       OP  EN MO     LC     AS  OP
               OP  E   NMO   LC AS        OPEN  MO     LCASOP EN   M
               O  PEN   MO  LCA  SO
            OPE   NMO   L   CAS    OP
        OPENMOL  CASOP     ENMOL   CASOPE
     OPENMOLCA   SOPENMOLCASOPEN   MOLCASOPE
    OPENMOLCAS   OP           EN   MOL    CAS
    OPENMOLCAS       OP  ENM        O     LCA
    OPENMOLCAS    OPEN  MOLCASO     P  E  NMO
    OPENMOLCAS     OP               E  N  MOL
    OPENMOLCA   SO           PENM   O  L  CAS    OPEN    MO    LCAS
    OPENMOLCA   SOP           ENM   O  L  CAS   OP  EN  MOLC  AS   O
    OPENMOLCA   SOPE           NM      O  LCA   S      OP  EN MO
    OPENMOLC                AS         O  PEN   M      OL  CA  SOPE
    OPENMO        LCASOPE  NMOL        C  ASO   P      ENMOLC     AS
    OPE     NMO      LCA  SO     P     E   NM   OL  CA SO  PE N   MO
          OPENMOLCA            SOPE   NMO        LCAS  O    P  ENMO
     OPENMOLCASOPENMOLCASOPENMOLCASOPENMOLCA
        OPENMOLCASOPENMOLCASOPENMOLCASOPE
            OPENMOLCASOPENMOLCASOPENM
               OPENMOLCASOPENMOLCA        version: o91e1abe7de707b ?
                   OPENMOLCASO
                       OPE                tag:

 OpenMolcas is free software; you can redistribute it and/or modify it
 under the terms of the GNU Lesser General Public License version 2.1.
 OpenMolcas is distributed in the hope that it will be useful, but it
 is provided "as is" and without any express or implied warranties.
 For more details see the full text of the license in the file
 LICENSE or in <http://www.gnu.org/licenses/>.

                 Copyright (C) The OpenMolcas Authors
           For the author list and the recommended citation,
                   consult the file CONTRIBUTORS.md

           *************************************************
           * pymolcas version py2.10                       *
           *   build 3068ae8b88c9345ec6cfef6fef7f1169      *
           *   (after the EMIL interpreter by V. Veryazov) *
           *************************************************

configuration info
------------------
Host name: login1 (Linux)
C Compiler ID: GNU
C flags: -std=gnu99
Fortran Compiler ID: GNU
Fortran flags: -fno-aggressive-loop-optimizations -cpp -fdefault-integer-8 -fmax-stack-var-size=1048576
Definitions: _MOLCAS_;_I8_;_LINUX_;_MKL_
Parallel: OFF (GA=OFF)


   ----------------------------------------------------------------------------------------------------------------------------------
  |
  |           Project: vanadium_so_cf
  |    Submitted from: /home4/s4752295/Internship/Initial_simulations/Point_charge_model/1_electron/Madelung_charges_9_active_space/V
  |      Scratch area: /tmp/vanadium_so_cf
  |   Save outputs to: /home4/s4752295/Internship/Initial_simulations/Point_charge_model/1_electron/Madelung_charges_9_active_space/V
  |            Molcas: /home4/s4752295/Internship/Molcas/recomp_try/OpenMolcas-master/build
  |
  | Scratch area is empty
  |
  |    MOLCAS_DRIVER = /home4/s4752295/Internship/Molcas/bin/pymolcas
  |    MOLCAS_NPROCS = 1
  |    MOLCAS_SOURCE = /home4/s4752295/Internship/Molcas/recomp_try/OpenMolcas-master
  | MOLCAS_STRUCTURE = 0
  |
   ----------------------------------------------------------------------------------------------------------------------------------

++ ---------   Input file   ---------

&SEWARD
AMFi

CLIG
$R

Basis Set
V.ANO-rcc.Roos.21s15p10d6f4g2h.10s9p8d6f4g2h.
Spherical d
V            -1.0658140267135469e-14    -3.5527134223784897e-15 0.008753588724385739
End of Basis

Xfield

414
-7.203961944,-2.7720000000000002,1.6004142000000001     -0.625931
-7.203961944,-0.0,-3.2008302    -0.625931
-7.203961944,2.7720000000000002,1.6004142000000001      -0.625931
-7.191622926,0.0,0.0    1.892092
4.786523442000001,-2.7720000000000002,-1.6004142000000001       2.515516
4.786523442000001,0.0,3.2008302 2.515516
4.786523442000001,2.7720000000000002,-1.6004142000000001        2.515516
6.413378904,-5.5440000000000005,0.0     0.004632
6.413378904,-2.7720000000000002,-4.801244400000001      0.004632
6.413378904,-2.7720000000000002,4.801244400000001       0.004632
6.413378904,2.7720000000000002,-4.801244400000001       0.004632
6.413378904,2.7720000000000002,4.801244400000001        0.004632
6.413378904,5.5440000000000005,0.0      0.004632
7.432470702000001,-2.7720000000000002,1.6004142000000001        -2.519484
7.432470702000001,-0.0,-3.2008302       -2.519484
7.432470702000001,2.7720000000000002,1.6004142000000001 -2.519484
-5.279589846,-0.0,-0.0  -3.142907
-8.955175788,-5.5440000000000005,-3.2008302     -0.625931
-8.955175788,0.0,6.4016586      -0.625931
-8.955175788,5.5440000000000005,-3.2008302      -0.625931
-11.896875,-5.5440000000000005,0.0      1.892092
-11.896875,-2.7720000000000002,-4.801244400000001       1.892092
-11.896875,-2.7720000000000002,4.801244400000001        1.892092
-11.896875,2.7720000000000002,-4.801244400000001        1.892092
-11.896875,2.7720000000000002,4.801244400000001 1.892092
-11.896875,5.5440000000000005,0.0       1.892092
45.309375,-5.5440000000000005,3.2008302 2.515516
45.309375,-0.0,-6.4016586       2.515516
45.309375,5.5440000000000005,3.2008302  2.515516
6.549609384,-5.5440000000000005,-3.2008302      -2.519484
6.549609384,0.0,6.4016586       -2.519484
6.549609384,5.5440000000000005,-3.2008302       -2.519484
-5.818359384,-5.5440000000000005,-0.0   -3.142907
-5.818359384,-2.7720000000000002,-4.801244400000001     -3.142907
-5.818359384,-2.7720000000000002,4.801244400000001      -3.142907
-5.818359384,2.7720000000000002,-4.801244400000001      -3.142907
-5.818359384,2.7720000000000002,4.801244400000001       -3.142907
-5.818359384,5.5440000000000005,-0.0    -3.142907
-17.142187500000002,-5.5440000000000005,6.4016586       -0.625931
-17.142187500000002,5.5440000000000005,6.4016586        -0.625931
-17.142187500000002,-8.316,1.6004142000000001   -0.625931
-17.142187500000002,8.316,1.6004142000000001    -0.625931
-17.142187500000002,-2.7720000000000002,-8.0020746      -0.625931
-17.142187500000002,2.7720000000000002,-8.0020746       -0.625931
10.8140625,-2.7720000000000002,-1.6004142000000001      4.409069
10.8140625,2.7720000000000002,-1.6004142000000001       4.409069
10.8140625,0.0,3.2008302        4.409069
-315.45,-0.0,-0.0       -5.030367
-315.45,0.0,0.0 5.039632
24.331640616,-5.5440000000000005,-6.4016586     2.515516
24.331640616,5.5440000000000005,-6.4016586      2.515516
24.331640616,-8.316,-1.6004142000000001 2.515516
24.331640616,8.316,-1.6004142000000001  2.515516
24.331640616,-2.7720000000000002,8.0020746      2.515516
24.331640616,2.7720000000000002,8.0020746       2.515516
34.2703125,-8.316,-4.801244400000001    0.004632
34.2703125,-8.316,4.801244400000001     0.004632
34.2703125,8.316,-4.801244400000001     0.004632
34.2703125,8.316,4.801244400000001      0.004632
34.2703125,-0.0,-9.602488800000001      0.004632
34.2703125,0.0,9.602488800000001        0.004632
86.540625,-5.5440000000000005,6.4016586 -2.519484
86.540625,5.5440000000000005,6.4016586  -2.519484
86.540625,-8.316,1.6004142000000001     -2.519484
86.540625,8.316,1.6004142000000001      -2.519484
86.540625,-2.7720000000000002,-8.0020746        -2.519484
86.540625,2.7720000000000002,-8.0020746 -2.519484
-262.575,-8.316,-4.801244400000001      1.892092
-262.575,-8.316,4.801244400000001       1.892092
-262.575,8.316,-4.801244400000001       1.892092
-262.575,8.316,4.801244400000001        1.892092
-262.575,-0.0,-9.602488800000001        1.892092
-262.575,0.0,9.602488800000001  1.892092
-211.95000000000002,-5.5440000000000005,3.2008302       4.409069
-211.95000000000002,-0.0,-6.4016586     4.409069
-211.95000000000002,5.5440000000000005,3.2008302        4.409069
-160.20000000000002,-5.5440000000000005,-0.0    -5.030367
-160.20000000000002,-2.7720000000000002,-4.801244400000001      -5.030367
-160.20000000000002,-2.7720000000000002,4.801244400000001       -5.030367
-160.20000000000002,2.7720000000000002,-4.801244400000001       -5.030367
-160.20000000000002,-5.5440000000000005,0.0     5.039632
-160.20000000000002,5.5440000000000005,-0.0     -5.030367
-160.20000000000002,2.7720000000000002,4.801244400000001        -5.030367
-160.20000000000002,-2.7720000000000002,-4.801244400000001      5.039632
-160.20000000000002,-2.7720000000000002,4.801244400000001       5.039632
-160.20000000000002,2.7720000000000002,-4.801244400000001       5.039632
-160.20000000000002,5.5440000000000005,0.0      5.039632
-160.20000000000002,2.7720000000000002,4.801244400000001        5.039632
-83.925,-2.7720000000000002,-1.6004142000000001 -5.660931
-83.925,0.0,3.2008302   -5.660931
-83.925,2.7720000000000002,-1.6004142000000001  -5.660931
1.5890625,-11.0879982,0.0       0.004632
1.5890625,-5.5440000000000005,-9.602488800000001        0.004632
1.5890625,-5.5440000000000005,9.602488800000001 0.004632
1.5890625,5.5440000000000005,-9.602488800000001 0.004632
1.5890625,11.0879982,0.0        0.004632
1.5890625,5.5440000000000005,9.602488800000001  0.004632
122.28750000000001,-8.316,4.801244400000001     -3.142907
122.28750000000001,-8.316,-4.801244400000001    -3.142907
122.28750000000001,8.316,-4.801244400000001     -3.142907
122.28750000000001,8.316,4.801244400000001      -3.142907
122.28750000000001,-0.0,-9.602488800000001      -3.142907
122.28750000000001,0.0,9.602488800000001        -3.142907
155.475,-11.0879982,-3.2008302  -0.625931
155.475,-8.316,-8.0020746       -0.625931
155.475,-2.7720000000000002,11.202903000000001  -0.625931
155.475,8.316,-8.0020746        -0.625931
155.475,11.0879982,-3.2008302   -0.625931
155.475,2.7720000000000002,11.202903000000001   -0.625931
2.1550781160000003,-11.0879982,0.0      1.892092
2.1550781160000003,-5.5440000000000005,-9.602488800000001       1.892092
2.1550781160000003,-5.5440000000000005,9.602488800000001        1.892092
2.1550781160000003,5.5440000000000005,-9.602488800000001        1.892092
2.1550781160000003,11.0879982,0.0       1.892092
2.1550781160000003,5.5440000000000005,9.602488800000001 1.892092
60.91875,-5.5440000000000005,-6.4016586 4.409069
60.91875,5.5440000000000005,-6.4016586  4.409069
60.91875,-8.316,-1.6004142000000001     4.409069
60.91875,8.316,-1.6004142000000001      4.409069
60.91875,-2.7720000000000002,8.0020746  4.409069
60.91875,2.7720000000000002,8.0020746   4.409069
292.33125,-5.5440000000000005,3.2008302 -5.660931
292.33125,-0.0,-6.4016586       -5.660931
292.33125,5.5440000000000005,3.2008302  -5.660931
0.61875,-11.0879982,3.2008302   2.515516
0.61875,-2.7720000000000002,-11.202903000000001 2.515516
0.61875,-8.316,8.0020746        2.515516
0.61875,2.7720000000000002,-11.202903000000001  2.515516
0.61875,11.0879982,3.2008302    2.515516
0.61875,8.316,8.0020746 2.515516
-169.5375,-11.0879982,-3.2008302        -2.519484
-169.5375,-8.316,-8.0020746     -2.519484
-169.5375,-2.7720000000000002,11.202903000000001        -2.519484
-169.5375,8.316,-8.0020746      -2.519484
-169.5375,2.7720000000000002,11.202903000000001 -2.519484
-169.5375,11.0879982,-3.2008302 -2.519484
-39.7265625,-11.0879982,-0.0    -3.142907
-39.7265625,-5.5440000000000005,-9.602488800000001      -3.142907
-39.7265625,-5.5440000000000005,9.602488800000001       -3.142907
-39.7265625,5.5440000000000005,-9.602488800000001       -3.142907
-39.7265625,5.5440000000000005,9.602488800000001        -3.142907
-39.7265625,11.0879982,-0.0     -3.142907
1091.7,0.0,0.0  6.927092
581.85,-11.0879982,6.4016586    -0.625931
581.85,11.0879982,6.4016586     -0.625931
581.85,-0.0,-12.803319  -0.625931
-9.759375,-8.316,4.801244400000001      -5.030367
-9.759375,-8.316,-4.801244400000001     -5.030367
-9.759375,-8.316,4.801244400000001      5.039632
-9.759375,-8.316,-4.801244400000001     5.039632
-9.759375,8.316,-4.801244400000001      -5.030367
-9.759375,8.316,4.801244400000001       -5.030367
-9.759375,8.316,-4.801244400000001      5.039632
-9.759375,8.316,4.801244400000001       5.039632
-9.759375,-0.0,-9.602488800000001       -5.030367
-9.759375,0.0,9.602488800000001 -5.030367
-9.759375,-0.0,-9.602488800000001       5.039632
-9.759375,0.0,9.602488800000001 5.039632
165.26250000000002,-5.5440000000000005,-6.4016586       -5.660931
165.26250000000002,5.5440000000000005,-6.4016586        -5.660931
165.26250000000002,-8.316,-1.6004142000000001   -5.660931
165.26250000000002,8.316,-1.6004142000000001    -5.660931
165.26250000000002,-2.7720000000000002,8.0020746        -5.660931
165.26250000000002,2.7720000000000002,8.0020746 -5.660931
540.9,-11.0879982,-6.4016586    2.515516
540.9,11.0879982,-6.4016586     2.515516
540.9,0.0,12.803319     2.515516
-931.0500000000001,-11.0879982,6.4016586        -2.519484
-931.0500000000001,11.0879982,6.4016586 -2.519484
-931.0500000000001,-0.0,-12.803319      -2.519484
96.41250000000001,-5.5440000000000005,0.0       6.927092
96.41250000000001,-2.7720000000000002,-4.801244400000001        6.927092
96.41250000000001,-2.7720000000000002,4.801244400000001 6.927092
96.41250000000001,2.7720000000000002,-4.801244400000001 6.927092
96.41250000000001,2.7720000000000002,4.801244400000001  6.927092
96.41250000000001,5.5440000000000005,0.0        6.927092
-99.45,-2.7720000000000002,1.6004142000000001   7.550516
-99.45,0.0,-3.2008302   7.550516
-99.45,2.7720000000000002,1.6004142000000001    7.550516
27.95625,-2.7720000000000002,-1.6004142000000001        -7.554483
27.95625,2.7720000000000002,-1.6004142000000001 -7.554483
27.95625,-0.0,3.2008302 -7.554483
-224.775,-13.8599982,1.6004142000000001 -0.625931
-224.775,-8.316,11.202903000000001      -0.625931
-224.775,-5.5440000000000005,-12.803319 -0.625931
-224.775,5.5440000000000005,-12.803319  -0.625931
-224.775,13.8599982,1.6004142000000001  -0.625931
-224.775,8.316,11.202903000000001       -0.625931
-121.3875,-11.0879982,3.2008302 4.409069
-121.3875,-8.316,8.0020746      4.409069
-121.3875,-2.7720000000000002,-11.202903000000001       4.409069
-121.3875,2.7720000000000002,-11.202903000000001        4.409069
-121.3875,8.316,8.0020746       4.409069
-121.3875,11.0879982,3.2008302  4.409069
88.48125,-11.0879982,-0.0       -5.030367
88.48125,-5.5440000000000005,-9.602488800000001 -5.030367
88.48125,-5.5440000000000005,9.602488800000001  -5.030367
88.48125,-11.0879982,0.0        5.039632
88.48125,-5.5440000000000005,-9.602488800000001 5.039632
88.48125,5.5440000000000005,-9.602488800000001  -5.030367
88.48125,5.5440000000000005,9.602488800000001   -5.030367
88.48125,11.0879982,-0.0        -5.030367
88.48125,-5.5440000000000005,9.602488800000001  5.039632
88.48125,5.5440000000000005,-9.602488800000001  5.039632
88.48125,11.0879982,0.0 5.039632
88.48125,5.5440000000000005,9.602488800000001   5.039632
325.35,-13.8599982,-1.6004142000000001  2.515516
325.35,-8.316,-11.202903000000001       2.515516
325.35,-5.5440000000000005,12.803319    2.515516
325.35,8.316,-11.202903000000001        2.515516
325.35,13.8599982,-1.6004142000000001   2.515516
325.35,5.5440000000000005,12.803319     2.515516
-42.018750000000004,-13.8599982,-4.801244400000001      0.004632
-42.018750000000004,-13.8599982,4.801244400000001       0.004632
-42.018750000000004,-11.0879982,-9.602488800000001      0.004632
-42.018750000000004,-11.0879982,9.602488800000001       0.004632
-42.018750000000004,-2.7720000000000002,-14.403733200000001     0.004632
-42.018750000000004,2.7720000000000002,-14.403733200000001      0.004632
-42.018750000000004,-2.7720000000000002,14.403733200000001      0.004632
-42.018750000000004,11.0879982,-9.602488800000001       0.004632
-42.018750000000004,2.7720000000000002,14.403733200000001       0.004632
-42.018750000000004,13.8599982,-4.801244400000001       0.004632
-42.018750000000004,13.8599982,4.801244400000001        0.004632
-42.018750000000004,11.0879982,9.602488800000001        0.004632
-257.625,-13.8599982,1.6004142000000001 -2.519484
-257.625,-8.316,11.202903000000001      -2.519484
-257.625,-5.5440000000000005,-12.803319 -2.519484
-257.625,5.5440000000000005,-12.803319  -2.519484
-257.625,13.8599982,1.6004142000000001  -2.519484
-257.625,8.316,11.202903000000001       -2.519484
5457.6,-0.0,-0.0        -8.177907
-208.8,-5.5440000000000005,-3.2008302   7.550516
-208.8,0.0,6.4016586    7.550516
-208.8,5.5440000000000005,-3.2008302    7.550516
-1086.3,-5.5440000000000005,3.2008302   -7.554483
-1086.3,-0.0,-6.4016586 -7.554483
-1086.3,5.5440000000000005,3.2008302    -7.554483
88.03125,-13.8599982,4.801244400000001  1.892092
88.03125,-13.8599982,-4.801244400000001 1.892092
88.03125,-11.0879982,-9.602488800000001 1.892092
88.03125,-11.0879982,9.602488800000001  1.892092
88.03125,-2.7720000000000002,-14.403733200000001        1.892092
88.03125,2.7720000000000002,-14.403733200000001 1.892092
88.03125,-2.7720000000000002,14.403733200000001 1.892092
88.03125,11.0879982,-9.602488800000001  1.892092
88.03125,2.7720000000000002,14.403733200000001  1.892092
88.03125,13.8599982,-4.801244400000001  1.892092
88.03125,13.8599982,4.801244400000001   1.892092
88.03125,11.0879982,9.602488800000001   1.892092
-909.0,-11.0879982,-6.4016586   4.409069
-909.0,11.0879982,-6.4016586    4.409069
-909.0,0.0,12.803319    4.409069
46.4765625,-11.0879982,3.2008302        -5.660931
46.4765625,-2.7720000000000002,-11.202903000000001      -5.660931
46.4765625,-8.316,8.0020746     -5.660931
46.4765625,2.7720000000000002,-11.202903000000001       -5.660931
46.4765625,8.316,8.0020746      -5.660931
46.4765625,11.0879982,3.2008302 -5.660931
-104.7375,-11.0879982,-9.602488800000001        -3.142907
-104.7375,-13.8599982,4.801244400000001 -3.142907
-104.7375,-13.8599982,-4.801244400000001        -3.142907
-104.7375,-11.0879982,9.602488800000001 -3.142907
-104.7375,-2.7720000000000002,-14.403733200000001       -3.142907
-104.7375,2.7720000000000002,-14.403733200000001        -3.142907
-104.7375,-2.7720000000000002,14.403733200000001        -3.142907
-104.7375,13.8599982,-4.801244400000001 -3.142907
-104.7375,11.0879982,-9.602488800000001 -3.142907
-104.7375,2.7720000000000002,14.403733200000001 -3.142907
-104.7375,13.8599982,4.801244400000001  -3.142907
-104.7375,11.0879982,9.602488800000001  -3.142907
117.73125,-8.316,-4.801244400000001     6.927092
117.73125,-8.316,4.801244400000001      6.927092
117.73125,8.316,-4.801244400000001      6.927092
117.73125,8.316,4.801244400000001       6.927092
117.73125,-0.0,-9.602488800000001       6.927092
117.73125,0.0,9.602488800000001 6.927092
-149.85,-5.5440000000000005,-0.0        -8.177907
-149.85,-2.7720000000000002,4.801244400000001   -8.177907
-149.85,-2.7720000000000002,-4.801244400000001  -8.177907
-149.85,2.7720000000000002,-4.801244400000001   -8.177907
-149.85,5.5440000000000005,-0.0 -8.177907
-149.85,2.7720000000000002,4.801244400000001    -8.177907
-163.63125,-5.5440000000000005,6.4016586        7.550516
-163.63125,5.5440000000000005,6.4016586 7.550516
-163.63125,-8.316,1.6004142000000001    7.550516
-163.63125,8.316,1.6004142000000001     7.550516
-163.63125,-2.7720000000000002,-8.0020746       7.550516
-163.63125,2.7720000000000002,-8.0020746        7.550516
-82.2375,-5.5440000000000005,-6.4016586 -7.554483
-82.2375,5.5440000000000005,-6.4016586  -7.554483
-82.2375,-8.316,-1.6004142000000001     -7.554483
-82.2375,8.316,-1.6004142000000001      -7.554483
-82.2375,-2.7720000000000002,8.0020746  -7.554483
-82.2375,2.7720000000000002,8.0020746   -7.554483
-900.45,0.0,16.0041474  -0.625931
-900.45,-13.8599982,-8.0020746  -0.625931
-900.45,13.8599982,-8.0020746   -0.625931
-485.55,-13.8599982,-1.6004142000000001 4.409069
-485.55,-8.316,-11.202903000000001      4.409069
-485.55,-5.5440000000000005,12.803319   4.409069
-485.55,8.316,-11.202903000000001       4.409069
-485.55,13.8599982,-1.6004142000000001  4.409069
-485.55,5.5440000000000005,12.803319    4.409069
558.6750000000001,-11.0879982,-6.4016586        -5.660931
558.6750000000001,11.0879982,-6.4016586 -5.660931
558.6750000000001,0.0,12.803319 -5.660931
1056.6000000000001,-0.0,-16.0041474     2.515516
1056.6000000000001,-13.8599982,8.0020746        2.515516
1056.6000000000001,13.8599982,8.0020746 2.515516
-168.975,-16.631998199999998,-0.0       0.004632
-168.975,8.316,-14.403733200000001      0.004632
-168.975,-8.316,14.403733200000001      0.004632
-168.975,16.631998199999998,-0.0        0.004632
-168.975,-8.316,-14.403733200000001     0.004632
-168.975,8.316,14.403733200000001       0.004632
-694.35,0.0,16.0041474  -2.519484
-694.35,-13.8599982,-8.0020746  -2.519484
-694.35,13.8599982,-8.0020746   -2.519484
410.40000000000003,-11.0879982,0.0      6.927092
410.40000000000003,-5.5440000000000005,-9.602488800000001       6.927092
410.40000000000003,-5.5440000000000005,9.602488800000001        6.927092
410.40000000000003,5.5440000000000005,-9.602488800000001        6.927092
410.40000000000003,11.0879982,0.0       6.927092
410.40000000000003,5.5440000000000005,9.602488800000001 6.927092
381.375,-16.631998199999998,-3.2008302  -0.625931
381.375,-5.5440000000000005,16.0041474  -0.625931
381.375,-11.0879982,-12.803319  -0.625931
381.375,11.0879982,-12.803319   -0.625931
381.375,5.5440000000000005,16.0041474   -0.625931
381.375,16.631998199999998,-3.2008302   -0.625931
201.4875,-16.631998199999998,0.0        1.892092
201.4875,-8.316,-14.403733200000001     1.892092
201.4875,-8.316,14.403733200000001      1.892092
201.4875,8.316,-14.403733200000001      1.892092
201.4875,16.631998199999998,0.0 1.892092
201.4875,8.316,14.403733200000001       1.892092
-7.7765625,-13.8599982,4.801244400000001        -5.030367
-7.7765625,-13.8599982,-4.801244400000001       -5.030367
-7.7765625,-11.0879982,-9.602488800000001       -5.030367
-7.7765625,-11.0879982,9.602488800000001        -5.030367
-7.7765625,-13.8599982,4.801244400000001        5.039632
-7.7765625,2.7720000000000002,-14.403733200000001       -5.030367
-7.7765625,-2.7720000000000002,-14.403733200000001      -5.030367
-7.7765625,-13.8599982,-4.801244400000001       5.039632
-7.7765625,-11.0879982,-9.602488800000001       5.039632
-7.7765625,-2.7720000000000002,14.403733200000001       -5.030367
-7.7765625,2.7720000000000002,-14.403733200000001       5.039632
-7.7765625,-11.0879982,9.602488800000001        5.039632
-7.7765625,-2.7720000000000002,-14.403733200000001      5.039632
-7.7765625,11.0879982,-9.602488800000001        -5.030367
-7.7765625,2.7720000000000002,14.403733200000001        -5.030367
-7.7765625,13.8599982,-4.801244400000001        -5.030367
-7.7765625,13.8599982,4.801244400000001 -5.030367
-7.7765625,11.0879982,9.602488800000001 -5.030367
-7.7765625,-2.7720000000000002,14.403733200000001       5.039632
-7.7765625,11.0879982,-9.602488800000001        5.039632
-7.7765625,13.8599982,-4.801244400000001        5.039632
-7.7765625,2.7720000000000002,14.403733200000001        5.039632
-7.7765625,13.8599982,4.801244400000001 5.039632
-7.7765625,11.0879982,9.602488800000001 5.039632
-1.2375,-13.8599982,-1.6004142000000001 -5.660931
-1.2375,-8.316,-11.202903000000001      -5.660931
-1.2375,-5.5440000000000005,12.803319   -5.660931
-1.2375,8.316,-11.202903000000001       -5.660931
-1.2375,5.5440000000000005,12.803319    -5.660931
-1.2375,13.8599982,-1.6004142000000001  -5.660931
208.8,-2.7720000000000002,1.6004142000000001    9.444068
208.8,0.0,-3.2008302    9.444068
208.8,2.7720000000000002,1.6004142000000001     9.444068
92.3625,-16.631998199999998,3.2008302   2.515516
92.3625,-5.5440000000000005,-16.0041474 2.515516
92.3625,5.5440000000000005,-16.0041474  2.515516
92.3625,-11.0879982,12.803319   2.515516
92.3625,16.631998199999998,3.2008302    2.515516
92.3625,11.0879982,12.803319    2.515516
282.375,-16.631998199999998,-3.2008302  -2.519484
282.375,-5.5440000000000005,16.0041474  -2.519484
282.375,-11.0879982,-12.803319  -2.519484
282.375,11.0879982,-12.803319   -2.519484
282.375,16.631998199999998,-3.2008302   -2.519484
282.375,5.5440000000000005,16.0041474   -2.519484
395.325,-16.631998199999998,-0.0        -3.142907
395.325,-8.316,-14.403733200000001      -3.142907
395.325,-8.316,14.403733200000001       -3.142907
395.325,8.316,-14.403733200000001       -3.142907
395.325,16.631998199999998,-0.0 -3.142907
395.325,8.316,14.403733200000001        -3.142907
15.561914058,-8.316,-4.801244400000001  -8.177907
15.561914058,-8.316,4.801244400000001   -8.177907
15.561914058,8.316,4.801244400000001    -8.177907
15.561914058,8.316,-4.801244400000001   -8.177907
15.561914058,-0.0,-9.602488800000001    -8.177907
15.561914058,0.0,9.602488800000001      -8.177907
453.375,-8.316,-8.0020746       7.550516
453.375,-11.0879982,-3.2008302  7.550516
453.375,-2.7720000000000002,11.202903000000001  7.550516
453.375,8.316,-8.0020746        7.550516
453.375,2.7720000000000002,11.202903000000001   7.550516
453.375,11.0879982,-3.2008302   7.550516
-626.4,-8.316,8.0020746 -7.554483
-626.4,-11.0879982,3.2008302    -7.554483
-626.4,-2.7720000000000002,-11.202903000000001  -7.554483
-626.4,2.7720000000000002,-11.202903000000001   -7.554483
-626.4,11.0879982,3.2008302     -7.554483
-626.4,8.316,8.0020746  -7.554483
128.27812500000002,-13.8599982,11.202903000000001       -0.625931
128.27812500000002,-16.631998199999998,6.4016586        -0.625931
128.27812500000002,-2.7720000000000002,-17.6045634      -0.625931
128.27812500000002,2.7720000000000002,-17.6045634       -0.625931
128.27812500000002,16.631998199999998,6.4016586 -0.625931
128.27812500000002,13.8599982,11.202903000000001        -0.625931
-870.75,-0.0,-16.0041474        4.409069
-870.75,-13.8599982,8.0020746   4.409069
-870.75,13.8599982,8.0020746    4.409069

End of input

&SCF
Occupied
9
Iterations
   50  100
End of Input

&RASSCF
LumOrb
Symmetry
1
Spin
2
Nactel
1 0 0
CIRoot
9 9 1
inactive
9
ras2
9
End of Input

>>> COPY vanadium_so_cf.JobIph $SLURM_SUBMIT_DIR/vanadium_so_cf.doublet.JobIph

>>> COPY $SLURM_SUBMIT_DIR/vanadium_so_cf.doublet.JobIph ./JOB002

&RASSI
NROFJobIph
1 All
SpinOrbit
End of Input

EOF

-- ----------------------------------

--- Start Module: seward at Wed Mar 26 22:31:53 2025 ---

()()()()()()()()()()()()()()()()()()()()()()()()()()()()()()()()()()()()()()()()()()()()()()()()()()

                                              &SEWARD

                                   only a single process is used
                       available to each process: 4.1 GB of memory, 1 thread?
                                            pid: 516550
()()()()()()()()()()()()()()()()()()()()()()()()()()()()()()()()()()()()()()()()()()()()()()()()()()

 The speed of LIGHT in this CALCULATION =   137.03599917700001     
               SEWARD will generate:
                  Multipole Moment integrals up to order  2
                  Kinetic Energy integrals
                  Nuclear Attraction integrals (point charge)
                  One-Electron Hamiltonian integrals
                  Velocity integrals
                  Relativistic Douglas-Kroll-Hess integrals:
                    - Parametrization         : EXP
                    - DKH order of Hamiltonian: 2
                    - DKH order of Properties : 0
                         - multipole moment operators
                         - electric potential operators
                         - contact operators
                  External field from   414 point(s) added to the one-electron Hamiltonian
                  Orbital angular momentum around (-0.0000 -0.0000  0.0088 )
                  Velocity quadrupole around (-0.0000 -0.0000  0.0088 )
                  Atomic mean-field integrals
                  Two-Electron Repulsion integrals

                   Integrals are discarded if absolute value <: 0.10E-13
                   Integral cutoff threshold is set to       <: 0.10E-15

++    Symmetry information:
      ---------------------

                    Character Table for C1 

                             E  
                    a        1  x, y, xy, Rz, z, xz, Ry, yz, Rx, I
--


++    Basis set information:
      ----------------------


      Basis set label: V.ANO-RCC.ROOS.21S15P10D6F4G2H.10S9P8D6F4G2H......

      Electronic valence basis set:
      ------------------
      Associated Effective Charge  23.000000 au
      Associated Actual Charge     23.000000 au
      Nuclear Model: Point charge

      Shell  nPrim  nBasis  Cartesian Spherical Contaminant
         s      21      10        X                  
         p      15       9        X                  
         d      10       8                 X         
         f       6       6                 X         
         g       4       4                 X         
         h       2       2                 X         
--


++    Molecular structure info:
      -------------------------

                    ************************************************ 
                    **** Cartesian Coordinates / Bohr, Angstrom **** 
                    ************************************************ 

     Center  Label                x              y              z                     x              y              z
        1      V               -0.000000      -0.000000       0.008754             -0.000000      -0.000000       0.004632
--


++    Operator info:
      --------------


  Net charge from external field:   -39.268449999999902     
--


            Nuclear Potential Energy              0.00000000 au

                    Nuclear-External Field Potential Energy    -116.90350348 au
                    External Field Potential Energy             892.02050077 au 


            Total Nuclear Potential Energy           -116.90350348 au


      Basis set specifications :
      Symmetry species         a  
      Basis functions          177

 Sorry, Molden does not know how to handle
 functions with angular momentum larger than g
Note: The following floating-point exceptions are signalling: IEEE_UNDERFLOW_FLAG IEEE_DENORMAL
--- Stop Module: seward at Wed Mar 26 22:32:01 2025 /rc=_RC_ALL_IS_WELL_ ---
*** files: vanadium_so_cf.GssOrb xmldump
    saved to directory /home4/s4752295/Internship/Initial_simulations/Point_charge_model/1_electron/Madelung_charges_9_active_space/V
--- Module seward spent 8 seconds ---

*** symbolic link created: INPORB -> vanadium_so_cf.GssOrb
--- Start Module: scf at Wed Mar 26 22:32:01 2025 ---

()()()()()()()()()()()()()()()()()()()()()()()()()()()()()()()()()()()()()()()()()()()()()()()()()()

                                                &SCF

                                   only a single process is used
                       available to each process: 4.1 GB of memory, 1 thread?
                                            pid: 516574
()()()()()()()()()()()()()()()()()()()()()()()()()()()()()()()()()()()()()()()()()()()()()()()()()()

++    Input section:
      --------------

      Header of the integral files:
      
       Integrals generated by seward 4.2.0  , Wed Mar 26 22:31:53 2025


      Cartesian coordinates in Angstrom:
      -----------------------------------------------------
      No.  Label        X            Y            Z        
      -----------------------------------------------------
       1   V         -0.00000000  -0.00000000   0.00463220
      -----------------------------------------------------
      Nuclear repulsion energy = -116.90350348
--

++    Orbital specifications:
      -----------------------

      Symmetry species               1
                                     a
      Frozen orbitals                0
      Occupied orbitals              9
      Secondary orbitals           168
      Deleted orbitals               0
      Total number of orbitals     177
      Number of basis functions    177
--

      Molecular charge                           5.000

++    Optimization specifications:
      ----------------------------

      SCF Algorithm: Conventional
      Minimized density differences are used
      Number of density matrices in core                5
      Maximum number of NDDO SCF iterations            50
      Maximum number of HF SCF iterations             100
      Threshold for SCF energy change            0.10E-08
      Threshold for density matrix               0.10E-03
      Threshold for Fock matrix                  0.15E-03
      Threshold for linear dependence            0.10E-08
      Threshold at which DIIS is turned on       0.15E+00
      Threshold at which QNR/C2DIIS is turned on 0.75E-01
      Threshold for Norm(delta) (QNR/C2DIIS)     0.20E-04
      DIIS extrapolation of the SCF procedure
      All orbitals punched on: SCFORB
--

      Detected guessorb starting orbitals                                             


++ Convergence information
                                   SCF        iterations: Energy and convergence statistics

Iter     Tot. SCF        One-elec.       Two-elec.     Energy      Max Dij or  Max Fij      DNorm      TNorm      AccCon     Time
         Energy          Energy          Energy        Change      Delta Norm                                                in Sec.
   1  -967.437571948 -1140.013836082   289.479767612   0.00E+00    0.13E+00*   0.26E+00*    0.60E+01   0.22E+03   None         1.
   2  -967.807602517 -1149.057094089   298.152995050  -0.37E+00*   0.15E-01*   0.54E-01*    0.92E+00   0.22E+03   EDIIS        1.
   3  -967.814878960 -1147.920907872   297.009532390  -0.73E-02*   0.56E-02*   0.10E-01*    0.88E-01   0.22E+03   EDIIS        1.
   4  -967.815128502 -1148.116625925   297.205000901  -0.25E-03*   0.31E-03*   0.17E-02*    0.10E-01   0.22E+03   c2DIIS       1.
   5  -967.815140352 -1148.091210629   297.179573755  -0.12E-04*   0.95E-04*   0.15E-03*    0.97E-03   0.22E+03   QNRc2DIIS    1.
   6  -967.815140415 -1148.090493890   297.178856953  -0.63E-07*   0.21E-04*   0.23E-04     0.12E-03   0.22E+03   QNRc2DIIS    1.
   7  -967.815140418 -1148.090618875   297.178981935  -0.33E-08*   0.32E-05    0.45E-05     0.18E-04   0.22E+03   QNRc2DIIS    1.
   8  -967.815140418 -1148.090638781   297.179001841  -0.65E-10    0.15E-05    0.17E-05     0.75E-04   0.22E+03   QNRc2DIIS    1.

       Convergence after  8 Macro Iterations
--

 *****************************************************************************************************************************
 *                                                                                                                           *
 *                                             SCF/KS-DFT Program, Final results                                             *
 *                                                                                                                           *
 *                                                                                                                           *
 *                                                                                                                           *
 *                                                       Final Results                                                       *
 *                                                                                                                           *
 *****************************************************************************************************************************

::    Total SCF energy                               -967.8151404184
      One-electron energy                           -1148.0906387809
      Two-electron energy                             297.1790018407
      Nuclear repulsion energy                       -116.9035034782
      Kinetic energy (interpolated)                   974.1937995551
      Virial theorem                                    0.9934523714
      Total spin, S(S+1)                                0.0000000000
      Total spin, S                                     0.0000000000
      Max non-diagonal density matrix element           0.0000021489
      Max non-diagonal Fock matrix element              0.0000008641


      All orbitals with orbital energies smaller than  E(LUMO)+0.5 are printed

++    Molecular orbitals:
      -------------------

      Title: SCF orbitals

      Molecular orbitals for symmetry species 1: a  

          Orbital            1         2         3         4         5         6         7         8         9        10    
          Energy         -200.7584  -22.1416  -18.0390  -18.0390  -18.0386   -0.9159    0.3499    0.3499    0.3665    2.7381
          Occ. No.          2.0000    2.0000    2.0000    2.0000    2.0000    2.0000    2.0000    2.0000    2.0000    0.0000

        1 V      1s         1.0000   -0.0001    0.0000   -0.0000   -0.0000    0.0001   -0.0000   -0.0000    0.0000   -0.0000
        2 V      2s         0.0001    1.0000    0.0000   -0.0000   -0.0022    0.0013    0.0000    0.0000   -0.0006    0.0001
        3 V      3s        -0.0000   -0.0014   -0.0000    0.0000    0.0007    0.9939    0.0001    0.0000   -0.0802    0.0074
        4 V      4s         0.0000    0.0000    0.0000   -0.0000   -0.0001   -0.0405   -0.0000   -0.0000    0.0195    0.0786
        5 V      5s        -0.0000   -0.0001   -0.0000    0.0000    0.0001    0.0332    0.0000    0.0000   -0.0172   -0.0285
        6 V      6s         0.0000    0.0002    0.0000   -0.0000   -0.0002   -0.0490   -0.0000   -0.0000    0.0239    0.0039
        7 V      7s        -0.0000   -0.0001   -0.0000    0.0000    0.0001    0.0028   -0.0000   -0.0000   -0.0002    0.0081
        8 V      8s         0.0000   -0.0001    0.0000   -0.0000   -0.0000    0.0073    0.0000    0.0000   -0.0040    0.0030
        9 V      9s        -0.0000    0.0001    0.0000   -0.0000   -0.0000    0.0007    0.0000    0.0000   -0.0006    0.0015
       10 V     10s         0.0000   -0.0002   -0.0000    0.0000    0.0000   -0.0010   -0.0000   -0.0000    0.0006    0.0003
       11 V      2px        0.0000    0.0022   -0.0016    0.0000    1.0000   -0.0005   -0.0000   -0.0000    0.0022   -0.0005
       12 V      3px       -0.0000    0.0005    0.0000   -0.0000   -0.0021    0.0836   -0.0012   -0.0000    0.9886   -0.0455
       13 V      4px        0.0000   -0.0001   -0.0000    0.0000    0.0003    0.0005    0.0001    0.0000   -0.0633    0.1573
       14 V      5px       -0.0000    0.0002    0.0000   -0.0000   -0.0006   -0.0045   -0.0001   -0.0000    0.0829   -0.0843
       15 V      6px        0.0000   -0.0001   -0.0000    0.0000    0.0002    0.0029    0.0000    0.0000   -0.0055   -0.0324
       16 V      7px       -0.0000    0.0001   -0.0000    0.0000    0.0001   -0.0009    0.0000    0.0000   -0.0126    0.0140
       17 V      8px        0.0000   -0.0000    0.0000   -0.0000   -0.0002   -0.0007   -0.0000   -0.0000    0.0009    0.0071
       18 V      9px       -0.0000    0.0000   -0.0000    0.0000    0.0002    0.0004   -0.0000   -0.0000    0.0036   -0.0031
       19 V     10px        0.0000   -0.0000    0.0000   -0.0000   -0.0003    0.0003   -0.0000   -0.0000    0.0006   -0.0015
       20 V      2py       -0.0000    0.0000    0.0000    1.0000    0.0000   -0.0000   -0.0000    0.0021   -0.0000   -0.0000
       21 V      3py       -0.0000   -0.0000   -0.0000   -0.0021   -0.0000   -0.0000   -0.0000    0.9931    0.0000    0.0000
       22 V      4py        0.0000    0.0000    0.0000    0.0003    0.0000    0.0000    0.0000   -0.0639   -0.0000   -0.0000
       23 V      5py       -0.0000   -0.0000   -0.0000   -0.0005   -0.0000   -0.0000   -0.0000    0.0822    0.0000    0.0000
       24 V      6py        0.0000    0.0000    0.0000    0.0002    0.0000    0.0000    0.0000   -0.0045    0.0000    0.0000
       25 V      7py       -0.0000   -0.0000    0.0000    0.0001    0.0000    0.0000    0.0000   -0.0129   -0.0000   -0.0000
       26 V      8py        0.0000    0.0000   -0.0000   -0.0002   -0.0000   -0.0000   -0.0000    0.0006   -0.0000   -0.0000
       27 V      9py       -0.0000   -0.0000    0.0000    0.0002    0.0000   -0.0000   -0.0000    0.0037    0.0000    0.0000
       28 V     10py        0.0000    0.0000   -0.0000   -0.0003   -0.0000    0.0000   -0.0000    0.0007    0.0000    0.0000
       29 V      2pz        0.0000    0.0000    1.0000   -0.0000    0.0016   -0.0000    0.0021    0.0000    0.0000    0.0000
       30 V      3pz       -0.0000    0.0000   -0.0021    0.0000   -0.0000    0.0000    0.9931    0.0000    0.0012    0.0000
       31 V      4pz        0.0000   -0.0000    0.0003   -0.0000    0.0000   -0.0000   -0.0639   -0.0000   -0.0001   -0.0000
       32 V      5pz       -0.0000    0.0000   -0.0005    0.0000   -0.0000   -0.0000    0.0822    0.0000    0.0001    0.0001
       33 V      6pz        0.0000   -0.0000    0.0002   -0.0000    0.0000    0.0000   -0.0045   -0.0000   -0.0000    0.0000
       34 V      7pz       -0.0000    0.0000    0.0001   -0.0000    0.0000   -0.0000   -0.0129   -0.0000   -0.0000   -0.0000
       35 V      8pz        0.0000   -0.0000   -0.0002    0.0000   -0.0000   -0.0000    0.0006    0.0000    0.0000   -0.0000
       36 V      9pz       -0.0000    0.0000    0.0002   -0.0000    0.0000    0.0000    0.0037    0.0000    0.0000    0.0000
       37 V     10pz        0.0000   -0.0000   -0.0003    0.0000   -0.0000    0.0000    0.0007    0.0000    0.0000    0.0000
       38 V      3d2-       0.0000   -0.0000    0.0000    0.0002    0.0000   -0.0000   -0.0000    0.0506    0.0000   -0.0000
       39 V      4d2-      -0.0000    0.0000   -0.0000   -0.0002   -0.0000    0.0000    0.0000   -0.0107   -0.0000    0.0000
       40 V      5d2-       0.0000   -0.0000    0.0000    0.0001    0.0000   -0.0000    0.0000   -0.0051   -0.0000   -0.0000
       41 V      6d2-      -0.0000    0.0000   -0.0000   -0.0001   -0.0000    0.0000   -0.0000    0.0051    0.0000   -0.0000
       42 V      7d2-       0.0000   -0.0000    0.0000    0.0000    0.0000   -0.0000   -0.0000    0.0018    0.0000   -0.0000
       43 V      8d2-      -0.0000   -0.0000   -0.0000   -0.0000   -0.0000    0.0000    0.0000   -0.0000   -0.0000   -0.0000
       44 V      9d2-       0.0000    0.0000    0.0000    0.0000    0.0000   -0.0000    0.0000   -0.0008   -0.0000   -0.0000
       45 V     10d2-      -0.0000   -0.0000   -0.0000   -0.0000   -0.0000    0.0000    0.0000   -0.0002   -0.0000   -0.0000
       46 V      3d1-      -0.0000   -0.0000    0.0000    0.0000   -0.0000    0.0000    0.0000   -0.0000   -0.0000   -0.0000
       47 V      4d1-       0.0000    0.0000   -0.0000   -0.0000    0.0000   -0.0000    0.0000   -0.0000   -0.0000    0.0000
       48 V      5d1-      -0.0000   -0.0000    0.0000    0.0000   -0.0000    0.0000   -0.0000    0.0000    0.0000   -0.0000
       49 V      6d1-       0.0000    0.0000   -0.0000   -0.0000   -0.0000   -0.0000   -0.0000    0.0000    0.0000   -0.0000
       50 V      7d1-      -0.0000   -0.0000    0.0000    0.0000    0.0000    0.0000   -0.0000    0.0000    0.0000   -0.0000
       51 V      8d1-       0.0000    0.0000   -0.0000   -0.0000    0.0000   -0.0000    0.0000   -0.0000   -0.0000    0.0000
       52 V      9d1-      -0.0000    0.0000    0.0000    0.0000    0.0000    0.0000    0.0000   -0.0000   -0.0000    0.0000
       53 V     10d1-       0.0000    0.0000   -0.0000   -0.0000    0.0000   -0.0000    0.0000   -0.0000   -0.0000    0.0000
       54 V      3d0        0.0000    0.0000    0.0000   -0.0000   -0.0001   -0.0002    0.0001    0.0000   -0.0304   -0.4736
       55 V      4d0       -0.0000   -0.0000   -0.0000    0.0000    0.0001   -0.0002   -0.0000   -0.0000    0.0064    0.1050
       56 V      5d0        0.0000    0.0000    0.0000   -0.0000   -0.0001    0.0002   -0.0000   -0.0000    0.0030   -0.0126
       57 V      6d0       -0.0000   -0.0000   -0.0000    0.0000    0.0000    0.0000    0.0000    0.0000   -0.0030   -0.0064
       58 V      7d0        0.0000   -0.0000    0.0000   -0.0000   -0.0000   -0.0001    0.0000    0.0000   -0.0010   -0.0042
       59 V      8d0       -0.0000    0.0000   -0.0000    0.0000    0.0000   -0.0001    0.0000    0.0000    0.0000    0.0026
       60 V      9d0        0.0000   -0.0000    0.0000   -0.0000   -0.0000   -0.0000   -0.0000   -0.0000    0.0005    0.0019
       61 V     10d0       -0.0000   -0.0000   -0.0000    0.0000    0.0000    0.0000   -0.0000    0.0000    0.0001    0.0002
       62 V      3d1+      -0.0000   -0.0000    0.0002   -0.0000    0.0000   -0.0000    0.0507    0.0000    0.0001   -0.0006
       63 V      4d1+       0.0000    0.0000   -0.0002    0.0000   -0.0000    0.0000   -0.0107   -0.0000   -0.0000    0.0002
       64 V      5d1+      -0.0000   -0.0000    0.0001   -0.0000    0.0000    0.0000   -0.0051   -0.0000   -0.0000    0.0000
       65 V      6d1+       0.0000    0.0000   -0.0001    0.0000   -0.0000   -0.0000    0.0051    0.0000    0.0000   -0.0000
       66 V      7d1+      -0.0000   -0.0000    0.0000   -0.0000    0.0000   -0.0000    0.0018    0.0000    0.0000   -0.0000
       67 V      8d1+       0.0000   -0.0000   -0.0000    0.0000   -0.0000    0.0000   -0.0000   -0.0000   -0.0000   -0.0000
       68 V      9d1+      -0.0000    0.0000    0.0000   -0.0000    0.0000    0.0000   -0.0008   -0.0000   -0.0000   -0.0000
       69 V     10d1+       0.0000   -0.0000   -0.0000    0.0000   -0.0000    0.0000   -0.0002   -0.0000   -0.0000   -0.0000
       70 V      3d2+      -0.0000   -0.0000   -0.0000    0.0000    0.0002    0.0004   -0.0000   -0.0000    0.0526    0.8240
       71 V      4d2+       0.0000    0.0000    0.0000   -0.0000   -0.0002    0.0004    0.0000    0.0000   -0.0110   -0.1828
       72 V      5d2+      -0.0000   -0.0000   -0.0000    0.0000    0.0001   -0.0004    0.0000    0.0000   -0.0052    0.0219
       73 V      6d2+       0.0000    0.0000    0.0000   -0.0000   -0.0001   -0.0000   -0.0000   -0.0000    0.0052    0.0112
       74 V      7d2+      -0.0000    0.0000   -0.0000    0.0000    0.0000    0.0001   -0.0000   -0.0000    0.0018    0.0073
       75 V      8d2+       0.0000   -0.0000    0.0000   -0.0000   -0.0000    0.0001    0.0000    0.0000   -0.0000   -0.0044
       76 V      9d2+      -0.0000    0.0000   -0.0000    0.0000    0.0000    0.0000    0.0000    0.0000   -0.0008   -0.0032
       77 V     10d2+       0.0000    0.0000    0.0000   -0.0000   -0.0000   -0.0000    0.0000    0.0000   -0.0002   -0.0004
       78 V      4f3-       0.0000    0.0000   -0.0000   -0.0000   -0.0000   -0.0000   -0.0000    0.0003    0.0000   -0.0000
       79 V      5f3-      -0.0000   -0.0000    0.0000    0.0000    0.0000    0.0000   -0.0000    0.0006    0.0000   -0.0000
       80 V      6f3-       0.0000    0.0000   -0.0000   -0.0000   -0.0000   -0.0000    0.0000   -0.0000    0.0000    0.0000
       81 V      7f3-      -0.0000   -0.0000    0.0000    0.0000    0.0000    0.0000    0.0000   -0.0002   -0.0000    0.0000
       82 V      8f3-       0.0000    0.0000   -0.0000   -0.0000   -0.0000   -0.0000    0.0000   -0.0000   -0.0000    0.0000
       83 V      9f3-      -0.0000   -0.0000    0.0000    0.0000    0.0000   -0.0000   -0.0000    0.0001   -0.0000   -0.0000
       84 V      4f2-       0.0000    0.0000   -0.0000   -0.0000    0.0000    0.0000    0.0000   -0.0001   -0.0000   -0.0000
       85 V      5f2-      -0.0000   -0.0000    0.0000    0.0000   -0.0000   -0.0000    0.0000   -0.0001   -0.0000   -0.0000
       86 V      6f2-       0.0000    0.0000   -0.0000   -0.0000    0.0000    0.0000   -0.0000    0.0000   -0.0000    0.0000
       87 V      7f2-      -0.0000   -0.0000    0.0000    0.0000   -0.0000    0.0000   -0.0000    0.0000    0.0000    0.0000
       88 V      8f2-      -0.0000    0.0000   -0.0000   -0.0000    0.0000   -0.0000   -0.0000    0.0000    0.0000    0.0000
       89 V      9f2-       0.0000    0.0000   -0.0000   -0.0000   -0.0000    0.0000   -0.0000    0.0000    0.0000   -0.0000
       90 V      4f1-       0.0000    0.0000    0.0000    0.0000    0.0000   -0.0000    0.0000   -0.0001    0.0000    0.0000
       91 V      5f1-      -0.0000   -0.0000   -0.0000   -0.0000   -0.0000    0.0000    0.0000   -0.0001   -0.0000    0.0000
       92 V      6f1-       0.0000    0.0000    0.0000    0.0000   -0.0000   -0.0000   -0.0000    0.0000    0.0000   -0.0000
       93 V      7f1-      -0.0000   -0.0000   -0.0000   -0.0000   -0.0000    0.0000   -0.0000    0.0001    0.0000   -0.0000
       94 V      8f1-       0.0000    0.0000    0.0000    0.0000   -0.0000   -0.0000   -0.0000    0.0000    0.0000   -0.0000
       95 V      9f1-      -0.0000   -0.0000   -0.0000   -0.0000    0.0000   -0.0000    0.0000   -0.0000    0.0000    0.0000
       96 V      4f0       -0.0000    0.0000    0.0000   -0.0000    0.0000    0.0000   -0.0002   -0.0000    0.0001    0.0005
       97 V      5f0        0.0000    0.0000   -0.0000    0.0000   -0.0000    0.0000   -0.0003   -0.0000    0.0000    0.0011
       98 V      6f0       -0.0000   -0.0000    0.0000   -0.0000    0.0000    0.0000    0.0000    0.0000   -0.0000    0.0010
       99 V      7f0        0.0000    0.0000   -0.0000    0.0000   -0.0000    0.0000    0.0001    0.0000   -0.0000    0.0006
      100 V      8f0       -0.0000   -0.0000    0.0000   -0.0000    0.0000    0.0000    0.0000    0.0000   -0.0000    0.0001
      101 V      9f0        0.0000    0.0000   -0.0000    0.0000    0.0000    0.0000   -0.0001   -0.0000   -0.0000   -0.0002
      102 V      4f1+       0.0000   -0.0000    0.0000   -0.0000    0.0000   -0.0002    0.0001    0.0000   -0.0002   -0.0478
      103 V      5f1+      -0.0000    0.0000   -0.0000    0.0000   -0.0000   -0.0000    0.0000    0.0000   -0.0004   -0.0313
      104 V      6f1+       0.0000   -0.0000   -0.0000    0.0000    0.0000    0.0000   -0.0000   -0.0000    0.0000    0.0001
      105 V      7f1+      -0.0000   -0.0000    0.0000   -0.0000   -0.0000    0.0000   -0.0000   -0.0000    0.0002    0.0048
      106 V      8f1+       0.0000    0.0000   -0.0000    0.0000    0.0000   -0.0000   -0.0000   -0.0000    0.0000    0.0029
      107 V      9f1+      -0.0000   -0.0000    0.0000   -0.0000   -0.0000   -0.0000   -0.0000   -0.0000   -0.0001    0.0009
      108 V      4f2+      -0.0000    0.0000   -0.0000    0.0000    0.0000    0.0000    0.0002    0.0000    0.0000    0.0004
      109 V      5f2+       0.0000   -0.0000    0.0000   -0.0000   -0.0000    0.0000    0.0005    0.0000    0.0000    0.0009
      110 V      6f2+      -0.0000   -0.0000   -0.0000    0.0000   -0.0000    0.0000   -0.0000   -0.0000   -0.0000    0.0008
      111 V      7f2+       0.0000    0.0000    0.0000   -0.0000    0.0000    0.0000   -0.0002   -0.0000   -0.0000    0.0005
      112 V      8f2+      -0.0000   -0.0000   -0.0000    0.0000   -0.0000    0.0000   -0.0000   -0.0000   -0.0000    0.0000
      113 V      9f2+       0.0000    0.0000    0.0000   -0.0000    0.0000    0.0000    0.0001    0.0000   -0.0000   -0.0002
      114 V      4f3+      -0.0000    0.0000    0.0000   -0.0000   -0.0000    0.0002    0.0000    0.0000    0.0002    0.0619
      115 V      5f3+       0.0000   -0.0000   -0.0000    0.0000    0.0000    0.0000    0.0000    0.0000    0.0005    0.0405
      116 V      6f3+      -0.0000    0.0000    0.0000   -0.0000   -0.0000   -0.0001   -0.0000   -0.0000   -0.0000   -0.0001
      117 V      7f3+       0.0000    0.0000    0.0000   -0.0000    0.0000   -0.0000   -0.0000   -0.0000   -0.0002   -0.0062
      118 V      8f3+      -0.0000   -0.0000    0.0000   -0.0000   -0.0000    0.0000   -0.0000   -0.0000   -0.0000   -0.0038
      119 V      9f3+       0.0000    0.0000    0.0000   -0.0000    0.0000    0.0000   -0.0000   -0.0000    0.0001   -0.0012
      120 V      5g4-       0.0000    0.0000    0.0000    0.0000    0.0000    0.0000   -0.0000    0.0002    0.0000   -0.0000
      121 V      6g4-      -0.0000   -0.0000   -0.0000   -0.0000   -0.0000   -0.0000   -0.0000    0.0001    0.0000   -0.0000
      122 V      7g4-       0.0000    0.0000    0.0000    0.0000   -0.0000    0.0000   -0.0000    0.0000   -0.0000   -0.0000
      123 V      8g4-      -0.0000   -0.0000    0.0000    0.0000    0.0000   -0.0000    0.0000   -0.0000    0.0000   -0.0000
      124 V      5g3-      -0.0000   -0.0000   -0.0000   -0.0000   -0.0000   -0.0000    0.0000   -0.0000    0.0000   -0.0000
      125 V      6g3-       0.0000    0.0000    0.0000    0.0000   -0.0000    0.0000    0.0000   -0.0000   -0.0000   -0.0000
      126 V      7g3-      -0.0000   -0.0000   -0.0000   -0.0000   -0.0000   -0.0000    0.0000   -0.0000    0.0000   -0.0000
      127 V      8g3-       0.0000    0.0000    0.0000    0.0000    0.0000    0.0000    0.0000   -0.0000   -0.0000   -0.0000
      128 V      5g2-      -0.0000    0.0000   -0.0000   -0.0000   -0.0000    0.0000    0.0000   -0.0001   -0.0000    0.0000
      129 V      6g2-       0.0000    0.0000    0.0000    0.0000    0.0000   -0.0000    0.0000   -0.0001   -0.0000    0.0000
      130 V      7g2-      -0.0000   -0.0000   -0.0000   -0.0000    0.0000    0.0000    0.0000   -0.0000   -0.0000    0.0000
      131 V      8g2-       0.0000    0.0000   -0.0000   -0.0000    0.0000   -0.0000   -0.0000    0.0000    0.0000    0.0000
      132 V      5g1-      -0.0000    0.0000    0.0000    0.0000   -0.0000   -0.0000   -0.0000    0.0000    0.0000    0.0000
      133 V      6g1-       0.0000   -0.0000    0.0000    0.0000   -0.0000    0.0000   -0.0000    0.0000   -0.0000    0.0000
      134 V      7g1-      -0.0000    0.0000   -0.0000   -0.0000    0.0000   -0.0000   -0.0000    0.0000    0.0000    0.0000
      135 V      8g1-       0.0000   -0.0000    0.0000    0.0000   -0.0000    0.0000   -0.0000    0.0000   -0.0000    0.0000
      136 V      5g0        0.0000   -0.0000   -0.0000    0.0000    0.0000   -0.0000   -0.0000   -0.0000    0.0001    0.0011
      137 V      6g0        0.0000    0.0000    0.0000   -0.0000   -0.0000   -0.0000   -0.0000   -0.0000    0.0001    0.0028
      138 V      7g0       -0.0000   -0.0000   -0.0000    0.0000    0.0000    0.0000   -0.0000   -0.0000   -0.0000    0.0020
      139 V      8g0        0.0000    0.0000    0.0000   -0.0000    0.0000    0.0000   -0.0000   -0.0000   -0.0000    0.0009
      140 V      5g1+      -0.0000    0.0000   -0.0000    0.0000    0.0000    0.0000   -0.0001   -0.0000    0.0000    0.0002
      141 V      6g1+      -0.0000   -0.0000    0.0000   -0.0000    0.0000    0.0000   -0.0001   -0.0000    0.0000    0.0008
      142 V      7g1+       0.0000    0.0000   -0.0000    0.0000   -0.0000    0.0000   -0.0000   -0.0000    0.0000    0.0010
      143 V      8g1+       0.0000   -0.0000   -0.0000    0.0000   -0.0000   -0.0000    0.0000    0.0000    0.0000    0.0009
      144 V      5g2+      -0.0000    0.0000    0.0000   -0.0000   -0.0000    0.0000    0.0000    0.0000   -0.0001   -0.0017
      145 V      6g2+      -0.0000   -0.0000   -0.0000    0.0000    0.0000    0.0000    0.0000    0.0000   -0.0001   -0.0041
      146 V      7g2+       0.0000    0.0000   -0.0000    0.0000   -0.0000   -0.0000    0.0000    0.0000    0.0000   -0.0031
      147 V      8g2+      -0.0000   -0.0000    0.0000   -0.0000   -0.0000   -0.0000    0.0000    0.0000    0.0000   -0.0014
      148 V      5g3+      -0.0000    0.0000    0.0000   -0.0000    0.0000    0.0000    0.0001    0.0000    0.0000    0.0003
      149 V      6g3+      -0.0000   -0.0000   -0.0000    0.0000   -0.0000    0.0000    0.0001    0.0000    0.0000    0.0010
      150 V      7g3+       0.0000    0.0000    0.0000   -0.0000   -0.0000    0.0000    0.0000    0.0000    0.0000    0.0012
      151 V      8g3+       0.0000   -0.0000    0.0000   -0.0000   -0.0000   -0.0000   -0.0000   -0.0000    0.0000    0.0010
      152 V      5g4+       0.0000   -0.0000    0.0000   -0.0000    0.0000   -0.0000    0.0000    0.0000    0.0002    0.0022
      153 V      6g4+       0.0000    0.0000   -0.0000    0.0000   -0.0000   -0.0000    0.0000    0.0000    0.0001    0.0055
      154 V      7g4+      -0.0000   -0.0000   -0.0000    0.0000    0.0000    0.0000    0.0000    0.0000   -0.0000    0.0041
      155 V      8g4+       0.0000    0.0000    0.0000    0.0000    0.0000    0.0000    0.0000    0.0000   -0.0000    0.0018
      156 V      6h5-      -0.0000   -0.0000   -0.0000   -0.0000    0.0000    0.0000    0.0000   -0.0000    0.0000    0.0000
      157 V      7h5-       0.0000    0.0000    0.0000    0.0000   -0.0000   -0.0000    0.0000   -0.0000   -0.0000    0.0000
      158 V      6h4-      -0.0000   -0.0000    0.0000    0.0000    0.0000   -0.0000   -0.0000    0.0000    0.0000   -0.0000
      159 V      7h4-      -0.0000    0.0000   -0.0000   -0.0000    0.0000   -0.0000   -0.0000    0.0000    0.0000   -0.0000
      160 V      6h3-      -0.0000   -0.0000    0.0000    0.0000    0.0000   -0.0000   -0.0000    0.0000    0.0000    0.0000
      161 V      7h3-       0.0000    0.0000   -0.0000   -0.0000   -0.0000    0.0000   -0.0000    0.0000   -0.0000    0.0000
      162 V      6h2-      -0.0000   -0.0000    0.0000    0.0000    0.0000   -0.0000   -0.0000    0.0000    0.0000    0.0000
      163 V      7h2-       0.0000    0.0000   -0.0000   -0.0000    0.0000   -0.0000   -0.0000    0.0000    0.0000    0.0000
      164 V      6h1-       0.0000    0.0000   -0.0000   -0.0000    0.0000    0.0000    0.0000   -0.0000    0.0000    0.0000
      165 V      7h1-      -0.0000   -0.0000    0.0000    0.0000   -0.0000   -0.0000    0.0000   -0.0000   -0.0000    0.0000
      166 V      6h0        0.0000   -0.0000   -0.0000    0.0000   -0.0000   -0.0000   -0.0000   -0.0000   -0.0000   -0.0001
      167 V      7h0        0.0000   -0.0000    0.0000   -0.0000    0.0000   -0.0000   -0.0000   -0.0000   -0.0000   -0.0001
      168 V      6h1+       0.0000    0.0000    0.0000   -0.0000   -0.0000   -0.0000    0.0000    0.0000   -0.0000    0.0002
      169 V      7h1+       0.0000   -0.0000   -0.0000    0.0000    0.0000   -0.0000    0.0000    0.0000   -0.0000    0.0003
      170 V      6h2+      -0.0000    0.0000    0.0000   -0.0000    0.0000    0.0000    0.0000    0.0000    0.0000    0.0000
      171 V      7h2+      -0.0000    0.0000   -0.0000    0.0000   -0.0000    0.0000    0.0000    0.0000    0.0000    0.0001
      172 V      6h3+      -0.0000   -0.0000    0.0000   -0.0000    0.0000    0.0000    0.0000    0.0000    0.0000   -0.0002
      173 V      7h3+      -0.0000    0.0000   -0.0000    0.0000   -0.0000    0.0000    0.0000    0.0000    0.0000   -0.0003
      174 V      6h4+      -0.0000    0.0000   -0.0000    0.0000    0.0000    0.0000   -0.0000   -0.0000    0.0000    0.0001
      175 V      7h4+      -0.0000    0.0000    0.0000   -0.0000   -0.0000    0.0000   -0.0000   -0.0000    0.0000    0.0002
      176 V      6h5+       0.0000    0.0000    0.0000   -0.0000   -0.0000   -0.0000    0.0000    0.0000   -0.0000    0.0003
      177 V      7h5+       0.0000   -0.0000    0.0000   -0.0000    0.0000   -0.0000    0.0000    0.0000   -0.0000    0.0005

          Orbital           11        12        13        14        15    
          Energy            2.7404    2.7404    2.7413    2.7414    3.0117
          Occ. No.          0.0000    0.0000    0.0000    0.0000    0.0000

        1 V      1s         0.0000    0.0000    0.0000   -0.0000   -0.0000
        2 V      2s         0.0000    0.0000   -0.0000    0.0000    0.0000
        3 V      3s         0.0000    0.0000   -0.0000    0.0000    0.0319
        4 V      4s         0.0000   -0.0000   -0.0001    0.0000    0.6261
        5 V      5s        -0.0000    0.0000    0.0000   -0.0000   -0.2161
        6 V      6s         0.0000   -0.0000    0.0000    0.0000    0.0661
        7 V      7s         0.0000   -0.0000   -0.0000    0.0000    0.0363
        8 V      8s         0.0000    0.0000   -0.0000    0.0000    0.0039
        9 V      9s         0.0000    0.0000   -0.0000    0.0000    0.0133
       10 V     10s         0.0000    0.0000   -0.0000   -0.0000    0.0073
       11 V      2px        0.0000    0.0000    0.0000   -0.0000    0.0000
       12 V      3px       -0.0000    0.0000    0.0001   -0.0000    0.0416
       13 V      4px        0.0000   -0.0001   -0.0003    0.0000    0.6107
       14 V      5px       -0.0000    0.0001    0.0002   -0.0000   -0.0868
       15 V      6px       -0.0000    0.0000    0.0001   -0.0000   -0.1182
       16 V      7px        0.0000   -0.0000   -0.0000    0.0000   -0.0311
       17 V      8px        0.0000   -0.0000   -0.0000    0.0000   -0.0063
       18 V      9px        0.0000    0.0000    0.0000   -0.0000    0.0085
       19 V     10px        0.0000    0.0000    0.0000   -0.0000    0.0052
       20 V      2py        0.0003   -0.0000    0.0000   -0.0003   -0.0000
       21 V      3py        0.0284   -0.0000    0.0000   -0.0281    0.0000
       22 V      4py       -0.0676    0.0000   -0.0000    0.0652   -0.0000
       23 V      5py        0.0466   -0.0000    0.0000   -0.0463    0.0000
       24 V      6py        0.0134   -0.0000    0.0000   -0.0130    0.0000
       25 V      7py       -0.0098    0.0000   -0.0000    0.0100   -0.0000
       26 V      8py       -0.0039    0.0000   -0.0000    0.0041   -0.0000
       27 V      9py        0.0026   -0.0000    0.0000   -0.0026   -0.0000
       28 V     10py        0.0012   -0.0000    0.0000   -0.0012   -0.0000
       29 V      2pz       -0.0000   -0.0003    0.0003    0.0000    0.0000
       30 V      3pz       -0.0000   -0.0287    0.0277    0.0000    0.0000
       31 V      4pz        0.0000    0.0685   -0.0643   -0.0000    0.0003
       32 V      5pz       -0.0000   -0.0472    0.0456    0.0000   -0.0000
       33 V      6pz       -0.0000   -0.0135    0.0128    0.0000   -0.0001
       34 V      7pz        0.0000    0.0100   -0.0099   -0.0000   -0.0000
       35 V      8pz        0.0000    0.0040   -0.0040   -0.0000    0.0000
       36 V      9pz       -0.0000   -0.0027    0.0026    0.0000    0.0000
       37 V     10pz       -0.0000   -0.0012    0.0012    0.0000    0.0000
       38 V      3d2-      -0.6823    0.0000   -0.0000    0.6736    0.0000
       39 V      4d2-       0.1684   -0.0000    0.0000   -0.1690    0.0000
       40 V      5d2-      -0.0161    0.0000   -0.0000    0.0150    0.0000
       41 V      6d2-      -0.0125    0.0000   -0.0000    0.0125    0.0000
       42 V      7d2-      -0.0091    0.0000   -0.0000    0.0093   -0.0000
       43 V      8d2-       0.0019   -0.0000    0.0000   -0.0015   -0.0000
       44 V      9d2-       0.0021   -0.0000    0.0000   -0.0018   -0.0000
       45 V     10d2-       0.0003   -0.0000    0.0000   -0.0002    0.0000
       46 V      3d1-       0.6752   -0.0000   -0.0000    0.6829    0.0000
       47 V      4d1-      -0.1877    0.0000    0.0000   -0.1931   -0.0000
       48 V      5d1-       0.0150   -0.0000   -0.0000    0.0139   -0.0000
       49 V      6d1-       0.0170   -0.0000   -0.0000    0.0172   -0.0000
       50 V      7d1-       0.0124   -0.0000   -0.0000    0.0128   -0.0000
       51 V      8d1-      -0.0007    0.0000   -0.0000   -0.0002   -0.0000
       52 V      9d1-      -0.0021    0.0000   -0.0000   -0.0018   -0.0000
       53 V     10d1-      -0.0003    0.0000   -0.0000   -0.0002    0.0000
       54 V      3d0        0.0000    0.5777    0.5995    0.0000    0.0499
       55 V      4d0       -0.0000   -0.1605   -0.1695   -0.0000   -0.1748
       56 V      5d0        0.0000    0.0129    0.0122    0.0000   -0.0360
       57 V      6d0        0.0000    0.0146    0.0151    0.0000    0.0167
       58 V      7d0        0.0000    0.0106    0.0113    0.0000    0.0243
       59 V      8d0       -0.0000   -0.0006   -0.0002    0.0000    0.0211
       60 V      9d0       -0.0000   -0.0018   -0.0015    0.0000    0.0113
       61 V     10d0       -0.0000   -0.0002   -0.0002    0.0000    0.0023
       62 V      3d1+       0.0000    0.6907   -0.6650   -0.0000   -0.0001
       63 V      4d1+      -0.0000   -0.1704    0.1669    0.0000    0.0003
       64 V      5d1+       0.0000    0.0163   -0.0149   -0.0000    0.0001
       65 V      6d1+       0.0000    0.0127   -0.0123   -0.0000   -0.0001
       66 V      7d1+       0.0000    0.0092   -0.0092   -0.0000   -0.0001
       67 V      8d1+      -0.0000   -0.0020    0.0015    0.0000   -0.0001
       68 V      9d1+      -0.0000   -0.0022    0.0018    0.0000   -0.0001
       69 V     10d1+      -0.0000   -0.0003    0.0002    0.0000   -0.0000
       70 V      3d2+       0.0000    0.3325    0.3441    0.0000   -0.0864
       71 V      4d2+      -0.0000   -0.0924   -0.0974   -0.0000    0.3032
       72 V      5d2+       0.0000    0.0074    0.0070    0.0000    0.0626
       73 V      6d2+       0.0000    0.0084    0.0087    0.0000   -0.0289
       74 V      7d2+       0.0000    0.0061    0.0065    0.0000   -0.0422
       75 V      8d2+      -0.0000   -0.0003   -0.0001   -0.0000   -0.0367
       76 V      9d2+      -0.0000   -0.0010   -0.0009   -0.0000   -0.0196
       77 V     10d2+      -0.0000   -0.0001   -0.0001   -0.0000   -0.0039
       78 V      4f3-      -0.0505    0.0000   -0.0000    0.0491    0.0000
       79 V      5f3-      -0.0322    0.0000   -0.0000    0.0303    0.0000
       80 V      6f3-       0.0006   -0.0000    0.0000   -0.0019    0.0000
       81 V      7f3-       0.0048   -0.0000    0.0000   -0.0053    0.0000
       82 V      8f3-       0.0026   -0.0000    0.0000   -0.0025    0.0000
       83 V      9f3-       0.0005   -0.0000    0.0000   -0.0001   -0.0000
       84 V      4f2-       0.0387   -0.0000   -0.0000    0.0376    0.0000
       85 V      5f2-       0.0227   -0.0000    0.0000    0.0196    0.0000
       86 V      6f2-      -0.0024    0.0000    0.0000   -0.0053   -0.0000
       87 V      7f2-      -0.0042    0.0000    0.0000   -0.0057   -0.0000
       88 V      8f2-      -0.0016    0.0000    0.0000   -0.0016   -0.0000
       89 V      9f2-       0.0004   -0.0000   -0.0000    0.0013   -0.0000
       90 V      4f1-       0.0130   -0.0000    0.0000   -0.0127   -0.0000
       91 V      5f1-       0.0083   -0.0000    0.0000   -0.0078   -0.0000
       92 V      6f1-      -0.0002    0.0000   -0.0000    0.0005   -0.0000
       93 V      7f1-      -0.0012    0.0000   -0.0000    0.0014   -0.0000
       94 V      8f1-      -0.0007    0.0000   -0.0000    0.0006   -0.0000
       95 V      9f1-      -0.0001    0.0000   -0.0000    0.0000    0.0000
       96 V      4f0       -0.0000   -0.0323    0.0307    0.0000    0.0034
       97 V      5f0       -0.0000   -0.0206    0.0189    0.0000    0.0081
       98 V      6f0        0.0000    0.0004   -0.0012   -0.0000    0.0082
       99 V      7f0        0.0000    0.0031   -0.0033   -0.0000    0.0053
      100 V      8f0        0.0000    0.0017   -0.0016   -0.0000    0.0012
      101 V      9f0        0.0000    0.0003   -0.0000   -0.0000   -0.0013
      102 V      4f1+       0.0000    0.0303    0.0302    0.0000   -0.0167
      103 V      5f1+       0.0000    0.0178    0.0157   -0.0000   -0.0473
      104 V      6f1+      -0.0000   -0.0018   -0.0042   -0.0000   -0.0402
      105 V      7f1+      -0.0000   -0.0033   -0.0046   -0.0000   -0.0155
      106 V      8f1+      -0.0000   -0.0013   -0.0013    0.0000    0.0048
      107 V      9f1+       0.0000    0.0003    0.0010    0.0000    0.0151
      108 V      4f2+       0.0000    0.0417   -0.0396   -0.0000    0.0027
      109 V      5f2+       0.0000    0.0266   -0.0244   -0.0000    0.0066
      110 V      6f2+      -0.0000   -0.0005    0.0015    0.0000    0.0066
      111 V      7f2+      -0.0000   -0.0040    0.0043    0.0000    0.0042
      112 V      8f2+      -0.0000   -0.0021    0.0020    0.0000    0.0008
      113 V      9f2+      -0.0000   -0.0004    0.0001    0.0000   -0.0011
      114 V      4f3+       0.0000    0.0234    0.0232    0.0000    0.0218
      115 V      5f3+       0.0000    0.0138    0.0121    0.0000    0.0615
      116 V      6f3+      -0.0000   -0.0014   -0.0033   -0.0000    0.0524
      117 V      7f3+      -0.0000   -0.0025   -0.0035   -0.0000    0.0203
      118 V      8f3+      -0.0000   -0.0010   -0.0010   -0.0000   -0.0062
      119 V      9f3+       0.0000    0.0002    0.0008    0.0000   -0.0197
      120 V      5g4-      -0.0021    0.0000   -0.0000    0.0020   -0.0000
      121 V      6g4-      -0.0053    0.0000   -0.0000    0.0050    0.0000
      122 V      7g4-      -0.0044    0.0000   -0.0000    0.0039    0.0000
      123 V      8g4-      -0.0024    0.0000   -0.0000    0.0020    0.0000
      124 V      5g3-       0.0015   -0.0000    0.0000    0.0009   -0.0000
      125 V      6g3-       0.0038   -0.0000    0.0000    0.0019    0.0000
      126 V      7g3-       0.0031   -0.0000    0.0000    0.0010    0.0000
      127 V      8g3-       0.0017   -0.0000    0.0000    0.0000    0.0000
      128 V      5g2-       0.0008   -0.0000    0.0000   -0.0007   -0.0000
      129 V      6g2-       0.0020   -0.0000    0.0000   -0.0019   -0.0000
      130 V      7g2-       0.0016   -0.0000    0.0000   -0.0015   -0.0000
      131 V      8g2-       0.0009   -0.0000    0.0000   -0.0007   -0.0000
      132 V      5g1-      -0.0007    0.0000   -0.0000   -0.0002    0.0000
      133 V      6g1-      -0.0017    0.0000   -0.0000   -0.0005    0.0000
      134 V      7g1-      -0.0014    0.0000   -0.0000   -0.0002    0.0000
      135 V      8g1-      -0.0008    0.0000   -0.0000    0.0001    0.0000
      136 V      5g0       -0.0000   -0.0008   -0.0006    0.0000    0.0018
      137 V      6g0       -0.0000   -0.0021   -0.0013    0.0000    0.0048
      138 V      7g0       -0.0000   -0.0017   -0.0007    0.0000    0.0047
      139 V      8g0       -0.0000   -0.0009   -0.0001    0.0000    0.0035
      140 V      5g1+      -0.0000   -0.0017    0.0016    0.0000    0.0020
      141 V      6g1+      -0.0000   -0.0044    0.0039    0.0000    0.0066
      142 V      7g1+      -0.0000   -0.0036    0.0031    0.0000    0.0078
      143 V      8g1+      -0.0000   -0.0020    0.0016    0.0000    0.0069
      144 V      5g2+       0.0000    0.0009    0.0004   -0.0000   -0.0027
      145 V      6g2+       0.0000    0.0023    0.0009   -0.0000   -0.0073
      146 V      7g2+       0.0000    0.0018    0.0004   -0.0000   -0.0072
      147 V      8g2+       0.0000    0.0011   -0.0001   -0.0000   -0.0052
      148 V      5g3+       0.0000    0.0015   -0.0014   -0.0000    0.0023
      149 V      6g3+       0.0000    0.0038   -0.0035   -0.0000    0.0076
      150 V      7g3+       0.0000    0.0031   -0.0027   -0.0000    0.0091
      151 V      8g3+       0.0000    0.0018   -0.0014   -0.0000    0.0080
      152 V      5g4+       0.0000    0.0011    0.0006    0.0000    0.0037
      153 V      6g4+       0.0000    0.0028    0.0013   -0.0000    0.0099
      154 V      7g4+       0.0000    0.0023    0.0007   -0.0000    0.0098
      155 V      8g4+       0.0000    0.0013   -0.0000   -0.0000    0.0072
      156 V      6h5-      -0.0003    0.0000   -0.0000    0.0003   -0.0000
      157 V      7h5-      -0.0005    0.0000   -0.0000    0.0005   -0.0000
      158 V      6h4-       0.0002   -0.0000    0.0000    0.0001    0.0000
      159 V      7h4-       0.0004   -0.0000    0.0000    0.0002   -0.0000
      160 V      6h3-       0.0001   -0.0000    0.0000   -0.0001   -0.0000
      161 V      7h3-       0.0002   -0.0000    0.0000   -0.0002   -0.0000
      162 V      6h2-      -0.0002    0.0000   -0.0000   -0.0000    0.0000
      163 V      7h2-      -0.0004    0.0000   -0.0000    0.0000    0.0000
      164 V      6h1-      -0.0000    0.0000   -0.0000    0.0000   -0.0000
      165 V      7h1-      -0.0001    0.0000   -0.0000    0.0001   -0.0000
      166 V      6h0        0.0000    0.0001   -0.0002   -0.0000   -0.0003
      167 V      7h0        0.0000    0.0003   -0.0003   -0.0000   -0.0008
      168 V      6h1+      -0.0000   -0.0001   -0.0001   -0.0000   -0.0000
      169 V      7h1+      -0.0000   -0.0003   -0.0002    0.0000   -0.0000
      170 V      6h2+      -0.0000   -0.0002    0.0002    0.0000    0.0002
      171 V      7h2+      -0.0000   -0.0003    0.0004    0.0000    0.0005
      172 V      6h3+       0.0000    0.0001    0.0000   -0.0000    0.0000
      173 V      7h3+       0.0000    0.0003   -0.0000   -0.0000   -0.0000
      174 V      6h4+       0.0000    0.0002   -0.0002   -0.0000    0.0004
      175 V      7h4+       0.0000    0.0003   -0.0003   -0.0000    0.0012
      176 V      6h5+       0.0000    0.0002    0.0001    0.0000   -0.0000
      177 V      7h5+       0.0000    0.0004    0.0001   -0.0000    0.0000
--


++    Molecular charges:
      ------------------

      Mulliken charges per centre and basis function type
      ---------------------------------------------------

                V     
      1s       2.0000
      2s       2.0000
      2px      2.0000
      2pz      2.0000
      2py      2.0000
      3s       1.9884
      3px      1.9686
      3pz      1.9724
      3py      1.9724
      4s       0.0040
      3d2+     0.0055
      3d1+     0.0051
      3d0      0.0018
      3d1-     0.0000
      3d2-     0.0051
      4px      0.0080
      4pz      0.0082
      4py      0.0082
      5s       0.0028
      4d2+     0.0002
      4d1+     0.0002
      4d0      0.0001
      4d1-     0.0000
      4d2-     0.0002
      5px      0.0138
      5pz      0.0135
      5py      0.0135
      6s       0.0060
      4f3+     0.0000
      4f2+     0.0000
      4f1+     0.0000
      4f0      0.0000
      4f1-     0.0000
      4f2-     0.0000
      4f3-     0.0000
      5d2+     0.0001
      5d1+     0.0001
      5d0      0.0000
      5d1-     0.0000
      5d2-     0.0001
      6px      0.0001
      6pz      0.0000
      6py      0.0000
      7s       0.0000
      5f3+     0.0000
      5f2+     0.0000
      5f1+     0.0000
      5f0      0.0000
      5f1-     0.0000
      5f2-     0.0000
      5f3-     0.0000
      6d2+     0.0001
      6d1+     0.0001
      6d0      0.0000
      6d1-     0.0000
      6d2-     0.0001
      7px      0.0003
      7pz      0.0003
      7py      0.0003
      5g4+     0.0000
      5g3+     0.0000
      5g2+     0.0000
      5g1+     0.0000
      5g0      0.0000
      5g1-     0.0000
      5g2-     0.0000
      5g3-     0.0000
      5g4-     0.0000
      6f3+     0.0000
      6f2+     0.0000
      6f1+     0.0000
      6f0      0.0000
      6f1-     0.0000
      6f2-     0.0000
      6f3-     0.0000
      6g4+     0.0000
      6g3+     0.0000
      6g2+     0.0000
      6g1+     0.0000
      6g0      0.0000
      6g1-     0.0000
      6g2-     0.0000
      6g3-     0.0000
      6g4-     0.0000
      6h5+     0.0000
      6h4+     0.0000
      6h3+     0.0000
      6h2+     0.0000
      6h1+     0.0000
      6h0      0.0000
      6h1-     0.0000
      6h2-     0.0000
      6h3-     0.0000
      6h4-     0.0000
      6h5-     0.0000
      7d2+     0.0000
      7d1+     0.0000
      7d0      0.0000
      7d1-     0.0000
      7d2-     0.0000
      7f3+     0.0000
      7f2+     0.0000
      7f1+     0.0000
      7f0      0.0000
      7f1-     0.0000
      7f2-     0.0000
      7f3-     0.0000
      7g4+     0.0000
      7g3+     0.0000
      7g2+     0.0000
      7g1+     0.0000
      7g0      0.0000
      7g1-     0.0000
      7g2-     0.0000
      7g3-     0.0000
      7g4-     0.0000
      7h5+     0.0000
      7h4+     0.0000
      7h3+     0.0000
      7h2+     0.0000
      7h1+     0.0000
      7h0      0.0000
      7h1-     0.0000
      7h2-     0.0000
      7h3-     0.0000
      7h4-     0.0000
      7h5-     0.0000
      8s       0.0001
      8px      0.0000
      8pz      0.0000
      8py      0.0000
      8d2+     0.0000
      8d1+     0.0000
      8d0      0.0000
      8d1-     0.0000
      8d2-     0.0000
      8f3+     0.0000
      8f2+     0.0000
      8f1+     0.0000
      8f0      0.0000
      8f1-     0.0000
      8f2-     0.0000
      8f3-     0.0000
      8g4+     0.0000
      8g3+     0.0000
      8g2+     0.0000
      8g1+     0.0000
      8g0      0.0000
      8g1-     0.0000
      8g2-     0.0000
      8g3-     0.0000
      8g4-     0.0000
      9s       0.0000
      9px      0.0000
      9pz      0.0000
      9py      0.0000
      9d2+     0.0000
      9d1+     0.0000
      9d0      0.0000
      9d1-     0.0000
      9d2-     0.0000
      9f3+     0.0000
      9f2+     0.0000
      9f1+     0.0000
      9f0      0.0000
      9f1-     0.0000
      9f2-     0.0000
      9f3-     0.0000
     10s       0.0000
     10px      0.0000
     10pz      0.0000
     10py      0.0000
     10d2+     0.0000
     10d1+     0.0000
     10d0      0.0000
     10d1-     0.0000
     10d2-     0.0000
      Total   18.0000

      N-E      5.0000

      Total electronic charge=   18.000000

      Total            charge=    5.000000
--

 Sorry, Molden does not know how to handle
 functions with angular momentum larger than g

++    Static properties:
      ------------------


      LoProp Charges per center


                   V     
      Nuclear     23.0000
      Electronic -18.0000

      Total        5.0000
--


++    Molecular properties:
      ---------------------

      Charge (e):
                      =    5.0000
      Dipole Moment (Debye):
      Origin of the operator (Ang)=    0.0000    0.0000    0.0000
                   X= -8.9155E-01               Y= -1.0618E-13               Z=  1.1081E-01           Total=  8.9841E-01
      Center of Charge (Ang)
                     X=   -0.03712334               Y=   -0.00000000               Z=    0.00461390
      Quadrupole Moment (Debye*Ang):
      Origin of the operator (Ang)=   -0.0000   -0.0000    0.0046
                  XX= -4.0085E+00              XY=  1.3053E-14              XZ=  2.6556E-05              YY= -4.0020E+00
                  YZ=  7.6991E-15              ZZ= -4.0021E+00
      In traceless form (Debye*Ang)
                  XX= -6.4328E-03              XY=  1.9579E-14              XZ=  3.9835E-05              YY=  3.2197E-03
                  YZ=  1.1549E-14              ZZ=  3.2132E-03
--

 Sorry, Molden does not know how to handle
 functions with angular momentum larger than g
 ###############################################################################
 ###############################################################################
 ###                                                                         ###
 ###                                                                         ###
 ###    WARNING: RunFile label nBas                                          ###
 ###    was used       62 times                                              ###
 ###                                                                         ###
 ###                                                                         ###
 ###############################################################################
 ###############################################################################
Note: The following floating-point exceptions are signalling: IEEE_UNDERFLOW_FLAG IEEE_DENORMAL
--- Stop Module: scf at Wed Mar 26 22:32:09 2025 /rc=_RC_ALL_IS_WELL_ ---
*** files: vanadium_so_cf.LprOrb vanadium_so_cf.ScfOrb xmldump
    saved to directory /home4/s4752295/Internship/Initial_simulations/Point_charge_model/1_electron/Madelung_charges_9_active_space/V
--- Module scf spent 7 seconds ---

*** symbolic link created: INPORB -> vanadium_so_cf.ScfOrb
--- Start Module: rasscf at Wed Mar 26 22:32:09 2025 ---

()()()()()()()()()()()()()()()()()()()()()()()()()()()()()()()()()()()()()()()()()()()()()()()()()()

                                              &RASSCF

                                   only a single process is used
                       available to each process: 4.1 GB of memory, 1 thread?
                                            pid: 516578
()()()()()()()()()()()()()()()()()()()()()()()()()()()()()()()()()()()()()()()()()()()()()()()()()()


      Header of the ONEINT file:
      --------------------------
      
      Integrals generated by seward 4.2.0  , Wed Mar 26 22:31:53 2025


      OrdInt status: non-squared


[...]
         4   18       5.23768770E-04  1.48937901E-12  7.39948165E+06  2.41728763E-13  7.39948165E+06
         5   11       1.70647525E-03  1.62561465E+04  2.00769939E-16  5.08215198E+06  5.09840812E+06
         5   13       1.82391594E-02  1.10508144E+08  3.85159905E-12  1.01169835E+08  2.11677979E+08
         5   15       9.09966267E-03  4.07500977E-13  1.05939066E+08  3.79293605E-12  1.05939066E+08
         5   17       5.16873468E-04  1.06434593E+04  5.79899886E-15  7.29107015E+06  7.30171361E+06
         6   12       1.70647525E-03  1.62561465E+04  2.00769939E-16  5.08215198E+06  5.09840812E+06
         6   14       1.82391594E-02  1.10508144E+08  3.85159905E-12  1.01169835E+08  2.11677979E+08
         6   16       9.09966267E-03  4.07500977E-13  1.05939066E+08  3.79293605E-12  1.05939066E+08
         6   18       5.16873468E-04  1.06434593E+04  5.79899886E-15  7.29107015E+06  7.30171361E+06
         7   11       1.09490115E-02  2.58266497E+03  8.31387212E-10  3.24316865E+07  3.24342691E+07
         7   13       4.81054432E-02  5.53658835E+08  8.26762326E-11  2.22880506E+06  5.55887640E+08
         7   15       2.03257482E-04  1.38019946E-08  2.35614635E+06  8.65058470E-11  2.35614635E+06
         7   17       5.14272275E-03  7.00842942E+02  1.89416037E-09  7.23648013E+07  7.23655022E+07
         8   12       1.09490115E-02  2.58266497E+03  8.31387212E-10  3.24316865E+07  3.24342691E+07
         8   14       4.81054432E-02  5.53658835E+08  8.26762326E-11  2.22880506E+06  5.55887640E+08
         8   16       2.03257482E-04  1.38019946E-08  2.35614635E+06  8.65058470E-11  2.35614635E+06
         8   18       5.14272275E-03  7.00842942E+02  1.89416037E-09  7.23648013E+07  7.23655022E+07
         9   11       1.08347215E-02  1.60798873E-14  3.20889746E+07  8.46931647E-10  3.20889746E+07
         9   13       2.12639173E-04  1.40073824E-08  2.45691392E+06  6.89079695E-11  2.45691392E+06
         9   15       4.77494231E-02  5.50872700E+08  6.91890159E-11  2.57653644E+06  5.53449237E+08
         9   17       5.17504123E-03  5.85404274E-14  7.28132606E+07  1.89313338E-09  7.28132606E+07
        10   12       1.08347215E-02  1.60798873E-14  3.20889746E+07  8.46931647E-10  3.20889746E+07
        10   14       2.12639173E-04  1.40073824E-08  2.45691392E+06  6.89079695E-11  2.45691392E+06
        10   16       4.77494231E-02  5.50872700E+08  6.91890159E-11  2.57653644E+06  5.53449237E+08
        10   18       5.17504123E-03  5.85404274E-14  7.28132606E+07  1.89313338E-09  7.28132606E+07
        11   13       3.26062139E-01  3.45442307E+03  5.69956971E-12  9.18325651E+08  9.18329106E+08
        11   15       3.26248259E-01  2.51246785E-16  9.24708101E+08  5.68823552E-12  9.24708101E+08
        11   17       3.33221152E-01  1.37324310E+09  1.13512093E-16  6.16299659E+03  1.37324927E+09
        12   14       3.26062139E-01  3.45442307E+03  5.69956971E-12  9.18325651E+08  9.18329106E+08
        12   16       3.26248259E-01  2.51246785E-16  9.24708101E+08  5.68823552E-12  9.24708101E+08
        12   18       3.33221152E-01  1.37324310E+09  1.13512093E-16  6.16299659E+03  1.37324927E+09
        13   15       1.04312774E-04  5.01815022E-25  2.97253470E+00  7.15725477E-20  2.97253470E+00
        13   17       3.70094537E-03  2.92743534E-01  2.73086343E-15  4.58138214E+05  4.58138506E+05
        14   16       1.04312774E-04  5.01815022E-25  2.97253470E+00  7.15725477E-20  2.97253470E+00
        14   18       3.70094537E-03  2.92743534E-01  2.73086343E-15  4.58138214E+05  4.58138506E+05
        15   17       3.53985513E-03  2.90956663E-18  4.25001127E+05  2.80774644E-15  4.25001127E+05
        16   18       3.53985513E-03  2.90956663E-18  4.25001127E+05  2.80774644E-15  4.25001127E+05
     -----------------------------------------------------------------------------------------------
--

++ Velocity transition strengths (SO states):
   ------------------------------------------
    for osc. strength at least    1.0000000000000001E-005

      From   To        Osc. strength     Einstein coefficients Ax, Ay, Az (sec-1)    Total A (sec-1)
     -----------------------------------------------------------------------------------------------
         1    3       3.83256554E-02  1.09551626E-21  1.39357923E+02  4.27875851E-18  1.39357923E+02
         1    5       3.40359033E-02  4.08893433E-06  1.22031520E-19  1.35920247E+02  1.35920251E+02
         1    7       5.34206759E-02  2.61660118E-05  1.26486011E-13  4.67657600E+03  4.67657602E+03
         1    9       5.32498634E-02  9.75721566E-20  4.84325470E+03  1.20789613E-13  4.84325470E+03
         1   11       5.49143469E-02  1.64446799E+08  4.41784050E-14  4.98055279E+01  1.64446849E+08
         1   13       7.79958630E-03  1.62004365E+03  2.37879957E-13  9.06244816E+07  9.06261016E+07
         1   15       7.43811301E-03  1.12235707E-12  8.66969242E+07  3.85555038E-12  8.66969242E+07
         1   17       7.06712158E-03  9.99415724E+07  4.62307329E-14  3.24252307E+01  9.99416048E+07
         2    4       3.83256554E-02  1.09551626E-21  1.39357923E+02  4.27875851E-18  1.39357923E+02
         2    6       3.40359033E-02  4.08893433E-06  1.22031520E-19  1.35920247E+02  1.35920251E+02
         2    8       5.34206759E-02  2.61660118E-05  1.26486011E-13  4.67657600E+03  4.67657602E+03
         2   10       5.32498634E-02  9.75721566E-20  4.84325470E+03  1.20789613E-13  4.84325470E+03
         2   12       5.49143469E-02  1.64446799E+08  4.41784050E-14  4.98055279E+01  1.64446849E+08
         2   14       7.79958630E-03  1.62004365E+03  2.37879957E-13  9.06244816E+07  9.06261016E+07
         2   16       7.43811301E-03  1.12235707E-12  8.66969242E+07  3.85555038E-12  8.66969242E+07
         2   18       7.06712158E-03  9.99415724E+07  4.62307329E-14  3.24252307E+01  9.99416048E+07
         3    5       1.96483215E-05  2.92356544E-24  1.64460789E-04  1.46007128E-20  1.64460789E-04
         3    7       2.39448823E-02  3.93430972E-19  1.32883730E+03  3.35011724E-14  1.32883730E+03
         3    9       2.34799379E-02  9.98230013E-03  4.02235407E-14  1.36694717E+03  1.36695715E+03
         3   11       1.44600065E-03  2.59945475E-12  4.32066481E+06  6.91607710E-14  4.32066481E+06
         3   13       7.69965235E-03  3.14616486E-12  8.93648672E+07  9.44755770E-12  8.93648672E+07
         3   15       1.66945856E-02  1.04222668E+08  5.27875952E-13  9.01482507E+07  1.94370919E+08
         3   17       4.23789633E-04  1.55984566E-12  5.98705899E+06  1.96473233E-13  5.98705899E+06
         4    6       1.96483215E-05  2.92356544E-24  1.64460789E-04  1.46007128E-20  1.64460789E-04
         4    8       2.39448823E-02  3.93430972E-19  1.32883730E+03  3.35011724E-14  1.32883730E+03
         4   10       2.34799379E-02  9.98230013E-03  4.02235407E-14  1.36694717E+03  1.36695715E+03
         4   12       1.44600065E-03  2.59945475E-12  4.32066481E+06  6.91607710E-14  4.32066481E+06
         4   14       7.69965235E-03  3.14616486E-12  8.93648672E+07  9.44755770E-12  8.93648672E+07
         4   16       1.66945856E-02  1.04222668E+08  5.27875952E-13  9.01482507E+07  1.94370919E+08
         4   18       4.23789633E-04  1.55984566E-12  5.98705899E+06  1.96473233E-13  5.98705899E+06
         5    7       2.52550333E-02  1.08766855E-02  3.47648665E-14  1.36732036E+03  1.36733124E+03
         5    9       2.29955687E-02  1.47977276E-18  1.30684566E+03  3.79863624E-14  1.30684566E+03
         5   11       1.39113511E-03  1.39508518E+04  1.38087612E-17  4.14233517E+06  4.15628602E+06
         5   13       1.61167981E-02  9.94424475E+07  3.34435786E-12  8.76047205E+07  1.87047168E+08
         5   15       7.89650911E-03  4.04165395E-13  9.19321667E+07  3.28783637E-12  9.19321667E+07
         5   17       4.18633316E-04  1.09033150E+04  4.50324854E-15  5.90302224E+06  5.91392556E+06
         6    8       2.52550333E-02  1.08766855E-02  3.47648665E-14  1.36732036E+03  1.36733124E+03
         6   10       2.29955687E-02  1.47977276E-18  1.30684566E+03  3.79863624E-14  1.30684566E+03
         6   12       1.39113511E-03  1.39508518E+04  1.38087612E-17  4.14233517E+06  4.15628602E+06
         6   14       1.61167981E-02  9.94424475E+07  3.34435786E-12  8.76047205E+07  1.87047168E+08
         6   16       7.89650911E-03  4.04165395E-13  9.19321667E+07  3.28783637E-12  9.19321667E+07
         6   18       4.18633316E-04  1.09033150E+04  4.50324854E-15  5.90302224E+06  5.91392556E+06
         7    9       2.28024639E-04  3.68119380E-21  7.43209468E-03  1.53293894E-19  7.43209468E-03
         7   11       9.04002946E-03  2.21699287E+03  6.87362226E-10  2.67771655E+07  2.67793825E+07
         7   13       4.30502130E-02  4.95838372E+08  6.23768580E-11  1.63473945E+06  4.97473111E+08
         7   15       1.50674614E-04  1.23650690E-08  1.74661554E+06  6.52546437E-11  1.74661554E+06
         7   17       4.19951600E-03  4.91639557E+02  1.54702712E-09  5.90929411E+07  5.90934327E+07
         8   10       2.28024639E-04  3.68119380E-21  7.43209468E-03  1.53293894E-19  7.43209468E-03
         8   12       9.04002946E-03  2.21699287E+03  6.87362226E-10  2.67771655E+07  2.67793825E+07
         8   14       4.30502130E-02  4.95838372E+08  6.23768580E-11  1.63473945E+06  4.97473111E+08
         8   16       1.50674614E-04  1.23650690E-08  1.74661554E+06  6.52546437E-11  1.74661554E+06
         8   18       4.19951600E-03  4.91639557E+02  1.54702712E-09  5.90929411E+07  5.90934327E+07
         9   11       8.94766806E-03  1.42257456E-14  2.65002190E+07  6.99674629E-10  2.65002190E+07
         9   13       1.58002602E-04  1.25472431E-08  1.82562854E+06  5.12669846E-11  1.82562854E+06
         9   15       4.27188019E-02  4.93224883E+08  5.15621047E-11  1.91765343E+06  4.95142536E+08
         9   17       4.22739894E-03  4.77648725E-14  5.94800615E+07  1.54558840E-09  5.94800615E+07
        10   12       8.94766806E-03  1.42257456E-14  2.65002190E+07  6.99674629E-10  2.65002190E+07
        10   14       1.58002602E-04  1.25472431E-08  1.82562854E+06  5.12669846E-11  1.82562854E+06
        10   16       4.27188019E-02  4.93224883E+08  5.15621047E-11  1.91765343E+06  4.95142536E+08
        10   18       4.22739894E-03  4.77648725E-14  5.94800615E+07  1.54558840E-09  5.94800615E+07
        11   13       3.13434289E-01  3.84235684E+03  5.46925667E-12  8.82762958E+08  8.82766800E+08
        11   15       3.13120477E-01  5.25472479E-16  8.87502200E+08  5.45237976E-12  8.87502200E+08
        11   17       3.03889519E-01  1.25236883E+09  1.47898533E-16  5.17914832E+03  1.25237401E+09
        12   14       3.13434289E-01  3.84235684E+03  5.46925667E-12  8.82762958E+08  8.82766800E+08
        12   16       3.13120477E-01  5.25472479E-16  8.87502200E+08  5.45237976E-12  8.87502200E+08
        12   18       3.03889519E-01  1.25236883E+09  1.47898533E-16  5.17914832E+03  1.25237401E+09
        13   15       8.56008646E-05  1.07413645E-19  2.43932182E+00  1.70735479E-18  2.43932182E+00
        13   17       3.11889211E-02  4.39826068E+00  2.26512667E-14  3.86087275E+06  3.86087714E+06
        14   16       8.56008646E-05  1.07413645E-19  2.43932182E+00  1.70735479E-18  2.43932182E+00
        14   18       3.11889211E-02  4.39826068E+00  2.26512667E-14  3.86087275E+06  3.86087714E+06
        15   17       3.13768113E-02  1.80165932E-16  3.76716731E+06  2.25156457E-14  3.76716731E+06
        16   18       3.13768113E-02  1.80165932E-16  3.76716731E+06  2.25156457E-14  3.76716731E+06
     -----------------------------------------------------------------------------------------------
--

++ Length and velocity gauge comparison (SO states):

 --------------------------------------------------
 A comparison between the dipole oscillator strengths in 
 length and velocity gauge will be performed

 All dipole oscillator differences above the tolerance of   0.10000000000000001       will be printed 

 Due to basis set deficiency these oscillator may be problematic 

 The tolerance is defined as ABS(1-O_l/O_v) 
 O_l : dipole oscillator strength in length gauge
 O_p : dipole oscillator strength in velocity gauge
 --------------------------------------------------

  Problematic transitions have been found

      From   To       Difference (%) Osc. st. (len.) Osc. st. (vel.)
     ---------------------------------------------------------------
         1    3      --------------- below threshold  3.83256554E-02
         1    5      --------------- below threshold  3.40359033E-02
         1    7      --------------- below threshold  5.34206759E-02
         1    9      --------------- below threshold  5.32498634E-02
         1   11            16.581356  6.40198900E-02  5.49143469E-02
         2    4      --------------- below threshold  3.83256554E-02
         2    6      --------------- below threshold  3.40359033E-02
         2    8      --------------- below threshold  5.34206759E-02
         2   10      --------------- below threshold  5.32498634E-02
         2   12            16.581356  6.40198900E-02  5.49143469E-02
         3    5      --------------- below threshold  1.96483215E-05
         3    7      --------------- below threshold  2.39448823E-02
         3    9      --------------- below threshold  2.34799379E-02
         3   11            22.656051  1.77360730E-03  1.44600065E-03
         3   13            15.326794  8.87976219E-03  7.69965235E-03
         3   15            13.097779  1.88812055E-02  1.66945856E-02
         3   17            23.591690  5.23768770E-04  4.23789633E-04
         4    6      --------------- below threshold  1.96483215E-05
         4    8      --------------- below threshold  2.39448823E-02
         4   10      --------------- below threshold  2.34799379E-02
         4   12            22.656051  1.77360730E-03  1.44600065E-03
         4   14            15.326794  8.87976219E-03  7.69965235E-03
         4   16            13.097779  1.88812055E-02  1.66945856E-02
         4   18            23.591690  5.23768770E-04  4.23789633E-04
         5    7      --------------- below threshold  2.52550333E-02
         5    9      --------------- below threshold  2.29955687E-02
         5   11            22.667829  1.70647525E-03  1.39113511E-03
         5   13            13.168629  1.82391594E-02  1.61167981E-02
         5   15            15.236525  9.09966267E-03  7.89650911E-03
         5   17            23.466874  5.16873468E-04  4.18633316E-04
         6    8      --------------- below threshold  2.52550333E-02
         6   10      --------------- below threshold  2.29955687E-02
         6   12            22.667829  1.70647525E-03  1.39113511E-03
         6   14            13.168629  1.82391594E-02  1.61167981E-02
         6   16            15.236525  9.09966267E-03  7.89650911E-03
         6   18            23.466874  5.16873468E-04  4.18633316E-04
         7    9      --------------- below threshold  2.28024639E-04
         7   11            21.116989  1.09490115E-02  9.04002946E-03
         7   13            11.742637  4.81054432E-02  4.30502130E-02
         7   15            34.898293  2.03257482E-04  1.50674614E-04
         7   17            22.459892  5.14272275E-03  4.19951600E-03
         8   10      --------------- below threshold  2.28024639E-04
         8   12            21.116989  1.09490115E-02  9.04002946E-03
         8   14            11.742637  4.81054432E-02  4.30502130E-02
         8   16            34.898293  2.03257482E-04  1.50674614E-04
         8   18            22.459892  5.14272275E-03  4.19951600E-03
         9   11            21.089890  1.08347215E-02  8.94766806E-03
         9   13            34.579539  2.12639173E-04  1.58002602E-04
         9   15            11.776129  4.77494231E-02  4.27188019E-02
         9   17            22.416675  5.17504123E-03  4.22739894E-03
        10   12            21.089890  1.08347215E-02  8.94766806E-03
        10   14            34.579539  2.12639173E-04  1.58002602E-04
        10   16            11.776129  4.77494231E-02  4.27188019E-02
        10   18            22.416675  5.17504123E-03  4.22739894E-03
        13   15            21.859486  1.04312774E-04  8.56008646E-05
        13   17            88.133782  3.70094537E-03  3.11889211E-02
        14   16            21.859486  1.04312774E-04  8.56008646E-05
        14   18            88.133782  3.70094537E-03  3.11889211E-02
        15   17            88.718245  3.53985513E-03  3.13768113E-02
        16   18            88.718245  3.53985513E-03  3.13768113E-02
     ---------------------------------------------------------------

 Number of problematic transitions =                    60

--

 Electric-dipole - electric-octupole not included
++ I/O STATISTICS
 
  I. General I/O information
  - - - - - - - - - - - - - - - - - - - - - - - - - - - - - - - - - - - - - - - - - - -
  Unit  Name          Flsize      Write/Read            MBytes           Write/Read
                      (MBytes)       Calls              In/Out           Time, sec.
  - - - - - - - - - - - - - - - - - - - - - - - - - - - - - - - - - - - - - - - - - - -
   1  SCRATCH           0.00 .       9/      45 .      0.0/      0.0 .       0/       0
   2  ANNI              0.00 .       0/       0 .      0.0/      0.0 .       0/       0
   3  RUNFILE          14.82 .     322/   10733 .      2.3/     77.8 .       0/       0
   4  ONEINT            5.45 .       0/   23543 .      0.0/   3734.6 .       0/       0
   5  JOBIPH            6.30 .       0/      92 .      0.0/      0.8 .       0/       0
   6  ORDINT          473.53 .       1/    3789 .      0.0/    947.0 .       0/       0
  - - - - - - - - - - - - - - - - - - - - - - - - - - - - - - - - - - - - - - - - - - -
   *  TOTAL           500.11 .     332/   38202 .      2.3/   4760.2 .       0/       0
  - - - - - - - - - - - - - - - - - - - - - - - - - - - - - - - - - - - - - - - - - - -
 
  II. I/O Access Patterns
  - - - - - - - - - - - - - - - - - - - -
  Unit  Name               % of random
                         Write/Read calls
  - - - - - - - - - - - - - - - - - - - -
   1  SCRATCH             88.9/ 100.0
   2  ANNI                 0.0/   0.0
   3  RUNFILE             28.6/  10.8
   4  ONEINT               0.0/  16.4
   5  JOBIPH               0.0/  76.1
   6  ORDINT             100.0/   0.1
  - - - - - - - - - - - - - - - - - - - -
--
--- Stop Module: rassi at Wed Mar 26 22:32:41 2025 /rc=_RC_ALL_IS_WELL_ ---
*** files: xmldump
    saved to directory /home4/s4752295/Internship/Initial_simulations/Point_charge_model/1_electron/Madelung_charges_9_active_space/V
--- Module rassi spent 2 seconds ---

.##################.
.# Happy landing! #.
.##################.

    Timing: Wall=47.60 User=38.08 System=8.54

###############################################################################
Hbrk Cluster
Job 15913353 for user s4752295
Finished at: Wed Mar 26 22:32:45 CET 2025

Job details:
============

Job ID                         : 15913353
Name                           : V_no_SO
User                           : s4752295
Partition                      : regularmedium
Nodes                          : node95
Number of Nodes                : 1
Cores                          : 1
Number of Tasks                : 1
State                          : COMPLETED  
Submit                         : 2025-03-26T22:30:44
Start                          : 2025-03-26T22:31:49
End                            : 2025-03-26T22:32:41
Reserved walltime              : 15:00:00
Used walltime                  : 00:00:52
Used CPU time                  : 00:00:48 (Efficiency: 91.90%)
% User (Computation)           : 81.69%
% System (I/O)                 : 18.31%
Total memory reserved          : 25000M
Maximum memory used            : 1.90G

Acknowledgements:
=================

Please see this page for information about acknowledging Hbrk in your publications:

https://wiki.hpc.rug.nl/habrok/introduction/scientific_output

################################################################################
