   This run of MOLCAS is using the pymolcas driver

                             OPE
                             OPE          NMOL  CASOP  ENMOLC A   SO
                 OPE        NMOLC        AS  OP EN  MO LC     AS  OP
                OPENM       OL CA        SO  PE NM  OL CA     SOP EN
                OP EN      MO   LC       AS  OP ENMOL  CASO   PENMOL
                OP  EN     MO   LC       AS  OP EN     MO     LC ASO
               OP   E  NMOL  C  AS       OP  EN MO     LC     AS  OP
               OP  E   NMO   LC AS        OPEN  MO     LCASOP EN   M
               O  PEN   MO  LCA  SO
            OPE   NMO   L   CAS    OP
        OPENMOL  CASOP     ENMOL   CASOPE
     OPENMOLCA   SOPENMOLCASOPEN   MOLCASOPE
    OPENMOLCAS   OP           EN   MOL    CAS
    OPENMOLCAS       OP  ENM        O     LCA
    OPENMOLCAS    OPEN  MOLCASO     P  E  NMO
    OPENMOLCAS     OP               E  N  MOL
    OPENMOLCA   SO           PENM   O  L  CAS    OPEN    MO    LCAS
    OPENMOLCA   SOP           ENM   O  L  CAS   OP  EN  MOLC  AS   O
    OPENMOLCA   SOPE           NM      O  LCA   S      OP  EN MO
    OPENMOLC                AS         O  PEN   M      OL  CA  SOPE
    OPENMO        LCASOPE  NMOL        C  ASO   P      ENMOLC     AS
    OPE     NMO      LCA  SO     P     E   NM   OL  CA SO  PE N   MO
          OPENMOLCA            SOPE   NMO        LCAS  O    P  ENMO
     OPENMOLCASOPENMOLCASOPENMOLCASOPENMOLCA
        OPENMOLCASOPENMOLCASOPENMOLCASOPE
            OPENMOLCASOPENMOLCASOPENM
               OPENMOLCASOPENMOLCA        version: o91e1abe7de707b ?
                   OPENMOLCASO
                       OPE                tag:

 OpenMolcas is free software; you can redistribute it and/or modify it
 under the terms of the GNU Lesser General Public License version 2.1.
 OpenMolcas is distributed in the hope that it will be useful, but it
 is provided "as is" and without any express or implied warranties.
 For more details see the full text of the license in the file
 LICENSE or in <http://www.gnu.org/licenses/>.

                 Copyright (C) The OpenMolcas Authors
           For the author list and the recommended citation,
                   consult the file CONTRIBUTORS.md

           *************************************************
           * pymolcas version py2.10                       *
           *   build 3068ae8b88c9345ec6cfef6fef7f1169      *
           *   (after the EMIL interpreter by V. Veryazov) *
           *************************************************

configuration info
------------------
Host name: login1 (Linux)
C Compiler ID: GNU
C flags: -std=gnu99
Fortran Compiler ID: GNU
Fortran flags: -fno-aggressive-loop-optimizations -cpp -fdefault-integer-8 -fmax-stack-var-size=1048576
Definitions: _MOLCAS_;_I8_;_LINUX_;_MKL_
Parallel: OFF (GA=OFF)


   ----------------------------------------------------------------------------------------------------------------------------------
  |
  |           Project: vanadium_so_cf
  |    Submitted from: /home4/s4752295/Internship/Initial_simulations/Point_charge_model/1_electron/Madelung_charges_9_active_space/V
  |      Scratch area: /tmp/vanadium_so_cf
  |   Save outputs to: /home4/s4752295/Internship/Initial_simulations/Point_charge_model/1_electron/Madelung_charges_9_active_space/V
  |            Molcas: /home4/s4752295/Internship/Molcas/recomp_try/OpenMolcas-master/build
  |
  | Scratch area is empty
  |
  |    MOLCAS_DRIVER = /home4/s4752295/Internship/Molcas/bin/pymolcas
  |    MOLCAS_NPROCS = 1
  |    MOLCAS_SOURCE = /home4/s4752295/Internship/Molcas/recomp_try/OpenMolcas-master
  | MOLCAS_STRUCTURE = 0
  |
   ----------------------------------------------------------------------------------------------------------------------------------

++ ---------   Input file   ---------

&SEWARD
AMFi

CLIG
$R

Basis Set
V.ANO-rcc.Roos.21s15p10d6f4g2h.10s9p8d6f4g2h.
Spherical d
V            -1.0658140267135469e-14    -3.5527134223784897e-15 0.008753588724385739
End of Basis

Xfield

414
-2.00110054,-0.77,0.4445595     -0.625931
-2.00110054,-0.0,-0.8891195     -0.625931
-2.00110054,0.77,0.4445595      -0.625931
-1.997673035,0.0,0.0    1.892092
1.329589845,-0.77,-0.4445595    2.515516
1.329589845,0.0,0.8891195       2.515516
1.329589845,0.77,-0.4445595     2.515516
1.78149414,-1.54,0.0    0.004632
1.78149414,-0.77,-1.333679      0.004632
1.78149414,-0.77,1.333679       0.004632
1.78149414,0.77,-1.333679       0.004632
1.78149414,0.77,1.333679        0.004632
1.78149414,1.54,0.0     0.004632
2.064575195,-0.77,0.4445595     -2.519484
2.064575195,-0.0,-0.8891195     -2.519484
2.064575195,0.77,0.4445595      -2.519484
-1.466552735,-0.0,-0.0  -3.142907
-2.48754883,-1.54,-0.8891195    -0.625931
-2.48754883,0.0,1.7782385       -0.625931
-2.48754883,1.54,-0.8891195     -0.625931
-3.3046875,-1.54,0.0    1.892092
-3.3046875,-0.77,-1.333679      1.892092
-3.3046875,-0.77,1.333679       1.892092
-3.3046875,0.77,-1.333679       1.892092
-3.3046875,0.77,1.333679        1.892092
-3.3046875,1.54,0.0     1.892092
12.5859375,-1.54,0.8891195      2.515516
12.5859375,-0.0,-1.7782385      2.515516
12.5859375,1.54,0.8891195       2.515516
1.81933594,-1.54,-0.8891195     -2.519484
1.81933594,0.0,1.7782385        -2.519484
1.81933594,1.54,-0.8891195      -2.519484
-1.61621094,-1.54,-0.0  -3.142907
-1.61621094,-0.77,-1.333679     -3.142907
-1.61621094,-0.77,1.333679      -3.142907
-1.61621094,0.77,-1.333679      -3.142907
-1.61621094,0.77,1.333679       -3.142907
-1.61621094,1.54,-0.0   -3.142907
-4.76171875,-1.54,1.7782385     -0.625931
-4.76171875,1.54,1.7782385      -0.625931
-4.76171875,-2.31,0.4445595     -0.625931
-4.76171875,2.31,0.4445595      -0.625931
-4.76171875,-0.77,-2.2227985    -0.625931
-4.76171875,0.77,-2.2227985     -0.625931
3.00390625,-0.77,-0.4445595     4.409069
3.00390625,0.77,-0.4445595      4.409069
3.00390625,0.0,0.8891195        4.409069
-87.625,-0.0,-0.0       -5.030367
-87.625,0.0,0.0 5.039632
6.75878906,-1.54,-1.7782385     2.515516
6.75878906,1.54,-1.7782385      2.515516
6.75878906,-2.31,-0.4445595     2.515516
6.75878906,2.31,-0.4445595      2.515516
6.75878906,-0.77,2.2227985      2.515516
6.75878906,0.77,2.2227985       2.515516
9.51953125,-2.31,-1.333679      0.004632
9.51953125,-2.31,1.333679       0.004632
9.51953125,2.31,-1.333679       0.004632
9.51953125,2.31,1.333679        0.004632
9.51953125,-0.0,-2.667358       0.004632
9.51953125,0.0,2.667358 0.004632
24.0390625,-1.54,1.7782385      -2.519484
24.0390625,1.54,1.7782385       -2.519484
24.0390625,-2.31,0.4445595      -2.519484
24.0390625,2.31,0.4445595       -2.519484
24.0390625,-0.77,-2.2227985     -2.519484
24.0390625,0.77,-2.2227985      -2.519484
-72.9375,-2.31,-1.333679        1.892092
-72.9375,-2.31,1.333679 1.892092
-72.9375,2.31,-1.333679 1.892092
-72.9375,2.31,1.333679  1.892092
-72.9375,-0.0,-2.667358 1.892092
-72.9375,0.0,2.667358   1.892092
-58.875,-1.54,0.8891195 4.409069
-58.875,-0.0,-1.7782385 4.409069
-58.875,1.54,0.8891195  4.409069
-44.5,-1.54,-0.0        -5.030367
-44.5,-0.77,-1.333679   -5.030367
-44.5,-0.77,1.333679    -5.030367
-44.5,0.77,-1.333679    -5.030367
-44.5,-1.54,0.0 5.039632
-44.5,1.54,-0.0 -5.030367
-44.5,0.77,1.333679     -5.030367
-44.5,-0.77,-1.333679   5.039632
-44.5,-0.77,1.333679    5.039632
-44.5,0.77,-1.333679    5.039632
-44.5,1.54,0.0  5.039632
-44.5,0.77,1.333679     5.039632
-23.3125,-0.77,-0.4445595       -5.660931
-23.3125,0.0,0.8891195  -5.660931
-23.3125,0.77,-0.4445595        -5.660931
0.44140625,-3.0799995,0.0       0.004632
0.44140625,-1.54,-2.667358      0.004632
0.44140625,-1.54,2.667358       0.004632
0.44140625,1.54,-2.667358       0.004632
0.44140625,3.0799995,0.0        0.004632
0.44140625,1.54,2.667358        0.004632
33.96875,-2.31,1.333679 -3.142907
33.96875,-2.31,-1.333679        -3.142907
33.96875,2.31,-1.333679 -3.142907
33.96875,2.31,1.333679  -3.142907
33.96875,-0.0,-2.667358 -3.142907
33.96875,0.0,2.667358   -3.142907
43.1875,-3.0799995,-0.8891195   -0.625931
43.1875,-2.31,-2.2227985        -0.625931
43.1875,-0.77,3.1119175 -0.625931
43.1875,2.31,-2.2227985 -0.625931
43.1875,3.0799995,-0.8891195    -0.625931
43.1875,0.77,3.1119175  -0.625931
0.59863281,-3.0799995,0.0       1.892092
0.59863281,-1.54,-2.667358      1.892092
0.59863281,-1.54,2.667358       1.892092
0.59863281,1.54,-2.667358       1.892092
0.59863281,3.0799995,0.0        1.892092
0.59863281,1.54,2.667358        1.892092
16.921875,-1.54,-1.7782385      4.409069
16.921875,1.54,-1.7782385       4.409069
16.921875,-2.31,-0.4445595      4.409069
16.921875,2.31,-0.4445595       4.409069
16.921875,-0.77,2.2227985       4.409069
16.921875,0.77,2.2227985        4.409069
81.203125,-1.54,0.8891195       -5.660931
81.203125,-0.0,-1.7782385       -5.660931
81.203125,1.54,0.8891195        -5.660931
0.171875,-3.0799995,0.8891195   2.515516
0.171875,-0.77,-3.1119175       2.515516
0.171875,-2.31,2.2227985        2.515516
0.171875,0.77,-3.1119175        2.515516
0.171875,3.0799995,0.8891195    2.515516
0.171875,2.31,2.2227985 2.515516
-47.09375,-3.0799995,-0.8891195 -2.519484
-47.09375,-2.31,-2.2227985      -2.519484
-47.09375,-0.77,3.1119175       -2.519484
-47.09375,2.31,-2.2227985       -2.519484
-47.09375,0.77,3.1119175        -2.519484
-47.09375,3.0799995,-0.8891195  -2.519484
-11.03515625,-3.0799995,-0.0    -3.142907
-11.03515625,-1.54,-2.667358    -3.142907
-11.03515625,-1.54,2.667358     -3.142907
-11.03515625,1.54,-2.667358     -3.142907
-11.03515625,1.54,2.667358      -3.142907
-11.03515625,3.0799995,-0.0     -3.142907
303.25,0.0,0.0  6.927092
161.625,-3.0799995,1.7782385    -0.625931
161.625,3.0799995,1.7782385     -0.625931
161.625,-0.0,-3.5564775 -0.625931
-2.7109375,-2.31,1.333679       -5.030367
-2.7109375,-2.31,-1.333679      -5.030367
-2.7109375,-2.31,1.333679       5.039632
-2.7109375,-2.31,-1.333679      5.039632
-2.7109375,2.31,-1.333679       -5.030367
-2.7109375,2.31,1.333679        -5.030367
-2.7109375,2.31,-1.333679       5.039632
-2.7109375,2.31,1.333679        5.039632
-2.7109375,-0.0,-2.667358       -5.030367
-2.7109375,0.0,2.667358 -5.030367
-2.7109375,-0.0,-2.667358       5.039632
-2.7109375,0.0,2.667358 5.039632
45.90625,-1.54,-1.7782385       -5.660931
45.90625,1.54,-1.7782385        -5.660931
45.90625,-2.31,-0.4445595       -5.660931
45.90625,2.31,-0.4445595        -5.660931
45.90625,-0.77,2.2227985        -5.660931
45.90625,0.77,2.2227985 -5.660931
150.25,-3.0799995,-1.7782385    2.515516
150.25,3.0799995,-1.7782385     2.515516
150.25,0.0,3.5564775    2.515516
-258.625,-3.0799995,1.7782385   -2.519484
-258.625,3.0799995,1.7782385    -2.519484
-258.625,-0.0,-3.5564775        -2.519484
26.78125,-1.54,0.0      6.927092
26.78125,-0.77,-1.333679        6.927092
26.78125,-0.77,1.333679 6.927092
26.78125,0.77,-1.333679 6.927092
26.78125,0.77,1.333679  6.927092
26.78125,1.54,0.0       6.927092
-27.625,-0.77,0.4445595 7.550516
-27.625,0.0,-0.8891195  7.550516
-27.625,0.77,0.4445595  7.550516
7.765625,-0.77,-0.4445595       -7.554483
7.765625,0.77,-0.4445595        -7.554483
7.765625,-0.0,0.8891195 -7.554483
-62.4375,-3.8499995,0.4445595   -0.625931
-62.4375,-2.31,3.1119175        -0.625931
-62.4375,-1.54,-3.5564775       -0.625931
-62.4375,1.54,-3.5564775        -0.625931
-62.4375,3.8499995,0.4445595    -0.625931
-62.4375,2.31,3.1119175 -0.625931
-33.71875,-3.0799995,0.8891195  4.409069
-33.71875,-2.31,2.2227985       4.409069
-33.71875,-0.77,-3.1119175      4.409069
-33.71875,0.77,-3.1119175       4.409069
-33.71875,2.31,2.2227985        4.409069
-33.71875,3.0799995,0.8891195   4.409069
24.578125,-3.0799995,-0.0       -5.030367
24.578125,-1.54,-2.667358       -5.030367
24.578125,-1.54,2.667358        -5.030367
24.578125,-3.0799995,0.0        5.039632
24.578125,-1.54,-2.667358       5.039632
24.578125,1.54,-2.667358        -5.030367
24.578125,1.54,2.667358 -5.030367
24.578125,3.0799995,-0.0        -5.030367
24.578125,-1.54,2.667358        5.039632
24.578125,1.54,-2.667358        5.039632
24.578125,3.0799995,0.0 5.039632
24.578125,1.54,2.667358 5.039632
90.375,-3.8499995,-0.4445595    2.515516
90.375,-2.31,-3.1119175 2.515516
90.375,-1.54,3.5564775  2.515516
90.375,2.31,-3.1119175  2.515516
90.375,3.8499995,-0.4445595     2.515516
90.375,1.54,3.5564775   2.515516
-11.671875,-3.8499995,-1.333679 0.004632
-11.671875,-3.8499995,1.333679  0.004632
-11.671875,-3.0799995,-2.667358 0.004632
-11.671875,-3.0799995,2.667358  0.004632
-11.671875,-0.77,-4.001037      0.004632
-11.671875,0.77,-4.001037       0.004632
-11.671875,-0.77,4.001037       0.004632
-11.671875,3.0799995,-2.667358  0.004632
-11.671875,0.77,4.001037        0.004632
-11.671875,3.8499995,-1.333679  0.004632
-11.671875,3.8499995,1.333679   0.004632
-11.671875,3.0799995,2.667358   0.004632
-71.5625,-3.8499995,0.4445595   -2.519484
-71.5625,-2.31,3.1119175        -2.519484
-71.5625,-1.54,-3.5564775       -2.519484
-71.5625,1.54,-3.5564775        -2.519484
-71.5625,3.8499995,0.4445595    -2.519484
-71.5625,2.31,3.1119175 -2.519484
1516.0,-0.0,-0.0        -8.177907
-58.0,-1.54,-0.8891195  7.550516
-58.0,0.0,1.7782385     7.550516
-58.0,1.54,-0.8891195   7.550516
-301.75,-1.54,0.8891195 -7.554483
-301.75,-0.0,-1.7782385 -7.554483
-301.75,1.54,0.8891195  -7.554483
24.453125,-3.8499995,1.333679   1.892092
24.453125,-3.8499995,-1.333679  1.892092
24.453125,-3.0799995,-2.667358  1.892092
24.453125,-3.0799995,2.667358   1.892092
24.453125,-0.77,-4.001037       1.892092
24.453125,0.77,-4.001037        1.892092
24.453125,-0.77,4.001037        1.892092
24.453125,3.0799995,-2.667358   1.892092
24.453125,0.77,4.001037 1.892092
24.453125,3.8499995,-1.333679   1.892092
24.453125,3.8499995,1.333679    1.892092
24.453125,3.0799995,2.667358    1.892092
-252.5,-3.0799995,-1.7782385    4.409069
-252.5,3.0799995,-1.7782385     4.409069
-252.5,0.0,3.5564775    4.409069
12.91015625,-3.0799995,0.8891195        -5.660931
12.91015625,-0.77,-3.1119175    -5.660931
12.91015625,-2.31,2.2227985     -5.660931
12.91015625,0.77,-3.1119175     -5.660931
12.91015625,2.31,2.2227985      -5.660931
12.91015625,3.0799995,0.8891195 -5.660931
-29.09375,-3.0799995,-2.667358  -3.142907
-29.09375,-3.8499995,1.333679   -3.142907
-29.09375,-3.8499995,-1.333679  -3.142907
-29.09375,-3.0799995,2.667358   -3.142907
-29.09375,-0.77,-4.001037       -3.142907
-29.09375,0.77,-4.001037        -3.142907
-29.09375,-0.77,4.001037        -3.142907
-29.09375,3.8499995,-1.333679   -3.142907
-29.09375,3.0799995,-2.667358   -3.142907
-29.09375,0.77,4.001037 -3.142907
-29.09375,3.8499995,1.333679    -3.142907
-29.09375,3.0799995,2.667358    -3.142907
32.703125,-2.31,-1.333679       6.927092
32.703125,-2.31,1.333679        6.927092
32.703125,2.31,-1.333679        6.927092
32.703125,2.31,1.333679 6.927092
32.703125,-0.0,-2.667358        6.927092
32.703125,0.0,2.667358  6.927092
-41.625,-1.54,-0.0      -8.177907
-41.625,-0.77,1.333679  -8.177907
-41.625,-0.77,-1.333679 -8.177907
-41.625,0.77,-1.333679  -8.177907
-41.625,1.54,-0.0       -8.177907
-41.625,0.77,1.333679   -8.177907
-45.453125,-1.54,1.7782385      7.550516
-45.453125,1.54,1.7782385       7.550516
-45.453125,-2.31,0.4445595      7.550516
-45.453125,2.31,0.4445595       7.550516
-45.453125,-0.77,-2.2227985     7.550516
-45.453125,0.77,-2.2227985      7.550516
-22.84375,-1.54,-1.7782385      -7.554483
-22.84375,1.54,-1.7782385       -7.554483
-22.84375,-2.31,-0.4445595      -7.554483
-22.84375,2.31,-0.4445595       -7.554483
-22.84375,-0.77,2.2227985       -7.554483
-22.84375,0.77,2.2227985        -7.554483
-250.125,0.0,4.4455965  -0.625931
-250.125,-3.8499995,-2.2227985  -0.625931
-250.125,3.8499995,-2.2227985   -0.625931
-134.875,-3.8499995,-0.4445595  4.409069
-134.875,-2.31,-3.1119175       4.409069
-134.875,-1.54,3.5564775        4.409069
-134.875,2.31,-3.1119175        4.409069
-134.875,3.8499995,-0.4445595   4.409069
-134.875,1.54,3.5564775 4.409069
155.1875,-3.0799995,-1.7782385  -5.660931
155.1875,3.0799995,-1.7782385   -5.660931
155.1875,0.0,3.5564775  -5.660931
293.5,-0.0,-4.4455965   2.515516
293.5,-3.8499995,2.2227985      2.515516
293.5,3.8499995,2.2227985       2.515516
-46.9375,-4.6199995,-0.0        0.004632
-46.9375,2.31,-4.001037 0.004632
-46.9375,-2.31,4.001037 0.004632
-46.9375,4.6199995,-0.0 0.004632
-46.9375,-2.31,-4.001037        0.004632
-46.9375,2.31,4.001037  0.004632
-192.875,0.0,4.4455965  -2.519484
-192.875,-3.8499995,-2.2227985  -2.519484
-192.875,3.8499995,-2.2227985   -2.519484
114.0,-3.0799995,0.0    6.927092
114.0,-1.54,-2.667358   6.927092
114.0,-1.54,2.667358    6.927092
114.0,1.54,-2.667358    6.927092
114.0,3.0799995,0.0     6.927092
114.0,1.54,2.667358     6.927092
105.9375,-4.6199995,-0.8891195  -0.625931
105.9375,-1.54,4.4455965        -0.625931
105.9375,-3.0799995,-3.5564775  -0.625931
105.9375,3.0799995,-3.5564775   -0.625931
105.9375,1.54,4.4455965 -0.625931
105.9375,4.6199995,-0.8891195   -0.625931
55.96875,-4.6199995,0.0 1.892092
55.96875,-2.31,-4.001037        1.892092
55.96875,-2.31,4.001037 1.892092
55.96875,2.31,-4.001037 1.892092
55.96875,4.6199995,0.0  1.892092
55.96875,2.31,4.001037  1.892092
-2.16015625,-3.8499995,1.333679 -5.030367
-2.16015625,-3.8499995,-1.333679        -5.030367
-2.16015625,-3.0799995,-2.667358        -5.030367
-2.16015625,-3.0799995,2.667358 -5.030367
-2.16015625,-3.8499995,1.333679 5.039632
-2.16015625,0.77,-4.001037      -5.030367
-2.16015625,-0.77,-4.001037     -5.030367
-2.16015625,-3.8499995,-1.333679        5.039632
-2.16015625,-3.0799995,-2.667358        5.039632
-2.16015625,-0.77,4.001037      -5.030367
-2.16015625,0.77,-4.001037      5.039632
-2.16015625,-3.0799995,2.667358 5.039632
-2.16015625,-0.77,-4.001037     5.039632
-2.16015625,3.0799995,-2.667358 -5.030367
-2.16015625,0.77,4.001037       -5.030367
-2.16015625,3.8499995,-1.333679 -5.030367
-2.16015625,3.8499995,1.333679  -5.030367
-2.16015625,3.0799995,2.667358  -5.030367
-2.16015625,-0.77,4.001037      5.039632
-2.16015625,3.0799995,-2.667358 5.039632
-2.16015625,3.8499995,-1.333679 5.039632
-2.16015625,0.77,4.001037       5.039632
-2.16015625,3.8499995,1.333679  5.039632
-2.16015625,3.0799995,2.667358  5.039632
-0.34375,-3.8499995,-0.4445595  -5.660931
-0.34375,-2.31,-3.1119175       -5.660931
-0.34375,-1.54,3.5564775        -5.660931
-0.34375,2.31,-3.1119175        -5.660931
-0.34375,1.54,3.5564775 -5.660931
-0.34375,3.8499995,-0.4445595   -5.660931
58.0,-0.77,0.4445595    9.444068
58.0,0.0,-0.8891195     9.444068
58.0,0.77,0.4445595     9.444068
25.65625,-4.6199995,0.8891195   2.515516
25.65625,-1.54,-4.4455965       2.515516
25.65625,1.54,-4.4455965        2.515516
25.65625,-3.0799995,3.5564775   2.515516
25.65625,4.6199995,0.8891195    2.515516
25.65625,3.0799995,3.5564775    2.515516
78.4375,-4.6199995,-0.8891195   -2.519484
78.4375,-1.54,4.4455965 -2.519484
78.4375,-3.0799995,-3.5564775   -2.519484
78.4375,3.0799995,-3.5564775    -2.519484
78.4375,4.6199995,-0.8891195    -2.519484
78.4375,1.54,4.4455965  -2.519484
109.8125,-4.6199995,-0.0        -3.142907
109.8125,-2.31,-4.001037        -3.142907
109.8125,-2.31,4.001037 -3.142907
109.8125,2.31,-4.001037 -3.142907
109.8125,4.6199995,-0.0 -3.142907
109.8125,2.31,4.001037  -3.142907
4.322753905,-2.31,-1.333679     -8.177907
4.322753905,-2.31,1.333679      -8.177907
4.322753905,2.31,1.333679       -8.177907
4.322753905,2.31,-1.333679      -8.177907
4.322753905,-0.0,-2.667358      -8.177907
4.322753905,0.0,2.667358        -8.177907
125.9375,-2.31,-2.2227985       7.550516
125.9375,-3.0799995,-0.8891195  7.550516
125.9375,-0.77,3.1119175        7.550516
125.9375,2.31,-2.2227985        7.550516
125.9375,0.77,3.1119175 7.550516
125.9375,3.0799995,-0.8891195   7.550516
-174.0,-2.31,2.2227985  -7.554483
-174.0,-3.0799995,0.8891195     -7.554483
-174.0,-0.77,-3.1119175 -7.554483
-174.0,0.77,-3.1119175  -7.554483
-174.0,3.0799995,0.8891195      -7.554483
-174.0,2.31,2.2227985   -7.554483
35.6328125,-3.8499995,3.1119175 -0.625931
35.6328125,-4.6199995,1.7782385 -0.625931
35.6328125,-0.77,-4.8901565     -0.625931
35.6328125,0.77,-4.8901565      -0.625931
35.6328125,4.6199995,1.7782385  -0.625931
35.6328125,3.8499995,3.1119175  -0.625931
-241.875,-0.0,-4.4455965        4.409069
-241.875,-3.8499995,2.2227985   4.409069
-241.875,3.8499995,2.2227985    4.409069

End of input

&SCF
Occupied
9
Iterations
   50  100
End of Input

&RASSCF
LumOrb
Symmetry
1
Spin
2
Nactel
1 0 0
CIRoot
9 9 1
inactive
9
ras2
9
End of Input

>>> COPY vanadium_so_cf.JobIph $SLURM_SUBMIT_DIR/vanadium_so_cf.doublet.JobIph

>>> COPY $SLURM_SUBMIT_DIR/vanadium_so_cf.doublet.JobIph ./JOB002

&RASSI
NROFJobIph
1 All
SpinOrbit
End of Input

EOF

-- ----------------------------------

--- Start Module: seward at Wed Mar 26 11:18:56 2025 ---

()()()()()()()()()()()()()()()()()()()()()()()()()()()()()()()()()()()()()()()()()()()()()()()()()()

                                              &SEWARD

                                   only a single process is used
                       available to each process: 4.1 GB of memory, 1 thread?
                                            pid: 3348599
()()()()()()()()()()()()()()()()()()()()()()()()()()()()()()()()()()()()()()()()()()()()()()()()()()

 The speed of LIGHT in this CALCULATION =   137.03599917700001     
               SEWARD will generate:
                  Multipole Moment integrals up to order  2
                  Kinetic Energy integrals
                  Nuclear Attraction integrals (point charge)
                  One-Electron Hamiltonian integrals
                  Velocity integrals
                  Relativistic Douglas-Kroll-Hess integrals:
                    - Parametrization         : EXP
                    - DKH order of Hamiltonian: 2
                    - DKH order of Properties : 0
                         - multipole moment operators
                         - electric potential operators
                         - contact operators
                  External field from   414 point(s) added to the one-electron Hamiltonian
                  Orbital angular momentum around (-0.0000 -0.0000  0.0088 )
                  Velocity quadrupole around (-0.0000 -0.0000  0.0088 )
                  Atomic mean-field integrals
                  Two-Electron Repulsion integrals

                   Integrals are discarded if absolute value <: 0.10E-13
                   Integral cutoff threshold is set to       <: 0.10E-15

++    Symmetry information:
      ---------------------

                    Character Table for C1 

                             E  
                    a        1  x, y, xy, Rz, z, xz, Ry, yz, Rx, I
--


++    Basis set information:
      ----------------------


      Basis set label: V.ANO-RCC.ROOS.21S15P10D6F4G2H.10S9P8D6F4G2H......

      Electronic valence basis set:
      ------------------
      Associated Effective Charge  23.000000 au
      Associated Actual Charge     23.000000 au
      Nuclear Model: Point charge

      Shell  nPrim  nBasis  Cartesian Spherical Contaminant
         s      21      10        X                  
         p      15       9        X                  
         d      10       8                 X         
         f       6       6                 X         
         g       4       4                 X         
         h       2       2                 X         
--


++    Molecular structure info:
      -------------------------

                    ************************************************ 
                    **** Cartesian Coordinates / Bohr, Angstrom **** 
                    ************************************************ 

     Center  Label                x              y              z                     x              y              z
        1      V               -0.000000      -0.000000       0.008754             -0.000000      -0.000000       0.004632
--


++    Operator info:
      --------------


  Net charge from external field:   -39.268449999999902     
--


            Nuclear Potential Energy              0.00000000 au

                    Nuclear-External Field Potential Energy    -420.85189874 au
                    External Field Potential Energy            3211.27380277 au 


            Total Nuclear Potential Energy           -420.85189874 au


      Basis set specifications :
      Symmetry species         a  
      Basis functions          177

 Sorry, Molden does not know how to handle
 functions with angular momentum larger than g
Note: The following floating-point exceptions are signalling: IEEE_UNDERFLOW_FLAG IEEE_DENORMAL
--- Stop Module: seward at Wed Mar 26 11:19:04 2025 /rc=_RC_ALL_IS_WELL_ ---
*** files: vanadium_so_cf.GssOrb xmldump
    saved to directory /home4/s4752295/Internship/Initial_simulations/Point_charge_model/1_electron/Madelung_charges_9_active_space/V
--- Module seward spent 8 seconds ---

*** symbolic link created: INPORB -> vanadium_so_cf.GssOrb
--- Start Module: scf at Wed Mar 26 11:19:05 2025 ---

()()()()()()()()()()()()()()()()()()()()()()()()()()()()()()()()()()()()()()()()()()()()()()()()()()

                                                &SCF

                                   only a single process is used
                       available to each process: 4.1 GB of memory, 1 thread?
                                            pid: 3348630
()()()()()()()()()()()()()()()()()()()()()()()()()()()()()()()()()()()()()()()()()()()()()()()()()()

++    Input section:
      --------------

      Header of the integral files:
      
       Integrals generated by seward 4.2.0  , Wed Mar 26 11:18:57 2025


      Cartesian coordinates in Angstrom:
      -----------------------------------------------------
      No.  Label        X            Y            Z        
      -----------------------------------------------------
       1   V         -0.00000000  -0.00000000   0.00463220
      -----------------------------------------------------
      Nuclear repulsion energy = -420.85189874
--

++    Orbital specifications:
      -----------------------

      Symmetry species               1
                                     a
      Frozen orbitals                0
      Occupied orbitals              9
      Secondary orbitals           168
      Deleted orbitals               0
      Total number of orbitals     177
      Number of basis functions    177
--

      Molecular charge                           5.000

++    Optimization specifications:
      ----------------------------

      SCF Algorithm: Conventional
      Minimized density differences are used
      Number of density matrices in core                5
      Maximum number of NDDO SCF iterations            50
      Maximum number of HF SCF iterations             100
      Threshold for SCF energy change            0.10E-08
      Threshold for density matrix               0.10E-03
      Threshold for Fock matrix                  0.15E-03
      Threshold for linear dependence            0.10E-08
      Threshold at which DIIS is turned on       0.15E+00
      Threshold at which QNR/C2DIIS is turned on 0.75E-01
      Threshold for Norm(delta) (QNR/C2DIIS)     0.20E-04
      DIIS extrapolation of the SCF procedure
      All orbitals punched on: SCFORB
--

      Detected guessorb starting orbitals                                             


++ Convergence information
                                   SCF        iterations: Energy and convergence statistics

Iter     Tot. SCF        One-elec.       Two-elec.     Energy      Max Dij or  Max Fij      DNorm      TNorm      AccCon     Time
         Energy          Energy          Energy        Change      Delta Norm                                                in Sec.

 The total and one-electron energies are shifted by a value of      1000. a.u.

   1   -33.494209970    97.877921158   289.479767612   0.00E+00    0.25E-01*   0.16E+01*    0.60E+01   0.22E+03   None         1.
   2   -56.196894442   185.282051038   179.372953261  -0.23E+02*   0.24E-01*   0.24E+00*    0.61E+01   0.16E+03   EDIIS        1.
   3   -52.144185228    94.719755336   273.987958176   0.41E+01*   0.46E-01*   0.35E+00*    0.44E+01   0.21E+03   EDIIS        1.
   4   -63.250355102   151.496109737   206.105433902  -0.11E+02*   0.38E-01*   0.11E+00*    0.30E+01   0.18E+03   EDIIS        1.
   5   -63.258085311   150.983069977   206.610743452  -0.77E-02*   0.41E-02*   0.11E-01*    0.91E-01   0.18E+03   EDIIS        1.
   6   -63.258185373   150.971473778   206.622239590  -0.10E-03*   0.80E-04    0.17E-02*    0.32E-02   0.18E+03   c2DIIS       1.
   7   -63.258186903   150.964741453   206.628970384  -0.15E-05*   0.13E-04    0.91E-04     0.30E-03   0.18E+03   QNRc2DIIS    1.
   8   -63.258186908   150.965311630   206.628400203  -0.43E-08*   0.24E-05    0.11E-04     0.32E-04   0.18E+03   QNRc2DIIS    1.
   9   -63.258186908   150.965264004   206.628447829  -0.83E-10    0.59E-06    0.15E-05     0.31E-04   0.18E+03   QNRc2DIIS    1.

       Convergence after  9 Macro Iterations
--

 *****************************************************************************************************************************
 *                                                                                                                           *
 *                                             SCF/KS-DFT Program, Final results                                             *
 *                                                                                                                           *
 *                                                                                                                           *
 *                                                                                                                           *
 *                                                       Final Results                                                       *
 *                                                                                                                           *
 *****************************************************************************************************************************

::    Total SCF energy                              -1063.2581869077
      One-electron energy                            -849.0347359963
      Two-electron energy                             206.6284478290
      Nuclear repulsion energy                       -420.8518987404
      Kinetic energy (interpolated)                   927.3466708059
      Virial theorem                                    1.1465595558
      Total spin, S(S+1)                                0.0000000000
      Total spin, S                                     0.0000000000
      Max non-diagonal density matrix element           0.0000011285
      Max non-diagonal Fock matrix element              0.0000004114


      All orbitals with orbital energies smaller than  E(LUMO)+0.5 are printed

++    Molecular orbitals:
      -------------------

      Title: SCF orbitals

      Molecular orbitals for symmetry species 1: a  

          Orbital            1         2         3         4         5         6         7         8         9        10    
          Energy         -195.0290  -15.6884  -11.6611  -11.6611  -11.5629    6.2563    6.5049    7.4762    7.4762    8.6857
          Occ. No.          2.0000    2.0000    2.0000    2.0000    2.0000    2.0000    2.0000    2.0000    2.0000    0.0000

        1 V      1s         1.0000    0.0004   -0.0000   -0.0000   -0.0002   -0.0001    0.0000    0.0000   -0.0000    0.0000
        2 V      2s        -0.0004    0.9965   -0.0000    0.0001   -0.0821    0.0064   -0.0003   -0.0000    0.0000    0.0000
        3 V      3s         0.0002   -0.0123   -0.0000   -0.0000    0.0076    0.7586   -0.0285   -0.0000    0.0000    0.0001
        4 V      4s        -0.0000    0.0017    0.0000    0.0000   -0.0012   -0.0527    0.0691   -0.0000    0.0000   -0.0001
        5 V      5s         0.0000   -0.0020    0.0000   -0.0000    0.0013    0.0615    0.4036    0.0000   -0.0004    0.0001
        6 V      6s        -0.0001    0.0052    0.0000    0.0000   -0.0034   -0.0627    0.2945    0.0000   -0.0005   -0.0003
        7 V      7s         0.0001   -0.0030   -0.0000   -0.0000    0.0018    0.0204    0.4355    0.0000   -0.0010    0.0001
        8 V      8s        -0.0002    0.0023   -0.0000    0.0000   -0.0011    0.0183    0.3249    0.0000   -0.0011    0.0002
        9 V      9s         0.0001   -0.0008   -0.0000    0.0000    0.0002    0.0232    0.5664    0.0000   -0.0026   -0.0000
       10 V     10s        -0.0002    0.0009   -0.0000   -0.0000   -0.0002    0.0049    0.2278    0.0000   -0.0011   -0.0001
       11 V      2px        0.0002    0.0824   -0.0000   -0.0035    0.9963    0.0015   -0.0001    0.0000   -0.0000   -0.0000
       12 V      3px       -0.0001    0.0054    0.0000    0.0000   -0.0137    0.6016   -0.0204    0.0000   -0.0000   -0.0011
       13 V      4px        0.0000   -0.0013   -0.0000   -0.0000    0.0031   -0.0672    0.0266    0.0000   -0.0001    0.0000
       14 V      5px       -0.0000    0.0036    0.0000    0.0000   -0.0081    0.0876    0.0341    0.0000   -0.0001    0.0002
       15 V      6px        0.0000   -0.0020   -0.0000   -0.0000    0.0045    0.0058    0.1173    0.0000   -0.0004   -0.0001
       16 V      7px       -0.0000    0.0020    0.0000    0.0000   -0.0043   -0.0209    0.1187    0.0000   -0.0004   -0.0001
       17 V      8px        0.0000   -0.0009   -0.0000   -0.0000    0.0021    0.0094    0.1756    0.0000   -0.0007    0.0001
       18 V      9px       -0.0000    0.0006    0.0000    0.0000   -0.0014    0.0156    0.1160    0.0000   -0.0005    0.0000
       19 V     10px        0.0000   -0.0002   -0.0000   -0.0000    0.0010    0.0023    0.0354    0.0000   -0.0001   -0.0001
       20 V      2py        0.0000    0.0000    0.9998   -0.0000    0.0000   -0.0000    0.0000   -0.0000   -0.0000   -0.0000
       21 V      3py       -0.0000    0.0000   -0.0110    0.0000   -0.0000   -0.0000    0.0000    0.0040    0.0000   -0.0000
       22 V      4py        0.0000   -0.0000    0.0023   -0.0000    0.0000    0.0000   -0.0000    0.1173    0.0000    0.0000
       23 V      5py       -0.0000    0.0000   -0.0056    0.0000   -0.0000   -0.0000    0.0000    0.1596    0.0000   -0.0000
       24 V      6py        0.0000   -0.0000    0.0029   -0.0000    0.0000    0.0000    0.0000    0.4285    0.0000    0.0000
       25 V      7py       -0.0000    0.0000   -0.0024    0.0000   -0.0000   -0.0000    0.0000    0.4357    0.0000    0.0000
       26 V      8py        0.0000   -0.0000    0.0011   -0.0000    0.0000    0.0000    0.0000    0.6415    0.0000    0.0000
       27 V      9py       -0.0000    0.0000   -0.0007    0.0000   -0.0000   -0.0000    0.0000    0.3974    0.0000   -0.0000
       28 V     10py        0.0000   -0.0000    0.0006   -0.0000    0.0000    0.0000   -0.0000    0.1116    0.0000   -0.0000
       29 V      2pz        0.0000    0.0002    0.0000    0.9998    0.0035    0.0000   -0.0000    0.0000   -0.0000    0.0063
       30 V      3pz       -0.0000    0.0000   -0.0000   -0.0110   -0.0000    0.0005   -0.0000   -0.0000    0.0040    0.8540
       31 V      4pz        0.0000   -0.0000    0.0000    0.0023    0.0000   -0.0001    0.0003   -0.0000    0.1173   -0.0905
       32 V      5pz       -0.0000    0.0000   -0.0000   -0.0056   -0.0000    0.0002    0.0004   -0.0000    0.1596    0.1366
       33 V      6pz        0.0000   -0.0000    0.0000    0.0029    0.0000   -0.0000    0.0012   -0.0000    0.4285   -0.0275
       34 V      7pz       -0.0000    0.0000   -0.0000   -0.0024   -0.0000   -0.0000    0.0013   -0.0000    0.4357   -0.0127
       35 V      8pz        0.0000   -0.0000    0.0000    0.0011    0.0000    0.0001    0.0021   -0.0000    0.6415   -0.0025
       36 V      9pz       -0.0000    0.0000   -0.0000   -0.0007   -0.0000    0.0000    0.0014   -0.0000    0.3975    0.0056
       37 V     10pz        0.0000   -0.0000    0.0000    0.0006    0.0000   -0.0000    0.0004   -0.0000    0.1117    0.0004
       38 V      3d2-       0.0000    0.0000    0.0067   -0.0000    0.0000   -0.0000    0.0000    0.0045    0.0000   -0.0000
       39 V      4d2-      -0.0000   -0.0000   -0.0057    0.0000   -0.0000    0.0000   -0.0000    0.0107    0.0000    0.0000
       40 V      5d2-       0.0000    0.0000    0.0052   -0.0000    0.0000   -0.0000    0.0000    0.0217    0.0000   -0.0000
       41 V      6d2-      -0.0000   -0.0000   -0.0051    0.0000   -0.0000    0.0000   -0.0000    0.0188    0.0000   -0.0000
       42 V      7d2-      -0.0000    0.0000    0.0029   -0.0000    0.0000   -0.0000    0.0000    0.0144    0.0000    0.0000
       43 V      8d2-       0.0000   -0.0000   -0.0011    0.0000   -0.0000    0.0000   -0.0000    0.0071    0.0000    0.0000
       44 V      9d2-      -0.0000    0.0000    0.0003   -0.0000    0.0000    0.0000   -0.0000    0.0045    0.0000    0.0000
       45 V     10d2-       0.0000    0.0000   -0.0001    0.0000   -0.0000    0.0000    0.0000    0.0014    0.0000   -0.0000
       46 V      3d1-      -0.0000   -0.0000    0.0000   -0.0000   -0.0000    0.0000    0.0000    0.0013    0.0000    0.0000
       47 V      4d1-       0.0000    0.0000   -0.0000    0.0000    0.0000   -0.0000   -0.0000    0.0041    0.0000   -0.0000
       48 V      5d1-      -0.0000   -0.0000    0.0000   -0.0000   -0.0000    0.0000    0.0000    0.0022    0.0000    0.0000
       49 V      6d1-       0.0000    0.0000   -0.0000    0.0000   -0.0000   -0.0000   -0.0000   -0.0003   -0.0000    0.0000
       50 V      7d1-      -0.0000   -0.0000    0.0000   -0.0000    0.0000   -0.0000   -0.0000    0.0009    0.0000    0.0000
       51 V      8d1-       0.0000    0.0000   -0.0000    0.0000    0.0000   -0.0000   -0.0000    0.0038    0.0000   -0.0000
       52 V      9d1-      -0.0000    0.0000   -0.0000    0.0000    0.0000    0.0000   -0.0000    0.0052    0.0000   -0.0000
       53 V     10d1-       0.0000    0.0000   -0.0000    0.0000   -0.0000   -0.0000    0.0000    0.0015    0.0000   -0.0000
       54 V      3d0        0.0000    0.0006    0.0000    0.0000   -0.0042   -0.0826    0.0007    0.0000   -0.0011    0.0175
       55 V      4d0       -0.0000   -0.0006   -0.0000   -0.0000    0.0035    0.0422   -0.0031    0.0000   -0.0033   -0.0112
       56 V      5d0        0.0000    0.0006    0.0000    0.0000   -0.0032   -0.0105    0.0033    0.0000   -0.0014   -0.0002
       57 V      6d0       -0.0000   -0.0008   -0.0000   -0.0000    0.0030   -0.0131    0.0049   -0.0000    0.0008    0.0062
       58 V      7d0        0.0000    0.0006    0.0000    0.0000   -0.0017    0.0036    0.0066   -0.0000    0.0000    0.0012
       59 V      8d0       -0.0000   -0.0002   -0.0000   -0.0000    0.0006    0.0057    0.0083    0.0000   -0.0025   -0.0034
       60 V      9d0       -0.0000    0.0000    0.0000    0.0000   -0.0002    0.0003    0.0075    0.0000   -0.0039   -0.0029
       61 V     10d0       -0.0000    0.0001   -0.0000    0.0000    0.0000   -0.0008    0.0020    0.0000   -0.0012   -0.0004
       62 V      3d1+      -0.0000   -0.0000    0.0000    0.0067    0.0000    0.0001    0.0000   -0.0000    0.0045    0.4259
       63 V      4d1+       0.0000    0.0000   -0.0000   -0.0057   -0.0000   -0.0001    0.0000   -0.0000    0.0107   -0.2054
       64 V      5d1+      -0.0000   -0.0000    0.0000    0.0052    0.0000    0.0001    0.0001   -0.0000    0.0216    0.0560
       65 V      6d1+       0.0000    0.0000   -0.0000   -0.0051   -0.0000    0.0000    0.0001   -0.0000    0.0189    0.0381
       66 V      7d1+      -0.0000   -0.0000    0.0000    0.0029    0.0000   -0.0001    0.0001   -0.0000    0.0144   -0.0066
       67 V      8d1+       0.0000    0.0000   -0.0000   -0.0011   -0.0000   -0.0000    0.0001   -0.0000    0.0071   -0.0193
       68 V      9d1+      -0.0000    0.0000    0.0000    0.0003    0.0000    0.0001    0.0001   -0.0000    0.0045   -0.0047
       69 V     10d1+       0.0000   -0.0000   -0.0000   -0.0001   -0.0000    0.0000    0.0000   -0.0000    0.0014    0.0010
       70 V      3d2+      -0.0000   -0.0010   -0.0000   -0.0000    0.0073    0.1438   -0.0012    0.0000   -0.0006    0.0094
       71 V      4d2+       0.0000    0.0010    0.0000    0.0000   -0.0061   -0.0734    0.0054    0.0000   -0.0020   -0.0063
       72 V      5d2+      -0.0000   -0.0011   -0.0000   -0.0000    0.0055    0.0182   -0.0057    0.0000   -0.0010   -0.0001
       73 V      6d2+       0.0000    0.0014    0.0000    0.0000   -0.0052    0.0229   -0.0085   -0.0000    0.0003    0.0037
       74 V      7d2+      -0.0000   -0.0010   -0.0000   -0.0000    0.0029   -0.0063   -0.0114    0.0000   -0.0003    0.0006
       75 V      8d2+       0.0000    0.0004    0.0000    0.0000   -0.0010   -0.0099   -0.0144    0.0000   -0.0017   -0.0020
       76 V      9d2+       0.0000   -0.0000    0.0000    0.0000    0.0003   -0.0005   -0.0130    0.0000   -0.0025   -0.0016
       77 V     10d2+       0.0000   -0.0001    0.0000    0.0000   -0.0000    0.0015   -0.0034    0.0000   -0.0007   -0.0002
       78 V      4f3-       0.0000   -0.0000   -0.0004    0.0000    0.0000   -0.0000    0.0000    0.0012    0.0000   -0.0000
       79 V      5f3-      -0.0000    0.0000    0.0005   -0.0000   -0.0000   -0.0000   -0.0000   -0.0058   -0.0000    0.0000
       80 V      6f3-       0.0000    0.0000   -0.0007    0.0000    0.0000    0.0000   -0.0000   -0.0137   -0.0000    0.0000
       81 V      7f3-      -0.0000   -0.0000    0.0007   -0.0000   -0.0000   -0.0000   -0.0000   -0.0225   -0.0000   -0.0000
       82 V      8f3-       0.0000    0.0000   -0.0007    0.0000    0.0000   -0.0000    0.0000   -0.0324   -0.0000   -0.0000
       83 V      9f3-      -0.0000   -0.0000    0.0003   -0.0000   -0.0000   -0.0000    0.0000   -0.0441   -0.0000    0.0000
       84 V      4f2-      -0.0000   -0.0000   -0.0001    0.0000   -0.0000    0.0000   -0.0000   -0.0005   -0.0000    0.0000
       85 V      5f2-       0.0000    0.0000    0.0001   -0.0000    0.0000   -0.0000   -0.0000    0.0005    0.0000   -0.0000
       86 V      6f2-      -0.0000   -0.0000   -0.0000    0.0000   -0.0000   -0.0000    0.0000    0.0007    0.0000   -0.0000
       87 V      7f2-       0.0000    0.0000    0.0000   -0.0000   -0.0000    0.0000   -0.0000   -0.0004   -0.0000    0.0000
       88 V      8f2-      -0.0000   -0.0000   -0.0000    0.0000    0.0000    0.0000   -0.0000   -0.0006   -0.0000    0.0000
       89 V      9f2-       0.0000    0.0000    0.0000   -0.0000   -0.0000   -0.0000   -0.0000   -0.0006   -0.0000   -0.0000
       90 V      4f1-      -0.0000    0.0000    0.0001   -0.0000   -0.0000    0.0000   -0.0000   -0.0003   -0.0000    0.0000
       91 V      5f1-       0.0000   -0.0000   -0.0001    0.0000    0.0000    0.0000    0.0000    0.0015    0.0000   -0.0000
       92 V      6f1-       0.0000    0.0000    0.0002   -0.0000   -0.0000   -0.0000    0.0000    0.0035    0.0000   -0.0000
       93 V      7f1-      -0.0000   -0.0000   -0.0002    0.0000    0.0000    0.0000   -0.0000    0.0058    0.0000    0.0000
       94 V      8f1-       0.0000    0.0000    0.0002   -0.0000   -0.0000    0.0000    0.0000    0.0084    0.0000    0.0000
       95 V      9f1-      -0.0000   -0.0000   -0.0001    0.0000    0.0000    0.0000    0.0000    0.0114    0.0000   -0.0000
       96 V      4f0       -0.0000    0.0000    0.0000    0.0003    0.0000    0.0053    0.0005    0.0000   -0.0008   -0.0551
       97 V      5f0       -0.0000   -0.0000   -0.0000   -0.0003   -0.0000   -0.0021   -0.0003   -0.0000    0.0036    0.0189
       98 V      6f0       -0.0000   -0.0000    0.0000    0.0004    0.0000   -0.0021   -0.0022   -0.0000    0.0087    0.0112
       99 V      7f0        0.0000    0.0000   -0.0000   -0.0004   -0.0000    0.0023   -0.0016   -0.0000    0.0143   -0.0128
      100 V      8f0        0.0000   -0.0000    0.0000    0.0005    0.0000    0.0005    0.0020   -0.0000    0.0204   -0.0026
      101 V      9f0        0.0000    0.0000   -0.0000   -0.0002   -0.0000   -0.0013    0.0052   -0.0000    0.0278    0.0065
      102 V      4f1+       0.0000   -0.0001    0.0000    0.0000    0.0004   -0.0122   -0.0002   -0.0000    0.0004    0.0231
      103 V      5f1+      -0.0000    0.0001   -0.0000   -0.0000   -0.0005    0.0064    0.0011    0.0000   -0.0004   -0.0049
      104 V      6f1+       0.0000   -0.0000    0.0000    0.0000    0.0005    0.0010    0.0038    0.0000   -0.0006   -0.0089
      105 V      7f1+      -0.0000   -0.0000    0.0000    0.0000   -0.0006   -0.0033    0.0052   -0.0000    0.0003    0.0066
      106 V      8f1+       0.0000    0.0000   -0.0000   -0.0000    0.0006    0.0002    0.0053   -0.0000    0.0005    0.0020
      107 V      9f1+      -0.0000   -0.0000    0.0000    0.0000   -0.0002    0.0016    0.0063   -0.0000    0.0005   -0.0042
      108 V      4f2+      -0.0000    0.0000   -0.0000   -0.0004    0.0000    0.0042    0.0004   -0.0000    0.0010    0.0705
      109 V      5f2+       0.0000   -0.0000    0.0000    0.0004   -0.0000   -0.0018   -0.0002    0.0000   -0.0047   -0.0246
      110 V      6f2+      -0.0000    0.0000   -0.0000   -0.0005    0.0000   -0.0016   -0.0017    0.0000   -0.0112   -0.0142
      111 V      7f2+       0.0000    0.0000    0.0000    0.0006    0.0000    0.0018   -0.0013    0.0000   -0.0184    0.0165
      112 V      8f2+       0.0000   -0.0000   -0.0000   -0.0006   -0.0000    0.0003    0.0015    0.0000   -0.0265    0.0033
      113 V      9f2+       0.0000    0.0000    0.0000    0.0003    0.0000   -0.0011    0.0039    0.0000   -0.0361   -0.0083
      114 V      4f3+      -0.0000    0.0001    0.0000    0.0000   -0.0005    0.0167    0.0002   -0.0000    0.0003    0.0185
      115 V      5f3+       0.0000   -0.0001   -0.0000   -0.0000    0.0006   -0.0086   -0.0014    0.0000   -0.0003   -0.0040
      116 V      6f3+      -0.0000    0.0000    0.0000    0.0000   -0.0007   -0.0015   -0.0050    0.0000   -0.0004   -0.0071
      117 V      7f3+       0.0000    0.0000   -0.0000   -0.0000    0.0007    0.0045   -0.0068   -0.0000    0.0003    0.0053
      118 V      8f3+      -0.0000   -0.0000    0.0000    0.0000   -0.0008   -0.0002   -0.0069   -0.0000    0.0005    0.0016
      119 V      9f3+       0.0000    0.0000   -0.0000   -0.0000    0.0003   -0.0022   -0.0081   -0.0000    0.0004   -0.0034
      120 V      5g4-       0.0000   -0.0000    0.0001   -0.0000    0.0000    0.0000    0.0000    0.0005    0.0000   -0.0000
      121 V      6g4-      -0.0000    0.0000   -0.0001    0.0000   -0.0000   -0.0000    0.0000   -0.0015   -0.0000    0.0000
      122 V      7g4-       0.0000   -0.0000    0.0000   -0.0000    0.0000    0.0000   -0.0000   -0.0017   -0.0000    0.0000
      123 V      8g4-      -0.0000    0.0000   -0.0000    0.0000    0.0000   -0.0000    0.0000    0.0005    0.0000   -0.0000
      124 V      5g3-      -0.0000   -0.0000   -0.0001    0.0000   -0.0000    0.0000   -0.0000   -0.0011   -0.0000    0.0000
      125 V      6g3-       0.0000    0.0000    0.0000   -0.0000    0.0000   -0.0000   -0.0000   -0.0023   -0.0000    0.0000
      126 V      7g3-      -0.0000   -0.0000   -0.0000    0.0000   -0.0000   -0.0000    0.0000   -0.0018   -0.0000   -0.0000
      127 V      8g3-       0.0000    0.0000   -0.0000    0.0000   -0.0000    0.0000   -0.0000   -0.0008   -0.0000    0.0000
      128 V      5g2-      -0.0000    0.0000   -0.0000    0.0000    0.0000   -0.0000   -0.0000   -0.0002   -0.0000    0.0000
      129 V      6g2-       0.0000    0.0000    0.0000   -0.0000    0.0000    0.0000    0.0000    0.0006    0.0000   -0.0000
      130 V      7g2-      -0.0000   -0.0000   -0.0000    0.0000   -0.0000   -0.0000   -0.0000    0.0006    0.0000   -0.0000
      131 V      8g2-       0.0000    0.0000    0.0000   -0.0000    0.0000    0.0000   -0.0000   -0.0002   -0.0000    0.0000
      132 V      5g1-      -0.0000    0.0000    0.0000   -0.0000   -0.0000   -0.0000    0.0000   -0.0002   -0.0000   -0.0000
      133 V      6g1-       0.0000   -0.0000   -0.0000    0.0000    0.0000   -0.0000   -0.0000   -0.0018   -0.0000    0.0000
      134 V      7g1-      -0.0000    0.0000   -0.0000    0.0000    0.0000    0.0000   -0.0000   -0.0020   -0.0000    0.0000
      135 V      8g1-       0.0000   -0.0000    0.0000   -0.0000   -0.0000   -0.0000   -0.0000   -0.0009   -0.0000   -0.0000
      136 V      5g0       -0.0000   -0.0000   -0.0000   -0.0000    0.0000   -0.0032   -0.0003    0.0000   -0.0010   -0.0172
      137 V      6g0        0.0000    0.0000    0.0000    0.0000   -0.0000   -0.0004   -0.0004    0.0000   -0.0027   -0.0067
      138 V      7g0        0.0000   -0.0000   -0.0000   -0.0000    0.0000    0.0012    0.0004    0.0000   -0.0024    0.0057
      139 V      8g0        0.0000    0.0000   -0.0000   -0.0000   -0.0000   -0.0006    0.0014    0.0000   -0.0011   -0.0004
      140 V      5g1+      -0.0000    0.0000   -0.0000   -0.0001    0.0000    0.0109    0.0003    0.0000   -0.0004   -0.0167
      141 V      6g1+       0.0000   -0.0000    0.0000    0.0000   -0.0000    0.0005    0.0007   -0.0000    0.0012    0.0016
      142 V      7g1+       0.0000    0.0000   -0.0000   -0.0000   -0.0000   -0.0050    0.0002   -0.0000    0.0014    0.0105
      143 V      8g1+      -0.0000   -0.0000    0.0000    0.0000    0.0000    0.0022   -0.0002    0.0000   -0.0004   -0.0052
      144 V      5g2+       0.0000    0.0000    0.0000    0.0000   -0.0001    0.0043    0.0004   -0.0000    0.0001    0.0151
      145 V      6g2+      -0.0000   -0.0000   -0.0000   -0.0000    0.0001    0.0006    0.0007    0.0000   -0.0009    0.0006
      146 V      7g2+      -0.0000    0.0000    0.0000    0.0000   -0.0000   -0.0016   -0.0006    0.0000   -0.0011   -0.0078
      147 V      8g2+      -0.0000   -0.0000    0.0000    0.0000    0.0000    0.0009   -0.0020    0.0000   -0.0005    0.0030
      148 V      5g3+      -0.0000    0.0001    0.0000    0.0001    0.0001    0.0128    0.0003   -0.0000    0.0003    0.0143
      149 V      6g3+       0.0000   -0.0000   -0.0000   -0.0000   -0.0000    0.0005    0.0008    0.0000   -0.0010   -0.0017
      150 V      7g3+       0.0000    0.0000    0.0000    0.0000   -0.0000   -0.0058    0.0002    0.0000   -0.0012   -0.0091
      151 V      8g3+      -0.0000   -0.0000   -0.0000   -0.0000    0.0000    0.0027   -0.0002   -0.0000    0.0003    0.0047
      152 V      5g4+      -0.0000   -0.0000    0.0000    0.0000    0.0001   -0.0048   -0.0005   -0.0000    0.0006    0.0209
      153 V      6g4+       0.0000    0.0000   -0.0000   -0.0000   -0.0001   -0.0008   -0.0009   -0.0000    0.0007    0.0041
      154 V      7g4+       0.0000   -0.0000    0.0000    0.0000    0.0001    0.0018    0.0008   -0.0000    0.0003   -0.0091
      155 V      8g4+       0.0000    0.0000    0.0000    0.0000   -0.0000   -0.0010    0.0027   -0.0000    0.0001    0.0025
      156 V      6h5-      -0.0000    0.0000    0.0000   -0.0000    0.0000    0.0000    0.0000    0.0003    0.0000   -0.0000
      157 V      7h5-       0.0000   -0.0000    0.0000   -0.0000   -0.0000   -0.0000   -0.0000    0.0008    0.0000   -0.0000
      158 V      6h4-      -0.0000    0.0000   -0.0000    0.0000   -0.0000    0.0000   -0.0000   -0.0003   -0.0000    0.0000
      159 V      7h4-       0.0000   -0.0000   -0.0000    0.0000    0.0000    0.0000   -0.0000   -0.0002   -0.0000    0.0000
      160 V      6h3-      -0.0000    0.0000   -0.0000    0.0000    0.0000    0.0000    0.0000   -0.0001   -0.0000    0.0000
      161 V      7h3-       0.0000   -0.0000   -0.0000    0.0000   -0.0000   -0.0000    0.0000   -0.0005   -0.0000    0.0000
      162 V      6h2-       0.0000   -0.0000    0.0000   -0.0000    0.0000   -0.0000    0.0000    0.0004    0.0000   -0.0000
      163 V      7h2-      -0.0000   -0.0000   -0.0000    0.0000    0.0000    0.0000    0.0000    0.0001    0.0000   -0.0000
      164 V      6h1-       0.0000    0.0000   -0.0000    0.0000    0.0000    0.0000    0.0000   -0.0000   -0.0000    0.0000
      165 V      7h1-      -0.0000   -0.0000    0.0000   -0.0000   -0.0000   -0.0000    0.0000   -0.0002   -0.0000    0.0000
      166 V      6h0        0.0000   -0.0000    0.0000    0.0000   -0.0000   -0.0104    0.0000   -0.0000    0.0002    0.0054
      167 V      7h0       -0.0000    0.0000    0.0000    0.0000    0.0000   -0.0004    0.0001   -0.0000    0.0006    0.0005
      168 V      6h1+       0.0000   -0.0000    0.0000    0.0000   -0.0000   -0.0063   -0.0001    0.0000   -0.0002   -0.0102
      169 V      7h1+       0.0000    0.0000   -0.0000   -0.0000    0.0000    0.0002   -0.0002    0.0000   -0.0002   -0.0042
      170 V      6h2+      -0.0000    0.0000   -0.0000   -0.0000    0.0000    0.0060   -0.0000    0.0000   -0.0001   -0.0057
      171 V      7h2+       0.0000   -0.0000   -0.0000   -0.0000   -0.0000    0.0002   -0.0001    0.0000   -0.0003   -0.0002
      172 V      6h3+      -0.0000    0.0000    0.0000    0.0000    0.0000    0.0063    0.0001   -0.0000    0.0003    0.0118
      173 V      7h3+      -0.0000   -0.0000   -0.0000   -0.0000   -0.0000   -0.0002    0.0003   -0.0000    0.0001   -0.0005
      174 V      6h4+      -0.0000    0.0000    0.0000    0.0000    0.0001    0.0164   -0.0000   -0.0000    0.0002    0.0056
      175 V      7h4+       0.0000   -0.0000    0.0000    0.0000   -0.0000    0.0005   -0.0002   -0.0000    0.0006    0.0003
      176 V      6h5+       0.0000   -0.0000    0.0000    0.0000   -0.0001   -0.0081   -0.0002   -0.0000    0.0003    0.0162
      177 V      7h5+       0.0000    0.0000   -0.0000   -0.0000    0.0000    0.0002   -0.0004   -0.0000    0.0002    0.0027

          Orbital           11    
          Energy            8.6896
          Occ. No.          0.0000

        1 V      1s        -0.0000
        2 V      2s         0.0000
        3 V      3s         0.0000
        4 V      4s        -0.0000
        5 V      5s         0.0000
        6 V      6s        -0.0000
        7 V      7s        -0.0000
        8 V      8s         0.0000
        9 V      9s        -0.0000
       10 V     10s         0.0000
       11 V      2px       -0.0000
       12 V      3px       -0.0000
       13 V      4px        0.0000
       14 V      5px       -0.0000
       15 V      6px        0.0000
       16 V      7px       -0.0000
       17 V      8px        0.0000
       18 V      9px        0.0000
       19 V     10px        0.0000
       20 V      2py        0.0063
       21 V      3py        0.8549
       22 V      4py       -0.0905
       23 V      5py        0.1369
       24 V      6py       -0.0277
       25 V      7py       -0.0124
       26 V      8py       -0.0024
       27 V      9py        0.0055
       28 V     10py        0.0003
       29 V      2pz        0.0000
       30 V      3pz        0.0000
       31 V      4pz       -0.0000
       32 V      5pz        0.0000
       33 V      6pz       -0.0000
       34 V      7pz       -0.0000
       35 V      8pz       -0.0000
       36 V      9pz        0.0000
       37 V     10pz        0.0000
       38 V      3d2-       0.4247
       39 V      4d2-      -0.2048
       40 V      5d2-       0.0561
       41 V      6d2-       0.0376
       42 V      7d2-      -0.0066
       43 V      8d2-      -0.0191
       44 V      9d2-      -0.0047
       45 V     10d2-       0.0009
       46 V      3d1-      -0.0193
       47 V      4d1-       0.0126
       48 V      5d1-       0.0004
       49 V      6d1-      -0.0074
       50 V      7d1-      -0.0015
       51 V      8d1-       0.0041
       52 V      9d1-       0.0035
       53 V     10d1-       0.0005
       54 V      3d0        0.0000
       55 V      4d0       -0.0000
       56 V      5d0       -0.0000
       57 V      6d0        0.0000
       58 V      7d0        0.0000
       59 V      8d0       -0.0000
       60 V      9d0       -0.0000
       61 V     10d0       -0.0000
       62 V      3d1+       0.0000
       63 V      4d1+      -0.0000
       64 V      5d1+       0.0000
       65 V      6d1+       0.0000
       66 V      7d1+      -0.0000
       67 V      8d1+      -0.0000
       68 V      9d1+      -0.0000
       69 V     10d1+       0.0000
       70 V      3d2+      -0.0000
       71 V      4d2+       0.0000
       72 V      5d2+      -0.0000
       73 V      6d2+       0.0000
       74 V      7d2+       0.0000
       75 V      8d2+      -0.0000
       76 V      9d2+      -0.0000
       77 V     10d2+      -0.0000
       78 V      4f3-       0.0850
       79 V      5f3-      -0.0297
       80 V      6f3-      -0.0171
       81 V      7f3-       0.0198
       82 V      8f3-       0.0040
       83 V      9f3-      -0.0100
       84 V      4f2-      -0.0302
       85 V      5f2-       0.0064
       86 V      6f2-       0.0117
       87 V      7f2-      -0.0086
       88 V      8f2-      -0.0026
       89 V      9f2-       0.0055
       90 V      4f1-      -0.0217
       91 V      5f1-       0.0076
       92 V      6f1-       0.0043
       93 V      7f1-      -0.0050
       94 V      8f1-      -0.0010
       95 V      9f1-       0.0025
       96 V      4f0       -0.0000
       97 V      5f0        0.0000
       98 V      6f0        0.0000
       99 V      7f0       -0.0000
      100 V      8f0       -0.0000
      101 V      9f0        0.0000
      102 V      4f1+       0.0000
      103 V      5f1+      -0.0000
      104 V      6f1+      -0.0000
      105 V      7f1+       0.0000
      106 V      8f1+       0.0000
      107 V      9f1+      -0.0000
      108 V      4f2+       0.0000
      109 V      5f2+      -0.0000
      110 V      6f2+      -0.0000
      111 V      7f2+       0.0000
      112 V      8f2+       0.0000
      113 V      9f2+      -0.0000
      114 V      4f3+       0.0000
      115 V      5f3+      -0.0000
      116 V      6f3+      -0.0000
      117 V      7f3+       0.0000
      118 V      8f3+       0.0000
      119 V      9f3+      -0.0000
      120 V      5g4-       0.0196
      121 V      6g4-      -0.0023
      122 V      7g4-      -0.0126
      123 V      8g4-       0.0064
      124 V      5g3-      -0.0296
      125 V      6g3-      -0.0080
      126 V      7g3-       0.0118
      127 V      8g3-      -0.0024
      128 V      5g2-      -0.0069
      129 V      6g2-       0.0009
      130 V      7g2-       0.0045
      131 V      8g2-      -0.0023
      132 V      5g1-       0.0109
      133 V      6g1-      -0.0013
      134 V      7g1-      -0.0067
      135 V      8g1-       0.0030
      136 V      5g0       -0.0000
      137 V      6g0       -0.0000
      138 V      7g0        0.0000
      139 V      8g0       -0.0000
      140 V      5g1+      -0.0000
      141 V      6g1+       0.0000
      142 V      7g1+       0.0000
      143 V      8g1+      -0.0000
      144 V      5g2+       0.0000
      145 V      6g2+       0.0000
      146 V      7g2+      -0.0000
      147 V      8g2+       0.0000
      148 V      5g3+       0.0000
      149 V      6g3+      -0.0000
      150 V      7g3+      -0.0000
      151 V      8g3+       0.0000
      152 V      5g4+       0.0000
      153 V      6g4+       0.0000
      154 V      7g4+      -0.0000
      155 V      8g4+       0.0000
      156 V      6h5-       0.0082
      157 V      7h5-       0.0005
      158 V      6h4-      -0.0154
      159 V      7h4-      -0.0051
      160 V      6h3-      -0.0036
      161 V      7h3-      -0.0003
      162 V      6h2-       0.0165
      163 V      7h2-       0.0004
      164 V      6h1-      -0.0001
      165 V      7h1-      -0.0003
      166 V      6h0        0.0000
      167 V      7h0        0.0000
      168 V      6h1+      -0.0000
      169 V      7h1+      -0.0000
      170 V      6h2+      -0.0000
      171 V      7h2+      -0.0000
      172 V      6h3+       0.0000
      173 V      7h3+      -0.0000
      174 V      6h4+       0.0000
      175 V      7h4+       0.0000
      176 V      6h5+       0.0000
      177 V      7h5+       0.0000
--


++    Molecular charges:
      ------------------

      Mulliken charges per centre and basis function type
      ---------------------------------------------------

                V     
      1s       2.0000
      2s       1.9995
      2px      1.9989
      2pz      1.9994
      2py      1.9994
      3s       1.1531
      3px      0.7252
      3pz      0.0003
      3py      0.0003
      4s       0.0151
      3d2+     0.0414
      3d1+     0.0001
      3d0      0.0137
      3d1-     0.0000
      3d2-     0.0001
      4px      0.0105
      4pz      0.0275
      4py      0.0275
      5s       0.3334
      4d2+     0.0109
      4d1+     0.0003
      4d0      0.0036
      4d1-     0.0000
      4d2-     0.0003
      5px      0.0178
      5pz      0.0510
      5py      0.0510
      6s       0.1814
      4f3+     0.0006
      4f2+     0.0000
      4f1+     0.0003
      4f0      0.0001
      4f1-     0.0000
      4f2-     0.0000
      4f3-     0.0000
      5d2+     0.0008
      5d1+     0.0010
      5d0      0.0003
      5d1-     0.0000
      5d2-     0.0010
      6px      0.0276
      6pz      0.3673
      6py      0.3673
      7s       0.3801
      5f3+     0.0002
      5f2+     0.0001
      5f1+     0.0001
      5f0      0.0000
      5f1-     0.0000
      5f2-     0.0000
      5f3-     0.0001
      6d2+     0.0013
      6d1+     0.0008
      6d0      0.0004
      6d1-     0.0000
      6d2-     0.0008
      7px      0.0291
      7pz      0.3797
      7py      0.3797
      5g4+     0.0000
      5g3+     0.0003
      5g2+     0.0000
      5g1+     0.0002
      5g0      0.0000
      5g1-     0.0000
      5g2-     0.0000
      5g3-     0.0000
      5g4-     0.0000
      6f3+     0.0001
      6f2+     0.0003
      6f1+     0.0000
      6f0      0.0002
      6f1-     0.0000
      6f2-     0.0000
      6f3-     0.0004
      6g4+     0.0000
      6g3+     0.0000
      6g2+     0.0000
      6g1+     0.0000
      6g0      0.0000
      6g1-     0.0000
      6g2-     0.0000
      6g3-     0.0000
      6g4-     0.0000
      6h5+     0.0001
      6h4+     0.0005
      6h3+     0.0001
      6h2+     0.0001
      6h1+     0.0001
      6h0      0.0002
      6h1-     0.0000
      6h2-     0.0000
      6h3-     0.0000
      6h4-     0.0000
      6h5-     0.0000
      7d2+     0.0004
      7d1+     0.0004
      7d0      0.0001
      7d1-     0.0000
      7d2-     0.0004
      7f3+     0.0001
      7f2+     0.0007
      7f1+     0.0001
      7f0      0.0004
      7f1-     0.0001
      7f2-     0.0000
      7f3-     0.0010
      7g4+     0.0000
      7g3+     0.0001
      7g2+     0.0000
      7g1+     0.0001
      7g0      0.0000
      7g1-     0.0000
      7g2-     0.0000
      7g3-     0.0000
      7g4-     0.0000
      7h5+     0.0000
      7h4+     0.0000
      7h3+     0.0000
      7h2+     0.0000
      7h1+     0.0000
      7h0      0.0000
      7h1-     0.0000
      7h2-     0.0000
      7h3-     0.0000
      7h4-     0.0000
      7h5-     0.0000
      8s       0.2117
      8px      0.0619
      8pz      0.8231
      8py      0.8231
      8d2+     0.0006
      8d1+     0.0001
      8d0      0.0002
      8d1-     0.0000
      8d2-     0.0001
      8f3+     0.0001
      8f2+     0.0014
      8f1+     0.0001
      8f0      0.0008
      8f1-     0.0001
      8f2-     0.0000
      8f3-     0.0021
      8g4+     0.0000
      8g3+     0.0000
      8g2+     0.0000
      8g1+     0.0000
      8g0      0.0000
      8g1-     0.0000
      8g2-     0.0000
      8g3-     0.0000
      8g4-     0.0000
      9s       0.6427
      9px      0.0274
      9pz      0.3160
      9py      0.3159
      9d2+     0.0004
      9d1+     0.0000
      9d0      0.0001
      9d1-     0.0001
      9d2-     0.0000
      9f3+     0.0001
      9f2+     0.0026
      9f1+     0.0001
      9f0      0.0016
      9f1-     0.0003
      9f2-     0.0000
      9f3-     0.0039
     10s       0.1038
     10px      0.0025
     10pz      0.0249
     10py      0.0249
     10d2+     0.0000
     10d1+     0.0000
     10d0      0.0000
     10d1-     0.0000
     10d2-     0.0000
      Total   18.0000

      N-E      5.0000

      Total electronic charge=   18.000000

      Total            charge=    5.000000
--

 Sorry, Molden does not know how to handle
 functions with angular momentum larger than g

++    Static properties:
      ------------------


      LoProp Charges per center


                   V     
      Nuclear     23.0000
      Electronic -18.0000

      Total        5.0000
--


++    Molecular properties:
      ---------------------

      Charge (e):
                      =    5.0000
      Dipole Moment (Debye):
      Origin of the operator (Ang)=    0.0000    0.0000    0.0000
                   X= -1.9034E+01               Y=  5.0413E-13               Z=  2.6597E-02           Total=  1.9034E+01
      Center of Charge (Ang)
                     X=   -0.79253798               Y=    0.00000000               Z=    0.00110747
      Quadrupole Moment (Debye*Ang):
      Origin of the operator (Ang)=   -0.0000   -0.0000    0.0046
                  XX= -2.7372E+02              XY=  9.6888E-13              XZ=  7.9199E-03              YY= -3.9424E+02
                  YZ= -2.6595E-13              ZZ= -3.9424E+02
      In traceless form (Debye*Ang)
                  XX=  1.2052E+02              XY=  1.4533E-12              XZ=  1.1880E-02              YY= -6.0262E+01
                  YZ= -3.9893E-13              ZZ= -6.0262E+01
--

 Sorry, Molden does not know how to handle
 functions with angular momentum larger than g
 ###############################################################################
 ###############################################################################
 ###                                                                         ###
 ###                                                                         ###
 ###    WARNING: RunFile label nBas                                          ###
 ###    was used       62 times                                              ###
 ###                                                                         ###
 ###                                                                         ###
 ###############################################################################
 ###############################################################################
Note: The following floating-point exceptions are signalling: IEEE_UNDERFLOW_FLAG IEEE_DENORMAL
--- Stop Module: scf at Wed Mar 26 11:19:13 2025 /rc=_RC_ALL_IS_WELL_ ---
*** files: vanadium_so_cf.LprOrb vanadium_so_cf.ScfOrb xmldump
    saved to directory /home4/s4752295/Internship/Initial_simulations/Point_charge_model/1_electron/Madelung_charges_9_active_space/V
--- Module scf spent 8 seconds ---

*** symbolic link created: INPORB -> vanadium_so_cf.ScfOrb
--- Start Module: rasscf at Wed Mar 26 11:19:13 2025 ---

()()()()()()()()()()()()()()()()()()()()()()()()()()()()()()()()()()()()()()()()()()()()()()()()()()

                                              &RASSCF

                                   only a single process is used
                       available to each process: 4.1 GB of memory, 1 thread?
                                            pid: 3348634
()()()()()()()()()()()()()()()()()()()()()()()()()()()()()()()()()()()()()()()()()()()()()()()()()()


      Header of the ONEINT file:
      --------------------------
      
      Integrals generated by seward 4.2.0  , Wed Mar 26 11:18:57 2025


      OrdInt status: non-squared


      Cartesian coordinates in Angstrom:
      -----------------------------------------------------
      No.  Label        X            Y            Z        
      -----------------------------------------------------
       1   V         -0.00000000  -0.00000000   0.00463220
      -----------------------------------------------------
      Nuclear repulsion energy = -420.85189874

++    Wave function specifications:
      -----------------------------

      Number of closed shell electrons          18
      Number of electrons in active shells       1
      Max number of holes in RAS1 space          0
      Max nr of electrons in RAS3 space          0
      Number of inactive orbitals                9
      Number of active orbitals                  9
      Number of secondary orbitals             159
      Spin quantum number                      0.5
      State symmetry                             1
--

++    Orbital specifications:
      -----------------------

      Symmetry species                           1
                                                 a
      Frozen orbitals                            0
      Inactive orbitals                          9
      Active orbitals                            9
      RAS1 orbitals                              0
      RAS2 orbitals                              9
      RAS3 orbitals                              0
      Secondary orbitals                       159
      Deleted orbitals                           0
      Number of basis functions                177
--

++    CI expansion specifications:
      ----------------------------

      Number of CSFs                             9
      Number of determinants                     9
      Number of root(s) required                 9
      Root chosen for geometry opt.              9
      CI roots used                              1     2     3     4     5     6     7     8     9
      weights                                0.111 0.111 0.111 0.111 0.111 0.111 0.111 0.111 0.111
      highest root included in the CI            9
      max. size of the explicit Hamiltonian      9
--

++    Optimization specifications:
      ----------------------------

      RASSCF algorithm: Conventional
      Maximum number of macro iterations       200
      Maximum number of SX iterations          100
      Threshold for RASSCF energy            0.100E-07
      Threshold for max MO rotation          0.100E+00
      Threshold for max BLB element          0.100E-03
      Level shift parameter                  0.500E+00
      Make Quasi-Newton update
--

      The MO-coefficients are taken from the file:
      INPORB                                                                                                                          
      Title: SCF orbitals                                                                  

      Total molecular charge    4.00

      ************************************************************************************************************************
      *                                                                                                                      *
      *                                            Wave function control section                                             *
      *                                                                                                                      *
      ************************************************************************************************************************


                                         RASSCF iterations: Energy and convergence statistics
                                         ----------------------------------------------------

      Iter CI   SX   CI       RASSCF       Energy    max ROT     max BLB   max BLB  Level Ln srch  Step   QN   Walltime
          iter iter root      energy       change     param      element    value   shift minimum  type update hh:mm:ss
 Nr of preliminary CI iterations:   1
      Total energies have been shifted. Add                -1000.00 au
        1   1    5    0   -53.67794062    0.00E+00  -0.89E-02    6  35 1 -0.98E-01*  0.00   0.00    SX    NO    0:00:03
        2   1    4    0   -53.67952468   -0.16E-02* -0.90E-03    6  35 1 -0.82E-02*  0.00   0.00    SX    NO    0:00:01
        3   1    4    0   -53.67954591   -0.21E-04*  0.20E-03    6  35 1 -0.13E-02*  0.00   0.00    SX    NO    0:00:01
        4   1    4    0   -53.67954642   -0.51E-06*  0.89E-04    6  14 1  0.18E-03*  0.00   0.00    SX    NO    0:00:01
        5   1    3    0   -53.67954644   -0.19E-07* -0.40E-04    6  14 1  0.44E-04   0.00   0.93    QN   YES    0:00:01
        6   1    3    0   -53.67954644   -0.15E-08   0.19E-04    3 170 1  0.76E-05   0.00   0.81    QN   YES    0:00:01
      Convergence after  6 iterations
        7   1    3    0   -53.67954644   -0.16E-09   0.19E-04    6  35 1  0.28E-05   0.00   0.81    QN   YES    0:00:01

      ************************************************************************************************************************
                                                      Wave function printout:
                       occupation of active orbitals, and spin coupling of open shells (u,d: Spin up or down)
      ************************************************************************************************************************

      Note: transformation to natural orbitals
      has been made, which may change the order of the CSFs.

      printout of CI-coefficients larger than  0.05 for root  1
      energy=   -1054.581063
      conf/sym  111111111     Coeff  Weight
             1  u00000000   0.72161 0.52072
             2  0u0000000   0.34233 0.11719
             4  000u00000   0.17056 0.02909
             5  0000u0000   0.41062 0.16861
             6  00000u000  -0.14608 0.02134
             7  000000u00  -0.32200 0.10368
             8  0000000u0  -0.19599 0.03841

      printout of CI-coefficients larger than  0.05 for root  2
      energy=   -1054.577226
      conf/sym  111111111     Coeff  Weight
             2  0u0000000   0.73361 0.53818
             7  000000u00   0.67626 0.45733

      printout of CI-coefficients larger than  0.05 for root  3
      energy=   -1054.010638
      conf/sym  111111111     Coeff  Weight
             1  u00000000  -0.12103 0.01465
             2  0u0000000   0.24265 0.05888
             3  00u000000   0.77980 0.60809
             4  000u00000   0.35761 0.12789
             5  0000u0000  -0.33566 0.11267
             6  00000u000  -0.10536 0.01110
             7  000000u00  -0.25541 0.06523

      printout of CI-coefficients larger than  0.05 for root  4
      energy=   -1053.717687
      conf/sym  111111111     Coeff  Weight
             1  u00000000  -0.33636 0.11314
             2  0u0000000  -0.19067 0.03635
             3  00u000000  -0.08469 0.00717
             4  000u00000   0.69177 0.47854
             5  0000u0000   0.42213 0.17819
             7  000000u00   0.18902 0.03573
             8  0000000u0  -0.38834 0.15081

      printout of CI-coefficients larger than  0.05 for root  5
      energy=   -1053.689771
      conf/sym  111111111     Coeff  Weight
             2  0u0000000  -0.19753 0.03902
             3  00u000000   0.55545 0.30853
             4  000u00000  -0.26157 0.06842
             5  0000u0000   0.65584 0.43013
             7  000000u00   0.21068 0.04438
             8  0000000u0   0.32729 0.10712

      printout of CI-coefficients larger than  0.05 for root  6
      energy=   -1053.370539
      conf/sym  111111111     Coeff  Weight
             1  u00000000   0.08254 0.00681
             2  0u0000000   0.10977 0.01205
             4  000u00000   0.22470 0.05049
             6  00000u000   0.92409 0.85394
             7  000000u00  -0.13614 0.01853
             8  0000000u0   0.23922 0.05723

      printout of CI-coefficients larger than  0.05 for root  7
      energy=   -1053.368329
      conf/sym  111111111     Coeff  Weight
             1  u00000000   0.58212 0.33886
             2  0u0000000  -0.44498 0.19801
             3  00u000000   0.17878 0.03196
             4  000u00000   0.17964 0.03227
             5  0000u0000  -0.33123 0.10971
             6  00000u000   0.06967 0.00485
             7  000000u00   0.52192 0.27240
             8  0000000u0  -0.10923 0.01193

      printout of CI-coefficients larger than  0.05 for root  8
      energy=   -1052.921802
      conf/sym  111111111     Coeff  Weight
             1  u00000000   0.06155 0.00379
             3  00u000000  -0.20580 0.04236
             4  000u00000   0.46119 0.21270
             6  00000u000  -0.32462 0.10538
             7  000000u00   0.05202 0.00271
             8  0000000u0   0.79505 0.63210

      printout of CI-coefficients larger than  0.05 for root  9
      energy=   -1052.878863
      conf/sym  111111111     Coeff  Weight
             9  00000000u   1.00000 1.00000

      Natural orbitals and occupation numbers for root  1
      sym 1:   1.000000  -0.000000  -0.000000  -0.000000   0.000000  -0.000000   0.000000   0.000000   0.000000

      Natural orbitals and occupation numbers for root  2
      sym 1:  -0.000000   1.000000  -0.000000   0.000000  -0.000000   0.000000  -0.000000  -0.000000   0.000000

      Natural orbitals and occupation numbers for root  3
      sym 1:  -0.000000   0.000000   1.000000   0.000000  -0.000000  -0.000000  -0.000000   0.000000  -0.000000

      Natural orbitals and occupation numbers for root  4
      sym 1:  -0.000000  -0.000000   0.000000   1.000000   0.000000   0.000000  -0.000000  -0.000000   0.000000

      Natural orbitals and occupation numbers for root  5
      sym 1:   0.000000  -0.000000   0.000000  -0.000000   1.000000   0.000000   0.000000   0.000000   0.000000

      Natural orbitals and occupation numbers for root  6
      sym 1:  -0.000000   0.000000  -0.000000  -0.000000   0.000000   1.000000   0.000000   0.000000  -0.000000

      Natural orbitals and occupation numbers for root  7
      sym 1:   1.000000  -0.000000   0.000000  -0.000000   0.000000  -0.000000  -0.000000   0.000000   0.000000

      Natural orbitals and occupation numbers for root  8
      sym 1:  -0.000000   0.000000  -0.000000   0.000000  -0.000000   0.000000   0.000000   1.000000  -0.000000

      Natural orbitals and occupation numbers for root  9
      sym 1:  -0.000000  -0.000000  -0.000000   0.000000  -0.000000   0.000000   0.000000   0.000000   1.000000

      ************************************************************************************************************************
      *                                                                                                                      *
      *                                                    Final results                                                     *
      *                                                                                                                      *
      ************************************************************************************************************************


++    Wave function specifications:
      -----------------------------

      Number of closed shell electrons          18
      Number of electrons in active shells       1
      Max number of holes in RAS1 space          0
      Max nr of electrons in RAS3 space          0
      Number of inactive orbitals                9
      Number of active orbitals                  9
      Number of secondary orbitals             159
      Spin quantum number                      0.5
      State symmetry                             1
--

++    Orbital specifications:
      -----------------------

      Symmetry species                           1
                                                 a
      Frozen orbitals                            0
      Inactive orbitals                          9
      Active orbitals                            9
      RAS1 orbitals                              0
      RAS2 orbitals                              9
      RAS3 orbitals                              0
      Secondary orbitals                       159
      Deleted orbitals                           0
      Number of basis functions                177
--

++    CI expansion specifications:
      ----------------------------

      Number of CSFs                             9
      Number of determinants                     9
      Number of root(s) required                 9
      CI roots used                              1     2     3     4     5     6     7     8     9
[...]
      ****************************************************************************************************


++ Dipole transition strengths (SO states):
   ----------------------------------------
    for osc. strength at least    1.0000000000000001E-005

      From   To        Osc. strength     Einstein coefficients Ax, Ay, Az (sec-1)    Total A (sec-1)
     -----------------------------------------------------------------------------------------------
         1    7       2.59719357E-04  1.12112963E+02  7.03649638E-14  6.22022156E+06  6.22033368E+06
         1    9       3.51197941E-02  2.49341810E+04  1.26949660E-11  8.96373866E+08  8.96398800E+08
         1   11       1.83580851E-04  8.65369918E-15  8.64337267E+06  1.20840949E-13  8.64337267E+06
         1   13       2.16514633E-04  1.33484516E+06  1.09793739E-13  8.89638629E+06  1.02312314E+07
         1   15       4.05337891E-05  1.04271515E+03  6.17397146E-14  3.58450686E+06  3.58554958E+06
         1   17       1.02256214E-05  2.65299811E-17  9.51963200E+05  3.32159444E-14  9.51963200E+05
         2    8       2.59719357E-04  1.12112963E+02  7.03649638E-14  6.22022156E+06  6.22033368E+06
         2   10       3.51197941E-02  2.49341810E+04  1.26949660E-11  8.96373866E+08  8.96398800E+08
         2   12       1.83580851E-04  8.65369918E-15  8.64337267E+06  1.20840949E-13  8.64337267E+06
         2   14       2.16514633E-04  1.33484516E+06  1.09793739E-13  8.89638629E+06  1.02312314E+07
         2   16       4.05337891E-05  1.04271515E+03  6.17397146E-14  3.58450686E+06  3.58554958E+06
         2   18       1.02256214E-05  2.65299811E-17  9.51963200E+05  3.32159444E-14  9.51963200E+05
         3    7       2.52633475E-04  2.28066339E-16  5.99696846E+06  6.02817568E-14  5.99696846E+06
         3    9       3.59303530E-02  3.92176368E-17  9.09208991E+08  1.22273515E-11  9.09208991E+08
         3   11       2.06888694E-04  1.32255032E+06  1.10738207E-13  8.35655624E+06  9.67910657E+06
         3   13       1.71725356E-04  2.27702032E-16  8.06348478E+06  5.10455875E-14  8.06348478E+06
         3   15       3.76128791E-05  4.18618818E-16  3.31180176E+06  3.37820138E-13  3.31180176E+06
         3   17       1.44430526E-05  1.80019634E+03  2.59681448E-13  1.33673394E+06  1.33853414E+06
         4    8       2.52633475E-04  2.28066339E-16  5.99696846E+06  6.02817568E-14  5.99696846E+06
         4   10       3.59303530E-02  3.92176368E-17  9.09208991E+08  1.22273515E-11  9.09208991E+08
         4   12       2.06888694E-04  1.32255032E+06  1.10738207E-13  8.35655624E+06  9.67910657E+06
         4   14       1.71725356E-04  2.27702032E-16  8.06348478E+06  5.10455875E-14  8.06348478E+06
         4   16       3.76128791E-05  4.18618818E-16  3.31180176E+06  3.37820138E-13  3.31180176E+06
         4   18       1.44430526E-05  1.80019634E+03  2.59681448E-13  1.33673394E+06  1.33853414E+06
         5    7       5.73724288E-02  1.58179907E+08  7.30606676E-18  1.83763351E+04  1.58198284E+08
         5    9       5.81982453E-04  1.92499534E+06  6.82251322E-17  1.71064590E+02  1.92516641E+06
         5   11       1.80221922E-01  6.57214758E-16  2.37252197E+09  7.40281343E-14  2.37252197E+09
         5   13       1.65823731E-01  5.74901208E+04  9.31502940E-14  2.19802492E+09  2.19808241E+09
         5   15       5.26974687E-02  2.00141719E+09  1.35817933E-14  5.93430726E+06  2.00735150E+09
         5   17       4.07204728E-04  5.58813122E-16  1.67587643E+07  3.22389007E-16  1.67587643E+07
         6    8       5.73724288E-02  1.58179907E+08  7.30606676E-18  1.83763351E+04  1.58198284E+08
         6   10       5.81982453E-04  1.92499534E+06  6.82251322E-17  1.71064590E+02  1.92516641E+06
         6   12       1.80221922E-01  6.57214758E-16  2.37252197E+09  7.40281343E-14  2.37252197E+09
         6   14       1.65823731E-01  5.74901208E+04  9.31502940E-14  2.19802492E+09  2.19808241E+09
         6   16       5.26974687E-02  2.00141719E+09  1.35817933E-14  5.93430726E+06  2.00735150E+09
         6   18       4.07204728E-04  5.58813122E-16  1.67587643E+07  3.22389007E-16  1.67587643E+07
         7   11       3.24759711E-01  1.58425139E-16  1.25747574E+09  4.22081366E-14  1.25747574E+09
         7   13       3.02766547E-01  5.53977176E+04  4.36258999E-14  1.18724099E+09  1.18729639E+09
         7   15       1.65943570E-02  3.34138161E+08  4.87242287E-14  3.59200873E+06  3.37730169E+08
         7   17       8.31680813E-04  1.38540473E-16  1.88021501E+07  1.35699022E-14  1.88021501E+07
         8   12       3.24759711E-01  1.58425139E-16  1.25747574E+09  4.22081366E-14  1.25747574E+09
         8   14       3.02766547E-01  5.53977176E+04  4.36258999E-14  1.18724099E+09  1.18729639E+09
         8   16       1.65943570E-02  3.34138161E+08  4.87242287E-14  3.59200873E+06  3.37730169E+08
         8   18       8.31680813E-04  1.38540473E-16  1.88021501E+07  1.35699022E-14  1.88021501E+07
         9   11       2.31230228E-04  2.38891621E-16  7.57121934E+05  2.93970691E-16  7.57121934E+05
         9   13       2.16415853E-04  4.03883956E+01  1.16176108E-16  7.18422907E+05  7.18463295E+05
         9   15       6.13672138E-05  1.16287252E+06  1.77707939E-14  1.59343359E+00  1.16287411E+06
        10   12       2.31230228E-04  2.38891621E-16  7.57121934E+05  2.93970691E-16  7.57121934E+05
        10   14       2.16415853E-04  4.03883956E+01  1.16176108E-16  7.18422907E+05  7.18463295E+05
        10   16       6.13672138E-05  1.16287252E+06  1.77707939E-14  1.59343359E+00  1.16287411E+06
        11   13       1.41155235E-03  8.57283175E-25  2.21648341E+02  4.85639658E-20  2.21648341E+02
        11   15       2.38389254E+00  1.65657412E-15  1.54233862E+10  6.93640537E-13  1.54233862E+10
        11   17       3.02330974E+00  6.66650024E+05  9.36889867E-13  2.34821673E+10  2.34828340E+10
        12   14       1.41155235E-03  8.57283175E-25  2.21648341E+02  4.85639658E-20  2.21648341E+02
        12   16       2.38389254E+00  1.65657412E-15  1.54233862E+10  6.93640537E-13  1.54233862E+10
        12   18       3.02330974E+00  6.66650024E+05  9.36889867E-13  2.34821673E+10  2.34828340E+10
        13   15       2.47652705E+00  5.18215230E+05  5.21074469E-13  1.58647153E+10  1.58652335E+10
        13   17       3.11944258E+00  5.10530654E-18  2.40121290E+10  8.64492129E-13  2.40121290E+10
        14   16       2.47652705E+00  5.18215230E+05  5.21074469E-13  1.58647153E+10  1.58652335E+10
        14   18       3.11944258E+00  5.10530654E-18  2.40121290E+10  8.64492129E-13  2.40121290E+10
     -----------------------------------------------------------------------------------------------
--

++ Velocity transition strengths (SO states):
   ------------------------------------------
    for osc. strength at least    1.0000000000000001E-005

      From   To        Osc. strength     Einstein coefficients Ax, Ay, Az (sec-1)    Total A (sec-1)
     -----------------------------------------------------------------------------------------------
         1    9       2.76973380E-02  2.10158051E+04  1.00271019E-11  7.06929224E+08  7.06950240E+08
         2   10       2.76973380E-02  2.10158051E+04  1.00271019E-11  7.06929224E+08  7.06950240E+08
         3    9       2.83739674E-02  7.72089065E-16  7.17998956E+08  9.70672681E-12  7.17998956E+08
         4   10       2.83739674E-02  7.72089065E-16  7.17998956E+08  9.70672681E-12  7.17998956E+08
         5    7       4.97948878E-02  1.37304436E+08  5.91496395E-19  7.35750288E+01  1.37304509E+08
         5    9       2.76409252E-05  9.14348425E+04  3.34011603E-18  1.57620948E-01  9.14350001E+04
         5   11       1.22774170E-03  1.43634431E-17  1.61625970E+07  4.93393355E-16  1.61625970E+07
         5   13       1.20117053E-03  1.27780410E+04  5.33906145E-16  1.59094364E+07  1.59222144E+07
         5   15       6.25935763E-04  2.38196454E+07  1.73884371E-17  2.35769060E+04  2.38432223E+07
         6    8       4.97948878E-02  1.37304436E+08  5.91496395E-19  7.35750288E+01  1.37304509E+08
         6   10       2.76409252E-05  9.14348425E+04  3.34011603E-18  1.57620948E-01  9.14350001E+04
         6   12       1.22774170E-03  1.43634431E-17  1.61625970E+07  4.93393355E-16  1.61625970E+07
         6   14       1.20117053E-03  1.27780410E+04  5.33906145E-16  1.59094364E+07  1.59222144E+07
         6   16       6.25935763E-04  2.38196454E+07  1.73884371E-17  2.35769060E+04  2.38432223E+07
         7   11       5.34025728E-03  4.80251327E-19  2.06776491E+07  6.70486598E-16  2.06776491E+07
         7   13       5.31264011E-03  4.57946299E+02  6.68011018E-16  2.08330866E+07  2.08335445E+07
         7   15       2.49069897E-04  5.02933164E+06  3.00600231E-19  3.97838013E+04  5.06911544E+06
         8   12       5.34025728E-03  4.80251327E-19  2.06776491E+07  6.70486598E-16  2.06776491E+07
         8   14       5.31264011E-03  4.57946299E+02  6.68011018E-16  2.08330866E+07  2.08335445E+07
         8   16       2.49069897E-04  5.02933164E+06  3.00600231E-19  3.97838013E+04  5.06911544E+06
         9   11       1.66408920E-05  4.46075904E-19  5.44878074E+04  4.56324497E-18  5.44878074E+04
         9   13       1.51926654E-05  3.74481046E+00  5.55005844E-17  5.04334586E+04  5.04372034E+04
        10   12       1.66408920E-05  4.46075904E-19  5.44878074E+04  4.56324497E-18  5.44878074E+04
        10   14       1.51926654E-05  3.74481046E+00  5.55005844E-17  5.04334586E+04  5.04372034E+04
        11   13       6.35677340E-03  7.25793863E-24  9.98172814E+02  1.08180404E-18  9.98172814E+02
        11   15       2.71003072E-02  4.96701294E-19  1.75335067E+08  6.58379745E-15  1.75335067E+08
        11   17       3.21472675E-02  1.73572193E+03  8.95851183E-15  2.49695330E+08  2.49697066E+08
        12   14       6.35677340E-03  7.25793863E-24  9.98172814E+02  1.08180404E-18  9.98172814E+02
        12   16       2.71003072E-02  4.96701294E-19  1.75335067E+08  6.58379745E-15  1.75335067E+08
        12   18       3.21472675E-02  1.73572193E+03  8.95851183E-15  2.49695330E+08  2.49697066E+08
        13   15       2.64916955E-02  6.67811878E+02  6.92518177E-15  1.69712155E+08  1.69712823E+08
        13   17       3.13121645E-02  9.15529958E-20  2.41028429E+08  9.55695205E-15  2.41028429E+08
        14   16       2.64916955E-02  6.67811878E+02  6.92518177E-15  1.69712155E+08  1.69712823E+08
        14   18       3.13121645E-02  9.15529958E-20  2.41028429E+08  9.55695205E-15  2.41028429E+08
        15   17       4.60182773E-05  3.25469038E-22  2.72615959E+03  1.32919795E-17  2.72615959E+03
        16   18       4.60182773E-05  3.25469038E-22  2.72615959E+03  1.32919795E-17  2.72615959E+03
     -----------------------------------------------------------------------------------------------
--

++ Length and velocity gauge comparison (SO states):

 --------------------------------------------------
 A comparison between the dipole oscillator strengths in 
 length and velocity gauge will be performed

 All dipole oscillator differences above the tolerance of   0.10000000000000001       will be printed 

 Due to basis set deficiency these oscillator may be problematic 

 The tolerance is defined as ABS(1-O_l/O_v) 
 O_l : dipole oscillator strength in length gauge
 O_p : dipole oscillator strength in velocity gauge
 --------------------------------------------------

  Problematic transitions have been found

      From   To       Difference (%) Osc. st. (len.) Osc. st. (vel.)
     ---------------------------------------------------------------
         1    7      ---------------  2.59719357E-04 below threshold
         1    9            26.798446  3.51197941E-02  2.76973380E-02
         1   11      ---------------  1.83580851E-04 below threshold
         1   13      ---------------  2.16514633E-04 below threshold
         1   15      ---------------  4.05337891E-05 below threshold
         1   17      ---------------  1.02256214E-05 below threshold
         2    8      ---------------  2.59719357E-04 below threshold
         2   10            26.798446  3.51197941E-02  2.76973380E-02
         2   12      ---------------  1.83580851E-04 below threshold
         2   14      ---------------  2.16514633E-04 below threshold
         2   16      ---------------  4.05337891E-05 below threshold
         2   18      ---------------  1.02256214E-05 below threshold
         3    7      ---------------  2.52633475E-04 below threshold
         3    9            26.631403  3.59303530E-02  2.83739674E-02
         3   11      ---------------  2.06888694E-04 below threshold
         3   13      ---------------  1.71725356E-04 below threshold
         3   15      ---------------  3.76128791E-05 below threshold
         3   17      ---------------  1.44430526E-05 below threshold
         4    8      ---------------  2.52633475E-04 below threshold
         4   10            26.631403  3.59303530E-02  2.83739674E-02
         4   12      ---------------  2.06888694E-04 below threshold
         4   14      ---------------  1.71725356E-04 below threshold
         4   16      ---------------  3.76128791E-05 below threshold
         4   18      ---------------  1.44430526E-05 below threshold
         5    7            15.217508  5.73724288E-02  4.97948878E-02
         5    9          2005.510034  5.81982453E-04  2.76409252E-05
         5   11         14579.139891  1.80221922E-01  1.22774170E-03
         5   13         13705.178095  1.65823731E-01  1.20117053E-03
         5   15          8318.989901  5.26974687E-02  6.25935763E-04
         5   17      ---------------  4.07204728E-04 below threshold
         6    8            15.217508  5.73724288E-02  4.97948878E-02
         6   10          2005.510034  5.81982453E-04  2.76409252E-05
         6   12         14579.139891  1.80221922E-01  1.22774170E-03
         6   14         13705.178095  1.65823731E-01  1.20117053E-03
         6   16          8318.989901  5.26974687E-02  6.25935763E-04
         6   18      ---------------  4.07204728E-04 below threshold
         7   11          5981.349534  3.24759711E-01  5.34025728E-03
         7   13          5598.984709  3.02766547E-01  5.31264011E-03
         7   15          6562.530130  1.65943570E-02  2.49069897E-04
         7   17      ---------------  8.31680813E-04 below threshold
         8   12          5981.349534  3.24759711E-01  5.34025728E-03
         8   14          5598.984709  3.02766547E-01  5.31264011E-03
         8   16          6562.530130  1.65943570E-02  2.49069897E-04
         8   18      ---------------  8.31680813E-04 below threshold
         9   11          1289.530250  2.31230228E-04  1.66408920E-05
         9   13          1324.475872  2.16415853E-04  1.51926654E-05
         9   15      ---------------  6.13672138E-05 below threshold
        10   12          1289.530250  2.31230228E-04  1.66408920E-05
        10   14          1324.475872  2.16415853E-04  1.51926654E-05
        10   16      ---------------  6.13672138E-05 below threshold
        11   13            77.794515  1.41155235E-03  6.35677340E-03
        11   15          8696.551716  2.38389254E+00  2.71003072E-02
        11   17          9304.562105  3.02330974E+00  3.21472675E-02
        12   14            77.794515  1.41155235E-03  6.35677340E-03
        12   16          8696.551716  2.38389254E+00  2.71003072E-02
        12   18          9304.562105  3.02330974E+00  3.21472675E-02
        13   15          9248.314655  2.47652705E+00  2.64916955E-02
        13   17          9862.398437  3.11944258E+00  3.13121645E-02
        14   16          9248.314655  2.47652705E+00  2.64916955E-02
        14   18          9862.398437  3.11944258E+00  3.13121645E-02
        15   17      --------------- below threshold  4.60182773E-05
        16   18      --------------- below threshold  4.60182773E-05
     ---------------------------------------------------------------

 Number of problematic transitions =                    62

--

 Electric-dipole - electric-octupole not included
++ Total transition strengths for the second-order expansion of the wave vector (SO states):
   -----------------------------------------------------------------------------------------
    for osc. strength at least    1.0000000000000001E-005

      From   To        Osc. strength
     -------------------------------
         5    7       2.60022073E-05
         5   11       1.69905097E-04
         5   13       1.71917989E-04
         6    8       2.60022073E-05
         6   12       1.69905097E-04
         6   14       1.71917989E-04
         7   11       3.19809581E-05
         7   13       3.25223617E-05
         8   12       3.19809581E-05
         8   14       3.25223617E-05
     -------------------------------
--

++ I/O STATISTICS
 
  I. General I/O information
  - - - - - - - - - - - - - - - - - - - - - - - - - - - - - - - - - - - - - - - - - - -
  Unit  Name          Flsize      Write/Read            MBytes           Write/Read
                      (MBytes)       Calls              In/Out           Time, sec.
  - - - - - - - - - - - - - - - - - - - - - - - - - - - - - - - - - - - - - - - - - - -
   1  SCRATCH           0.00 .       9/      45 .      0.0/      0.0 .       0/       0
   2  ANNI              0.00 .       0/       0 .      0.0/      0.0 .       0/       0
   3  RUNFILE          14.82 .     322/   10733 .      2.3/     77.8 .       0/       0
   4  ONEINT            5.45 .       0/   23543 .      0.0/   3734.6 .       0/       0
   5  JOBIPH            6.30 .       0/      92 .      0.0/      0.8 .       0/       0
   6  ORDINT          473.53 .       1/    3789 .      0.0/    947.0 .       0/       0
  - - - - - - - - - - - - - - - - - - - - - - - - - - - - - - - - - - - - - - - - - - -
   *  TOTAL           500.11 .     332/   38202 .      2.3/   4760.2 .       0/       0
  - - - - - - - - - - - - - - - - - - - - - - - - - - - - - - - - - - - - - - - - - - -
 
  II. I/O Access Patterns
  - - - - - - - - - - - - - - - - - - - -
  Unit  Name               % of random
                         Write/Read calls
  - - - - - - - - - - - - - - - - - - - -
   1  SCRATCH             88.9/ 100.0
   2  ANNI                 0.0/   0.0
   3  RUNFILE             28.6/  10.8
   4  ONEINT               0.0/  16.4
   5  JOBIPH               0.0/  76.1
   6  ORDINT             100.0/   0.1
  - - - - - - - - - - - - - - - - - - - -
--
--- Stop Module: rassi at Wed Mar 26 11:19:38 2025 /rc=_RC_ALL_IS_WELL_ ---
*** files: xmldump
    saved to directory /home4/s4752295/Internship/Initial_simulations/Point_charge_model/1_electron/Madelung_charges_9_active_space/V
--- Module rassi spent 2 seconds ---

.##################.
.# Happy landing! #.
.##################.

    Timing: Wall=41.16 User=33.21 System=6.52

###############################################################################
Hbrk Cluster
Job 15905523 for user s4752295
Finished at: Wed Mar 26 11:19:42 CET 2025

Job details:
============

Job ID                         : 15905523
Name                           : V_no_SO
User                           : s4752295
Partition                      : regularmedium
Nodes                          : node92
Number of Nodes                : 1
Cores                          : 1
Number of Tasks                : 1
State                          : COMPLETED  
Submit                         : 2025-03-26T11:18:46
Start                          : 2025-03-26T11:18:53
End                            : 2025-03-26T11:19:38
Reserved walltime              : 15:00:00
Used walltime                  : 00:00:45
Used CPU time                  : 00:00:41 (Efficiency: 90.70%)
% User (Computation)           : 83.54%
% System (I/O)                 : 16.46%
Total memory reserved          : 25000M
Maximum memory used            : 51.98M

Acknowledgements:
=================

Please see this page for information about acknowledging Hbrk in your publications:

https://wiki.hpc.rug.nl/habrok/introduction/scientific_output

################################################################################
