   This run of MOLCAS is using the pymolcas driver

                             OPE
                             OPE          NMOL  CASOP  ENMOLC A   SO
                 OPE        NMOLC        AS  OP EN  MO LC     AS  OP
                OPENM       OL CA        SO  PE NM  OL CA     SOP EN
                OP EN      MO   LC       AS  OP ENMOL  CASO   PENMOL
                OP  EN     MO   LC       AS  OP EN     MO     LC ASO
               OP   E  NMOL  C  AS       OP  EN MO     LC     AS  OP
               OP  E   NMO   LC AS        OPEN  MO     LCASOP EN   M
               O  PEN   MO  LCA  SO
            OPE   NMO   L   CAS    OP
        OPENMOL  CASOP     ENMOL   CASOPE
     OPENMOLCA   SOPENMOLCASOPEN   MOLCASOPE
    OPENMOLCAS   OP           EN   MOL    CAS
    OPENMOLCAS       OP  ENM        O     LCA
    OPENMOLCAS    OPEN  MOLCASO     P  E  NMO
    OPENMOLCAS     OP               E  N  MOL
    OPENMOLCA   SO           PENM   O  L  CAS    OPEN    MO    LCAS
    OPENMOLCA   SOP           ENM   O  L  CAS   OP  EN  MOLC  AS   O
    OPENMOLCA   SOPE           NM      O  LCA   S      OP  EN MO
    OPENMOLC                AS         O  PEN   M      OL  CA  SOPE
    OPENMO        LCASOPE  NMOL        C  ASO   P      ENMOLC     AS
    OPE     NMO      LCA  SO     P     E   NM   OL  CA SO  PE N   MO
          OPENMOLCA            SOPE   NMO        LCAS  O    P  ENMO
     OPENMOLCASOPENMOLCASOPENMOLCASOPENMOLCA
        OPENMOLCASOPENMOLCASOPENMOLCASOPE
            OPENMOLCASOPENMOLCASOPENM
               OPENMOLCASOPENMOLCA        version: o91e1abe7de707b ?
                   OPENMOLCASO
                       OPE                tag:

 OpenMolcas is free software; you can redistribute it and/or modify it
 under the terms of the GNU Lesser General Public License version 2.1.
 OpenMolcas is distributed in the hope that it will be useful, but it
 is provided "as is" and without any express or implied warranties.
 For more details see the full text of the license in the file
 LICENSE or in <http://www.gnu.org/licenses/>.

                 Copyright (C) The OpenMolcas Authors
           For the author list and the recommended citation,
                   consult the file CONTRIBUTORS.md

           *************************************************
           * pymolcas version py2.10                       *
           *   build 3068ae8b88c9345ec6cfef6fef7f1169      *
           *   (after the EMIL interpreter by V. Veryazov) *
           *************************************************

configuration info
------------------
Host name: login1 (Linux)
C Compiler ID: GNU
C flags: -std=gnu99
Fortran Compiler ID: GNU
Fortran flags: -fno-aggressive-loop-optimizations -cpp -fdefault-integer-8 -fmax-stack-var-size=1048576
Definitions: _MOLCAS_;_I8_;_LINUX_;_MKL_
Parallel: OFF (GA=OFF)


   ----------------------------------------------------------------------------------------------------------------------------------
  |
  |           Project: vanadium_so_cf
  |    Submitted from: /home4/s4752295/Internship/Initial_simulations/Point_charge_model/1_electron/Madelung_charges_9_active_space/V
  |      Scratch area: /tmp/vanadium_so_cf
  |   Save outputs to: /home4/s4752295/Internship/Initial_simulations/Point_charge_model/1_electron/Madelung_charges_9_active_space/V
  |            Molcas: /home4/s4752295/Internship/Molcas/recomp_try/OpenMolcas-master/build
  |
  | Scratch area is empty
  |
  |    MOLCAS_DRIVER = /home4/s4752295/Internship/Molcas/bin/pymolcas
  |    MOLCAS_NPROCS = 1
  |    MOLCAS_SOURCE = /home4/s4752295/Internship/Molcas/recomp_try/OpenMolcas-master
  | MOLCAS_STRUCTURE = 0
  |
   ----------------------------------------------------------------------------------------------------------------------------------

++ ---------   Input file   ---------

&SEWARD
AMFi

CLIG
$R

Basis Set
V.ANO-rcc.Roos.21s15p10d6f4g2h.10s9p8d6f4g2h.
Spherical d
V            -1.0658140267135469e-14    -3.5527134223784897e-15 0.008753588724385739
End of Basis

Xfield

414
-8.00440216,-3.08,1.778238      -0.625931
-8.00440216,-0.0,-3.556478      -0.625931
-8.00440216,3.08,1.778238       -0.625931
-7.99069214,0.0,0.0     1.892092
5.31835938,-3.08,-1.778238      2.515516
5.31835938,0.0,3.556478 2.515516
5.31835938,3.08,-1.778238       2.515516
7.12597656,-6.16,0.0    0.004632
7.12597656,-3.08,-5.334716      0.004632
7.12597656,-3.08,5.334716       0.004632
7.12597656,3.08,-5.334716       0.004632
7.12597656,3.08,5.334716        0.004632
7.12597656,6.16,0.0     0.004632
8.25830078,-3.08,1.778238       -2.519484
8.25830078,-0.0,-3.556478       -2.519484
8.25830078,3.08,1.778238        -2.519484
-5.86621094,-0.0,-0.0   -3.142907
-9.95019532,-6.16,-3.556478     -0.625931
-9.95019532,0.0,7.112954        -0.625931
-9.95019532,6.16,-3.556478      -0.625931
-13.21875,-6.16,0.0     1.892092
-13.21875,-3.08,-5.334716       1.892092
-13.21875,-3.08,5.334716        1.892092
-13.21875,3.08,-5.334716        1.892092
-13.21875,3.08,5.334716 1.892092
-13.21875,6.16,0.0      1.892092
50.34375,-6.16,3.556478 2.515516
50.34375,-0.0,-7.112954 2.515516
50.34375,6.16,3.556478  2.515516
7.27734376,-6.16,-3.556478      -2.519484
7.27734376,0.0,7.112954 -2.519484
7.27734376,6.16,-3.556478       -2.519484
-6.46484376,-6.16,-0.0  -3.142907
-6.46484376,-3.08,-5.334716     -3.142907
-6.46484376,-3.08,5.334716      -3.142907
-6.46484376,3.08,-5.334716      -3.142907
-6.46484376,3.08,5.334716       -3.142907
-6.46484376,6.16,-0.0   -3.142907
-19.046875,-6.16,7.112954       -0.625931
-19.046875,6.16,7.112954        -0.625931
-19.046875,-9.24,1.778238       -0.625931
-19.046875,9.24,1.778238        -0.625931
-19.046875,-3.08,-8.891194      -0.625931
-19.046875,3.08,-8.891194       -0.625931
12.015625,-3.08,-1.778238       4.409069
12.015625,3.08,-1.778238        4.409069
12.015625,0.0,3.556478  4.409069
-350.5,-0.0,-0.0        -5.030367
-350.5,0.0,0.0  5.039632
27.03515624,-6.16,-7.112954     2.515516
27.03515624,6.16,-7.112954      2.515516
27.03515624,-9.24,-1.778238     2.515516
27.03515624,9.24,-1.778238      2.515516
27.03515624,-3.08,8.891194      2.515516
27.03515624,3.08,8.891194       2.515516
38.078125,-9.24,-5.334716       0.004632
38.078125,-9.24,5.334716        0.004632
38.078125,9.24,-5.334716        0.004632
38.078125,9.24,5.334716 0.004632
38.078125,-0.0,-10.669432       0.004632
38.078125,0.0,10.669432 0.004632
96.15625,-6.16,7.112954 -2.519484
96.15625,6.16,7.112954  -2.519484
96.15625,-9.24,1.778238 -2.519484
96.15625,9.24,1.778238  -2.519484
96.15625,-3.08,-8.891194        -2.519484
96.15625,3.08,-8.891194 -2.519484
-291.75,-9.24,-5.334716 1.892092
-291.75,-9.24,5.334716  1.892092
-291.75,9.24,-5.334716  1.892092
-291.75,9.24,5.334716   1.892092
-291.75,-0.0,-10.669432 1.892092
-291.75,0.0,10.669432   1.892092
-235.5,-6.16,3.556478   4.409069
-235.5,-0.0,-7.112954   4.409069
-235.5,6.16,3.556478    4.409069
-178.0,-6.16,-0.0       -5.030367
-178.0,-3.08,-5.334716  -5.030367
-178.0,-3.08,5.334716   -5.030367
-178.0,3.08,-5.334716   -5.030367
-178.0,-6.16,0.0        5.039632
-178.0,6.16,-0.0        -5.030367
-178.0,3.08,5.334716    -5.030367
-178.0,-3.08,-5.334716  5.039632
-178.0,-3.08,5.334716   5.039632
-178.0,3.08,-5.334716   5.039632
-178.0,6.16,0.0 5.039632
-178.0,3.08,5.334716    5.039632
-93.25,-3.08,-1.778238  -5.660931
-93.25,0.0,3.556478     -5.660931
-93.25,3.08,-1.778238   -5.660931
1.765625,-12.319998,0.0 0.004632
1.765625,-6.16,-10.669432       0.004632
1.765625,-6.16,10.669432        0.004632
1.765625,6.16,-10.669432        0.004632
1.765625,12.319998,0.0  0.004632
1.765625,6.16,10.669432 0.004632
135.875,-9.24,5.334716  -3.142907
135.875,-9.24,-5.334716 -3.142907
135.875,9.24,-5.334716  -3.142907
135.875,9.24,5.334716   -3.142907
135.875,-0.0,-10.669432 -3.142907
135.875,0.0,10.669432   -3.142907
172.75,-12.319998,-3.556478     -0.625931
172.75,-9.24,-8.891194  -0.625931
172.75,-3.08,12.44767   -0.625931
172.75,9.24,-8.891194   -0.625931
172.75,12.319998,-3.556478      -0.625931
172.75,3.08,12.44767    -0.625931
2.39453124,-12.319998,0.0       1.892092
2.39453124,-6.16,-10.669432     1.892092
2.39453124,-6.16,10.669432      1.892092
2.39453124,6.16,-10.669432      1.892092
2.39453124,12.319998,0.0        1.892092
2.39453124,6.16,10.669432       1.892092
67.6875,-6.16,-7.112954 4.409069
67.6875,6.16,-7.112954  4.409069
67.6875,-9.24,-1.778238 4.409069
67.6875,9.24,-1.778238  4.409069
67.6875,-3.08,8.891194  4.409069
67.6875,3.08,8.891194   4.409069
324.8125,-6.16,3.556478 -5.660931
324.8125,-0.0,-7.112954 -5.660931
324.8125,6.16,3.556478  -5.660931
0.6875,-12.319998,3.556478      2.515516
0.6875,-3.08,-12.44767  2.515516
0.6875,-9.24,8.891194   2.515516
0.6875,3.08,-12.44767   2.515516
0.6875,12.319998,3.556478       2.515516
0.6875,9.24,8.891194    2.515516
-188.375,-12.319998,-3.556478   -2.519484
-188.375,-9.24,-8.891194        -2.519484
-188.375,-3.08,12.44767 -2.519484
-188.375,9.24,-8.891194 -2.519484
-188.375,3.08,12.44767  -2.519484
-188.375,12.319998,-3.556478    -2.519484
-44.140625,-12.319998,-0.0      -3.142907
-44.140625,-6.16,-10.669432     -3.142907
-44.140625,-6.16,10.669432      -3.142907
-44.140625,6.16,-10.669432      -3.142907
-44.140625,6.16,10.669432       -3.142907
-44.140625,12.319998,-0.0       -3.142907
1213.0,0.0,0.0  6.927092
646.5,-12.319998,7.112954       -0.625931
646.5,12.319998,7.112954        -0.625931
646.5,-0.0,-14.22591    -0.625931
-10.84375,-9.24,5.334716        -5.030367
-10.84375,-9.24,-5.334716       -5.030367
-10.84375,-9.24,5.334716        5.039632
-10.84375,-9.24,-5.334716       5.039632
-10.84375,9.24,-5.334716        -5.030367
-10.84375,9.24,5.334716 -5.030367
-10.84375,9.24,-5.334716        5.039632
-10.84375,9.24,5.334716 5.039632
-10.84375,-0.0,-10.669432       -5.030367
-10.84375,0.0,10.669432 -5.030367
-10.84375,-0.0,-10.669432       5.039632
-10.84375,0.0,10.669432 5.039632
183.625,-6.16,-7.112954 -5.660931
183.625,6.16,-7.112954  -5.660931
183.625,-9.24,-1.778238 -5.660931
183.625,9.24,-1.778238  -5.660931
183.625,-3.08,8.891194  -5.660931
183.625,3.08,8.891194   -5.660931
601.0,-12.319998,-7.112954      2.515516
601.0,12.319998,-7.112954       2.515516
601.0,0.0,14.22591      2.515516
-1034.5,-12.319998,7.112954     -2.519484
-1034.5,12.319998,7.112954      -2.519484
-1034.5,-0.0,-14.22591  -2.519484
107.125,-6.16,0.0       6.927092
107.125,-3.08,-5.334716 6.927092
107.125,-3.08,5.334716  6.927092
107.125,3.08,-5.334716  6.927092
107.125,3.08,5.334716   6.927092
107.125,6.16,0.0        6.927092
-110.5,-3.08,1.778238   7.550516
-110.5,0.0,-3.556478    7.550516
-110.5,3.08,1.778238    7.550516
31.0625,-3.08,-1.778238 -7.554483
31.0625,3.08,-1.778238  -7.554483
31.0625,-0.0,3.556478   -7.554483
-249.75,-15.399998,1.778238     -0.625931
-249.75,-9.24,12.44767  -0.625931
-249.75,-6.16,-14.22591 -0.625931
-249.75,6.16,-14.22591  -0.625931
-249.75,15.399998,1.778238      -0.625931
-249.75,9.24,12.44767   -0.625931
-134.875,-12.319998,3.556478    4.409069
-134.875,-9.24,8.891194 4.409069
-134.875,-3.08,-12.44767        4.409069
-134.875,3.08,-12.44767 4.409069
-134.875,9.24,8.891194  4.409069
-134.875,12.319998,3.556478     4.409069
98.3125,-12.319998,-0.0 -5.030367
98.3125,-6.16,-10.669432        -5.030367
98.3125,-6.16,10.669432 -5.030367
98.3125,-12.319998,0.0  5.039632
98.3125,-6.16,-10.669432        5.039632
98.3125,6.16,-10.669432 -5.030367
98.3125,6.16,10.669432  -5.030367
98.3125,12.319998,-0.0  -5.030367
98.3125,-6.16,10.669432 5.039632
98.3125,6.16,-10.669432 5.039632
98.3125,12.319998,0.0   5.039632
98.3125,6.16,10.669432  5.039632
361.5,-15.399998,-1.778238      2.515516
361.5,-9.24,-12.44767   2.515516
361.5,-6.16,14.22591    2.515516
361.5,9.24,-12.44767    2.515516
361.5,15.399998,-1.778238       2.515516
361.5,6.16,14.22591     2.515516
-46.6875,-15.399998,-5.334716   0.004632
-46.6875,-15.399998,5.334716    0.004632
-46.6875,-12.319998,-10.669432  0.004632
-46.6875,-12.319998,10.669432   0.004632
-46.6875,-3.08,-16.004148       0.004632
-46.6875,3.08,-16.004148        0.004632
-46.6875,-3.08,16.004148        0.004632
-46.6875,12.319998,-10.669432   0.004632
-46.6875,3.08,16.004148 0.004632
-46.6875,15.399998,-5.334716    0.004632
-46.6875,15.399998,5.334716     0.004632
-46.6875,12.319998,10.669432    0.004632
-286.25,-15.399998,1.778238     -2.519484
-286.25,-9.24,12.44767  -2.519484
-286.25,-6.16,-14.22591 -2.519484
-286.25,6.16,-14.22591  -2.519484
-286.25,15.399998,1.778238      -2.519484
-286.25,9.24,12.44767   -2.519484
6064.0,-0.0,-0.0        -8.177907
-232.0,-6.16,-3.556478  7.550516
-232.0,0.0,7.112954     7.550516
-232.0,6.16,-3.556478   7.550516
-1207.0,-6.16,3.556478  -7.554483
-1207.0,-0.0,-7.112954  -7.554483
-1207.0,6.16,3.556478   -7.554483
97.8125,-15.399998,5.334716     1.892092
97.8125,-15.399998,-5.334716    1.892092
97.8125,-12.319998,-10.669432   1.892092
97.8125,-12.319998,10.669432    1.892092
97.8125,-3.08,-16.004148        1.892092
97.8125,3.08,-16.004148 1.892092
97.8125,-3.08,16.004148 1.892092
97.8125,12.319998,-10.669432    1.892092
97.8125,3.08,16.004148  1.892092
97.8125,15.399998,-5.334716     1.892092
97.8125,15.399998,5.334716      1.892092
97.8125,12.319998,10.669432     1.892092
-1010.0,-12.319998,-7.112954    4.409069
-1010.0,12.319998,-7.112954     4.409069
-1010.0,0.0,14.22591    4.409069
51.640625,-12.319998,3.556478   -5.660931
51.640625,-3.08,-12.44767       -5.660931
51.640625,-9.24,8.891194        -5.660931
51.640625,3.08,-12.44767        -5.660931
51.640625,9.24,8.891194 -5.660931
51.640625,12.319998,3.556478    -5.660931
-116.375,-12.319998,-10.669432  -3.142907
-116.375,-15.399998,5.334716    -3.142907
-116.375,-15.399998,-5.334716   -3.142907
-116.375,-12.319998,10.669432   -3.142907
-116.375,-3.08,-16.004148       -3.142907
-116.375,3.08,-16.004148        -3.142907
-116.375,-3.08,16.004148        -3.142907
-116.375,15.399998,-5.334716    -3.142907
-116.375,12.319998,-10.669432   -3.142907
-116.375,3.08,16.004148 -3.142907
-116.375,15.399998,5.334716     -3.142907
-116.375,12.319998,10.669432    -3.142907
130.8125,-9.24,-5.334716        6.927092
130.8125,-9.24,5.334716 6.927092
130.8125,9.24,-5.334716 6.927092
130.8125,9.24,5.334716  6.927092
130.8125,-0.0,-10.669432        6.927092
130.8125,0.0,10.669432  6.927092
-166.5,-6.16,-0.0       -8.177907
-166.5,-3.08,5.334716   -8.177907
-166.5,-3.08,-5.334716  -8.177907
-166.5,3.08,-5.334716   -8.177907
-166.5,6.16,-0.0        -8.177907
-166.5,3.08,5.334716    -8.177907
-181.8125,-6.16,7.112954        7.550516
-181.8125,6.16,7.112954 7.550516
-181.8125,-9.24,1.778238        7.550516
-181.8125,9.24,1.778238 7.550516
-181.8125,-3.08,-8.891194       7.550516
-181.8125,3.08,-8.891194        7.550516
-91.375,-6.16,-7.112954 -7.554483
-91.375,6.16,-7.112954  -7.554483
-91.375,-9.24,-1.778238 -7.554483
-91.375,9.24,-1.778238  -7.554483
-91.375,-3.08,8.891194  -7.554483
-91.375,3.08,8.891194   -7.554483
-1000.5,0.0,17.782386   -0.625931
-1000.5,-15.399998,-8.891194    -0.625931
-1000.5,15.399998,-8.891194     -0.625931
-539.5,-15.399998,-1.778238     4.409069
-539.5,-9.24,-12.44767  4.409069
-539.5,-6.16,14.22591   4.409069
-539.5,9.24,-12.44767   4.409069
-539.5,15.399998,-1.778238      4.409069
-539.5,6.16,14.22591    4.409069
620.75,-12.319998,-7.112954     -5.660931
620.75,12.319998,-7.112954      -5.660931
620.75,0.0,14.22591     -5.660931
1174.0,-0.0,-17.782386  2.515516
1174.0,-15.399998,8.891194      2.515516
1174.0,15.399998,8.891194       2.515516
-187.75,-18.479998,-0.0 0.004632
-187.75,9.24,-16.004148 0.004632
-187.75,-9.24,16.004148 0.004632
-187.75,18.479998,-0.0  0.004632
-187.75,-9.24,-16.004148        0.004632
-187.75,9.24,16.004148  0.004632
-771.5,0.0,17.782386    -2.519484
-771.5,-15.399998,-8.891194     -2.519484
-771.5,15.399998,-8.891194      -2.519484
456.0,-12.319998,0.0    6.927092
456.0,-6.16,-10.669432  6.927092
456.0,-6.16,10.669432   6.927092
456.0,6.16,-10.669432   6.927092
456.0,12.319998,0.0     6.927092
456.0,6.16,10.669432    6.927092
423.75,-18.479998,-3.556478     -0.625931
423.75,-6.16,17.782386  -0.625931
423.75,-12.319998,-14.22591     -0.625931
423.75,12.319998,-14.22591      -0.625931
423.75,6.16,17.782386   -0.625931
423.75,18.479998,-3.556478      -0.625931
223.875,-18.479998,0.0  1.892092
223.875,-9.24,-16.004148        1.892092
223.875,-9.24,16.004148 1.892092
223.875,9.24,-16.004148 1.892092
223.875,18.479998,0.0   1.892092
223.875,9.24,16.004148  1.892092
-8.640625,-15.399998,5.334716   -5.030367
-8.640625,-15.399998,-5.334716  -5.030367
-8.640625,-12.319998,-10.669432 -5.030367
-8.640625,-12.319998,10.669432  -5.030367
-8.640625,-15.399998,5.334716   5.039632
-8.640625,3.08,-16.004148       -5.030367
-8.640625,-3.08,-16.004148      -5.030367
-8.640625,-15.399998,-5.334716  5.039632
-8.640625,-12.319998,-10.669432 5.039632
-8.640625,-3.08,16.004148       -5.030367
-8.640625,3.08,-16.004148       5.039632
-8.640625,-12.319998,10.669432  5.039632
-8.640625,-3.08,-16.004148      5.039632
-8.640625,12.319998,-10.669432  -5.030367
-8.640625,3.08,16.004148        -5.030367
-8.640625,15.399998,-5.334716   -5.030367
-8.640625,15.399998,5.334716    -5.030367
-8.640625,12.319998,10.669432   -5.030367
-8.640625,-3.08,16.004148       5.039632
-8.640625,12.319998,-10.669432  5.039632
-8.640625,15.399998,-5.334716   5.039632
-8.640625,3.08,16.004148        5.039632
-8.640625,15.399998,5.334716    5.039632
-8.640625,12.319998,10.669432   5.039632
-1.375,-15.399998,-1.778238     -5.660931
-1.375,-9.24,-12.44767  -5.660931
-1.375,-6.16,14.22591   -5.660931
-1.375,9.24,-12.44767   -5.660931
-1.375,6.16,14.22591    -5.660931
-1.375,15.399998,-1.778238      -5.660931
232.0,-3.08,1.778238    9.444068
232.0,0.0,-3.556478     9.444068
232.0,3.08,1.778238     9.444068
102.625,-18.479998,3.556478     2.515516
102.625,-6.16,-17.782386        2.515516
102.625,6.16,-17.782386 2.515516
102.625,-12.319998,14.22591     2.515516
102.625,18.479998,3.556478      2.515516
102.625,12.319998,14.22591      2.515516
313.75,-18.479998,-3.556478     -2.519484
313.75,-6.16,17.782386  -2.519484
313.75,-12.319998,-14.22591     -2.519484
313.75,12.319998,-14.22591      -2.519484
313.75,18.479998,-3.556478      -2.519484
313.75,6.16,17.782386   -2.519484
439.25,-18.479998,-0.0  -3.142907
439.25,-9.24,-16.004148 -3.142907
439.25,-9.24,16.004148  -3.142907
439.25,9.24,-16.004148  -3.142907
439.25,18.479998,-0.0   -3.142907
439.25,9.24,16.004148   -3.142907
17.29101562,-9.24,-5.334716     -8.177907
17.29101562,-9.24,5.334716      -8.177907
17.29101562,9.24,5.334716       -8.177907
17.29101562,9.24,-5.334716      -8.177907
17.29101562,-0.0,-10.669432     -8.177907
17.29101562,0.0,10.669432       -8.177907
503.75,-9.24,-8.891194  7.550516
503.75,-12.319998,-3.556478     7.550516
503.75,-3.08,12.44767   7.550516
503.75,9.24,-8.891194   7.550516
503.75,3.08,12.44767    7.550516
503.75,12.319998,-3.556478      7.550516
-696.0,-9.24,8.891194   -7.554483
-696.0,-12.319998,3.556478      -7.554483
-696.0,-3.08,-12.44767  -7.554483
-696.0,3.08,-12.44767   -7.554483
-696.0,12.319998,3.556478       -7.554483
-696.0,9.24,8.891194    -7.554483
142.53125,-15.399998,12.44767   -0.625931
142.53125,-18.479998,7.112954   -0.625931
142.53125,-3.08,-19.560626      -0.625931
142.53125,3.08,-19.560626       -0.625931
142.53125,18.479998,7.112954    -0.625931
142.53125,15.399998,12.44767    -0.625931
-967.5,-0.0,-17.782386  4.409069
-967.5,-15.399998,8.891194      4.409069
-967.5,15.399998,8.891194       4.409069

End of input

&SCF
Occupied
9
Iterations
   50  100
End of Input

&RASSCF
LumOrb
Symmetry
1
Spin
2
Nactel
1 0 0
CIRoot
9 9 1
inactive
9
ras2
9
End of Input

>>> COPY vanadium_so_cf.JobIph $SLURM_SUBMIT_DIR/vanadium_so_cf.doublet.JobIph

>>> COPY $SLURM_SUBMIT_DIR/vanadium_so_cf.doublet.JobIph ./JOB002

&RASSI
NROFJobIph
1 All
SpinOrbit
End of Input

EOF

-- ----------------------------------

--- Start Module: seward at Thu Mar 27 00:12:26 2025 ---

()()()()()()()()()()()()()()()()()()()()()()()()()()()()()()()()()()()()()()()()()()()()()()()()()()

                                              &SEWARD

                                   only a single process is used
                       available to each process: 4.1 GB of memory, 1 thread?
                                            pid: 1938396
()()()()()()()()()()()()()()()()()()()()()()()()()()()()()()()()()()()()()()()()()()()()()()()()()()

 The speed of LIGHT in this CALCULATION =   137.03599917700001     
               SEWARD will generate:
                  Multipole Moment integrals up to order  2
                  Kinetic Energy integrals
                  Nuclear Attraction integrals (point charge)
                  One-Electron Hamiltonian integrals
                  Velocity integrals
                  Relativistic Douglas-Kroll-Hess integrals:
                    - Parametrization         : EXP
                    - DKH order of Hamiltonian: 2
                    - DKH order of Properties : 0
                         - multipole moment operators
                         - electric potential operators
                         - contact operators
                  External field from   414 point(s) added to the one-electron Hamiltonian
                  Orbital angular momentum around (-0.0000 -0.0000  0.0088 )
                  Velocity quadrupole around (-0.0000 -0.0000  0.0088 )
                  Atomic mean-field integrals
                  Two-Electron Repulsion integrals

                   Integrals are discarded if absolute value <: 0.10E-13
                   Integral cutoff threshold is set to       <: 0.10E-15

++    Symmetry information:
      ---------------------

                    Character Table for C1 

                             E  
                    a        1  x, y, xy, Rz, z, xz, Ry, yz, Rx, I
--


++    Basis set information:
      ----------------------


      Basis set label: V.ANO-RCC.ROOS.21S15P10D6F4G2H.10S9P8D6F4G2H......

      Electronic valence basis set:
      ------------------
      Associated Effective Charge  23.000000 au
      Associated Actual Charge     23.000000 au
      Nuclear Model: Point charge

      Shell  nPrim  nBasis  Cartesian Spherical Contaminant
         s      21      10        X                  
         p      15       9        X                  
         d      10       8                 X         
         f       6       6                 X         
         g       4       4                 X         
         h       2       2                 X         
--


++    Molecular structure info:
      -------------------------

                    ************************************************ 
                    **** Cartesian Coordinates / Bohr, Angstrom **** 
                    ************************************************ 

     Center  Label                x              y              z                     x              y              z
        1      V               -0.000000      -0.000000       0.008754             -0.000000      -0.000000       0.004632
--


++    Operator info:
      --------------


  Net charge from external field:   -39.268449999999902     
--


            Nuclear Potential Energy              0.00000000 au

                    Nuclear-External Field Potential Energy    -105.21315597 au
                    External Field Potential Energy             802.81845069 au 


            Total Nuclear Potential Energy           -105.21315597 au


      Basis set specifications :
      Symmetry species         a  
      Basis functions          177

 Sorry, Molden does not know how to handle
 functions with angular momentum larger than g
Note: The following floating-point exceptions are signalling: IEEE_UNDERFLOW_FLAG IEEE_DENORMAL
--- Stop Module: seward at Thu Mar 27 00:12:34 2025 /rc=_RC_ALL_IS_WELL_ ---
*** files: vanadium_so_cf.GssOrb xmldump
    saved to directory /home4/s4752295/Internship/Initial_simulations/Point_charge_model/1_electron/Madelung_charges_9_active_space/V
--- Module seward spent 8 seconds ---

*** symbolic link created: INPORB -> vanadium_so_cf.GssOrb
--- Start Module: scf at Thu Mar 27 00:12:34 2025 ---

()()()()()()()()()()()()()()()()()()()()()()()()()()()()()()()()()()()()()()()()()()()()()()()()()()

                                                &SCF

                                   only a single process is used
                       available to each process: 4.1 GB of memory, 1 thread?
                                            pid: 1938407
()()()()()()()()()()()()()()()()()()()()()()()()()()()()()()()()()()()()()()()()()()()()()()()()()()

++    Input section:
      --------------

      Header of the integral files:
      
       Integrals generated by seward 4.2.0  , Thu Mar 27 00:12:26 2025


      Cartesian coordinates in Angstrom:
      -----------------------------------------------------
      No.  Label        X            Y            Z        
      -----------------------------------------------------
       1   V         -0.00000000  -0.00000000   0.00463220
      -----------------------------------------------------
      Nuclear repulsion energy = -105.21315597
--

++    Orbital specifications:
      -----------------------

      Symmetry species               1
                                     a
      Frozen orbitals                0
      Occupied orbitals              9
      Secondary orbitals           168
      Deleted orbitals               0
      Total number of orbitals     177
      Number of basis functions    177
--

      Molecular charge                           5.000

++    Optimization specifications:
      ----------------------------

      SCF Algorithm: Conventional
      Minimized density differences are used
      Number of density matrices in core                5
      Maximum number of NDDO SCF iterations            50
      Maximum number of HF SCF iterations             100
      Threshold for SCF energy change            0.10E-08
      Threshold for density matrix               0.10E-03
      Threshold for Fock matrix                  0.15E-03
      Threshold for linear dependence            0.10E-08
      Threshold at which DIIS is turned on       0.15E+00
      Threshold at which QNR/C2DIIS is turned on 0.75E-01
      Threshold for Norm(delta) (QNR/C2DIIS)     0.20E-04
      DIIS extrapolation of the SCF procedure
      All orbitals punched on: SCFORB
--

      Detected guessorb starting orbitals                                             


++ Convergence information
                                   SCF        iterations: Energy and convergence statistics

Iter     Tot. SCF        One-elec.       Two-elec.     Energy      Max Dij or  Max Fij      DNorm      TNorm      AccCon     Time
         Energy          Energy          Energy        Change      Delta Norm                                                in Sec.
   1  -964.896191912 -1149.162803558   289.479767612   0.00E+00    0.12E+00*   0.26E+00*    0.60E+01   0.22E+03   None         1.
   2  -965.247380710 -1158.246025918   298.211801174  -0.35E+00*   0.13E-01*   0.54E-01*    0.89E+00   0.22E+03   EDIIS        1.
   3  -965.253918067 -1157.104823076   297.064060975  -0.65E-02*   0.46E-02*   0.10E-01*    0.80E-01   0.22E+03   EDIIS        1.
   4  -965.254124957 -1157.302736206   297.261767215  -0.21E-03*   0.30E-03*   0.15E-02*    0.87E-02   0.22E+03   c2DIIS       1.
   5  -965.254133940 -1157.276808474   297.235830499  -0.90E-05*   0.80E-04*   0.12E-03     0.84E-03   0.22E+03   QNRc2DIIS    1.
   6  -965.254133985 -1157.276270344   297.235292325  -0.45E-07*   0.17E-04    0.23E-04     0.11E-03   0.22E+03   QNRc2DIIS    1.
   7  -965.254133987 -1157.276376784   297.235398763  -0.22E-08*   0.22E-05    0.31E-05     0.13E-04   0.22E+03   QNRc2DIIS    1.
   8  -965.254133987 -1157.276391941   297.235413919  -0.32E-10    0.10E-05    0.13E-05     0.21E-03   0.22E+03   QNRc2DIIS    1.

       Convergence after  8 Macro Iterations
--

 *****************************************************************************************************************************
 *                                                                                                                           *
 *                                             SCF/KS-DFT Program, Final results                                             *
 *                                                                                                                           *
 *                                                                                                                           *
 *                                                                                                                           *
 *                                                       Final Results                                                       *
 *                                                                                                                           *
 *****************************************************************************************************************************

::    Total SCF energy                               -965.2541339871
      One-electron energy                           -1157.2763919410
      Two-electron energy                             297.2354139194
      Nuclear repulsion energy                       -105.2131559655
      Kinetic energy (interpolated)                   974.2533766162
      Virial theorem                                    0.9907629341
      Total spin, S(S+1)                                0.0000000000
      Total spin, S                                     0.0000000000
      Max non-diagonal density matrix element           0.0000015660
      Max non-diagonal Fock matrix element              0.0000006138


      All orbitals with orbital energies smaller than  E(LUMO)+0.5 are printed

++    Molecular orbitals:
      -------------------

      Title: SCF orbitals

      Molecular orbitals for symmetry species 1: a  

          Orbital            1         2         3         4         5         6         7         8         9        10    
          Energy         -201.2609  -22.6454  -18.5428  -18.5428  -18.5425   -1.4191   -0.1537   -0.1537   -0.1420    2.2387
          Occ. No.          2.0000    2.0000    2.0000    2.0000    2.0000    2.0000    2.0000    2.0000    2.0000    0.0000

        1 V      1s         1.0000   -0.0001    0.0000   -0.0000   -0.0000    0.0001   -0.0000   -0.0000    0.0000    0.0000
        2 V      2s         0.0001    1.0000    0.0000   -0.0000   -0.0018    0.0013    0.0000    0.0000   -0.0005    0.0000
        3 V      3s        -0.0000   -0.0014   -0.0000    0.0000    0.0006    0.9950    0.0000    0.0000   -0.0653   -0.0000
        4 V      4s         0.0000    0.0000    0.0000   -0.0000   -0.0001   -0.0410   -0.0000   -0.0000    0.0157   -0.0000
        5 V      5s        -0.0000   -0.0001   -0.0000    0.0000    0.0001    0.0336    0.0000    0.0000   -0.0139    0.0000
        6 V      6s         0.0000    0.0002    0.0000   -0.0000   -0.0002   -0.0495   -0.0000   -0.0000    0.0195   -0.0000
        7 V      7s        -0.0000   -0.0001   -0.0000    0.0000    0.0001    0.0027    0.0000   -0.0000   -0.0002   -0.0000
        8 V      8s         0.0000   -0.0001    0.0000   -0.0000   -0.0000    0.0074    0.0000    0.0000   -0.0032   -0.0000
        9 V      9s        -0.0000    0.0001    0.0000   -0.0000   -0.0000    0.0007    0.0000    0.0000   -0.0005   -0.0000
       10 V     10s         0.0000   -0.0002   -0.0000    0.0000    0.0000   -0.0010   -0.0000   -0.0000    0.0005    0.0000
       11 V      2px        0.0000    0.0018   -0.0014    0.0000    1.0000   -0.0004   -0.0000   -0.0000    0.0022    0.0000
       12 V      3px       -0.0000    0.0004    0.0000   -0.0000   -0.0021    0.0680   -0.0011   -0.0000    0.9905    0.0000
       13 V      4px        0.0000   -0.0001   -0.0000    0.0000    0.0003    0.0003    0.0001    0.0000   -0.0643   -0.0000
       14 V      5px       -0.0000    0.0001    0.0000   -0.0000   -0.0005   -0.0036   -0.0001   -0.0000    0.0835    0.0000
       15 V      6px        0.0000   -0.0001   -0.0000    0.0000    0.0002    0.0024    0.0000    0.0000   -0.0050    0.0000
       16 V      7px       -0.0000    0.0000   -0.0000    0.0000    0.0001   -0.0007    0.0000    0.0000   -0.0129   -0.0000
       17 V      8px        0.0000   -0.0000    0.0000   -0.0000   -0.0002   -0.0006   -0.0000   -0.0000    0.0008   -0.0000
       18 V      9px       -0.0000    0.0000   -0.0000    0.0000    0.0002    0.0003   -0.0000   -0.0000    0.0037    0.0000
       19 V     10px        0.0000   -0.0000    0.0000   -0.0000   -0.0003    0.0002   -0.0000   -0.0000    0.0006    0.0000
       20 V      2py       -0.0000    0.0000    0.0000    1.0000    0.0000   -0.0000   -0.0000    0.0021   -0.0000    0.0001
       21 V      3py       -0.0000   -0.0000   -0.0000   -0.0021   -0.0000   -0.0000   -0.0000    0.9935    0.0000    0.0059
       22 V      4py        0.0000    0.0000    0.0000    0.0003    0.0000    0.0000    0.0000   -0.0645   -0.0000   -0.0133
       23 V      5py       -0.0000   -0.0000   -0.0000   -0.0005   -0.0000   -0.0000   -0.0000    0.0828    0.0000    0.0096
       24 V      6py        0.0000    0.0000    0.0000    0.0002    0.0000    0.0000    0.0000   -0.0044    0.0000    0.0026
       25 V      7py       -0.0000   -0.0000    0.0000    0.0001    0.0000    0.0000    0.0000   -0.0131   -0.0000   -0.0021
       26 V      8py        0.0000    0.0000   -0.0000   -0.0002   -0.0000   -0.0000   -0.0000    0.0006   -0.0000   -0.0008
       27 V      9py       -0.0000   -0.0000    0.0000    0.0002    0.0000   -0.0000   -0.0000    0.0038    0.0000    0.0006
       28 V     10py        0.0000    0.0000   -0.0000   -0.0003   -0.0000    0.0000   -0.0000    0.0007    0.0000    0.0003
       29 V      2pz        0.0000    0.0000    1.0000   -0.0000    0.0014   -0.0000    0.0021    0.0000    0.0000   -0.0000
       30 V      3pz       -0.0000    0.0000   -0.0021    0.0000   -0.0000    0.0000    0.9935    0.0000    0.0011   -0.0000
       31 V      4pz        0.0000   -0.0000    0.0003   -0.0000    0.0000    0.0000   -0.0645   -0.0000   -0.0001    0.0000
       32 V      5pz       -0.0000    0.0000   -0.0005    0.0000   -0.0000   -0.0000    0.0828    0.0000    0.0001   -0.0000
       33 V      6pz        0.0000   -0.0000    0.0002   -0.0000    0.0000    0.0000   -0.0044   -0.0000   -0.0000   -0.0000
       34 V      7pz       -0.0000    0.0000    0.0001   -0.0000    0.0000   -0.0000   -0.0131   -0.0000   -0.0000    0.0000
       35 V      8pz        0.0000   -0.0000   -0.0002    0.0000   -0.0000   -0.0000    0.0006    0.0000    0.0000    0.0000
       36 V      9pz       -0.0000    0.0000    0.0002   -0.0000    0.0000    0.0000    0.0038    0.0000    0.0000   -0.0000
       37 V     10pz        0.0000   -0.0000   -0.0003    0.0000   -0.0000    0.0000    0.0007    0.0000    0.0000   -0.0000
       38 V      3d2-       0.0000   -0.0000    0.0000    0.0002    0.0000   -0.0000   -0.0000    0.0412    0.0000   -0.1728
       39 V      4d2-      -0.0000    0.0000   -0.0000   -0.0001   -0.0000    0.0000    0.0000   -0.0087   -0.0000    0.0455
       40 V      5d2-       0.0000   -0.0000    0.0000    0.0001    0.0000   -0.0000    0.0000   -0.0041   -0.0000   -0.0041
       41 V      6d2-      -0.0000    0.0000   -0.0000   -0.0001   -0.0000    0.0000   -0.0000    0.0041    0.0000   -0.0038
       42 V      7d2-       0.0000   -0.0000    0.0000    0.0000    0.0000   -0.0000   -0.0000    0.0014    0.0000   -0.0028
       43 V      8d2-      -0.0000   -0.0000   -0.0000   -0.0000   -0.0000    0.0000    0.0000   -0.0000   -0.0000    0.0003
       44 V      9d2-       0.0000    0.0000    0.0000    0.0000    0.0000   -0.0000    0.0000   -0.0007   -0.0000    0.0005
       45 V     10d2-      -0.0000   -0.0000   -0.0000   -0.0000   -0.0000    0.0000    0.0000   -0.0001   -0.0000    0.0001
       46 V      3d1-      -0.0000   -0.0000    0.0000    0.0000   -0.0000    0.0000   -0.0000    0.0000   -0.0000    0.9440
       47 V      4d1-       0.0000    0.0000   -0.0000   -0.0000    0.0000   -0.0000    0.0000   -0.0000   -0.0000   -0.2693
       48 V      5d1-      -0.0000   -0.0000    0.0000    0.0000   -0.0000    0.0000   -0.0000    0.0000    0.0000    0.0208
       49 V      6d1-       0.0000    0.0000   -0.0000   -0.0000   -0.0000   -0.0000   -0.0000    0.0000    0.0000    0.0248
       50 V      7d1-      -0.0000   -0.0000    0.0000    0.0000    0.0000    0.0000   -0.0000    0.0000    0.0000    0.0181
       51 V      8d1-       0.0000    0.0000   -0.0000   -0.0000    0.0000   -0.0000   -0.0000    0.0000   -0.0000   -0.0006
       52 V      9d1-      -0.0000    0.0000    0.0000    0.0000    0.0000    0.0000    0.0000   -0.0000   -0.0000   -0.0028
       53 V     10d1-       0.0000    0.0000   -0.0000   -0.0000    0.0000   -0.0000    0.0000   -0.0000   -0.0000   -0.0004
       54 V      3d0        0.0000    0.0000    0.0000   -0.0000   -0.0001   -0.0001    0.0001    0.0000   -0.0245    0.0000
       55 V      4d0       -0.0000   -0.0000   -0.0000    0.0000    0.0001   -0.0001   -0.0000   -0.0000    0.0052   -0.0000
       56 V      5d0        0.0000    0.0000    0.0000   -0.0000   -0.0001    0.0001   -0.0000   -0.0000    0.0025    0.0000
       57 V      6d0       -0.0000   -0.0000   -0.0000    0.0000    0.0000    0.0000    0.0000    0.0000   -0.0024    0.0000
       58 V      7d0        0.0000   -0.0000    0.0000   -0.0000   -0.0000   -0.0000    0.0000    0.0000   -0.0009    0.0000
       59 V      8d0       -0.0000    0.0000   -0.0000    0.0000    0.0000   -0.0000   -0.0000   -0.0000    0.0000   -0.0000
       60 V      9d0        0.0000   -0.0000    0.0000   -0.0000   -0.0000   -0.0000   -0.0000   -0.0000    0.0004   -0.0000
       61 V     10d0       -0.0000   -0.0000   -0.0000    0.0000    0.0000   -0.0000   -0.0000   -0.0000    0.0001   -0.0000
       62 V      3d1+      -0.0000   -0.0000    0.0002   -0.0000    0.0000   -0.0000    0.0412    0.0000    0.0001    0.0000
       63 V      4d1+       0.0000    0.0000   -0.0001    0.0000   -0.0000    0.0000   -0.0087   -0.0000   -0.0000   -0.0000
       64 V      5d1+      -0.0000   -0.0000    0.0001   -0.0000    0.0000    0.0000   -0.0041   -0.0000   -0.0000    0.0000
       65 V      6d1+       0.0000    0.0000   -0.0001    0.0000   -0.0000   -0.0000    0.0041    0.0000    0.0000    0.0000
       66 V      7d1+      -0.0000   -0.0000    0.0000   -0.0000    0.0000   -0.0000    0.0014    0.0000    0.0000    0.0000
       67 V      8d1+       0.0000   -0.0000   -0.0000    0.0000   -0.0000    0.0000   -0.0000   -0.0000   -0.0000   -0.0000
       68 V      9d1+      -0.0000    0.0000    0.0000   -0.0000    0.0000    0.0000   -0.0007   -0.0000   -0.0000   -0.0000
       69 V     10d1+       0.0000   -0.0000   -0.0000    0.0000   -0.0000    0.0000   -0.0001   -0.0000   -0.0000   -0.0000
       70 V      3d2+      -0.0000   -0.0000   -0.0000    0.0000    0.0002    0.0001   -0.0000   -0.0000    0.0424    0.0000
       71 V      4d2+       0.0000    0.0000    0.0000   -0.0000   -0.0001    0.0003    0.0000    0.0000   -0.0089   -0.0000
       72 V      5d2+      -0.0000   -0.0000   -0.0000    0.0000    0.0001   -0.0002    0.0000    0.0000   -0.0042    0.0000
       73 V      6d2+       0.0000    0.0000    0.0000   -0.0000   -0.0001   -0.0000   -0.0000   -0.0000    0.0042    0.0000
       74 V      7d2+      -0.0000    0.0000   -0.0000    0.0000    0.0000    0.0001   -0.0000   -0.0000    0.0015    0.0000
       75 V      8d2+       0.0000   -0.0000    0.0000   -0.0000   -0.0000    0.0001   -0.0000   -0.0000   -0.0000   -0.0000
       76 V      9d2+      -0.0000    0.0000   -0.0000    0.0000    0.0000    0.0000    0.0000    0.0000   -0.0007   -0.0000
       77 V     10d2+       0.0000    0.0000    0.0000   -0.0000   -0.0000    0.0000    0.0000    0.0000   -0.0001   -0.0000
       78 V      4f3-       0.0000    0.0000   -0.0000   -0.0000   -0.0000   -0.0000   -0.0000    0.0001    0.0000   -0.0102
       79 V      5f3-      -0.0000   -0.0000    0.0000    0.0000    0.0000    0.0000   -0.0000    0.0003    0.0000   -0.0062
       80 V      6f3-       0.0000    0.0000   -0.0000   -0.0000   -0.0000   -0.0000   -0.0000    0.0000    0.0000    0.0004
       81 V      7f3-      -0.0000   -0.0000    0.0000    0.0000    0.0000    0.0000    0.0000   -0.0001   -0.0000    0.0010
       82 V      8f3-       0.0000    0.0000   -0.0000   -0.0000   -0.0000   -0.0000    0.0000   -0.0000   -0.0000    0.0004
       83 V      9f3-      -0.0000   -0.0000    0.0000    0.0000    0.0000   -0.0000   -0.0000    0.0000   -0.0000   -0.0001
       84 V      4f2-       0.0000    0.0000   -0.0000   -0.0000    0.0000    0.0000    0.0000   -0.0000   -0.0000    0.0428
       85 V      5f2-      -0.0000   -0.0000    0.0000    0.0000   -0.0000   -0.0000    0.0000   -0.0000   -0.0000    0.0233
       86 V      6f2-       0.0000    0.0000   -0.0000   -0.0000    0.0000    0.0000   -0.0000    0.0000   -0.0000   -0.0048
       87 V      7f2-      -0.0000   -0.0000   -0.0000   -0.0000   -0.0000    0.0000   -0.0000    0.0000    0.0000   -0.0057
       88 V      8f2-      -0.0000    0.0000   -0.0000   -0.0000    0.0000   -0.0000   -0.0000    0.0000    0.0000   -0.0017
       89 V      9f2-       0.0000    0.0000   -0.0000   -0.0000   -0.0000    0.0000   -0.0000    0.0000    0.0000    0.0012
       90 V      4f1-       0.0000    0.0000    0.0000    0.0000    0.0000   -0.0000    0.0000   -0.0000    0.0000    0.0027
       91 V      5f1-      -0.0000   -0.0000   -0.0000   -0.0000   -0.0000    0.0000    0.0000   -0.0001   -0.0000    0.0016
       92 V      6f1-       0.0000    0.0000    0.0000    0.0000   -0.0000   -0.0000    0.0000   -0.0000    0.0000   -0.0001
       93 V      7f1-      -0.0000   -0.0000   -0.0000   -0.0000   -0.0000    0.0000   -0.0000    0.0000    0.0000   -0.0003
       94 V      8f1-       0.0000    0.0000    0.0000    0.0000   -0.0000   -0.0000   -0.0000    0.0000    0.0000   -0.0001
       95 V      9f1-      -0.0000   -0.0000   -0.0000   -0.0000    0.0000   -0.0000    0.0000   -0.0000    0.0000    0.0000
       96 V      4f0       -0.0000    0.0000    0.0000   -0.0000    0.0000    0.0000   -0.0000   -0.0000    0.0000   -0.0000
       97 V      5f0        0.0000    0.0000   -0.0000    0.0000   -0.0000    0.0000   -0.0002   -0.0000    0.0000   -0.0000
       98 V      6f0       -0.0000   -0.0000    0.0000   -0.0000    0.0000    0.0000   -0.0000   -0.0000   -0.0000    0.0000
       99 V      7f0        0.0000    0.0000   -0.0000    0.0000   -0.0000    0.0000    0.0001    0.0000   -0.0000    0.0000
      100 V      8f0       -0.0000   -0.0000    0.0000   -0.0000    0.0000    0.0000    0.0000    0.0000   -0.0000    0.0000
      101 V      9f0       -0.0000    0.0000   -0.0000    0.0000    0.0000    0.0000   -0.0000   -0.0000   -0.0000   -0.0000
      102 V      4f1+       0.0000   -0.0000    0.0000   -0.0000    0.0000   -0.0001    0.0000    0.0000   -0.0000    0.0000
      103 V      5f1+      -0.0000    0.0000   -0.0000    0.0000   -0.0000   -0.0000    0.0000    0.0000   -0.0002    0.0000
      104 V      6f1+       0.0000   -0.0000   -0.0000    0.0000    0.0000    0.0000   -0.0000   -0.0000   -0.0000   -0.0000
      105 V      7f1+      -0.0000   -0.0000    0.0000   -0.0000   -0.0000   -0.0000   -0.0000   -0.0000    0.0001   -0.0000
      106 V      8f1+       0.0000    0.0000   -0.0000    0.0000    0.0000   -0.0000   -0.0000   -0.0000    0.0000   -0.0000
      107 V      9f1+      -0.0000   -0.0000    0.0000   -0.0000   -0.0000   -0.0000   -0.0000   -0.0000   -0.0000    0.0000
      108 V      4f2+      -0.0000    0.0000   -0.0000    0.0000    0.0000    0.0000    0.0000    0.0000    0.0000    0.0000
      109 V      5f2+       0.0000   -0.0000    0.0000   -0.0000    0.0000    0.0000    0.0003    0.0000    0.0000    0.0000
      110 V      6f2+      -0.0000   -0.0000   -0.0000    0.0000   -0.0000    0.0000    0.0000    0.0000   -0.0000   -0.0000
      111 V      7f2+       0.0000    0.0000    0.0000   -0.0000    0.0000    0.0000   -0.0001   -0.0000   -0.0000   -0.0000
      112 V      8f2+      -0.0000   -0.0000   -0.0000    0.0000   -0.0000    0.0000   -0.0000   -0.0000   -0.0000   -0.0000
      113 V      9f2+       0.0000    0.0000    0.0000   -0.0000    0.0000    0.0000    0.0000    0.0000   -0.0000    0.0000
      114 V      4f3+      -0.0000    0.0000    0.0000   -0.0000   -0.0000    0.0001    0.0000    0.0000    0.0000    0.0000
      115 V      5f3+       0.0000   -0.0000   -0.0000    0.0000    0.0000    0.0000    0.0000    0.0000    0.0003    0.0000
      116 V      6f3+      -0.0000    0.0000    0.0000   -0.0000   -0.0000   -0.0000   -0.0000   -0.0000    0.0000   -0.0000
      117 V      7f3+       0.0000    0.0000    0.0000   -0.0000    0.0000    0.0000   -0.0000   -0.0000   -0.0001   -0.0000
      118 V      8f3+      -0.0000   -0.0000    0.0000   -0.0000   -0.0000    0.0000   -0.0000   -0.0000   -0.0000   -0.0000
      119 V      9f3+       0.0000    0.0000    0.0000   -0.0000    0.0000    0.0000   -0.0000   -0.0000    0.0000    0.0000
      120 V      5g4-       0.0000    0.0000    0.0000    0.0000    0.0000    0.0000   -0.0000    0.0001    0.0000   -0.0003
      121 V      6g4-      -0.0000   -0.0000   -0.0000   -0.0000   -0.0000   -0.0000   -0.0000    0.0001    0.0000   -0.0007
      122 V      7g4-       0.0000    0.0000    0.0000    0.0000   -0.0000    0.0000    0.0000   -0.0000   -0.0000   -0.0006
      123 V      8g4-      -0.0000   -0.0000    0.0000    0.0000    0.0000   -0.0000    0.0000   -0.0000    0.0000   -0.0004
      124 V      5g3-      -0.0000   -0.0000   -0.0000   -0.0000   -0.0000   -0.0000    0.0000   -0.0000    0.0000    0.0009
      125 V      6g3-       0.0000    0.0000    0.0000    0.0000   -0.0000    0.0000    0.0000   -0.0000   -0.0000    0.0024
      126 V      7g3-      -0.0000   -0.0000   -0.0000   -0.0000   -0.0000   -0.0000    0.0000   -0.0000    0.0000    0.0018
      127 V      8g3-       0.0000    0.0000   -0.0000   -0.0000    0.0000    0.0000    0.0000   -0.0000   -0.0000    0.0008
      128 V      5g2-      -0.0000    0.0000   -0.0000   -0.0000   -0.0000    0.0000    0.0000   -0.0000   -0.0000    0.0001
      129 V      6g2-       0.0000    0.0000    0.0000    0.0000    0.0000   -0.0000    0.0000   -0.0000   -0.0000    0.0003
      130 V      7g2-      -0.0000   -0.0000   -0.0000   -0.0000    0.0000    0.0000   -0.0000    0.0000   -0.0000    0.0002
      131 V      8g2-       0.0000    0.0000   -0.0000   -0.0000    0.0000   -0.0000   -0.0000    0.0000    0.0000    0.0001
      132 V      5g1-      -0.0000    0.0000    0.0000    0.0000   -0.0000   -0.0000   -0.0000    0.0000    0.0000   -0.0004
      133 V      6g1-       0.0000   -0.0000    0.0000    0.0000   -0.0000    0.0000   -0.0000    0.0000   -0.0000   -0.0010
      134 V      7g1-      -0.0000    0.0000   -0.0000   -0.0000    0.0000   -0.0000   -0.0000    0.0000    0.0000   -0.0007
      135 V      8g1-       0.0000   -0.0000    0.0000    0.0000   -0.0000    0.0000    0.0000   -0.0000   -0.0000   -0.0003
      136 V      5g0        0.0000   -0.0000   -0.0000    0.0000    0.0000   -0.0000   -0.0000   -0.0000    0.0001   -0.0000
      137 V      6g0        0.0000    0.0000    0.0000   -0.0000   -0.0000   -0.0000   -0.0000   -0.0000    0.0000   -0.0000
      138 V      7g0       -0.0000   -0.0000   -0.0000    0.0000    0.0000    0.0000   -0.0000   -0.0000   -0.0000   -0.0000
      139 V      8g0        0.0000    0.0000    0.0000   -0.0000    0.0000    0.0000   -0.0000   -0.0000   -0.0000   -0.0000
      140 V      5g1+      -0.0000    0.0000   -0.0000    0.0000    0.0000    0.0000   -0.0001   -0.0000    0.0000   -0.0000
      141 V      6g1+      -0.0000   -0.0000    0.0000   -0.0000    0.0000    0.0000   -0.0001   -0.0000    0.0000   -0.0000
      142 V      7g1+       0.0000    0.0000   -0.0000    0.0000   -0.0000    0.0000    0.0000    0.0000    0.0000   -0.0000
      143 V      8g1+       0.0000   -0.0000   -0.0000    0.0000    0.0000   -0.0000    0.0000    0.0000    0.0000   -0.0000
      144 V      5g2+      -0.0000    0.0000    0.0000   -0.0000   -0.0000    0.0000    0.0000    0.0000   -0.0001    0.0000
      145 V      6g2+      -0.0000   -0.0000   -0.0000    0.0000    0.0000    0.0000    0.0000    0.0000   -0.0001    0.0000
      146 V      7g2+       0.0000    0.0000   -0.0000    0.0000   -0.0000   -0.0000    0.0000    0.0000    0.0000    0.0000
      147 V      8g2+      -0.0000   -0.0000    0.0000   -0.0000   -0.0000   -0.0000   -0.0000   -0.0000    0.0000    0.0000
      148 V      5g3+      -0.0000    0.0000    0.0000   -0.0000    0.0000    0.0000    0.0001    0.0000    0.0000    0.0000
      149 V      6g3+      -0.0000   -0.0000   -0.0000    0.0000   -0.0000    0.0000    0.0001    0.0000    0.0000    0.0000
      150 V      7g3+       0.0000    0.0000    0.0000   -0.0000   -0.0000    0.0000   -0.0000   -0.0000    0.0000    0.0000
      151 V      8g3+       0.0000   -0.0000    0.0000   -0.0000    0.0000   -0.0000   -0.0000   -0.0000    0.0000    0.0000
      152 V      5g4+       0.0000   -0.0000    0.0000   -0.0000    0.0000   -0.0000    0.0000    0.0000    0.0001    0.0000
      153 V      6g4+       0.0000    0.0000   -0.0000    0.0000   -0.0000   -0.0000    0.0000    0.0000    0.0001    0.0000
      154 V      7g4+      -0.0000   -0.0000   -0.0000    0.0000    0.0000    0.0000    0.0000    0.0000   -0.0000    0.0000
      155 V      8g4+       0.0000    0.0000    0.0000   -0.0000    0.0000    0.0000    0.0000    0.0000   -0.0000    0.0000
      156 V      6h5-      -0.0000   -0.0000   -0.0000   -0.0000    0.0000    0.0000    0.0000   -0.0000    0.0000   -0.0000
      157 V      7h5-       0.0000    0.0000    0.0000    0.0000   -0.0000   -0.0000    0.0000   -0.0000   -0.0000   -0.0000
      158 V      6h4-      -0.0000   -0.0000    0.0000    0.0000    0.0000   -0.0000   -0.0000    0.0000    0.0000    0.0001
      159 V      7h4-       0.0000    0.0000   -0.0000   -0.0000    0.0000   -0.0000   -0.0000    0.0000    0.0000    0.0003
      160 V      6h3-      -0.0000   -0.0000    0.0000    0.0000    0.0000   -0.0000   -0.0000    0.0000    0.0000    0.0000
      161 V      7h3-       0.0000    0.0000   -0.0000   -0.0000   -0.0000    0.0000   -0.0000    0.0000   -0.0000    0.0000
      162 V      6h2-       0.0000   -0.0000    0.0000    0.0000    0.0000   -0.0000   -0.0000    0.0000    0.0000   -0.0001
      163 V      7h2-       0.0000    0.0000   -0.0000   -0.0000    0.0000   -0.0000   -0.0000    0.0000    0.0000   -0.0002
      164 V      6h1-       0.0000    0.0000   -0.0000   -0.0000    0.0000    0.0000    0.0000   -0.0000    0.0000   -0.0000
      165 V      7h1-      -0.0000   -0.0000    0.0000    0.0000   -0.0000   -0.0000    0.0000   -0.0000   -0.0000   -0.0000
      166 V      6h0        0.0000   -0.0000   -0.0000    0.0000   -0.0000   -0.0000   -0.0000   -0.0000   -0.0000    0.0000
      167 V      7h0        0.0000   -0.0000    0.0000   -0.0000    0.0000   -0.0000   -0.0000   -0.0000   -0.0000    0.0000
      168 V      6h1+       0.0000    0.0000    0.0000   -0.0000   -0.0000   -0.0000    0.0000    0.0000   -0.0000   -0.0000
      169 V      7h1+       0.0000   -0.0000   -0.0000    0.0000    0.0000   -0.0000    0.0000    0.0000   -0.0000   -0.0000
      170 V      6h2+      -0.0000    0.0000    0.0000   -0.0000    0.0000    0.0000    0.0000    0.0000    0.0000   -0.0000
      171 V      7h2+      -0.0000    0.0000   -0.0000    0.0000   -0.0000    0.0000    0.0000    0.0000    0.0000   -0.0000
      172 V      6h3+      -0.0000   -0.0000    0.0000   -0.0000    0.0000    0.0000    0.0000    0.0000    0.0000    0.0000
      173 V      7h3+      -0.0000    0.0000   -0.0000    0.0000   -0.0000    0.0000    0.0000    0.0000    0.0000    0.0000
      174 V      6h4+      -0.0000    0.0000   -0.0000    0.0000    0.0000    0.0000   -0.0000   -0.0000    0.0000    0.0000
      175 V      7h4+      -0.0000    0.0000    0.0000   -0.0000   -0.0000    0.0000   -0.0000   -0.0000    0.0000    0.0000
      176 V      6h5+       0.0000    0.0000    0.0000   -0.0000   -0.0000   -0.0000    0.0000    0.0000   -0.0000    0.0000
      177 V      7h5+       0.0000   -0.0000    0.0000   -0.0000    0.0000   -0.0000    0.0000    0.0000   -0.0000    0.0000

          Orbital           11        12        13        14        15    
          Energy            2.2387    2.2398    2.2400    2.2400    2.6103
          Occ. No.          0.0000    0.0000    0.0000    0.0000    0.0000

        1 V      1s        -0.0000   -0.0000   -0.0000   -0.0000   -0.0000
        2 V      2s         0.0000    0.0000    0.0000    0.0000    0.0000
        3 V      3s         0.0000    0.0045    0.0001    0.0000    0.0385
        4 V      4s         0.0001    0.0378    0.0007    0.0000    0.6619
        5 V      5s        -0.0000   -0.0145   -0.0003   -0.0000   -0.2631
        6 V      6s         0.0000    0.0022    0.0000    0.0000    0.1146
        7 V      7s         0.0000    0.0050    0.0001    0.0000    0.0612
        8 V      8s         0.0000    0.0017    0.0000    0.0000   -0.0025
        9 V      9s         0.0000    0.0002    0.0000    0.0000   -0.0038
       10 V     10s         0.0000   -0.0001   -0.0000   -0.0000    0.0011
       11 V      2px       -0.0000   -0.0004   -0.0000   -0.0000   -0.0000
       12 V      3px       -0.0001   -0.0381   -0.0007   -0.0000    0.0396
       13 V      4px        0.0002    0.1020    0.0019    0.0000    0.5914
       14 V      5px       -0.0001   -0.0662   -0.0012   -0.0000   -0.1265
       15 V      6px       -0.0000   -0.0205   -0.0004   -0.0000   -0.1118
       16 V      7px        0.0000    0.0137    0.0003    0.0000   -0.0042
       17 V      8px        0.0000    0.0059    0.0001    0.0000    0.0058
       18 V      9px       -0.0000   -0.0035   -0.0001   -0.0000    0.0002
       19 V     10px       -0.0000   -0.0017   -0.0000   -0.0000   -0.0001
       20 V      2py       -0.0000    0.0000   -0.0000   -0.0003   -0.0000
       21 V      3py       -0.0000    0.0000   -0.0000   -0.0323    0.0000
       22 V      4py        0.0000   -0.0000    0.0000    0.0702   -0.0000
       23 V      5py       -0.0000    0.0000   -0.0000   -0.0526    0.0000
       24 V      6py       -0.0000    0.0000   -0.0000   -0.0138    0.0000
       25 V      7py        0.0000   -0.0000    0.0000    0.0119   -0.0000
       26 V      8py        0.0000   -0.0000    0.0000    0.0047   -0.0000
       27 V      9py       -0.0000    0.0000   -0.0000   -0.0032   -0.0000
       28 V     10py       -0.0000    0.0000   -0.0000   -0.0015   -0.0000
       29 V      2pz       -0.0001    0.0000   -0.0003    0.0000   -0.0000
       30 V      3pz       -0.0056    0.0006   -0.0323    0.0000    0.0000
       31 V      4pz        0.0126   -0.0013    0.0704   -0.0000    0.0002
       32 V      5pz       -0.0091    0.0010   -0.0527    0.0000   -0.0001
       33 V      6pz       -0.0024    0.0003   -0.0138    0.0000   -0.0001
       34 V      7pz        0.0020   -0.0002    0.0119   -0.0000   -0.0000
       35 V      8pz        0.0007   -0.0001    0.0047   -0.0000   -0.0000
       36 V      9pz       -0.0006    0.0001   -0.0032    0.0000    0.0000
       37 V     10pz       -0.0003    0.0000   -0.0015    0.0000    0.0000
       38 V      3d2-       0.0000   -0.0000    0.0000    0.9429    0.0000
       39 V      4d2-      -0.0000    0.0000   -0.0000   -0.2527    0.0000
       40 V      5d2-       0.0000   -0.0000    0.0000    0.0211    0.0000
       41 V      6d2-       0.0000   -0.0000    0.0000    0.0208    0.0000
       42 V      7d2-       0.0000   -0.0000    0.0000    0.0155   -0.0000
       43 V      8d2-      -0.0000    0.0000   -0.0000   -0.0012   -0.0000
       44 V      9d2-      -0.0000    0.0000   -0.0000   -0.0025   -0.0000
       45 V     10d2-      -0.0000    0.0000   -0.0000   -0.0003    0.0000
       46 V      3d1-      -0.0000   -0.0000    0.0000    0.1727    0.0000
       47 V      4d1-       0.0000    0.0000   -0.0000   -0.0502    0.0000
       48 V      5d1-      -0.0000   -0.0000    0.0000    0.0035   -0.0000
       49 V      6d1-      -0.0000   -0.0000    0.0000    0.0045   -0.0000
       50 V      7d1-      -0.0000   -0.0000    0.0000    0.0034   -0.0000
       51 V      8d1-       0.0000   -0.0000    0.0000   -0.0000   -0.0000
       52 V      9d1-       0.0000    0.0000   -0.0000   -0.0005   -0.0000
       53 V     10d1-       0.0000    0.0000   -0.0000   -0.0001   -0.0000
       54 V      3d0        0.8185   -0.4766   -0.1494    0.0000    0.0176
       55 V      4d0       -0.2335    0.1224    0.0432   -0.0000   -0.1410
       56 V      5d0        0.0180   -0.0112   -0.0030    0.0000   -0.0281
       57 V      6d0        0.0215   -0.0095   -0.0039    0.0000    0.0118
       58 V      7d0        0.0157   -0.0070   -0.0029    0.0000    0.0160
       59 V      8d0       -0.0005    0.0010    0.0000    0.0000    0.0129
       60 V      9d0       -0.0024    0.0014    0.0004   -0.0000    0.0064
       61 V     10d0       -0.0003    0.0002    0.0000   -0.0000    0.0012
       62 V      3d1+       0.1625   -0.0177    0.9446   -0.0000   -0.0000
       63 V      4d1+      -0.0427    0.0047   -0.2531    0.0000    0.0002
       64 V      5d1+       0.0039   -0.0004    0.0211   -0.0000    0.0000
       65 V      6d1+       0.0036   -0.0004    0.0209   -0.0000   -0.0000
       66 V      7d1+       0.0026   -0.0003    0.0155   -0.0000   -0.0000
       67 V      8d1+      -0.0003    0.0000   -0.0012    0.0000   -0.0000
       68 V      9d1+      -0.0005    0.0000   -0.0025    0.0000   -0.0000
       69 V     10d1+      -0.0001    0.0000   -0.0003    0.0000   -0.0000
       70 V      3d2+       0.4740    0.8290   -0.0658    0.0000   -0.0304
       71 V      4d2+      -0.1352   -0.2131    0.0197   -0.0000    0.2445
       72 V      5d2+       0.0104    0.0195   -0.0013    0.0000    0.0489
       73 V      6d2+       0.0124    0.0166   -0.0018    0.0000   -0.0204
       74 V      7d2+       0.0091    0.0122   -0.0014    0.0000   -0.0278
       75 V      8d2+      -0.0003   -0.0018   -0.0000   -0.0000   -0.0224
       76 V      9d2+      -0.0014   -0.0024    0.0002   -0.0000   -0.0110
       77 V     10d2+      -0.0002   -0.0003    0.0000   -0.0000   -0.0022
       78 V      4f3-       0.0000   -0.0000    0.0000    0.0545    0.0000
       79 V      5f3-       0.0000   -0.0000    0.0000    0.0316    0.0000
       80 V      6f3-      -0.0000    0.0000   -0.0000   -0.0041    0.0000
       81 V      7f3-      -0.0000    0.0000   -0.0000   -0.0066    0.0000
       82 V      8f3-      -0.0000    0.0000   -0.0000   -0.0024    0.0000
       83 V      9f3-       0.0000   -0.0000    0.0000    0.0009    0.0000
       84 V      4f2-      -0.0000   -0.0000    0.0000    0.0074    0.0000
       85 V      5f2-      -0.0000    0.0000    0.0000    0.0034    0.0000
       86 V      6f2-       0.0000    0.0000   -0.0000   -0.0016    0.0000
       87 V      7f2-       0.0000    0.0000   -0.0000   -0.0014   -0.0000
       88 V      8f2-       0.0000    0.0000   -0.0000   -0.0003   -0.0000
       89 V      9f2-      -0.0000   -0.0000    0.0000    0.0004   -0.0000
       90 V      4f1-      -0.0000    0.0000   -0.0000   -0.0141   -0.0000
       91 V      5f1-      -0.0000    0.0000   -0.0000   -0.0082   -0.0000
       92 V      6f1-       0.0000   -0.0000    0.0000    0.0011   -0.0000
       93 V      7f1-       0.0000   -0.0000    0.0000    0.0017   -0.0000
       94 V      8f1-       0.0000   -0.0000    0.0000    0.0006   -0.0000
       95 V      9f1-      -0.0000    0.0000   -0.0000   -0.0002    0.0000
       96 V      4f0       -0.0060    0.0008   -0.0346    0.0000    0.0019
       97 V      5f0       -0.0037    0.0007   -0.0200    0.0000    0.0045
       98 V      6f0        0.0002    0.0003    0.0026   -0.0000    0.0047
       99 V      7f0        0.0006    0.0001    0.0042   -0.0000    0.0035
      100 V      8f0        0.0003    0.0000    0.0015   -0.0000    0.0014
      101 V      9f0       -0.0001   -0.0000   -0.0005    0.0000    0.0003
      102 V      4f1+       0.0339   -0.0375   -0.0062    0.0000   -0.0154
      103 V      5f1+       0.0184   -0.0223   -0.0029   -0.0000   -0.0369
      104 V      6f1+      -0.0038    0.0024    0.0013   -0.0000   -0.0303
      105 V      7f1+      -0.0045    0.0045    0.0011   -0.0000   -0.0130
      106 V      8f1+      -0.0013    0.0018    0.0003   -0.0000    0.0013
      107 V      9f1+       0.0009   -0.0004   -0.0003    0.0000    0.0083
      108 V      4f2+       0.0078   -0.0007    0.0446   -0.0000    0.0015
      109 V      5f2+       0.0048   -0.0002    0.0259   -0.0000    0.0036
      110 V      6f2+      -0.0003    0.0003   -0.0034    0.0000    0.0038
      111 V      7f2+      -0.0008    0.0002   -0.0054    0.0000    0.0028
      112 V      8f2+      -0.0003    0.0001   -0.0019    0.0000    0.0011
      113 V      9f2+       0.0001   -0.0000    0.0007   -0.0000    0.0001
      114 V      4f3+       0.0263    0.0486   -0.0033    0.0000    0.0200
      115 V      5f3+       0.0143    0.0288   -0.0014    0.0000    0.0479
      116 V      6f3+      -0.0030   -0.0032    0.0009   -0.0000    0.0393
      117 V      7f3+      -0.0035   -0.0058    0.0007   -0.0000    0.0169
      118 V      8f3+      -0.0010   -0.0023    0.0001   -0.0000   -0.0016
      119 V      9f3+       0.0007    0.0005   -0.0002    0.0000   -0.0108
      120 V      5g4-       0.0000   -0.0000    0.0000    0.0014   -0.0000
      121 V      6g4-       0.0000   -0.0000    0.0000    0.0038   -0.0000
      122 V      7g4-       0.0000   -0.0000    0.0000    0.0030   -0.0000
      123 V      8g4-       0.0000   -0.0000    0.0000    0.0014   -0.0000
      124 V      5g3-      -0.0000    0.0000   -0.0000   -0.0000   -0.0000
      125 V      6g3-      -0.0000    0.0000   -0.0000   -0.0001    0.0000
      126 V      7g3-      -0.0000    0.0000   -0.0000   -0.0002    0.0000
      127 V      8g3-      -0.0000    0.0000   -0.0000   -0.0003    0.0000
      128 V      5g2-      -0.0000    0.0000   -0.0000   -0.0005   -0.0000
      129 V      6g2-      -0.0000    0.0000   -0.0000   -0.0014   -0.0000
      130 V      7g2-      -0.0000    0.0000   -0.0000   -0.0011    0.0000
      131 V      8g2-      -0.0000    0.0000   -0.0000   -0.0005   -0.0000
      132 V      5g1-       0.0000   -0.0000    0.0000    0.0001    0.0000
      133 V      6g1-       0.0000   -0.0000    0.0000    0.0002    0.0000
      134 V      7g1-       0.0000   -0.0000    0.0000    0.0002   -0.0000
      135 V      8g1-       0.0000   -0.0000    0.0000    0.0002   -0.0000
      136 V      5g0       -0.0005    0.0006    0.0000    0.0000    0.0013
      137 V      6g0       -0.0014    0.0015    0.0001    0.0000    0.0036
      138 V      7g0       -0.0010    0.0012   -0.0000    0.0000    0.0036
      139 V      8g0       -0.0004    0.0005   -0.0001    0.0000    0.0027
      140 V      5g1+      -0.0002    0.0001   -0.0011    0.0000    0.0011
      141 V      6g1+      -0.0006    0.0003   -0.0031    0.0000    0.0036
      142 V      7g1+      -0.0005    0.0003   -0.0024    0.0000    0.0042
      143 V      8g1+      -0.0003    0.0003   -0.0012    0.0000    0.0036
      144 V      5g2+       0.0005   -0.0009    0.0001   -0.0000   -0.0020
      145 V      6g2+       0.0013   -0.0023    0.0001   -0.0000   -0.0054
      146 V      7g2+       0.0010   -0.0017    0.0002   -0.0000   -0.0054
      147 V      8g2+       0.0004   -0.0008    0.0002   -0.0000   -0.0040
      148 V      5g3+       0.0002    0.0001    0.0010   -0.0000    0.0013
      149 V      6g3+       0.0005    0.0002    0.0027   -0.0000    0.0041
      150 V      7g3+       0.0004    0.0003    0.0021   -0.0000    0.0048
      151 V      8g3+       0.0002    0.0003    0.0010   -0.0000    0.0042
      152 V      5g4+       0.0007    0.0011    0.0001    0.0000    0.0027
      153 V      6g4+       0.0017    0.0031    0.0002    0.0000    0.0073
      154 V      7g4+       0.0013    0.0023    0.0002   -0.0000    0.0073
      155 V      8g4+       0.0005    0.0010    0.0002   -0.0000    0.0055
      156 V      6h5-       0.0000    0.0000    0.0000    0.0002   -0.0000
      157 V      7h5-       0.0000   -0.0000    0.0000    0.0004   -0.0000
      158 V      6h4-      -0.0000    0.0000    0.0000    0.0000    0.0000
      159 V      7h4-      -0.0000    0.0000   -0.0000    0.0000   -0.0000
      160 V      6h3-      -0.0000    0.0000   -0.0000   -0.0001   -0.0000
      161 V      7h3-      -0.0000    0.0000   -0.0000   -0.0002   -0.0000
      162 V      6h2-       0.0000   -0.0000    0.0000    0.0000    0.0000
      163 V      7h2-       0.0000   -0.0000    0.0000    0.0001    0.0000
      164 V      6h1-       0.0000    0.0000    0.0000    0.0000   -0.0000
      165 V      7h1-       0.0000   -0.0000    0.0000    0.0001   -0.0000
      166 V      6h0        0.0000   -0.0000    0.0001   -0.0000   -0.0002
      167 V      7h0        0.0000   -0.0000    0.0002   -0.0000   -0.0004
      168 V      6h1+      -0.0001    0.0001    0.0000   -0.0000    0.0000
      169 V      7h1+      -0.0002    0.0002    0.0000    0.0000    0.0000
      170 V      6h2+      -0.0000    0.0000   -0.0002    0.0000    0.0001
      171 V      7h2+      -0.0000    0.0000   -0.0003    0.0000    0.0002
      172 V      6h3+       0.0001   -0.0001    0.0000   -0.0000   -0.0000
      173 V      7h3+       0.0001   -0.0002    0.0001   -0.0000   -0.0000
      174 V      6h4+       0.0000    0.0000    0.0001   -0.0000    0.0002
      175 V      7h4+       0.0000    0.0001    0.0003   -0.0000    0.0007
      176 V      6h5+       0.0001    0.0002    0.0000    0.0000    0.0000
      177 V      7h5+       0.0002    0.0003    0.0001   -0.0000    0.0001
--


++    Molecular charges:
      ------------------

      Mulliken charges per centre and basis function type
      ---------------------------------------------------

                V     
      1s       2.0000
      2s       2.0000
      2px      2.0000
      2pz      2.0000
      2py      2.0000
      3s       1.9886
      3px      1.9714
      3pz      1.9739
      3py      1.9739
      4s       0.0039
      3d2+     0.0036
      3d1+     0.0034
      3d0      0.0012
      3d1-     0.0000
      3d2-     0.0034
      4px      0.0083
      4pz      0.0083
      4py      0.0083
      5s       0.0026
      4d2+     0.0002
      4d1+     0.0002
      4d0      0.0001
      4d1-     0.0000
      4d2-     0.0002
      5px      0.0140
      5pz      0.0137
      5py      0.0137
      6s       0.0057
      4f3+     0.0000
      4f2+     0.0000
      4f1+     0.0000
      4f0      0.0000
      4f1-     0.0000
      4f2-     0.0000
      4f3-     0.0000
      5d2+     0.0000
      5d1+     0.0000
      5d0      0.0000
      5d1-     0.0000
      5d2-     0.0000
      6px      0.0001
      6pz      0.0000
      6py      0.0000
      7s       0.0000
      5f3+     0.0000
      5f2+     0.0000
      5f1+     0.0000
      5f0      0.0000
      5f1-     0.0000
      5f2-     0.0000
      5f3-     0.0000
      6d2+     0.0000
      6d1+     0.0000
      6d0      0.0000
      6d1-     0.0000
      6d2-     0.0000
      7px      0.0003
      7pz      0.0003
      7py      0.0003
      5g4+     0.0000
      5g3+     0.0000
      5g2+     0.0000
      5g1+     0.0000
      5g0      0.0000
      5g1-     0.0000
      5g2-     0.0000
      5g3-     0.0000
      5g4-     0.0000
      6f3+     0.0000
      6f2+     0.0000
      6f1+     0.0000
      6f0      0.0000
      6f1-     0.0000
      6f2-     0.0000
      6f3-     0.0000
      6g4+     0.0000
      6g3+     0.0000
      6g2+     0.0000
      6g1+     0.0000
      6g0      0.0000
      6g1-     0.0000
      6g2-     0.0000
      6g3-     0.0000
      6g4-     0.0000
      6h5+     0.0000
      6h4+     0.0000
      6h3+     0.0000
      6h2+     0.0000
      6h1+     0.0000
      6h0      0.0000
      6h1-     0.0000
      6h2-     0.0000
      6h3-     0.0000
      6h4-     0.0000
      6h5-     0.0000
      7d2+     0.0000
      7d1+     0.0000
      7d0      0.0000
      7d1-     0.0000
      7d2-     0.0000
      7f3+     0.0000
      7f2+     0.0000
      7f1+     0.0000
      7f0      0.0000
      7f1-     0.0000
      7f2-     0.0000
      7f3-     0.0000
      7g4+     0.0000
      7g3+     0.0000
      7g2+     0.0000
      7g1+     0.0000
      7g0      0.0000
      7g1-     0.0000
      7g2-     0.0000
      7g3-     0.0000
      7g4-     0.0000
      7h5+     0.0000
      7h4+     0.0000
      7h3+     0.0000
      7h2+     0.0000
      7h1+     0.0000
      7h0      0.0000
      7h1-     0.0000
      7h2-     0.0000
      7h3-     0.0000
      7h4-     0.0000
      7h5-     0.0000
      8s       0.0001
      8px      0.0000
      8pz      0.0000
      8py      0.0000
      8d2+     0.0000
      8d1+     0.0000
      8d0      0.0000
      8d1-     0.0000
      8d2-     0.0000
      8f3+     0.0000
      8f2+     0.0000
      8f1+     0.0000
      8f0      0.0000
      8f1-     0.0000
      8f2-     0.0000
      8f3-     0.0000
      8g4+     0.0000
      8g3+     0.0000
      8g2+     0.0000
      8g1+     0.0000
      8g0      0.0000
      8g1-     0.0000
      8g2-     0.0000
      8g3-     0.0000
      8g4-     0.0000
      9s       0.0000
      9px      0.0000
      9pz      0.0000
      9py      0.0000
      9d2+     0.0000
      9d1+     0.0000
      9d0      0.0000
      9d1-     0.0000
      9d2-     0.0000
      9f3+     0.0000
      9f2+     0.0000
      9f1+     0.0000
      9f0      0.0000
      9f1-     0.0000
      9f2-     0.0000
      9f3-     0.0000
     10s       0.0000
     10px      0.0000
     10pz      0.0000
     10py      0.0000
     10d2+     0.0000
     10d1+     0.0000
     10d0      0.0000
     10d1-     0.0000
     10d2-     0.0000
      Total   18.0000

      N-E      5.0000

      Total electronic charge=   18.000000

      Total            charge=    5.000000
--

 Sorry, Molden does not know how to handle
 functions with angular momentum larger than g

++    Static properties:
      ------------------


      LoProp Charges per center


                   V     
      Nuclear     23.0000
      Electronic -18.0000

      Total        5.0000
--


++    Molecular properties:
      ---------------------

      Charge (e):
                      =    5.0000
      Dipole Moment (Debye):
      Origin of the operator (Ang)=    0.0000    0.0000    0.0000
                   X= -7.2191E-01               Y= -1.0721E-13               Z=  1.1092E-01           Total=  7.3039E-01
      Center of Charge (Ang)
                     X=   -0.03005969               Y=   -0.00000000               Z=    0.00461877
      Quadrupole Moment (Debye*Ang):
      Origin of the operator (Ang)=   -0.0000   -0.0000    0.0046
                  XX= -3.9990E+00              XY=  1.3279E-14              XZ=  1.8726E-05              YY= -3.9970E+00
                  YZ=  5.6678E-15              ZZ= -3.9970E+00
      In traceless form (Debye*Ang)
                  XX= -2.0096E-03              XY=  1.9918E-14              XZ=  2.8089E-05              YY=  1.0064E-03
                  YZ=  8.5018E-15              ZZ=  1.0032E-03
--

 Sorry, Molden does not know how to handle
 functions with angular momentum larger than g
 ###############################################################################
 ###############################################################################
 ###                                                                         ###
 ###                                                                         ###
 ###    WARNING: RunFile label nBas                                          ###
 ###    was used       62 times                                              ###
 ###                                                                         ###
 ###                                                                         ###
 ###############################################################################
 ###############################################################################
Note: The following floating-point exceptions are signalling: IEEE_UNDERFLOW_FLAG IEEE_DENORMAL
--- Stop Module: scf at Thu Mar 27 00:12:42 2025 /rc=_RC_ALL_IS_WELL_ ---
*** files: vanadium_so_cf.LprOrb vanadium_so_cf.ScfOrb xmldump
    saved to directory /home4/s4752295/Internship/Initial_simulations/Point_charge_model/1_electron/Madelung_charges_9_active_space/V
--- Module scf spent 7 seconds ---

*** symbolic link created: INPORB -> vanadium_so_cf.ScfOrb
--- Start Module: rasscf at Thu Mar 27 00:12:42 2025 ---

()()()()()()()()()()()()()()()()()()()()()()()()()()()()()()()()()()()()()()()()()()()()()()()()()()

                                              &RASSCF

                                   only a single process is used
                       available to each process: 4.1 GB of memory, 1 thread?
                                            pid: 1938412
()()()()()()()()()()()()()()()()()()()()()()()()()()()()()()()()()()()()()()()()()()()()()()()()()()


      Header of the ONEINT file:
      --------------------------
      
      Integrals generated by seward 4.2.0  , Thu Mar 27 00:12:26 2025


      OrdInt status: non-squared


      Cartesian coordinates in Angstrom:
      -----------------------------------------------------
      No.  Label        X            Y            Z        
      -----------------------------------------------------
       1   V         -0.00000000  -0.00000000   0.00463220
      -----------------------------------------------------
      Nuclear repulsion energy = -105.21315597

++    Wave function specifications:
      -----------------------------

      Number of closed shell electrons          18
      Number of electrons in active shells       1
      Max number of holes in RAS1 space          0
      Max nr of electrons in RAS3 space          0
      Number of inactive orbitals                9
      Number of active orbitals                  9
      Number of secondary orbitals             159
      Spin quantum number                      0.5
      State symmetry                             1
--

++    Orbital specifications:
      -----------------------

      Symmetry species                           1
                                                 a
      Frozen orbitals                            0
      Inactive orbitals                          9
      Active orbitals                            9
      RAS1 orbitals                              0
      RAS2 orbitals                              9
      RAS3 orbitals                              0
      Secondary orbitals                       159
      Deleted orbitals                           0
      Number of basis functions                177
--

++    CI expansion specifications:
      ----------------------------

      Number of CSFs                             9
      Number of determinants                     9
      Number of root(s) required                 9
      Root chosen for geometry opt.              9
      CI roots used                              1     2     3     4     5     6     7     8     9
      weights                                0.111 0.111 0.111 0.111 0.111 0.111 0.111 0.111 0.111
      highest root included in the CI            9
      max. size of the explicit Hamiltonian      9
--

++    Optimization specifications:
      ----------------------------

      RASSCF algorithm: Conventional
      Maximum number of macro iterations       200
      Maximum number of SX iterations          100
      Threshold for RASSCF energy            0.100E-07
      Threshold for max MO rotation          0.100E+00
      Threshold for max BLB element          0.100E-03
      Level shift parameter                  0.500E+00
      Make Quasi-Newton update
--

      The MO-coefficients are taken from the file:
      INPORB                                                                                                                          
      Title: SCF orbitals                                                                  

      Total molecular charge    4.00

      ************************************************************************************************************************
      *                                                                                                                      *
      *                                            Wave function control section                                             *
      *                                                                                                                      *
      ************************************************************************************************************************


                                         RASSCF iterations: Energy and convergence statistics
                                         ----------------------------------------------------

      Iter CI   SX   CI       RASSCF       Energy    max ROT     max BLB   max BLB  Level Ln srch  Step   QN   Walltime
          iter iter root      energy       change     param      element    value   shift minimum  type update hh:mm:ss
 Nr of preliminary CI iterations:   1
        1   1    6    0  -962.74710701    0.00E+00   0.12E-01    7  19 1  0.73E-01*  0.00   0.00    SX    NO    0:00:03
        2   1    6    0  -962.75924109   -0.12E-01*  0.15E-01    9 147 1 -0.20E-01*  0.00   0.00    SX    NO    0:00:01
        3   1    6    0  -962.75959900   -0.36E-03*  0.11E-01    3 171 1  0.45E-02*  0.00   0.00    SX    NO    0:00:01
        4   1    6    0  -962.75962932   -0.30E-04*  0.91E-02    6 121 1 -0.13E-02*  0.00   0.00    SX    NO    0:00:01
        5   1    6    0  -962.75963446   -0.51E-05* -0.73E-02    6 121 1  0.49E-03*  0.00   0.57    SX   YES    0:00:01
        6   1    6    0  -962.75963666   -0.22E-05*  0.63E-02   12  21 1  0.35E-03*  0.00   0.55    SX   YES    0:00:01
        7   1    6    0  -962.75963776   -0.11E-05*  0.29E-02   14  20 1  0.33E-03*  0.00   0.53    LS   YES    0:00:01
        8   1    5    0  -962.75964164   -0.39E-05*  0.47E-03    6 121 1 -0.29E-04   0.00   1.01    QN   YES    0:00:01
        9   1    5    0  -962.75964169   -0.51E-07*  0.36E-03    6 121 1  0.22E-04   0.00   0.90    QN   YES    0:00:01
       10   1    4    0  -962.75964172   -0.23E-07*  0.12E-03    6 121 1  0.10E-04   0.00   1.20    QN   YES    0:00:01
       11   1    4    0  -962.75964172   -0.13E-08   0.18E-04    6 121 1 -0.41E-05   0.00   0.76    QN   YES    0:00:01
      Convergence after 11 iterations
       12   1    4    0  -962.75964172   -0.25E-09   0.18E-04    4 170 1 -0.67E-06   0.00   0.76    QN   YES    0:00:01

      ************************************************************************************************************************
                                                      Wave function printout:
                       occupation of active orbitals, and spin coupling of open shells (u,d: Spin up or down)
      ************************************************************************************************************************

      Note: transformation to natural orbitals
      has been made, which may change the order of the CSFs.

      printout of CI-coefficients larger than  0.05 for root  1
      energy=    -963.044669
      conf/sym  111111111     Coeff  Weight
             1  u00000000   0.73688 0.54300
             3  00u000000   0.50089 0.25089
             5  0000u0000   0.44865 0.20129

      printout of CI-coefficients larger than  0.05 for root  2
      energy=    -963.044665
[...]
         3   17       1.27813878E-05  6.21153478E-01  1.17330716E-11  2.17175359E+05  2.17175981E+05
         4   12       2.01527109E-04  2.23343371E+02  8.30102611E-11  1.06857199E+06  1.06879533E+06
         4   14       1.59370719E-02  1.85508489E+07  1.20081267E-08  2.41529107E+08  2.60079956E+08
         4   16       1.48475853E-02  1.57239247E-09  2.42620376E+08  1.20801017E-08  2.42620376E+08
         4   18       1.27813878E-05  6.21153478E-01  1.17330716E-11  2.17175359E+05  2.17175981E+05
         5   11       1.34698354E-02  6.88892692E+04  6.73411160E-10  7.07095729E+07  7.07784622E+07
         5   13       5.28509865E-02  8.57601855E+08  5.67297429E-12  3.45730663E+05  8.57947585E+08
         5   15       1.25571079E-05  5.54204399E-09  2.04113575E+05  6.66233113E-12  2.04113575E+05
         5   17       2.28161213E-03  7.05604093E+04  3.70242449E-10  3.84977616E+07  3.85683221E+07
         6   12       1.34698354E-02  6.88892692E+04  6.73411160E-10  7.07095729E+07  7.07784622E+07
         6   14       5.28509865E-02  8.57601855E+08  5.67297429E-12  3.45730663E+05  8.57947585E+08
         6   16       1.25571079E-05  5.54204399E-09  2.04113575E+05  6.66233113E-12  2.04113575E+05
         6   18       2.28161213E-03  7.05604093E+04  3.70242449E-10  3.84977616E+07  3.85683221E+07
         7   11       1.34161061E-02  2.68892459E-11  7.04923060E+07  6.68781069E-10  7.04923060E+07
         7   13       2.23881877E-05  5.47046806E-09  3.63423638E+05  1.92360274E-11  3.63423638E+05
         7   15       5.27959930E-02  8.57754991E+08  4.71998805E-12  4.08055234E+05  8.58163047E+08
         7   17       2.29559656E-03  1.20241813E-11  3.88035390E+07  3.65284904E-10  3.88035390E+07
         8   12       1.34161061E-02  2.68892459E-11  7.04923060E+07  6.68781069E-10  7.04923060E+07
         8   14       2.23881877E-05  5.47046806E-09  3.63423638E+05  1.92360274E-11  3.63423638E+05
         8   16       5.27959930E-02  8.57754991E+08  4.71998805E-12  4.08055234E+05  8.58163047E+08
         8   18       2.29559656E-03  1.20241813E-11  3.88035390E+07  3.65284904E-10  3.88035390E+07
         9   11       4.34835512E-02  2.28191092E+08  5.91400816E-12  2.23763027E+04  2.28213468E+08
         9   13       6.24204481E-04  2.92787235E+05  2.50090916E-12  9.83319756E+06  1.01259848E+07
         9   15       6.12195314E-04  7.77087513E-11  9.94432233E+06  3.52864685E-12  9.94432233E+06
         9   17       4.74074145E-03  8.00717600E+07  3.24596561E-12  1.18951469E+04  8.00836552E+07
        10   12       4.34835512E-02  2.28191092E+08  5.91400816E-12  2.23763027E+04  2.28213468E+08
        10   14       6.24204481E-04  2.92787235E+05  2.50090916E-12  9.83319756E+06  1.01259848E+07
        10   16       6.12195314E-04  7.77087513E-11  9.94432233E+06  3.52864685E-12  9.94432233E+06
        10   18       4.74074145E-03  8.00717600E+07  3.24596561E-12  1.18951469E+04  8.00836552E+07
        11   13       3.45248505E-01  1.11049065E+04  3.12473079E-10  1.04138810E+09  1.04139920E+09
        11   15       3.45362504E-01  1.27481957E-14  1.04494406E+09  3.14389151E-10  1.04494406E+09
        11   17       2.97062163E-01  9.83061323E+08  4.61423855E-15  1.45013868E+04  9.83075824E+08
        12   14       3.45248505E-01  1.11049065E+04  3.12473079E-10  1.04138810E+09  1.04139920E+09
        12   16       3.45362504E-01  1.27481957E-14  1.04494406E+09  3.14389151E-10  1.04494406E+09
        12   18       2.97062163E-01  9.83061323E+08  4.61423855E-15  1.45013868E+04  9.83075824E+08
        13   15       1.90741784E-05  1.28520592E-23  1.35597993E-01  1.64606312E-19  1.35597993E-01
        13   17       8.97702922E-04  9.13145136E-01  1.78636648E-15  6.09189677E+03  6.09280992E+03
        14   16       1.90741784E-05  1.28520592E-23  1.35597993E-01  1.64606312E-19  1.35597993E-01
        14   18       8.97702922E-04  9.13145136E-01  1.78636648E-15  6.09189677E+03  6.09280992E+03
        15   17       8.50417003E-04  1.06865979E-18  5.40431962E+03  1.66738343E-15  5.40431962E+03
        16   18       8.50417003E-04  1.06865979E-18  5.40431962E+03  1.66738343E-15  5.40431962E+03
     -----------------------------------------------------------------------------------------------
--

++ Velocity transition strengths (SO states):
   ------------------------------------------
    for osc. strength at least    1.0000000000000001E-005

      From   To        Osc. strength     Einstein coefficients Ax, Ay, Az (sec-1)    Total A (sec-1)
     -----------------------------------------------------------------------------------------------
         1    3       3.86217180E-04  6.29230827E-22  2.78844398E-04  1.51746926E-20  2.78844398E-04
         1    5       1.45435336E-02  1.10905264E-18  1.65470426E+03  3.28856188E-14  1.65470426E+03
         1    7       1.43580938E-02  3.13183613E-03  3.29162286E-14  1.65273511E+03  1.65273825E+03
         1    9       4.68398281E-04  2.38258712E-20  6.79592161E+01  7.00351623E-15  6.79592161E+01
         1   11       1.89440301E-04  1.57767397E-14  1.00472010E+06  5.34822700E-11  1.00472010E+06
         1   13       1.26588729E-02  1.14724925E-09  2.06585900E+08  1.02885844E-08  2.06585900E+08
         1   15       1.38506267E-02  1.85984875E+07  1.03404196E-08  2.07734655E+08  2.26333142E+08
         2    4       3.86217180E-04  6.29230827E-22  2.78844398E-04  1.51746926E-20  2.78844398E-04
         2    6       1.45435336E-02  1.10905264E-18  1.65470426E+03  3.28856188E-14  1.65470426E+03
         2    8       1.43580938E-02  3.13183613E-03  3.29162286E-14  1.65273511E+03  1.65273825E+03
         2   10       4.68398281E-04  2.38258712E-20  6.79592161E+01  7.00351623E-15  6.79592161E+01
         2   12       1.89440301E-04  1.57767397E-14  1.00472010E+06  5.34822700E-11  1.00472010E+06
         2   14       1.26588729E-02  1.14724925E-09  2.06585900E+08  1.02885844E-08  2.06585900E+08
         2   16       1.38506267E-02  1.85984875E+07  1.03404196E-08  2.07734655E+08  2.26333142E+08
         3    5       1.43383854E-02  4.87579466E-03  3.38145668E-14  1.62314978E+03  1.62315465E+03
         3    7       1.44328637E-02  9.17864133E-20  1.65303382E+03  3.47189599E-14  1.65303382E+03
         3    9       5.76496340E-04  1.33798963E-05  3.24681816E-15  8.32702357E+01  8.32702490E+01
         3   11       1.67611085E-04  1.92415381E+02  6.83390530E-11  8.88732991E+05  8.88925406E+05
         3   13       1.36841926E-02  1.66169193E+07  1.02761090E-08  2.06698668E+08  2.23315587E+08
         3   15       1.27042827E-02  1.40054459E-09  2.07597971E+08  1.03392542E-08  2.07597971E+08
         4    6       1.43383854E-02  4.87579466E-03  3.38145668E-14  1.62314978E+03  1.62315465E+03
         4    8       1.44328637E-02  9.17864133E-20  1.65303382E+03  3.47189599E-14  1.65303382E+03
         4   10       5.76496340E-04  1.33798963E-05  3.24681816E-15  8.32702357E+01  8.32702490E+01
         4   12       1.67611085E-04  1.92415381E+02  6.83390530E-11  8.88732991E+05  8.88925406E+05
         4   14       1.36841926E-02  1.66169193E+07  1.02761090E-08  2.06698668E+08  2.23315587E+08
         4   16       1.27042827E-02  1.40054459E-09  2.07597971E+08  1.03392542E-08  2.07597971E+08
         5    7       1.24418670E-03  2.72484469E-22  4.82609562E-03  1.84063244E-18  4.82609562E-03
         5    9       3.44279968E-01  2.59076994E-05  6.22037043E-15  6.54401743E+02  6.54401769E+02
         5   11       1.12271184E-02  5.89734258E+04  5.60281877E-10  5.89351354E+07  5.89941088E+07
         5   13       4.67805989E-02  7.59172505E+08  3.84684287E-12  2.35106828E+05  7.59407612E+08
         5   17       1.86759405E-03  6.82675635E+04  3.03213966E-10  3.15016116E+07  3.15698791E+07
         6    8       1.24418670E-03  2.72484469E-22  4.82609562E-03  1.84063244E-18  4.82609562E-03
         6   10       3.44279968E-01  2.59076994E-05  6.22037043E-15  6.54401743E+02  6.54401769E+02
         6   12       1.12271184E-02  5.89734258E+04  5.60281877E-10  5.89351354E+07  5.89941088E+07
         6   14       4.67805989E-02  7.59172505E+08  3.84684287E-12  2.35106828E+05  7.59407612E+08
         6   18       1.86759405E-03  6.82675635E+04  3.03213966E-10  3.15016116E+07  3.15698791E+07
         7    9       3.59187386E-01  3.12128898E-20  6.22446793E+02  5.95029503E-15  6.22446793E+02
         7   11       1.11818679E-02  2.30297421E-11  5.87531424E+07  5.57847938E-10  5.87531424E+07
         7   13       1.48720373E-05  4.84295048E-09  2.41416087E+05  1.59116868E-11  2.41416087E+05
         7   15       4.67243355E-02  7.59200426E+08  2.53213264E-12  2.74588151E+05  7.59475014E+08
         7   17       1.87908862E-03  1.22466670E-11  3.17632215E+07  2.99012763E-10  3.17632215E+07
         8   10       3.59187386E-01  3.12128898E-20  6.22446793E+02  5.95029503E-15  6.22446793E+02
         8   12       1.11818679E-02  2.30297421E-11  5.87531424E+07  5.57847938E-10  5.87531424E+07
         8   14       1.48720373E-05  4.84295048E-09  2.41416087E+05  1.59116868E-11  2.41416087E+05
         8   16       4.67243355E-02  7.59200426E+08  2.53213264E-12  2.74588151E+05  7.59475014E+08
         8   18       1.87908862E-03  1.22466670E-11  3.17632215E+07  2.99012763E-10  3.17632215E+07
         9   11       3.72265765E-02  1.95357172E+08  4.91581929E-12  1.86756737E+04  1.95375847E+08
         9   13       7.13581146E-04  2.62411367E+05  2.98760444E-12  1.13135019E+07  1.15759133E+07
         9   15       7.01817018E-04  6.88024749E-11  1.14001508E+07  3.89377242E-12  1.14001508E+07
         9   17       4.88676637E-03  8.25407189E+07  2.65938197E-12  9.97012100E+03  8.25506890E+07
        10   12       3.72265765E-02  1.95357172E+08  4.91581929E-12  1.86756737E+04  1.95375847E+08
        10   14       7.13581146E-04  2.62411367E+05  2.98760444E-12  1.13135019E+07  1.15759133E+07
        10   16       7.01817018E-04  6.88024749E-11  1.14001508E+07  3.89377242E-12  1.14001508E+07
        10   18       4.88676637E-03  8.25407189E+07  2.65938197E-12  9.97012100E+03  8.25506890E+07
        11   13       3.22671651E-01  1.14937736E+04  2.92775493E-10  9.73290817E+08  9.73302311E+08
        11   15       3.22578858E-01  1.34349743E-14  9.76012248E+08  2.92916654E-10  9.76012248E+08
        11   17       2.91991389E-01  9.66285335E+08  3.80021062E-15  1.29991616E+04  9.66298334E+08
        12   14       3.22671651E-01  1.14937736E+04  2.92775493E-10  9.73290817E+08  9.73302311E+08
        12   16       3.22578858E-01  1.34349743E-14  9.76012248E+08  2.92916654E-10  9.76012248E+08
        12   18       2.91991389E-01  9.66285335E+08  3.80021062E-15  1.29991616E+04  9.66298334E+08
        13   15       8.27367418E-05  3.32347568E-20  5.88176064E-01  7.35017393E-20  5.88176064E-01
        13   17       1.09535895E-01  3.94015012E-06  2.22597426E-13  7.43434931E+05  7.43434931E+05
        14   16       8.27367418E-05  3.32347568E-20  5.88176064E-01  7.35017393E-20  5.88176064E-01
        14   18       1.09535895E-01  3.94015012E-06  2.22597426E-13  7.43434931E+05  7.43434931E+05
        15   17       1.12864723E-01  3.91677927E-18  7.17247132E+05  2.15766026E-13  7.17247132E+05
        16   18       1.12864723E-01  3.91677927E-18  7.17247132E+05  2.15766026E-13  7.17247132E+05
     -----------------------------------------------------------------------------------------------
--

++ Length and velocity gauge comparison (SO states):

 --------------------------------------------------
 A comparison between the dipole oscillator strengths in 
 length and velocity gauge will be performed

 All dipole oscillator differences above the tolerance of   0.10000000000000001       will be printed 

 Due to basis set deficiency these oscillator may be problematic 

 The tolerance is defined as ABS(1-O_l/O_v) 
 O_l : dipole oscillator strength in length gauge
 O_p : dipole oscillator strength in velocity gauge
 --------------------------------------------------

  Problematic transitions have been found

      From   To       Difference (%) Osc. st. (len.) Osc. st. (vel.)
     ---------------------------------------------------------------
         1    3      --------------- below threshold  3.86217180E-04
         1    5      --------------- below threshold  1.45435336E-02
         1    7      --------------- below threshold  1.43580938E-02
         1    9      --------------- below threshold  4.68398281E-04
         1   11            20.228774  2.27761750E-04  1.89440301E-04
         1   13            16.850051  1.47918995E-02  1.26588729E-02
         1   15            16.431215  1.61264530E-02  1.38506267E-02
         2    4      --------------- below threshold  3.86217180E-04
         2    6      --------------- below threshold  1.45435336E-02
         2    8      --------------- below threshold  1.43580938E-02
         2   10      --------------- below threshold  4.68398281E-04
         2   12            20.228774  2.27761750E-04  1.89440301E-04
         2   14            16.850051  1.47918995E-02  1.26588729E-02
         2   16            16.431215  1.61264530E-02  1.38506267E-02
         3    5      --------------- below threshold  1.43383854E-02
         3    7      --------------- below threshold  1.44328637E-02
         3    9      --------------- below threshold  5.76496340E-04
         3   11            20.234953  2.01527109E-04  1.67611085E-04
         3   13            16.463370  1.59370719E-02  1.36841926E-02
         3   15            16.870709  1.48475853E-02  1.27042827E-02
         3   17      ---------------  1.27813878E-05 below threshold
         4    6      --------------- below threshold  1.43383854E-02
         4    8      --------------- below threshold  1.44328637E-02
         4   10      --------------- below threshold  5.76496340E-04
         4   12            20.234953  2.01527109E-04  1.67611085E-04
         4   14            16.463370  1.59370719E-02  1.36841926E-02
         4   16            16.870709  1.48475853E-02  1.27042827E-02
         4   18      ---------------  1.27813878E-05 below threshold
         5    7      --------------- below threshold  1.24418670E-03
         5    9      --------------- below threshold  3.44279968E-01
         5   11            19.975892  1.34698354E-02  1.12271184E-02
         5   13            12.976293  5.28509865E-02  4.67805989E-02
         5   15      ---------------  1.25571079E-05 below threshold
         5   17            22.168526  2.28161213E-03  1.86759405E-03
         6    8      --------------- below threshold  1.24418670E-03
         6   10      --------------- below threshold  3.44279968E-01
         6   12            19.975892  1.34698354E-02  1.12271184E-02
         6   14            12.976293  5.28509865E-02  4.67805989E-02
         6   16      ---------------  1.25571079E-05 below threshold
         6   18            22.168526  2.28161213E-03  1.86759405E-03
         7    9      --------------- below threshold  3.59187386E-01
         7   11            19.980904  1.34161061E-02  1.11818679E-02
         7   13            50.538809  2.23881877E-05  1.48720373E-05
         7   15            12.994636  5.27959930E-02  4.67243355E-02
         7   17            22.165423  2.29559656E-03  1.87908862E-03
         8   10      --------------- below threshold  3.59187386E-01
         8   12            19.980904  1.34161061E-02  1.11818679E-02
         8   14            50.538809  2.23881877E-05  1.48720373E-05
         8   16            12.994636  5.27959930E-02  4.67243355E-02
         8   18            22.165423  2.29559656E-03  1.87908862E-03
         9   11            16.807817  4.34835512E-02  3.72265765E-02
         9   13            12.525088  6.24204481E-04  7.13581146E-04
         9   15            12.769953  6.12195314E-04  7.01817018E-04
        10   12            16.807817  4.34835512E-02  3.72265765E-02
        10   14            12.525088  6.24204481E-04  7.13581146E-04
        10   16            12.769953  6.12195314E-04  7.01817018E-04
        13   15            76.945940  1.90741784E-05  8.27367418E-05
        13   17            99.180449  8.97702922E-04  1.09535895E-01
        14   16            76.945940  1.90741784E-05  8.27367418E-05
        14   18            99.180449  8.97702922E-04  1.09535895E-01
        15   17            99.246517  8.50417003E-04  1.12864723E-01
        16   18            99.246517  8.50417003E-04  1.12864723E-01
     ---------------------------------------------------------------

 Number of problematic transitions =                    62

--

 Electric-dipole - electric-octupole not included
++ I/O STATISTICS
 
  I. General I/O information
  - - - - - - - - - - - - - - - - - - - - - - - - - - - - - - - - - - - - - - - - - - -
  Unit  Name          Flsize      Write/Read            MBytes           Write/Read
                      (MBytes)       Calls              In/Out           Time, sec.
  - - - - - - - - - - - - - - - - - - - - - - - - - - - - - - - - - - - - - - - - - - -
   1  SCRATCH           0.00 .       9/      45 .      0.0/      0.0 .       0/       0
   2  ANNI              0.00 .       0/       0 .      0.0/      0.0 .       0/       0
   3  RUNFILE          14.82 .     322/   10733 .      2.3/     77.8 .       0/       0
   4  ONEINT            5.45 .       0/   23543 .      0.0/   3734.6 .       0/       0
   5  JOBIPH            6.30 .       0/      92 .      0.0/      0.8 .       0/       0
   6  ORDINT          473.53 .       1/    3789 .      0.0/    947.0 .       0/       0
  - - - - - - - - - - - - - - - - - - - - - - - - - - - - - - - - - - - - - - - - - - -
   *  TOTAL           500.11 .     332/   38202 .      2.3/   4760.2 .       0/       0
  - - - - - - - - - - - - - - - - - - - - - - - - - - - - - - - - - - - - - - - - - - -
 
  II. I/O Access Patterns
  - - - - - - - - - - - - - - - - - - - -
  Unit  Name               % of random
                         Write/Read calls
  - - - - - - - - - - - - - - - - - - - -
   1  SCRATCH             88.9/ 100.0
   2  ANNI                 0.0/   0.0
   3  RUNFILE             28.6/  10.8
   4  ONEINT               0.0/  16.4
   5  JOBIPH               0.0/  76.1
   6  ORDINT             100.0/   0.1
  - - - - - - - - - - - - - - - - - - - -
--
--- Stop Module: rassi at Thu Mar 27 00:13:18 2025 /rc=_RC_ALL_IS_WELL_ ---
*** files: xmldump
    saved to directory /home4/s4752295/Internship/Initial_simulations/Point_charge_model/1_electron/Madelung_charges_9_active_space/V
--- Module rassi spent 3 seconds ---

.##################.
.# Happy landing! #.
.##################.

    Timing: Wall=51.02 User=40.21 System=9.56

###############################################################################
Hbrk Cluster
Job 15913436 for user s4752295
Finished at: Thu Mar 27 00:13:22 CET 2025

Job details:
============

Job ID                         : 15913436
Name                           : V_no_SO
User                           : s4752295
Partition                      : regularmedium
Nodes                          : node101
Number of Nodes                : 1
Cores                          : 1
Number of Tasks                : 1
State                          : COMPLETED  
Submit                         : 2025-03-27T00:10:23
Start                          : 2025-03-27T00:12:23
End                            : 2025-03-27T00:13:18
Reserved walltime              : 15:00:00
Used walltime                  : 00:00:55
Used CPU time                  : 00:00:51 (Efficiency: 92.67%)
% User (Computation)           : 80.72%
% System (I/O)                 : 19.28%
Total memory reserved          : 25000M
Maximum memory used            : 1.90G

Acknowledgements:
=================

Please see this page for information about acknowledging Hbrk in your publications:

https://wiki.hpc.rug.nl/habrok/introduction/scientific_output

################################################################################
