   This run of MOLCAS is using the pymolcas driver

                             OPE
                             OPE          NMOL  CASOP  ENMOLC A   SO
                 OPE        NMOLC        AS  OP EN  MO LC     AS  OP
                OPENM       OL CA        SO  PE NM  OL CA     SOP EN
                OP EN      MO   LC       AS  OP ENMOL  CASO   PENMOL
                OP  EN     MO   LC       AS  OP EN     MO     LC ASO
               OP   E  NMOL  C  AS       OP  EN MO     LC     AS  OP
               OP  E   NMO   LC AS        OPEN  MO     LCASOP EN   M
               O  PEN   MO  LCA  SO
            OPE   NMO   L   CAS    OP
        OPENMOL  CASOP     ENMOL   CASOPE
     OPENMOLCA   SOPENMOLCASOPEN   MOLCASOPE
    OPENMOLCAS   OP           EN   MOL    CAS
    OPENMOLCAS       OP  ENM        O     LCA
    OPENMOLCAS    OPEN  MOLCASO     P  E  NMO
    OPENMOLCAS     OP               E  N  MOL
    OPENMOLCA   SO           PENM   O  L  CAS    OPEN    MO    LCAS
    OPENMOLCA   SOP           ENM   O  L  CAS   OP  EN  MOLC  AS   O
    OPENMOLCA   SOPE           NM      O  LCA   S      OP  EN MO
    OPENMOLC                AS         O  PEN   M      OL  CA  SOPE
    OPENMO        LCASOPE  NMOL        C  ASO   P      ENMOLC     AS
    OPE     NMO      LCA  SO     P     E   NM   OL  CA SO  PE N   MO
          OPENMOLCA            SOPE   NMO        LCAS  O    P  ENMO
     OPENMOLCASOPENMOLCASOPENMOLCASOPENMOLCA
        OPENMOLCASOPENMOLCASOPENMOLCASOPE
            OPENMOLCASOPENMOLCASOPENM
               OPENMOLCASOPENMOLCA        version: o91e1abe7de707b ?
                   OPENMOLCASO
                       OPE                tag:

 OpenMolcas is free software; you can redistribute it and/or modify it
 under the terms of the GNU Lesser General Public License version 2.1.
 OpenMolcas is distributed in the hope that it will be useful, but it
 is provided "as is" and without any express or implied warranties.
 For more details see the full text of the license in the file
 LICENSE or in <http://www.gnu.org/licenses/>.

                 Copyright (C) The OpenMolcas Authors
           For the author list and the recommended citation,
                   consult the file CONTRIBUTORS.md

           *************************************************
           * pymolcas version py2.10                       *
           *   build 3068ae8b88c9345ec6cfef6fef7f1169      *
           *   (after the EMIL interpreter by V. Veryazov) *
           *************************************************

configuration info
------------------
Host name: login1 (Linux)
C Compiler ID: GNU
C flags: -std=gnu99
Fortran Compiler ID: GNU
Fortran flags: -fno-aggressive-loop-optimizations -cpp -fdefault-integer-8 -fmax-stack-var-size=1048576
Definitions: _MOLCAS_;_I8_;_LINUX_;_MKL_
Parallel: OFF (GA=OFF)


   ----------------------------------------------------------------------------------------------------------------------------------
  |
  |           Project: vanadium_so_cf
  |    Submitted from: /home4/s4752295/Internship/Initial_simulations/Point_charge_model/1_electron/Madelung_charges_9_active_space/V
  |      Scratch area: /tmp/vanadium_so_cf
  |   Save outputs to: /home4/s4752295/Internship/Initial_simulations/Point_charge_model/1_electron/Madelung_charges_9_active_space/V
  |            Molcas: /home4/s4752295/Internship/Molcas/recomp_try/OpenMolcas-master/build
  |
  | Scratch area is empty
  |
  |    MOLCAS_DRIVER = /home4/s4752295/Internship/Molcas/bin/pymolcas
  |    MOLCAS_NPROCS = 1
  |    MOLCAS_SOURCE = /home4/s4752295/Internship/Molcas/recomp_try/OpenMolcas-master
  | MOLCAS_STRUCTURE = 0
  |
   ----------------------------------------------------------------------------------------------------------------------------------

++ ---------   Input file   ---------

&SEWARD
AMFi

CLIG
$R

Basis Set
V.ANO-rcc.Roos.21s15p10d6f4g2h.10s9p8d6f4g2h.
Spherical d
V            -1.0658140267135469e-14    -3.5527134223784897e-15 0.008753588724385739
End of Basis

Xfield

414
-6.00330162,-2.31,1.3336785     -0.625931
-6.00330162,-0.0,-2.6673584999999997    -0.625931
-6.00330162,2.31,1.3336785      -0.625931
-5.993019105,0.0,0.0    1.892092
3.9887695350000003,-2.31,-1.3336785     2.515516
3.9887695350000003,0.0,2.6673584999999997       2.515516
3.9887695350000003,2.31,-1.3336785      2.515516
5.34448242,-4.62,0.0    0.004632
5.34448242,-2.31,-4.001037      0.004632
5.34448242,-2.31,4.001037       0.004632
5.34448242,2.31,-4.001037       0.004632
5.34448242,2.31,4.001037        0.004632
5.34448242,4.62,0.0     0.004632
6.193725585000001,-2.31,1.3336785       -2.519484
6.193725585000001,-0.0,-2.6673584999999997      -2.519484
6.193725585000001,2.31,1.3336785        -2.519484
-4.399658205,-0.0,-0.0  -3.142907
-7.462646490000001,-4.62,-2.6673584999999997    -0.625931
-7.462646490000001,0.0,5.3347155        -0.625931
-7.462646490000001,4.62,-2.6673584999999997     -0.625931
-9.9140625,-4.62,0.0    1.892092
-9.9140625,-2.31,-4.001037      1.892092
-9.9140625,-2.31,4.001037       1.892092
-9.9140625,2.31,-4.001037       1.892092
-9.9140625,2.31,4.001037        1.892092
-9.9140625,4.62,0.0     1.892092
37.7578125,-4.62,2.6673584999999997     2.515516
37.7578125,-0.0,-5.3347155      2.515516
37.7578125,4.62,2.6673584999999997      2.515516
5.45800782,-4.62,-2.6673584999999997    -2.519484
5.45800782,0.0,5.3347155        -2.519484
5.45800782,4.62,-2.6673584999999997     -2.519484
-4.84863282,-4.62,-0.0  -3.142907
-4.84863282,-2.31,-4.001037     -3.142907
-4.84863282,-2.31,4.001037      -3.142907
-4.84863282,2.31,-4.001037      -3.142907
-4.84863282,2.31,4.001037       -3.142907
-4.84863282,4.62,-0.0   -3.142907
-14.28515625,-4.62,5.3347155    -0.625931
-14.28515625,4.62,5.3347155     -0.625931
-14.28515625,-6.93,1.3336785    -0.625931
-14.28515625,6.93,1.3336785     -0.625931
-14.28515625,-2.31,-6.668395500000001   -0.625931
-14.28515625,2.31,-6.668395500000001    -0.625931
9.01171875,-2.31,-1.3336785     4.409069
9.01171875,2.31,-1.3336785      4.409069
9.01171875,0.0,2.6673584999999997       4.409069
-262.875,-0.0,-0.0      -5.030367
-262.875,0.0,0.0        5.039632
20.27636718,-4.62,-5.3347155    2.515516
20.27636718,4.62,-5.3347155     2.515516
20.27636718,-6.93,-1.3336785    2.515516
20.27636718,6.93,-1.3336785     2.515516
20.27636718,-2.31,6.668395500000001     2.515516
20.27636718,2.31,6.668395500000001      2.515516
28.55859375,-6.93,-4.001037     0.004632
28.55859375,-6.93,4.001037      0.004632
28.55859375,6.93,-4.001037      0.004632
28.55859375,6.93,4.001037       0.004632
28.55859375,-0.0,-8.002074      0.004632
28.55859375,0.0,8.002074        0.004632
72.1171875,-4.62,5.3347155      -2.519484
72.1171875,4.62,5.3347155       -2.519484
72.1171875,-6.93,1.3336785      -2.519484
72.1171875,6.93,1.3336785       -2.519484
72.1171875,-2.31,-6.668395500000001     -2.519484
72.1171875,2.31,-6.668395500000001      -2.519484
-218.8125,-6.93,-4.001037       1.892092
-218.8125,-6.93,4.001037        1.892092
-218.8125,6.93,-4.001037        1.892092
-218.8125,6.93,4.001037 1.892092
-218.8125,-0.0,-8.002074        1.892092
-218.8125,0.0,8.002074  1.892092
-176.625,-4.62,2.6673584999999997       4.409069
-176.625,-0.0,-5.3347155        4.409069
-176.625,4.62,2.6673584999999997        4.409069
-133.5,-4.62,-0.0       -5.030367
-133.5,-2.31,-4.001037  -5.030367
-133.5,-2.31,4.001037   -5.030367
-133.5,2.31,-4.001037   -5.030367
-133.5,-4.62,0.0        5.039632
-133.5,4.62,-0.0        -5.030367
-133.5,2.31,4.001037    -5.030367
-133.5,-2.31,-4.001037  5.039632
-133.5,-2.31,4.001037   5.039632
-133.5,2.31,-4.001037   5.039632
-133.5,4.62,0.0 5.039632
-133.5,2.31,4.001037    5.039632
-69.9375,-2.31,-1.3336785       -5.660931
-69.9375,0.0,2.6673584999999997 -5.660931
-69.9375,2.31,-1.3336785        -5.660931
1.32421875,-9.2399985,0.0       0.004632
1.32421875,-4.62,-8.002074      0.004632
1.32421875,-4.62,8.002074       0.004632
1.32421875,4.62,-8.002074       0.004632
1.32421875,9.2399985,0.0        0.004632
1.32421875,4.62,8.002074        0.004632
101.90625,-6.93,4.001037        -3.142907
101.90625,-6.93,-4.001037       -3.142907
101.90625,6.93,-4.001037        -3.142907
101.90625,6.93,4.001037 -3.142907
101.90625,-0.0,-8.002074        -3.142907
101.90625,0.0,8.002074  -3.142907
129.5625,-9.2399985,-2.6673584999999997 -0.625931
129.5625,-6.93,-6.668395500000001       -0.625931
129.5625,-2.31,9.3357525        -0.625931
129.5625,6.93,-6.668395500000001        -0.625931
129.5625,9.2399985,-2.6673584999999997  -0.625931
129.5625,2.31,9.3357525 -0.625931
1.79589843,-9.2399985,0.0       1.892092
1.79589843,-4.62,-8.002074      1.892092
1.79589843,-4.62,8.002074       1.892092
1.79589843,4.62,-8.002074       1.892092
1.79589843,9.2399985,0.0        1.892092
1.79589843,4.62,8.002074        1.892092
50.765625,-4.62,-5.3347155      4.409069
50.765625,4.62,-5.3347155       4.409069
50.765625,-6.93,-1.3336785      4.409069
50.765625,6.93,-1.3336785       4.409069
50.765625,-2.31,6.668395500000001       4.409069
50.765625,2.31,6.668395500000001        4.409069
243.609375,-4.62,2.6673584999999997     -5.660931
243.609375,-0.0,-5.3347155      -5.660931
243.609375,4.62,2.6673584999999997      -5.660931
0.515625,-9.2399985,2.6673584999999997  2.515516
0.515625,-2.31,-9.3357525       2.515516
0.515625,-6.93,6.668395500000001        2.515516
0.515625,2.31,-9.3357525        2.515516
0.515625,9.2399985,2.6673584999999997   2.515516
0.515625,6.93,6.668395500000001 2.515516
-141.28125,-9.2399985,-2.6673584999999997       -2.519484
-141.28125,-6.93,-6.668395500000001     -2.519484
-141.28125,-2.31,9.3357525      -2.519484
-141.28125,6.93,-6.668395500000001      -2.519484
-141.28125,2.31,9.3357525       -2.519484
-141.28125,9.2399985,-2.6673584999999997        -2.519484
-33.10546875,-9.2399985,-0.0    -3.142907
-33.10546875,-4.62,-8.002074    -3.142907
-33.10546875,-4.62,8.002074     -3.142907
-33.10546875,4.62,-8.002074     -3.142907
-33.10546875,4.62,8.002074      -3.142907
-33.10546875,9.2399985,-0.0     -3.142907
909.75,0.0,0.0  6.927092
484.875,-9.2399985,5.3347155    -0.625931
484.875,9.2399985,5.3347155     -0.625931
484.875,-0.0,-10.669432500000001        -0.625931
-8.1328125,-6.93,4.001037       -5.030367
-8.1328125,-6.93,-4.001037      -5.030367
-8.1328125,-6.93,4.001037       5.039632
-8.1328125,-6.93,-4.001037      5.039632
-8.1328125,6.93,-4.001037       -5.030367
-8.1328125,6.93,4.001037        -5.030367
-8.1328125,6.93,-4.001037       5.039632
-8.1328125,6.93,4.001037        5.039632
-8.1328125,-0.0,-8.002074       -5.030367
-8.1328125,0.0,8.002074 -5.030367
-8.1328125,-0.0,-8.002074       5.039632
-8.1328125,0.0,8.002074 5.039632
137.71875,-4.62,-5.3347155      -5.660931
137.71875,4.62,-5.3347155       -5.660931
137.71875,-6.93,-1.3336785      -5.660931
137.71875,6.93,-1.3336785       -5.660931
137.71875,-2.31,6.668395500000001       -5.660931
137.71875,2.31,6.668395500000001        -5.660931
450.75,-9.2399985,-5.3347155    2.515516
450.75,9.2399985,-5.3347155     2.515516
450.75,0.0,10.669432500000001   2.515516
-775.875,-9.2399985,5.3347155   -2.519484
-775.875,9.2399985,5.3347155    -2.519484
-775.875,-0.0,-10.669432500000001       -2.519484
80.34375,-4.62,0.0      6.927092
80.34375,-2.31,-4.001037        6.927092
80.34375,-2.31,4.001037 6.927092
80.34375,2.31,-4.001037 6.927092
80.34375,2.31,4.001037  6.927092
80.34375,4.62,0.0       6.927092
-82.875,-2.31,1.3336785 7.550516
-82.875,0.0,-2.6673584999999997 7.550516
-82.875,2.31,1.3336785  7.550516
23.296875,-2.31,-1.3336785      -7.554483
23.296875,2.31,-1.3336785       -7.554483
23.296875,-0.0,2.6673584999999997       -7.554483
-187.3125,-11.549998500000001,1.3336785 -0.625931
-187.3125,-6.93,9.3357525       -0.625931
-187.3125,-4.62,-10.669432500000001     -0.625931
-187.3125,4.62,-10.669432500000001      -0.625931
-187.3125,11.549998500000001,1.3336785  -0.625931
-187.3125,6.93,9.3357525        -0.625931
-101.15625,-9.2399985,2.6673584999999997        4.409069
-101.15625,-6.93,6.668395500000001      4.409069
-101.15625,-2.31,-9.3357525     4.409069
-101.15625,2.31,-9.3357525      4.409069
-101.15625,6.93,6.668395500000001       4.409069
-101.15625,9.2399985,2.6673584999999997 4.409069
73.734375,-9.2399985,-0.0       -5.030367
73.734375,-4.62,-8.002074       -5.030367
73.734375,-4.62,8.002074        -5.030367
73.734375,-9.2399985,0.0        5.039632
73.734375,-4.62,-8.002074       5.039632
73.734375,4.62,-8.002074        -5.030367
73.734375,4.62,8.002074 -5.030367
73.734375,9.2399985,-0.0        -5.030367
73.734375,-4.62,8.002074        5.039632
73.734375,4.62,-8.002074        5.039632
73.734375,9.2399985,0.0 5.039632
73.734375,4.62,8.002074 5.039632
271.125,-11.549998500000001,-1.3336785  2.515516
271.125,-6.93,-9.3357525        2.515516
271.125,-4.62,10.669432500000001        2.515516
271.125,6.93,-9.3357525 2.515516
271.125,11.549998500000001,-1.3336785   2.515516
271.125,4.62,10.669432500000001 2.515516
-35.015625,-11.549998500000001,-4.001037        0.004632
-35.015625,-11.549998500000001,4.001037 0.004632
-35.015625,-9.2399985,-8.002074 0.004632
-35.015625,-9.2399985,8.002074  0.004632
-35.015625,-2.31,-12.003111     0.004632
-35.015625,2.31,-12.003111      0.004632
-35.015625,-2.31,12.003111      0.004632
-35.015625,9.2399985,-8.002074  0.004632
-35.015625,2.31,12.003111       0.004632
-35.015625,11.549998500000001,-4.001037 0.004632
-35.015625,11.549998500000001,4.001037  0.004632
-35.015625,9.2399985,8.002074   0.004632
-214.6875,-11.549998500000001,1.3336785 -2.519484
-214.6875,-6.93,9.3357525       -2.519484
-214.6875,-4.62,-10.669432500000001     -2.519484
-214.6875,4.62,-10.669432500000001      -2.519484
-214.6875,11.549998500000001,1.3336785  -2.519484
-214.6875,6.93,9.3357525        -2.519484
4548.0,-0.0,-0.0        -8.177907
-174.0,-4.62,-2.6673584999999997        7.550516
-174.0,0.0,5.3347155    7.550516
-174.0,4.62,-2.6673584999999997 7.550516
-905.25,-4.62,2.6673584999999997        -7.554483
-905.25,-0.0,-5.3347155 -7.554483
-905.25,4.62,2.6673584999999997 -7.554483
73.359375,-11.549998500000001,4.001037  1.892092
73.359375,-11.549998500000001,-4.001037 1.892092
73.359375,-9.2399985,-8.002074  1.892092
73.359375,-9.2399985,8.002074   1.892092
73.359375,-2.31,-12.003111      1.892092
73.359375,2.31,-12.003111       1.892092
73.359375,-2.31,12.003111       1.892092
73.359375,9.2399985,-8.002074   1.892092
73.359375,2.31,12.003111        1.892092
73.359375,11.549998500000001,-4.001037  1.892092
73.359375,11.549998500000001,4.001037   1.892092
73.359375,9.2399985,8.002074    1.892092
-757.5,-9.2399985,-5.3347155    4.409069
-757.5,9.2399985,-5.3347155     4.409069
-757.5,0.0,10.669432500000001   4.409069
38.73046875,-9.2399985,2.6673584999999997       -5.660931
38.73046875,-2.31,-9.3357525    -5.660931
38.73046875,-6.93,6.668395500000001     -5.660931
38.73046875,2.31,-9.3357525     -5.660931
38.73046875,6.93,6.668395500000001      -5.660931
38.73046875,9.2399985,2.6673584999999997        -5.660931
-87.28125,-9.2399985,-8.002074  -3.142907
-87.28125,-11.549998500000001,4.001037  -3.142907
-87.28125,-11.549998500000001,-4.001037 -3.142907
-87.28125,-9.2399985,8.002074   -3.142907
-87.28125,-2.31,-12.003111      -3.142907
-87.28125,2.31,-12.003111       -3.142907
-87.28125,-2.31,12.003111       -3.142907
-87.28125,11.549998500000001,-4.001037  -3.142907
-87.28125,9.2399985,-8.002074   -3.142907
-87.28125,2.31,12.003111        -3.142907
-87.28125,11.549998500000001,4.001037   -3.142907
-87.28125,9.2399985,8.002074    -3.142907
98.109375,-6.93,-4.001037       6.927092
98.109375,-6.93,4.001037        6.927092
98.109375,6.93,-4.001037        6.927092
98.109375,6.93,4.001037 6.927092
98.109375,-0.0,-8.002074        6.927092
98.109375,0.0,8.002074  6.927092
-124.875,-4.62,-0.0     -8.177907
-124.875,-2.31,4.001037 -8.177907
-124.875,-2.31,-4.001037        -8.177907
-124.875,2.31,-4.001037 -8.177907
-124.875,4.62,-0.0      -8.177907
-124.875,2.31,4.001037  -8.177907
-136.359375,-4.62,5.3347155     7.550516
-136.359375,4.62,5.3347155      7.550516
-136.359375,-6.93,1.3336785     7.550516
-136.359375,6.93,1.3336785      7.550516
-136.359375,-2.31,-6.668395500000001    7.550516
-136.359375,2.31,-6.668395500000001     7.550516
-68.53125,-4.62,-5.3347155      -7.554483
-68.53125,4.62,-5.3347155       -7.554483
-68.53125,-6.93,-1.3336785      -7.554483
-68.53125,6.93,-1.3336785       -7.554483
-68.53125,-2.31,6.668395500000001       -7.554483
-68.53125,2.31,6.668395500000001        -7.554483
-750.375,0.0,13.336789499999998 -0.625931
-750.375,-11.549998500000001,-6.668395500000001 -0.625931
-750.375,11.549998500000001,-6.668395500000001  -0.625931
-404.625,-11.549998500000001,-1.3336785 4.409069
-404.625,-6.93,-9.3357525       4.409069
-404.625,-4.62,10.669432500000001       4.409069
-404.625,6.93,-9.3357525        4.409069
-404.625,11.549998500000001,-1.3336785  4.409069
-404.625,4.62,10.669432500000001        4.409069
465.5625,-9.2399985,-5.3347155  -5.660931
465.5625,9.2399985,-5.3347155   -5.660931
465.5625,0.0,10.669432500000001 -5.660931
880.5,-0.0,-13.336789499999998  2.515516
880.5,-11.549998500000001,6.668395500000001     2.515516
880.5,11.549998500000001,6.668395500000001      2.515516
-140.8125,-13.8599985,-0.0      0.004632
-140.8125,6.93,-12.003111       0.004632
-140.8125,-6.93,12.003111       0.004632
-140.8125,13.8599985,-0.0       0.004632
-140.8125,-6.93,-12.003111      0.004632
-140.8125,6.93,12.003111        0.004632
-578.625,0.0,13.336789499999998 -2.519484
-578.625,-11.549998500000001,-6.668395500000001 -2.519484
-578.625,11.549998500000001,-6.668395500000001  -2.519484
342.0,-9.2399985,0.0    6.927092
342.0,-4.62,-8.002074   6.927092
342.0,-4.62,8.002074    6.927092
342.0,4.62,-8.002074    6.927092
342.0,9.2399985,0.0     6.927092
342.0,4.62,8.002074     6.927092
317.8125,-13.8599985,-2.6673584999999997        -0.625931
317.8125,-4.62,13.336789499999998       -0.625931
317.8125,-9.2399985,-10.669432500000001 -0.625931
317.8125,9.2399985,-10.669432500000001  -0.625931
317.8125,4.62,13.336789499999998        -0.625931
317.8125,13.8599985,-2.6673584999999997 -0.625931
167.90625,-13.8599985,0.0       1.892092
167.90625,-6.93,-12.003111      1.892092
167.90625,-6.93,12.003111       1.892092
167.90625,6.93,-12.003111       1.892092
167.90625,13.8599985,0.0        1.892092
167.90625,6.93,12.003111        1.892092
-6.48046875,-11.549998500000001,4.001037        -5.030367
-6.48046875,-11.549998500000001,-4.001037       -5.030367
-6.48046875,-9.2399985,-8.002074        -5.030367
-6.48046875,-9.2399985,8.002074 -5.030367
-6.48046875,-11.549998500000001,4.001037        5.039632
-6.48046875,2.31,-12.003111     -5.030367
-6.48046875,-2.31,-12.003111    -5.030367
-6.48046875,-11.549998500000001,-4.001037       5.039632
-6.48046875,-9.2399985,-8.002074        5.039632
-6.48046875,-2.31,12.003111     -5.030367
-6.48046875,2.31,-12.003111     5.039632
-6.48046875,-9.2399985,8.002074 5.039632
-6.48046875,-2.31,-12.003111    5.039632
-6.48046875,9.2399985,-8.002074 -5.030367
-6.48046875,2.31,12.003111      -5.030367
-6.48046875,11.549998500000001,-4.001037        -5.030367
-6.48046875,11.549998500000001,4.001037 -5.030367
-6.48046875,9.2399985,8.002074  -5.030367
-6.48046875,-2.31,12.003111     5.039632
-6.48046875,9.2399985,-8.002074 5.039632
-6.48046875,11.549998500000001,-4.001037        5.039632
-6.48046875,2.31,12.003111      5.039632
-6.48046875,11.549998500000001,4.001037 5.039632
-6.48046875,9.2399985,8.002074  5.039632
-1.03125,-11.549998500000001,-1.3336785 -5.660931
-1.03125,-6.93,-9.3357525       -5.660931
-1.03125,-4.62,10.669432500000001       -5.660931
-1.03125,6.93,-9.3357525        -5.660931
-1.03125,4.62,10.669432500000001        -5.660931
-1.03125,11.549998500000001,-1.3336785  -5.660931
174.0,-2.31,1.3336785   9.444068
174.0,0.0,-2.6673584999999997   9.444068
174.0,2.31,1.3336785    9.444068
76.96875,-13.8599985,2.6673584999999997 2.515516
76.96875,-4.62,-13.336789499999998      2.515516
76.96875,4.62,-13.336789499999998       2.515516
76.96875,-9.2399985,10.669432500000001  2.515516
76.96875,13.8599985,2.6673584999999997  2.515516
76.96875,9.2399985,10.669432500000001   2.515516
235.3125,-13.8599985,-2.6673584999999997        -2.519484
235.3125,-4.62,13.336789499999998       -2.519484
235.3125,-9.2399985,-10.669432500000001 -2.519484
235.3125,9.2399985,-10.669432500000001  -2.519484
235.3125,13.8599985,-2.6673584999999997 -2.519484
235.3125,4.62,13.336789499999998        -2.519484
329.4375,-13.8599985,-0.0       -3.142907
329.4375,-6.93,-12.003111       -3.142907
329.4375,-6.93,12.003111        -3.142907
329.4375,6.93,-12.003111        -3.142907
329.4375,13.8599985,-0.0        -3.142907
329.4375,6.93,12.003111 -3.142907
12.968261715,-6.93,-4.001037    -8.177907
12.968261715,-6.93,4.001037     -8.177907
12.968261715,6.93,4.001037      -8.177907
12.968261715,6.93,-4.001037     -8.177907
12.968261715,-0.0,-8.002074     -8.177907
12.968261715,0.0,8.002074       -8.177907
377.8125,-6.93,-6.668395500000001       7.550516
377.8125,-9.2399985,-2.6673584999999997 7.550516
377.8125,-2.31,9.3357525        7.550516
377.8125,6.93,-6.668395500000001        7.550516
377.8125,2.31,9.3357525 7.550516
377.8125,9.2399985,-2.6673584999999997  7.550516
-522.0,-6.93,6.668395500000001  -7.554483
-522.0,-9.2399985,2.6673584999999997    -7.554483
-522.0,-2.31,-9.3357525 -7.554483
-522.0,2.31,-9.3357525  -7.554483
-522.0,9.2399985,2.6673584999999997     -7.554483
-522.0,6.93,6.668395500000001   -7.554483
106.8984375,-11.549998500000001,9.3357525       -0.625931
106.8984375,-13.8599985,5.3347155       -0.625931
106.8984375,-2.31,-14.6704695   -0.625931
106.8984375,2.31,-14.6704695    -0.625931
106.8984375,13.8599985,5.3347155        -0.625931
106.8984375,11.549998500000001,9.3357525        -0.625931
-725.625,-0.0,-13.336789499999998       4.409069
-725.625,-11.549998500000001,6.668395500000001  4.409069
-725.625,11.549998500000001,6.668395500000001   4.409069

End of input

&SCF
Occupied
9
Iterations
   50  100
End of Input

&RASSCF
LumOrb
Symmetry
1
Spin
2
Nactel
1 0 0
CIRoot
9 9 1
inactive
9
ras2
9
End of Input

>>> COPY vanadium_so_cf.JobIph $SLURM_SUBMIT_DIR/vanadium_so_cf.doublet.JobIph

>>> COPY $SLURM_SUBMIT_DIR/vanadium_so_cf.doublet.JobIph ./JOB002

&RASSI
NROFJobIph
1 All
SpinOrbit
End of Input

EOF

-- ----------------------------------

--- Start Module: seward at Wed Mar 26 16:01:58 2025 ---

()()()()()()()()()()()()()()()()()()()()()()()()()()()()()()()()()()()()()()()()()()()()()()()()()()

                                              &SEWARD

                                   only a single process is used
                       available to each process: 4.1 GB of memory, 1 thread?
                                            pid: 2214132
()()()()()()()()()()()()()()()()()()()()()()()()()()()()()()()()()()()()()()()()()()()()()()()()()()

 The speed of LIGHT in this CALCULATION =   137.03599917700001     
               SEWARD will generate:
                  Multipole Moment integrals up to order  2
                  Kinetic Energy integrals
                  Nuclear Attraction integrals (point charge)
                  One-Electron Hamiltonian integrals
                  Velocity integrals
                  Relativistic Douglas-Kroll-Hess integrals:
                    - Parametrization         : EXP
                    - DKH order of Hamiltonian: 2
                    - DKH order of Properties : 0
                         - multipole moment operators
                         - electric potential operators
                         - contact operators
                  External field from   414 point(s) added to the one-electron Hamiltonian
                  Orbital angular momentum around (-0.0000 -0.0000  0.0088 )
                  Velocity quadrupole around (-0.0000 -0.0000  0.0088 )
                  Atomic mean-field integrals
                  Two-Electron Repulsion integrals

                   Integrals are discarded if absolute value <: 0.10E-13
                   Integral cutoff threshold is set to       <: 0.10E-15

++    Symmetry information:
      ---------------------

                    Character Table for C1 

                             E  
                    a        1  x, y, xy, Rz, z, xz, Ry, yz, Rx, I
--


++    Basis set information:
      ----------------------


      Basis set label: V.ANO-RCC.ROOS.21S15P10D6F4G2H.10S9P8D6F4G2H......

      Electronic valence basis set:
      ------------------
      Associated Effective Charge  23.000000 au
      Associated Actual Charge     23.000000 au
      Nuclear Model: Point charge

      Shell  nPrim  nBasis  Cartesian Spherical Contaminant
         s      21      10        X                  
         p      15       9        X                  
         d      10       8                 X         
         f       6       6                 X         
         g       4       4                 X         
         h       2       2                 X         
--


++    Molecular structure info:
      -------------------------

                    ************************************************ 
                    **** Cartesian Coordinates / Bohr, Angstrom **** 
                    ************************************************ 

     Center  Label                x              y              z                     x              y              z
        1      V               -0.000000      -0.000000       0.008754             -0.000000      -0.000000       0.004632
--


++    Operator info:
      --------------


  Net charge from external field:   -39.268449999999902     
--


            Nuclear Potential Energy              0.00000000 au

                    Nuclear-External Field Potential Energy    -140.28419542 au
                    External Field Potential Energy            1070.42460092 au 


            Total Nuclear Potential Energy           -140.28419542 au


      Basis set specifications :
      Symmetry species         a  
      Basis functions          177

 Sorry, Molden does not know how to handle
 functions with angular momentum larger than g
Note: The following floating-point exceptions are signalling: IEEE_UNDERFLOW_FLAG IEEE_DENORMAL
--- Stop Module: seward at Wed Mar 26 16:02:07 2025 /rc=_RC_ALL_IS_WELL_ ---
*** files: vanadium_so_cf.GssOrb xmldump
    saved to directory /home4/s4752295/Internship/Initial_simulations/Point_charge_model/1_electron/Madelung_charges_9_active_space/V
--- Module seward spent 9 seconds ---

*** symbolic link created: INPORB -> vanadium_so_cf.GssOrb
--- Start Module: scf at Wed Mar 26 16:02:07 2025 ---

()()()()()()()()()()()()()()()()()()()()()()()()()()()()()()()()()()()()()()()()()()()()()()()()()()

                                                &SCF

                                   only a single process is used
                       available to each process: 4.1 GB of memory, 1 thread?
                                            pid: 2214139
()()()()()()()()()()()()()()()()()()()()()()()()()()()()()()()()()()()()()()()()()()()()()()()()()()

++    Input section:
      --------------

      Header of the integral files:
      
       Integrals generated by seward 4.2.0  , Wed Mar 26 16:01:58 2025


      Cartesian coordinates in Angstrom:
      -----------------------------------------------------
      No.  Label        X            Y            Z        
      -----------------------------------------------------
       1   V         -0.00000000  -0.00000000   0.00463220
      -----------------------------------------------------
      Nuclear repulsion energy = -140.28419542
--

++    Orbital specifications:
      -----------------------

      Symmetry species               1
                                     a
      Frozen orbitals                0
      Occupied orbitals              9
      Secondary orbitals           168
      Deleted orbitals               0
      Total number of orbitals     177
      Number of basis functions    177
--

      Molecular charge                           5.000

++    Optimization specifications:
      ----------------------------

      SCF Algorithm: Conventional
      Minimized density differences are used
      Number of density matrices in core                5
      Maximum number of NDDO SCF iterations            50
      Maximum number of HF SCF iterations             100
      Threshold for SCF energy change            0.10E-08
      Threshold for density matrix               0.10E-03
      Threshold for Fock matrix                  0.15E-03
      Threshold for linear dependence            0.10E-08
      Threshold at which DIIS is turned on       0.15E+00
      Threshold at which QNR/C2DIIS is turned on 0.75E-01
      Threshold for Norm(delta) (QNR/C2DIIS)     0.20E-04
      DIIS extrapolation of the SCF procedure
      All orbitals punched on: SCFORB
--

      Detected guessorb starting orbitals                                             


++ Convergence information
                                   SCF        iterations: Energy and convergence statistics

Iter     Tot. SCF        One-elec.       Two-elec.     Energy      Max Dij or  Max Fij      DNorm      TNorm      AccCon     Time
         Energy          Energy          Energy        Change      Delta Norm                                                in Sec.
   1  -972.520332694 -1121.715904886   289.479767612   0.00E+00    0.14E+00*   0.26E+00*    0.60E+01   0.22E+03   None         1.
   2  -972.949186727 -1130.633163314   297.968172007  -0.43E+00*   0.27E-01*   0.53E-01*    0.10E+01   0.22E+03   EDIIS        1.
   3  -972.958766220 -1129.512917194   296.838346393  -0.96E-02*   0.62E-02*   0.13E-01*    0.11E+00   0.22E+03   EDIIS        1.
   4  -972.959147780 -1129.701663707   297.026711347  -0.38E-03*   0.42E-03*   0.24E-02*    0.13E-01   0.22E+03   c2DIIS       1.
   5  -972.959168422 -1129.677687278   297.002714276  -0.21E-04*   0.13E-03*   0.21E-03*    0.13E-02   0.22E+03   QNRc2DIIS    1.
   6  -972.959168544 -1129.676592597   297.001619472  -0.12E-06*   0.34E-04*   0.40E-04     0.17E-03   0.22E+03   QNRc2DIIS    1.
   7  -972.959168552 -1129.676750526   297.001777395  -0.72E-08*   0.59E-05    0.59E-05     0.29E-04   0.22E+03   QNRc2DIIS    1.
   8  -972.959168552 -1129.676778099   297.001804967  -0.21E-09    0.25E-05    0.25E-05     0.59E-04   0.22E+03   QNRc2DIIS    1.

       Convergence after  8 Macro Iterations
--

 *****************************************************************************************************************************
 *                                                                                                                           *
 *                                             SCF/KS-DFT Program, Final results                                             *
 *                                                                                                                           *
 *                                                                                                                           *
 *                                                                                                                           *
 *                                                       Final Results                                                       *
 *                                                                                                                           *
 *****************************************************************************************************************************

::    Total SCF energy                               -972.9591685519
      One-electron energy                           -1129.6767780991
      Two-electron energy                             297.0018049673
      Nuclear repulsion energy                       -140.2841954201
      Kinetic energy (interpolated)                   974.0074319579
      Virial theorem                                    0.9989237624
      Total spin, S(S+1)                                0.0000000000
      Total spin, S                                     0.0000000000
      Max non-diagonal density matrix element           0.0000029164
      Max non-diagonal Fock matrix element              0.0000010874


      All orbitals with orbital energies smaller than  E(LUMO)+0.5 are printed

++    Molecular orbitals:
      -------------------

      Title: SCF orbitals

      Molecular orbitals for symmetry species 1: a  

          Orbital            1         2         3         4         5         6         7         8         9        10    
          Energy         -199.7600  -21.1390  -17.0368  -17.0368  -17.0361    0.0847    1.3523    1.3523    1.3827    3.6825
          Occ. No.          2.0000    2.0000    2.0000    2.0000    2.0000    2.0000    2.0000    2.0000    2.0000    0.0000

        1 V      1s         1.0000   -0.0001    0.0000   -0.0000   -0.0000    0.0001   -0.0000   -0.0000    0.0000   -0.0000
        2 V      2s         0.0001    1.0000    0.0000   -0.0000   -0.0032    0.0014    0.0000    0.0000   -0.0009    0.0001
        3 V      3s        -0.0000   -0.0014   -0.0000    0.0000    0.0010    0.9904    0.0001    0.0000   -0.1140    0.0200
        4 V      4s         0.0000    0.0000    0.0000   -0.0000   -0.0001   -0.0390   -0.0000   -0.0000    0.0283    0.3410
        5 V      5s        -0.0000   -0.0001   -0.0000    0.0000    0.0001    0.0319    0.0000    0.0000   -0.0246   -0.1198
        6 V      6s         0.0000    0.0003    0.0000   -0.0000   -0.0003   -0.0476   -0.0000   -0.0000    0.0342    0.0071
        7 V      7s        -0.0000   -0.0001   -0.0000    0.0000    0.0001    0.0031   -0.0000   -0.0000   -0.0002    0.0280
        8 V      8s         0.0000   -0.0000    0.0000   -0.0000   -0.0000    0.0070    0.0000    0.0000   -0.0056    0.0185
        9 V      9s        -0.0000    0.0001    0.0000   -0.0000   -0.0000    0.0006    0.0000    0.0000   -0.0010    0.0180
       10 V     10s         0.0000   -0.0002   -0.0000    0.0000    0.0000   -0.0009   -0.0000   -0.0000    0.0008    0.0048
       11 V      2px        0.0000    0.0032   -0.0019    0.0000    1.0000   -0.0008   -0.0000   -0.0000    0.0023   -0.0005
       12 V      3px       -0.0000    0.0007    0.0000   -0.0000   -0.0022    0.1190   -0.0013   -0.0000    0.9827   -0.0413
       13 V      4px        0.0000   -0.0001   -0.0000    0.0000    0.0003    0.0008    0.0001    0.0000   -0.0601    0.4536
       14 V      5px       -0.0000    0.0002    0.0000   -0.0000   -0.0006   -0.0066   -0.0001   -0.0000    0.0809   -0.1313
       15 V      6px        0.0000   -0.0001   -0.0000    0.0000    0.0002    0.0040    0.0000    0.0000   -0.0068   -0.1158
       16 V      7px       -0.0000    0.0001   -0.0000    0.0000    0.0001   -0.0012    0.0000    0.0000   -0.0115   -0.0099
       17 V      8px        0.0000   -0.0000    0.0000   -0.0000   -0.0002   -0.0010   -0.0000   -0.0000    0.0013    0.0169
       18 V      9px       -0.0000    0.0000   -0.0000    0.0000    0.0002    0.0005   -0.0000   -0.0000    0.0033    0.0179
       19 V     10px        0.0000   -0.0000    0.0000   -0.0000   -0.0003    0.0003   -0.0000    0.0000    0.0005    0.0067
       20 V      2py       -0.0000    0.0000    0.0000    1.0000    0.0000   -0.0000   -0.0000    0.0022   -0.0000   -0.0000
       21 V      3py       -0.0000   -0.0000   -0.0000   -0.0021   -0.0000   -0.0000   -0.0000    0.9919    0.0000    0.0000
       22 V      4py        0.0000    0.0000    0.0000    0.0003    0.0000    0.0000    0.0000   -0.0622   -0.0000   -0.0000
       23 V      5py       -0.0000   -0.0000   -0.0000   -0.0006   -0.0000   -0.0000   -0.0000    0.0805    0.0000    0.0000
       24 V      6py        0.0000    0.0000    0.0000    0.0002    0.0000    0.0000    0.0000   -0.0048    0.0000    0.0000
       25 V      7py       -0.0000   -0.0000    0.0000    0.0000   -0.0000    0.0000    0.0000   -0.0124   -0.0000   -0.0000
       26 V      8py        0.0000    0.0000   -0.0000   -0.0002   -0.0000   -0.0000   -0.0000    0.0007   -0.0000   -0.0000
       27 V      9py       -0.0000   -0.0000    0.0000    0.0002    0.0000   -0.0000   -0.0000    0.0036    0.0000   -0.0000
       28 V     10py        0.0000    0.0000   -0.0000   -0.0003   -0.0000    0.0000   -0.0000    0.0006    0.0000    0.0000
       29 V      2pz        0.0000    0.0000    1.0000   -0.0000    0.0019   -0.0000    0.0022    0.0000    0.0000   -0.0000
       30 V      3pz       -0.0000    0.0000   -0.0021    0.0000   -0.0000    0.0001    0.9919    0.0000    0.0013   -0.0001
       31 V      4pz        0.0000   -0.0000    0.0003   -0.0000    0.0000   -0.0000   -0.0622   -0.0000   -0.0001    0.0005
       32 V      5pz       -0.0000    0.0000   -0.0006    0.0000   -0.0000   -0.0000    0.0805    0.0000    0.0001   -0.0001
       33 V      6pz        0.0000   -0.0000    0.0002   -0.0000    0.0000    0.0000   -0.0048   -0.0000   -0.0000   -0.0001
       34 V      7pz       -0.0000    0.0000    0.0000   -0.0000    0.0000   -0.0000   -0.0124   -0.0000   -0.0000   -0.0000
       35 V      8pz        0.0000   -0.0000   -0.0002    0.0000   -0.0000   -0.0000    0.0007    0.0000    0.0000    0.0000
       36 V      9pz       -0.0000    0.0000    0.0002   -0.0000    0.0000    0.0000    0.0036    0.0000    0.0000    0.0000
       37 V     10pz        0.0000   -0.0000   -0.0003    0.0000   -0.0000    0.0000    0.0006    0.0000    0.0000    0.0000
       38 V      3d2-       0.0000   -0.0000    0.0000    0.0003    0.0000   -0.0000   -0.0000    0.0724    0.0000   -0.0000
       39 V      4d2-      -0.0000    0.0000   -0.0000   -0.0002   -0.0000    0.0000    0.0000   -0.0150   -0.0000    0.0000
       40 V      5d2-       0.0000   -0.0000    0.0000    0.0002    0.0000   -0.0000    0.0000   -0.0073   -0.0000    0.0000
       41 V      6d2-      -0.0000    0.0000   -0.0000   -0.0001   -0.0000    0.0000   -0.0000    0.0071    0.0000    0.0000
       42 V      7d2-       0.0000   -0.0000    0.0000    0.0001    0.0000   -0.0000   -0.0000    0.0025    0.0000   -0.0000
       43 V      8d2-      -0.0000   -0.0000   -0.0000   -0.0000   -0.0000    0.0000    0.0000   -0.0000   -0.0000   -0.0000
       44 V      9d2-       0.0000    0.0000    0.0000    0.0000    0.0000   -0.0000    0.0000   -0.0011   -0.0000   -0.0000
       45 V     10d2-      -0.0000   -0.0000   -0.0000   -0.0001   -0.0000    0.0000    0.0000   -0.0002   -0.0000   -0.0000
       46 V      3d1-      -0.0000   -0.0000    0.0000    0.0000   -0.0000    0.0000    0.0000   -0.0001   -0.0000   -0.0000
       47 V      4d1-       0.0000    0.0000   -0.0000   -0.0000    0.0000   -0.0000    0.0000   -0.0001   -0.0000    0.0000
       48 V      5d1-      -0.0000   -0.0000    0.0000    0.0000   -0.0000    0.0000   -0.0000    0.0000    0.0000   -0.0000
       49 V      6d1-       0.0000    0.0000   -0.0000   -0.0000   -0.0000   -0.0000   -0.0000    0.0000    0.0000   -0.0000
       50 V      7d1-      -0.0000   -0.0000    0.0000    0.0000    0.0000    0.0000   -0.0000    0.0000    0.0000   -0.0000
       51 V      8d1-       0.0000    0.0000   -0.0000   -0.0000    0.0000   -0.0000    0.0000   -0.0000    0.0000    0.0000
       52 V      9d1-      -0.0000    0.0000    0.0000    0.0000    0.0000    0.0000    0.0000   -0.0000   -0.0000    0.0000
       53 V     10d1-       0.0000    0.0000   -0.0000   -0.0000    0.0000   -0.0000    0.0000   -0.0000   -0.0000    0.0000
       54 V      3d0       -0.0000    0.0000    0.0000   -0.0000   -0.0002   -0.0010    0.0002    0.0000   -0.0442   -0.3842
       55 V      4d0        0.0000   -0.0000   -0.0000    0.0000    0.0001   -0.0004    0.0000    0.0000    0.0091   -0.0161
       56 V      5d0       -0.0000    0.0000    0.0000   -0.0000   -0.0001    0.0005   -0.0000   -0.0000    0.0043   -0.0206
       57 V      6d0       -0.0000    0.0000   -0.0000    0.0000    0.0001   -0.0000   -0.0000   -0.0000   -0.0042    0.0172
       58 V      7d0        0.0000   -0.0000    0.0000   -0.0000   -0.0000   -0.0001   -0.0000   -0.0000   -0.0015    0.0207
       59 V      8d0       -0.0000    0.0000   -0.0000    0.0000    0.0000   -0.0001    0.0000    0.0000    0.0000    0.0185
       60 V      9d0        0.0000   -0.0000    0.0000   -0.0000   -0.0000    0.0000    0.0000    0.0000    0.0007    0.0084
       61 V     10d0       -0.0000   -0.0000   -0.0000    0.0000    0.0000    0.0000    0.0000    0.0000    0.0001    0.0014
       62 V      3d1+      -0.0000   -0.0000    0.0003   -0.0000    0.0000   -0.0000    0.0724    0.0000    0.0002    0.0014
       63 V      4d1+       0.0000    0.0000   -0.0002    0.0000   -0.0000    0.0000   -0.0150   -0.0000   -0.0000    0.0002
       64 V      5d1+      -0.0000   -0.0000    0.0002   -0.0000    0.0000    0.0000   -0.0073   -0.0000   -0.0000    0.0001
       65 V      6d1+       0.0000    0.0000   -0.0001    0.0000   -0.0000   -0.0000    0.0071    0.0000    0.0000   -0.0001
       66 V      7d1+      -0.0000   -0.0000    0.0001   -0.0000    0.0000   -0.0000    0.0025    0.0000    0.0000   -0.0001
       67 V      8d1+       0.0000   -0.0000   -0.0000    0.0000   -0.0000    0.0000   -0.0000   -0.0000   -0.0000   -0.0001
       68 V      9d1+      -0.0000    0.0000    0.0000   -0.0000    0.0000    0.0000   -0.0011   -0.0000   -0.0000   -0.0001
       69 V     10d1+       0.0000   -0.0000   -0.0001    0.0000   -0.0000    0.0000   -0.0002   -0.0000   -0.0000   -0.0000
       70 V      3d2+       0.0000   -0.0000   -0.0000    0.0000    0.0003    0.0017   -0.0000   -0.0000    0.0765    0.6676
       71 V      4d2+      -0.0000    0.0000    0.0000   -0.0000   -0.0002    0.0006    0.0000    0.0000   -0.0157    0.0281
       72 V      5d2+       0.0000   -0.0000   -0.0000    0.0000    0.0002   -0.0009    0.0000    0.0000   -0.0075    0.0360
       73 V      6d2+       0.0000   -0.0000    0.0000   -0.0000   -0.0001    0.0000   -0.0000   -0.0000    0.0073   -0.0298
       74 V      7d2+      -0.0000    0.0000   -0.0000    0.0000    0.0001    0.0002   -0.0000   -0.0000    0.0026   -0.0360
       75 V      8d2+       0.0000   -0.0000    0.0000   -0.0000   -0.0000    0.0002    0.0000    0.0000   -0.0000   -0.0323
       76 V      9d2+      -0.0000    0.0000   -0.0000    0.0000    0.0000   -0.0000    0.0000    0.0000   -0.0011   -0.0147
       77 V     10d2+       0.0000    0.0000    0.0000   -0.0000   -0.0001   -0.0000    0.0000    0.0000   -0.0002   -0.0024
       78 V      4f3-       0.0000    0.0000   -0.0000   -0.0000   -0.0000   -0.0000   -0.0000    0.0012    0.0000   -0.0000
       79 V      5f3-      -0.0000   -0.0000    0.0000    0.0000    0.0000    0.0000   -0.0000    0.0013    0.0000   -0.0000
       80 V      6f3-       0.0000    0.0000   -0.0000   -0.0000   -0.0000   -0.0000    0.0000   -0.0002   -0.0000    0.0000
       81 V      7f3-      -0.0000   -0.0000    0.0000    0.0000    0.0000    0.0000    0.0000   -0.0005   -0.0000   -0.0000
       82 V      8f3-       0.0000    0.0000   -0.0000   -0.0000   -0.0000   -0.0000    0.0000   -0.0001   -0.0000   -0.0000
       83 V      9f3-      -0.0000   -0.0000    0.0000    0.0000    0.0000   -0.0000   -0.0000    0.0002   -0.0000   -0.0000
       84 V      4f2-       0.0000    0.0000   -0.0000   -0.0000    0.0000    0.0000    0.0000   -0.0002   -0.0000   -0.0000
       85 V      5f2-      -0.0000   -0.0000    0.0000    0.0000   -0.0000   -0.0000    0.0000   -0.0002   -0.0000   -0.0000
       86 V      6f2-       0.0000    0.0000   -0.0000   -0.0000    0.0000    0.0000    0.0000   -0.0000    0.0000    0.0000
       87 V      7f2-      -0.0000   -0.0000    0.0000    0.0000   -0.0000    0.0000   -0.0000    0.0000    0.0000    0.0000
       88 V      8f2-      -0.0000    0.0000   -0.0000   -0.0000    0.0000   -0.0000   -0.0000    0.0000    0.0000    0.0000
       89 V      9f2-       0.0000    0.0000   -0.0000   -0.0000   -0.0000    0.0000   -0.0000    0.0000    0.0000    0.0000
       90 V      4f1-       0.0000    0.0000    0.0000    0.0000    0.0000   -0.0000    0.0000   -0.0003    0.0000    0.0000
       91 V      5f1-      -0.0000   -0.0000   -0.0000   -0.0000   -0.0000    0.0000    0.0000   -0.0003   -0.0000   -0.0000
       92 V      6f1-       0.0000    0.0000    0.0000    0.0000   -0.0000   -0.0000   -0.0000    0.0001    0.0000   -0.0000
       93 V      7f1-      -0.0000   -0.0000   -0.0000   -0.0000   -0.0000    0.0000   -0.0000    0.0001    0.0000   -0.0000
       94 V      8f1-       0.0000    0.0000    0.0000    0.0000   -0.0000    0.0000   -0.0000    0.0000    0.0000    0.0000
       95 V      9f1-      -0.0000   -0.0000   -0.0000   -0.0000    0.0000    0.0000    0.0000   -0.0000    0.0000    0.0000
       96 V      4f0       -0.0000    0.0000    0.0000   -0.0000    0.0000    0.0000   -0.0008   -0.0000    0.0001    0.0042
       97 V      5f0        0.0000    0.0000   -0.0000    0.0000   -0.0000    0.0000   -0.0008   -0.0000    0.0001    0.0097
       98 V      6f0       -0.0000   -0.0000    0.0000   -0.0000    0.0000   -0.0000    0.0001    0.0000    0.0000    0.0084
       99 V      7f0        0.0000   -0.0000   -0.0000    0.0000   -0.0000   -0.0000    0.0003    0.0000   -0.0000    0.0032
      100 V      8f0       -0.0000   -0.0000    0.0000   -0.0000    0.0000    0.0000    0.0000    0.0000   -0.0000   -0.0022
      101 V      9f0        0.0000   -0.0000   -0.0000    0.0000   -0.0000    0.0000   -0.0001   -0.0000   -0.0000   -0.0053
      102 V      4f1+       0.0000   -0.0000    0.0000   -0.0000    0.0000   -0.0003    0.0002    0.0000   -0.0009   -0.0683
      103 V      5f1+      -0.0000    0.0000   -0.0000    0.0000   -0.0000   -0.0001    0.0002    0.0000   -0.0010   -0.0658
      104 V      6f1+       0.0000   -0.0000   -0.0000    0.0000    0.0000    0.0001    0.0000    0.0000    0.0001   -0.0193
      105 V      7f1+      -0.0000   -0.0000    0.0000   -0.0000   -0.0000    0.0000   -0.0000   -0.0000    0.0004    0.0046
      106 V      8f1+       0.0000    0.0000   -0.0000    0.0000    0.0000   -0.0000   -0.0000   -0.0000    0.0001    0.0122
      107 V      9f1+      -0.0000   -0.0000    0.0000   -0.0000   -0.0000   -0.0000   -0.0000   -0.0000   -0.0001    0.0140
      108 V      4f2+      -0.0000    0.0000   -0.0000    0.0000    0.0000    0.0000    0.0010    0.0000    0.0001    0.0037
      109 V      5f2+       0.0000   -0.0000    0.0000   -0.0000   -0.0000    0.0000    0.0011    0.0000    0.0001    0.0081
      110 V      6f2+      -0.0000   -0.0000   -0.0000    0.0000   -0.0000   -0.0000   -0.0002   -0.0000    0.0000    0.0068
      111 V      7f2+       0.0000   -0.0000    0.0000   -0.0000    0.0000   -0.0000   -0.0004   -0.0000   -0.0000    0.0025
      112 V      8f2+      -0.0000   -0.0000   -0.0000    0.0000   -0.0000    0.0000   -0.0001   -0.0000   -0.0000   -0.0018
      113 V      9f2+       0.0000   -0.0000    0.0000   -0.0000    0.0000    0.0000    0.0001    0.0000   -0.0000   -0.0044
      114 V      4f3+      -0.0000    0.0000    0.0000   -0.0000   -0.0000    0.0004    0.0001    0.0000    0.0011    0.0887
      115 V      5f3+       0.0000   -0.0000   -0.0000    0.0000    0.0000    0.0001    0.0001    0.0000    0.0013    0.0858
      116 V      6f3+      -0.0000    0.0000    0.0000   -0.0000   -0.0000   -0.0001    0.0000    0.0000   -0.0002    0.0255
      117 V      7f3+       0.0000    0.0000   -0.0000    0.0000    0.0000   -0.0000   -0.0000   -0.0000   -0.0005   -0.0057
      118 V      8f3+      -0.0000   -0.0000    0.0000   -0.0000   -0.0000    0.0000   -0.0000   -0.0000   -0.0001   -0.0159
      119 V      9f3+       0.0000    0.0000    0.0000   -0.0000    0.0000    0.0000   -0.0000   -0.0000    0.0002   -0.0184
      120 V      5g4-       0.0000    0.0000    0.0000    0.0000    0.0000    0.0000   -0.0000    0.0004    0.0000   -0.0000
      121 V      6g4-      -0.0000   -0.0000   -0.0000   -0.0000   -0.0000   -0.0000   -0.0000    0.0004    0.0000   -0.0000
      122 V      7g4-       0.0000    0.0000    0.0000    0.0000   -0.0000    0.0000   -0.0000    0.0001   -0.0000   -0.0000
      123 V      8g4-      -0.0000   -0.0000    0.0000    0.0000    0.0000   -0.0000    0.0000   -0.0000    0.0000   -0.0000
      124 V      5g3-      -0.0000   -0.0000   -0.0000   -0.0000   -0.0000   -0.0000    0.0000   -0.0001   -0.0000   -0.0000
      125 V      6g3-       0.0000    0.0000    0.0000    0.0000   -0.0000    0.0000    0.0000   -0.0002   -0.0000   -0.0000
      126 V      7g3-      -0.0000   -0.0000   -0.0000   -0.0000   -0.0000   -0.0000    0.0000   -0.0001    0.0000   -0.0000
      127 V      8g3-       0.0000    0.0000    0.0000    0.0000    0.0000    0.0000    0.0000   -0.0000    0.0000    0.0000
      128 V      5g2-      -0.0000    0.0000   -0.0000   -0.0000   -0.0000    0.0000    0.0000   -0.0001   -0.0000    0.0000
      129 V      6g2-       0.0000    0.0000    0.0000    0.0000    0.0000   -0.0000    0.0000   -0.0001   -0.0000    0.0000
      130 V      7g2-      -0.0000   -0.0000   -0.0000   -0.0000    0.0000    0.0000    0.0000   -0.0000   -0.0000    0.0000
      131 V      8g2-       0.0000    0.0000   -0.0000   -0.0000    0.0000   -0.0000   -0.0000    0.0000    0.0000   -0.0000
      132 V      5g1-      -0.0000    0.0000    0.0000    0.0000   -0.0000   -0.0000   -0.0000    0.0000    0.0000    0.0000
      133 V      6g1-       0.0000   -0.0000    0.0000    0.0000   -0.0000    0.0000   -0.0000    0.0001   -0.0000    0.0000
      134 V      7g1-      -0.0000    0.0000   -0.0000   -0.0000    0.0000   -0.0000   -0.0000    0.0000    0.0000   -0.0000
      135 V      8g1-       0.0000   -0.0000    0.0000    0.0000   -0.0000    0.0000   -0.0000    0.0000   -0.0000   -0.0000
      136 V      5g0        0.0000   -0.0000   -0.0000    0.0000    0.0000   -0.0000   -0.0001   -0.0000    0.0002    0.0031
      137 V      6g0       -0.0000    0.0000    0.0000   -0.0000   -0.0000   -0.0000   -0.0001   -0.0000    0.0001    0.0069
      138 V      7g0       -0.0000   -0.0000   -0.0000    0.0000    0.0000    0.0000   -0.0000   -0.0000   -0.0000    0.0048
      139 V      8g0        0.0000    0.0000    0.0000   -0.0000   -0.0000    0.0000   -0.0000   -0.0000   -0.0000    0.0019
      140 V      5g1+      -0.0000    0.0000   -0.0000    0.0000    0.0000    0.0001   -0.0003   -0.0000    0.0001    0.0026
      141 V      6g1+      -0.0000   -0.0000    0.0000   -0.0000    0.0000    0.0001   -0.0003   -0.0000    0.0001    0.0087
      142 V      7g1+       0.0000    0.0000   -0.0000    0.0000   -0.0000    0.0000   -0.0000   -0.0000    0.0001    0.0102
      143 V      8g1+       0.0000   -0.0000   -0.0000    0.0000   -0.0000   -0.0000    0.0000    0.0000    0.0000    0.0088
      144 V      5g2+      -0.0000    0.0000    0.0000   -0.0000   -0.0000    0.0000    0.0001    0.0000   -0.0002   -0.0046
      145 V      6g2+       0.0000   -0.0000   -0.0000    0.0000    0.0000    0.0000    0.0001    0.0000   -0.0002   -0.0104
      146 V      7g2+       0.0000    0.0000   -0.0000    0.0000   -0.0000   -0.0000    0.0000    0.0000    0.0000   -0.0073
      147 V      8g2+      -0.0000   -0.0000    0.0000   -0.0000    0.0000   -0.0000    0.0000    0.0000    0.0001   -0.0029
      148 V      5g3+      -0.0000    0.0000    0.0000   -0.0000    0.0000    0.0001    0.0003    0.0000    0.0001    0.0031
      149 V      6g3+      -0.0000   -0.0000   -0.0000    0.0000   -0.0000    0.0001    0.0003    0.0000    0.0002    0.0103
      150 V      7g3+       0.0000    0.0000    0.0000   -0.0000   -0.0000    0.0000    0.0000    0.0000    0.0001    0.0120
      151 V      8g3+       0.0000   -0.0000    0.0000   -0.0000   -0.0000   -0.0000   -0.0000   -0.0000    0.0000    0.0103
      152 V      5g4+       0.0000   -0.0000    0.0000   -0.0000    0.0000   -0.0000    0.0001    0.0000    0.0003    0.0063
      153 V      6g4+      -0.0000    0.0000   -0.0000    0.0000   -0.0000   -0.0000    0.0001    0.0000    0.0002    0.0142
      154 V      7g4+      -0.0000   -0.0000   -0.0000    0.0000    0.0000    0.0000    0.0001    0.0000   -0.0000    0.0101
      155 V      8g4+       0.0000    0.0000   -0.0000    0.0000   -0.0000    0.0000    0.0000    0.0000   -0.0001    0.0042
      156 V      6h5-      -0.0000   -0.0000   -0.0000   -0.0000    0.0000    0.0000    0.0000   -0.0000    0.0000    0.0000
      157 V      7h5-       0.0000    0.0000    0.0000    0.0000   -0.0000   -0.0000   -0.0000    0.0000   -0.0000   -0.0000
      158 V      6h4-       0.0000   -0.0000    0.0000    0.0000    0.0000   -0.0000   -0.0000    0.0000    0.0000    0.0000
      159 V      7h4-      -0.0000   -0.0000   -0.0000   -0.0000    0.0000   -0.0000   -0.0000    0.0000    0.0000   -0.0000
      160 V      6h3-      -0.0000   -0.0000    0.0000    0.0000    0.0000   -0.0000   -0.0000    0.0000    0.0000    0.0000
      161 V      7h3-       0.0000    0.0000   -0.0000   -0.0000   -0.0000   -0.0000    0.0000   -0.0000   -0.0000   -0.0000
      162 V      6h2-      -0.0000   -0.0000    0.0000    0.0000    0.0000   -0.0000   -0.0000    0.0001    0.0000    0.0000
      163 V      7h2-      -0.0000    0.0000   -0.0000   -0.0000    0.0000   -0.0000   -0.0000    0.0001    0.0000   -0.0000
      164 V      6h1-       0.0000    0.0000   -0.0000   -0.0000    0.0000    0.0000    0.0000   -0.0000    0.0000    0.0000
      165 V      7h1-      -0.0000   -0.0000    0.0000    0.0000   -0.0000   -0.0000    0.0000   -0.0000   -0.0000   -0.0000
      166 V      6h0        0.0000   -0.0000   -0.0000    0.0000   -0.0000   -0.0000   -0.0000   -0.0000   -0.0001   -0.0005
      167 V      7h0        0.0000   -0.0000    0.0000   -0.0000    0.0000   -0.0000    0.0000    0.0000   -0.0001   -0.0015
      168 V      6h1+       0.0000   -0.0000    0.0000   -0.0000   -0.0000   -0.0000    0.0000    0.0000   -0.0001    0.0002
      169 V      7h1+       0.0000   -0.0000   -0.0000    0.0000    0.0000   -0.0000    0.0000    0.0000   -0.0001    0.0002
      170 V      6h2+      -0.0000    0.0000    0.0000   -0.0000    0.0000    0.0000    0.0000    0.0000    0.0000    0.0003
      171 V      7h2+      -0.0000    0.0000   -0.0000    0.0000   -0.0000    0.0000   -0.0000   -0.0000    0.0001    0.0009
      172 V      6h3+      -0.0000   -0.0000    0.0000   -0.0000    0.0000    0.0000    0.0001    0.0000    0.0001   -0.0002
      173 V      7h3+      -0.0000    0.0000   -0.0000    0.0000   -0.0000    0.0000    0.0001    0.0000    0.0001   -0.0003
      174 V      6h4+      -0.0000    0.0000   -0.0000    0.0000    0.0000    0.0000   -0.0000   -0.0000    0.0001    0.0008
      175 V      7h4+      -0.0000    0.0000    0.0000   -0.0000   -0.0000    0.0001    0.0000    0.0000    0.0002    0.0023
      176 V      6h5+       0.0000    0.0000    0.0000   -0.0000   -0.0000   -0.0000    0.0000    0.0000   -0.0001    0.0003
      177 V      7h5+       0.0000   -0.0000    0.0000   -0.0000    0.0000   -0.0000    0.0000    0.0000   -0.0001    0.0004

          Orbital           11        12        13        14        15        16        17    
          Energy            3.7268    3.7270    3.7394    3.7394    3.8361    4.0437    4.0457
          Occ. No.          0.0000    0.0000    0.0000    0.0000    0.0000    0.0000    0.0000

        1 V      1s         0.0000   -0.0000    0.0000   -0.0000   -0.0000    0.0000   -0.0000
        2 V      2s        -0.0000   -0.0000   -0.0000    0.0000   -0.0000   -0.0000    0.0000
        3 V      3s        -0.0000    0.0000   -0.0000    0.0000    0.0168   -0.0001   -0.0000
        4 V      4s        -0.0003    0.0000   -0.0001    0.0000    0.4739   -0.0017   -0.0000
        5 V      5s         0.0001    0.0000    0.0000   -0.0000   -0.1546    0.0004    0.0000
        6 V      6s        -0.0000   -0.0000   -0.0000    0.0000    0.0156   -0.0002   -0.0000
        7 V      7s        -0.0000   -0.0000   -0.0000    0.0000    0.0238    0.0000   -0.0000
        8 V      8s         0.0000   -0.0000   -0.0000    0.0000    0.0202    0.0001    0.0000
        9 V      9s        -0.0000    0.0000    0.0000    0.0000    0.0313   -0.0000    0.0000
       10 V     10s        -0.0000    0.0000    0.0000   -0.0000    0.0110   -0.0000    0.0000
       11 V      2px        0.0000   -0.0000    0.0000   -0.0000    0.0004    0.0000    0.0000
       12 V      3px        0.0001    0.0000    0.0001   -0.0000    0.0691   -0.0001    0.0000
       13 V      4px       -0.0004    0.0000   -0.0002    0.0000    0.4484   -0.0013    0.0000
       14 V      5px        0.0002    0.0000    0.0001   -0.0000   -0.0033    0.0003    0.0000
       15 V      6px        0.0001   -0.0000    0.0000   -0.0000   -0.1201    0.0001    0.0000
       16 V      7px       -0.0000   -0.0000   -0.0000    0.0000   -0.0619   -0.0001   -0.0000
       17 V      8px       -0.0000   -0.0000   -0.0000    0.0000    0.0007    0.0001   -0.0000
       18 V      9px        0.0000   -0.0000    0.0000   -0.0000    0.0357    0.0002    0.0000
       19 V     10px        0.0000   -0.0000    0.0000   -0.0000    0.0157    0.0001    0.0000
       20 V      2py        0.0000   -0.0005   -0.0000   -0.0001    0.0000    0.0000    0.0001
       21 V      3py        0.0000   -0.0521   -0.0000   -0.0116    0.0000    0.0000    0.0417
       22 V      4py       -0.0000    0.1726    0.0000    0.0282   -0.0000    0.0000    0.4527
       23 V      5py        0.0000   -0.0893   -0.0000   -0.0198    0.0000    0.0000    0.0162
       24 V      6py        0.0000   -0.0370   -0.0000   -0.0060    0.0000   -0.0000   -0.0895
       25 V      7py       -0.0000    0.0123    0.0000    0.0044    0.0000   -0.0000   -0.0706
       26 V      8py       -0.0000    0.0081    0.0000    0.0021   -0.0000   -0.0000   -0.0188
       27 V      9py        0.0000   -0.0004   -0.0000   -0.0010   -0.0000    0.0000    0.0307
       28 V     10py        0.0000   -0.0003   -0.0000   -0.0006   -0.0000    0.0000    0.0169
       29 V      2pz       -0.0005   -0.0000    0.0001   -0.0000    0.0000    0.0001    0.0000
       30 V      3pz       -0.0521   -0.0000    0.0112   -0.0000    0.0001    0.0417   -0.0000
       31 V      4pz        0.1734    0.0000   -0.0272    0.0000    0.0003    0.4516   -0.0000
       32 V      5pz       -0.0894   -0.0000    0.0192   -0.0000    0.0000    0.0168   -0.0000
       33 V      6pz       -0.0372   -0.0000    0.0058   -0.0000   -0.0001   -0.0894    0.0000
       34 V      7pz        0.0122    0.0000   -0.0043    0.0000   -0.0000   -0.0708    0.0000
       35 V      8pz        0.0081    0.0000   -0.0020    0.0000    0.0000   -0.0188    0.0000
       36 V      9pz       -0.0003   -0.0000    0.0010   -0.0000    0.0001    0.0309   -0.0000
       37 V     10pz       -0.0003   -0.0000    0.0005   -0.0000    0.0000    0.0170   -0.0000
       38 V      3d2-      -0.0000    0.9306    0.0000    0.1964    0.0000   -0.0000   -0.0777
       39 V      4d2-       0.0000   -0.1428   -0.0000   -0.0430    0.0000    0.0000    0.5988
       40 V      5d2-      -0.0000    0.0317    0.0000    0.0026    0.0000    0.0000    0.1693
       41 V      6d2-      -0.0000    0.0002    0.0000    0.0015    0.0000   -0.0000   -0.0625
       42 V      7d2-       0.0000   -0.0056    0.0000    0.0017   -0.0000   -0.0000   -0.1171
       43 V      8d2-       0.0000   -0.0151   -0.0000   -0.0001   -0.0000   -0.0000   -0.1217
       44 V      9d2-       0.0000   -0.0085    0.0000    0.0001    0.0000   -0.0000   -0.0718
       45 V     10d2-       0.0000   -0.0014    0.0000    0.0001    0.0000   -0.0000   -0.0144
       46 V      3d1-       0.0000   -0.1994    0.0000    0.9410    0.0000    0.0000    0.0001
       47 V      4d1-      -0.0000    0.0370   -0.0000   -0.2510    0.0000   -0.0000   -0.1313
       48 V      5d1-       0.0000   -0.0102    0.0000    0.0179    0.0000   -0.0000   -0.0568
       49 V      6d1-       0.0000   -0.0033    0.0000    0.0206   -0.0000    0.0000    0.0040
       50 V      7d1-       0.0000   -0.0000    0.0000    0.0157   -0.0000    0.0000    0.0231
       51 V      8d1-      -0.0000    0.0044   -0.0000   -0.0005   -0.0000    0.0000    0.0326
       52 V      9d1-      -0.0000    0.0033   -0.0000   -0.0022   -0.0000    0.0000    0.0221
       53 V     10d1-      -0.0000    0.0006   -0.0000   -0.0002   -0.0000    0.0000    0.0047
       54 V      3d0        0.1687    0.0000    0.8163   -0.0000    0.2777   -0.0005    0.0000
       55 V      4d0       -0.0309   -0.0000   -0.2176    0.0000   -0.2157    0.1124   -0.0000
       56 V      5d0        0.0087    0.0000    0.0155   -0.0000   -0.0225    0.0484   -0.0000
       57 V      6d0        0.0027    0.0000    0.0179   -0.0000    0.0308   -0.0035    0.0000
       58 V      7d0       -0.0001    0.0000    0.0136   -0.0000    0.0387   -0.0198    0.0000
       59 V      8d0       -0.0038   -0.0000   -0.0005    0.0000    0.0290   -0.0278    0.0000
       60 V      9d0       -0.0028   -0.0000   -0.0019    0.0000    0.0143   -0.0189    0.0000
       61 V     10d0       -0.0006   -0.0000   -0.0002    0.0000    0.0027   -0.0040    0.0000
       62 V      3d1+       0.9316    0.0000   -0.1909    0.0000   -0.0008   -0.0792    0.0000
       63 V      4d1+      -0.1421   -0.0000    0.0420   -0.0000    0.0007    0.5991   -0.0000
       64 V      5d1+       0.0320    0.0000   -0.0025    0.0000    0.0001    0.1697   -0.0000
       65 V      6d1+       0.0001    0.0000   -0.0015    0.0000   -0.0001   -0.0625    0.0000
       66 V      7d1+      -0.0058   -0.0000   -0.0017    0.0000   -0.0002   -0.1173    0.0000
       67 V      8d1+      -0.0154   -0.0000    0.0001   -0.0000   -0.0001   -0.1220    0.0000
       68 V      9d1+      -0.0086   -0.0000   -0.0001    0.0000   -0.0001   -0.0721    0.0000
       69 V     10d1+      -0.0014   -0.0000   -0.0001    0.0000   -0.0000   -0.0145    0.0000
       70 V      3d2+       0.0954    0.0000    0.4704   -0.0000   -0.4819   -0.0001   -0.0000
       71 V      4d2+      -0.0174   -0.0000   -0.1255    0.0000    0.3748    0.0651   -0.0000
       72 V      5d2+       0.0050    0.0000    0.0090   -0.0000    0.0393    0.0281   -0.0000
       73 V      6d2+       0.0016    0.0000    0.0103   -0.0000   -0.0534   -0.0021    0.0000
       74 V      7d2+      -0.0001    0.0000    0.0079   -0.0000   -0.0674   -0.0117    0.0000
       75 V      8d2+      -0.0022   -0.0000   -0.0003    0.0000   -0.0505   -0.0163    0.0000
       76 V      9d2+      -0.0016   -0.0000   -0.0011    0.0000   -0.0250   -0.0111    0.0000
       77 V     10d2+      -0.0003   -0.0000   -0.0001    0.0000   -0.0048   -0.0023    0.0000
       78 V      4f3-      -0.0000    0.1136    0.0000    0.0205    0.0000    0.0000    0.1290
       79 V      5f3-      -0.0000    0.0965    0.0000    0.0125    0.0000    0.0000    0.3055
       80 V      6f3-      -0.0000    0.0238   -0.0000   -0.0015    0.0000    0.0000    0.2509
       81 V      7f3-       0.0000   -0.0035   -0.0000   -0.0031    0.0000    0.0000    0.0887
       82 V      8f3-       0.0000   -0.0131   -0.0000   -0.0014   -0.0000   -0.0000   -0.0526
       83 V      9f3-       0.0000   -0.0160    0.0000    0.0001   -0.0000   -0.0000   -0.1290
       84 V      4f2-       0.0000   -0.0243    0.0000    0.0766    0.0000   -0.0000   -0.0589
       85 V      5f2-       0.0000   -0.0278    0.0000    0.0441    0.0000   -0.0000   -0.1360
       86 V      6f2-       0.0000   -0.0144   -0.0000   -0.0065    0.0000   -0.0000   -0.1195
       87 V      7f2-       0.0000   -0.0043   -0.0000   -0.0102    0.0000   -0.0000   -0.0526
       88 V      8f2-      -0.0000    0.0037   -0.0000   -0.0039   -0.0000    0.0000    0.0173
       89 V      9f2-      -0.0000    0.0079    0.0000    0.0009   -0.0000    0.0000    0.0574
       90 V      4f1-       0.0000   -0.0293   -0.0000   -0.0053   -0.0000   -0.0000   -0.0331
       91 V      5f1-       0.0000   -0.0249   -0.0000   -0.0032   -0.0000   -0.0000   -0.0785
       92 V      6f1-       0.0000   -0.0061    0.0000    0.0004   -0.0000   -0.0000   -0.0645
       93 V      7f1-      -0.0000    0.0009    0.0000    0.0008   -0.0000   -0.0000   -0.0228
       94 V      8f1-      -0.0000    0.0034    0.0000    0.0004    0.0000    0.0000    0.0135
       95 V      9f1-      -0.0000    0.0041   -0.0000   -0.0000    0.0000    0.0000    0.0332
       96 V      4f0       -0.0721   -0.0000    0.0126   -0.0000    0.0060   -0.0817    0.0000
       97 V      5f0       -0.0615   -0.0000    0.0076   -0.0000    0.0135   -0.1938    0.0000
       98 V      6f0       -0.0154   -0.0000   -0.0010    0.0000    0.0118   -0.1593    0.0000
       99 V      7f0        0.0021    0.0000   -0.0019    0.0000    0.0045   -0.0564    0.0000
      100 V      8f0        0.0084    0.0000   -0.0008    0.0000   -0.0032    0.0334   -0.0000
      101 V      9f0        0.0103    0.0000    0.0001   -0.0000   -0.0078    0.0820   -0.0000
      102 V      4f1+       0.0191    0.0000    0.0607   -0.0000    0.0184    0.0458   -0.0000
      103 V      5f1+       0.0219    0.0000    0.0350   -0.0000   -0.0261    0.1059   -0.0000
      104 V      6f1+       0.0114    0.0000   -0.0051    0.0000   -0.0383    0.0931   -0.0000
      105 V      7f1+       0.0034    0.0000   -0.0081    0.0000   -0.0113    0.0409   -0.0000
      106 V      8f1+      -0.0029   -0.0000   -0.0031    0.0000    0.0107   -0.0136    0.0000
      107 V      9f1+      -0.0063   -0.0000    0.0007   -0.0000    0.0222   -0.0449    0.0000
      108 V      4f2+       0.0930    0.0000   -0.0162    0.0000    0.0047    0.1054   -0.0000
      109 V      5f2+       0.0793    0.0000   -0.0098    0.0000    0.0109    0.2499   -0.0000
      110 V      6f2+       0.0198    0.0000    0.0013   -0.0000    0.0095    0.2054   -0.0000
      111 V      7f2+      -0.0028   -0.0000    0.0025   -0.0000    0.0036    0.0726   -0.0000
      112 V      8f2+      -0.0108   -0.0000    0.0011   -0.0000   -0.0026   -0.0432    0.0000
      113 V      9f2+      -0.0133   -0.0000   -0.0001    0.0000   -0.0063   -0.1059    0.0000
      114 V      4f3+       0.0145    0.0000    0.0469   -0.0000   -0.0234    0.0359   -0.0000
      115 V      5f3+       0.0169    0.0000    0.0270   -0.0000    0.0347    0.0830   -0.0000
      116 V      6f3+       0.0089    0.0000   -0.0040    0.0000    0.0502    0.0729   -0.0000
      117 V      7f3+       0.0027    0.0000   -0.0062    0.0000    0.0148    0.0320   -0.0000
      118 V      8f3+      -0.0022   -0.0000   -0.0024    0.0000   -0.0141   -0.0107    0.0000
      119 V      9f3+      -0.0049   -0.0000    0.0006   -0.0000   -0.0291   -0.0352    0.0000
      120 V      5g4-      -0.0000    0.0104    0.0000    0.0014   -0.0000    0.0000    0.0381
      121 V      6g4-      -0.0000    0.0270    0.0000    0.0029   -0.0000    0.0000    0.1153
      122 V      7g4-      -0.0000    0.0241    0.0000    0.0017   -0.0000    0.0000    0.1256
      123 V      8g4-      -0.0000    0.0159    0.0000    0.0004   -0.0000    0.0000    0.1020
      124 V      5g3-       0.0000   -0.0043    0.0000    0.0039   -0.0000   -0.0000   -0.0219
      125 V      6g3-       0.0000   -0.0127    0.0000    0.0085    0.0000   -0.0000   -0.0717
      126 V      7g3-       0.0000   -0.0136    0.0000    0.0055    0.0000   -0.0000   -0.0835
      127 V      8g3-       0.0000   -0.0109    0.0000    0.0018    0.0000   -0.0000   -0.0721
      128 V      5g2-       0.0000   -0.0039   -0.0000   -0.0005   -0.0000   -0.0000   -0.0143
      129 V      6g2-       0.0000   -0.0101   -0.0000   -0.0011    0.0000   -0.0000   -0.0432
      130 V      7g2-       0.0000   -0.0090   -0.0000   -0.0006    0.0000   -0.0000   -0.0471
      131 V      8g2-       0.0000   -0.0059   -0.0000   -0.0002   -0.0000   -0.0000   -0.0382
      132 V      5g1-      -0.0000    0.0023   -0.0000   -0.0014    0.0000    0.0000    0.0103
      133 V      6g1-      -0.0000    0.0065   -0.0000   -0.0031    0.0000    0.0000    0.0342
      134 V      7g1-      -0.0000    0.0068   -0.0000   -0.0020   -0.0000    0.0000    0.0403
      135 V      8g1-      -0.0000    0.0054   -0.0000   -0.0007    0.0000    0.0000    0.0350
      136 V      5g0       -0.0022   -0.0000   -0.0024    0.0000    0.0004   -0.0119    0.0000
      137 V      6g0       -0.0067   -0.0000   -0.0052    0.0000    0.0014   -0.0388    0.0000
      138 V      7g0       -0.0072   -0.0000   -0.0034    0.0000    0.0017   -0.0450    0.0000
      139 V      8g0       -0.0059   -0.0000   -0.0011    0.0000    0.0014   -0.0387    0.0000
      140 V      5g1+      -0.0084   -0.0000    0.0011   -0.0000    0.0037   -0.0307    0.0000
      141 V      6g1+      -0.0219   -0.0000    0.0022   -0.0000    0.0122   -0.0929    0.0000
      142 V      7g1+      -0.0196   -0.0000    0.0013   -0.0000    0.0143   -0.1013    0.0000
      143 V      8g1+      -0.0129   -0.0000    0.0003   -0.0000    0.0125   -0.0824    0.0000
      144 V      5g2+       0.0028    0.0000    0.0021   -0.0000   -0.0007    0.0132   -0.0000
      145 V      6g2+       0.0082    0.0000    0.0045   -0.0000   -0.0022    0.0435   -0.0000
      146 V      7g2+       0.0086    0.0000    0.0029   -0.0000   -0.0027    0.0510   -0.0000
      147 V      8g2+       0.0069    0.0000    0.0010   -0.0000   -0.0023    0.0442   -0.0000
      148 V      5g3+       0.0075    0.0000   -0.0009    0.0000    0.0043    0.0270   -0.0000
      149 V      6g3+       0.0193    0.0000   -0.0019    0.0000    0.0142    0.0818   -0.0000
      150 V      7g3+       0.0173    0.0000   -0.0011    0.0000    0.0167    0.0892   -0.0000
      151 V      8g3+       0.0114    0.0000   -0.0002    0.0000    0.0145    0.0725   -0.0000
      152 V      5g4+       0.0032    0.0000    0.0028   -0.0000    0.0011    0.0161   -0.0000
      153 V      6g4+       0.0096    0.0000    0.0060   -0.0000    0.0034    0.0531   -0.0000
      154 V      7g4+       0.0102    0.0000    0.0039   -0.0000    0.0042    0.0620   -0.0000
      155 V      8g4+       0.0082    0.0000    0.0013   -0.0000    0.0035    0.0536   -0.0000
      156 V      6h5-      -0.0000    0.0012    0.0000    0.0003   -0.0000    0.0000    0.0031
      157 V      7h5-      -0.0000    0.0026    0.0000    0.0005   -0.0000    0.0000    0.0088
      158 V      6h4-       0.0000   -0.0005    0.0000    0.0005    0.0000   -0.0000   -0.0020
      159 V      7h4-       0.0000   -0.0013    0.0000    0.0010    0.0000   -0.0000   -0.0059
      160 V      6h3-       0.0000   -0.0005   -0.0000   -0.0001   -0.0000   -0.0000   -0.0014
      161 V      7h3-       0.0000   -0.0012   -0.0000   -0.0002   -0.0000   -0.0000   -0.0040
      162 V      6h2-      -0.0000    0.0006   -0.0000   -0.0003    0.0000    0.0000    0.0018
      163 V      7h2-      -0.0000    0.0016   -0.0000   -0.0005    0.0000    0.0000    0.0054
      164 V      6h1-      -0.0000    0.0001    0.0000    0.0000   -0.0000    0.0000    0.0004
      165 V      7h1-      -0.0000    0.0003    0.0000    0.0001   -0.0000    0.0000    0.0010
      166 V      6h0        0.0006    0.0000   -0.0001    0.0000   -0.0006    0.0017   -0.0000
      167 V      7h0        0.0014    0.0000   -0.0003    0.0000   -0.0018    0.0049   -0.0000
      168 V      6h1+      -0.0003   -0.0000   -0.0004    0.0000   -0.0004   -0.0014    0.0000
      169 V      7h1+      -0.0009   -0.0000   -0.0008    0.0000   -0.0008   -0.0041    0.0000
      170 V      6h2+      -0.0008   -0.0000    0.0002   -0.0000    0.0004   -0.0022    0.0000
      171 V      7h2+      -0.0019   -0.0000    0.0004   -0.0000    0.0010   -0.0063    0.0000
      172 V      6h3+       0.0005    0.0000    0.0002   -0.0000    0.0004    0.0013   -0.0000
      173 V      7h3+       0.0012    0.0000    0.0003   -0.0000    0.0009    0.0037   -0.0000
      174 V      6h4+       0.0007    0.0000   -0.0002    0.0000    0.0010    0.0020   -0.0000
      175 V      7h4+       0.0017    0.0000   -0.0003    0.0000    0.0028    0.0057   -0.0000
      176 V      6h5+       0.0006    0.0000    0.0004   -0.0000   -0.0005    0.0019   -0.0000
      177 V      7h5+       0.0015    0.0000    0.0008   -0.0000   -0.0011    0.0057   -0.0000
--


++    Molecular charges:
      ------------------

      Mulliken charges per centre and basis function type
      ---------------------------------------------------

                V     
      1s       2.0000
      2s       2.0000
      2px      2.0000
      2pz      2.0000
      2py      2.0000
      3s       1.9878
      3px      1.9598
      3pz      1.9678
      3py      1.9678
      4s       0.0046
      3d2+     0.0117
      3d1+     0.0105
      3d0      0.0039
      3d1-     0.0000
      3d2-     0.0105
      4px      0.0072
      4pz      0.0077
      4py      0.0077
      5s       0.0032
      4d2+     0.0005
      4d1+     0.0005
      4d0      0.0002
      4d1-     0.0000
      4d2-     0.0005
      5px      0.0132
      5pz      0.0130
      5py      0.0130
      6s       0.0069
      4f3+     0.0000
      4f2+     0.0000
      4f1+     0.0000
      4f0      0.0000
      4f1-     0.0000
      4f2-     0.0000
      4f3-     0.0000
      5d2+     0.0001
      5d1+     0.0001
      5d0      0.0000
      5d1-     0.0000
      5d2-     0.0001
      6px      0.0001
      6pz      0.0000
      6py      0.0000
      7s       0.0000
      5f3+     0.0000
      5f2+     0.0000
      5f1+     0.0000
      5f0      0.0000
      5f1-     0.0000
      5f2-     0.0000
      5f3-     0.0000
      6d2+     0.0001
      6d1+     0.0001
      6d0      0.0000
      6d1-     0.0000
      6d2-     0.0001
      7px      0.0003
      7pz      0.0003
      7py      0.0003
      5g4+     0.0000
      5g3+     0.0000
      5g2+     0.0000
      5g1+     0.0000
      5g0      0.0000
      5g1-     0.0000
      5g2-     0.0000
      5g3-     0.0000
      5g4-     0.0000
      6f3+     0.0000
      6f2+     0.0000
      6f1+     0.0000
      6f0      0.0000
      6f1-     0.0000
      6f2-     0.0000
      6f3-     0.0000
      6g4+     0.0000
      6g3+     0.0000
      6g2+     0.0000
      6g1+     0.0000
      6g0      0.0000
      6g1-     0.0000
      6g2-     0.0000
      6g3-     0.0000
      6g4-     0.0000
      6h5+     0.0000
      6h4+     0.0000
      6h3+     0.0000
      6h2+     0.0000
      6h1+     0.0000
      6h0      0.0000
      6h1-     0.0000
      6h2-     0.0000
      6h3-     0.0000
      6h4-     0.0000
      6h5-     0.0000
      7d2+     0.0000
      7d1+     0.0000
      7d0      0.0000
      7d1-     0.0000
      7d2-     0.0000
      7f3+     0.0000
      7f2+     0.0000
      7f1+     0.0000
      7f0      0.0000
      7f1-     0.0000
      7f2-     0.0000
      7f3-     0.0000
      7g4+     0.0000
      7g3+     0.0000
      7g2+     0.0000
      7g1+     0.0000
      7g0      0.0000
      7g1-     0.0000
      7g2-     0.0000
      7g3-     0.0000
      7g4-     0.0000
      7h5+     0.0000
      7h4+     0.0000
      7h3+     0.0000
      7h2+     0.0000
      7h1+     0.0000
      7h0      0.0000
      7h1-     0.0000
      7h2-     0.0000
      7h3-     0.0000
      7h4-     0.0000
      7h5-     0.0000
      8s       0.0002
      8px      0.0000
      8pz      0.0000
      8py      0.0000
      8d2+     0.0000
      8d1+     0.0000
      8d0      0.0000
      8d1-     0.0000
      8d2-     0.0000
      8f3+     0.0000
      8f2+     0.0000
      8f1+     0.0000
      8f0      0.0000
      8f1-     0.0000
      8f2-     0.0000
      8f3-     0.0000
      8g4+     0.0000
      8g3+     0.0000
      8g2+     0.0000
      8g1+     0.0000
      8g0      0.0000
      8g1-     0.0000
      8g2-     0.0000
      8g3-     0.0000
      8g4-     0.0000
      9s       0.0000
      9px      0.0000
      9pz      0.0000
      9py      0.0000
      9d2+     0.0000
      9d1+     0.0000
      9d0      0.0000
      9d1-     0.0000
      9d2-     0.0000
      9f3+     0.0000
      9f2+     0.0000
      9f1+     0.0000
      9f0      0.0000
      9f1-     0.0000
      9f2-     0.0000
      9f3-     0.0000
     10s       0.0000
     10px      0.0000
     10pz      0.0000
     10py      0.0000
     10d2+     0.0000
     10d1+     0.0000
     10d0      0.0000
     10d1-     0.0000
     10d2-     0.0000
      Total   18.0000

      N-E      5.0000

      Total electronic charge=   18.000000

      Total            charge=    5.000000
--

 Sorry, Molden does not know how to handle
 functions with angular momentum larger than g

++    Static properties:
      ------------------


      LoProp Charges per center


                   V     
      Nuclear     23.0000
      Electronic -18.0000

      Total        5.0000
--


++    Molecular properties:
      ---------------------

      Charge (e):
                      =    5.0000
      Dipole Moment (Debye):
      Origin of the operator (Ang)=    0.0000    0.0000    0.0000
                   X= -1.2868E+00               Y= -1.0351E-13               Z=  1.1050E-01           Total=  1.2915E+00
      Center of Charge (Ang)
                     X=   -0.05357927               Y=   -0.00000000               Z=    0.00460107
      Quadrupole Moment (Debye*Ang):
      Origin of the operator (Ang)=   -0.0000   -0.0000    0.0046
                  XX= -4.0413E+00              XY=  1.3042E-14              XZ=  4.6094E-05              YY= -4.0166E+00
                  YZ=  5.6543E-15              ZZ= -4.0167E+00
      In traceless form (Debye*Ang)
                  XX= -2.4662E-02              XY=  1.9563E-14              XZ=  6.9142E-05              YY=  1.2343E-02
                  YZ=  8.4814E-15              ZZ=  1.2319E-02
--

 Sorry, Molden does not know how to handle
 functions with angular momentum larger than g
 ###############################################################################
 ###############################################################################
 ###                                                                         ###
 ###                                                                         ###
 ###    WARNING: RunFile label nBas                                          ###
 ###    was used       62 times                                              ###
 ###                                                                         ###
 ###                                                                         ###
 ###############################################################################
 ###############################################################################
Note: The following floating-point exceptions are signalling: IEEE_UNDERFLOW_FLAG IEEE_DENORMAL
--- Stop Module: scf at Wed Mar 26 16:02:15 2025 /rc=_RC_ALL_IS_WELL_ ---
*** files: vanadium_so_cf.LprOrb vanadium_so_cf.ScfOrb xmldump
    saved to directory /home4/s4752295/Internship/Initial_simulations/Point_charge_model/1_electron/Madelung_charges_9_active_space/V
--- Module scf spent 8 seconds ---

*** symbolic link created: INPORB -> vanadium_so_cf.ScfOrb
--- Start Module: rasscf at Wed Mar 26 16:02:15 2025 ---

()()()()()()()()()()()()()()()()()()()()()()()()()()()()()()()()()()()()()()()()()()()()()()()()()()

                                              &RASSCF

                                   only a single process is used
                       available to each process: 4.1 GB of memory, 1 thread?
                                            pid: 2215297
()()()()()()()()()()()()()()()()()()()()()()()()()()()()()()()()()()()()()()()()()()()()()()()()()()


      Header of the ONEINT file:
      --------------------------
      
      Integrals generated by seward 4.2.0  , Wed Mar 26 16:01:58 2025


      OrdInt status: non-squared


      Cartesian coordinates in Angstrom:
      -----------------------------------------------------
      No.  Label        X            Y            Z        
      -----------------------------------------------------
       1   V         -0.00000000  -0.00000000   0.00463220
[...]
         4   12       9.01311717E-03  5.33781021E+00  3.11681393E-13  4.54011143E+06  4.54011677E+06
         4   14       9.89619087E-02  3.65845378E+08  1.19770294E-12  1.95194817E+07  3.85364859E+08
         4   16       5.27253886E-03  3.10962838E-11  2.07593854E+07  1.21984633E-12  2.07593854E+07
         4   18       9.10763993E-03  7.50078543E+03  7.24911427E-12  1.03988972E+08  1.03996473E+08
         5    9       1.58832436E-05  1.48156788E+01  3.05395655E-16  2.37217168E+01  3.85373956E+01
         5   11       8.86100507E-03  3.60450929E-15  4.45588434E+06  3.20891435E-13  4.45588434E+06
         5   13       5.23461149E-03  3.11381634E-11  2.03714543E+07  1.41043878E-12  2.03714543E+07
         5   15       9.86049409E-02  3.67303459E+08  8.72412817E-13  2.06935516E+07  3.87997010E+08
         5   17       9.22791612E-03  5.63910556E-14  1.05332113E+08  7.35332037E-12  1.05332113E+08
         6   10       1.58832436E-05  1.48156788E+01  3.05395655E-16  2.37217168E+01  3.85373956E+01
         6   12       8.86100507E-03  3.60450929E-15  4.45588434E+06  3.20891435E-13  4.45588434E+06
         6   14       5.23461149E-03  3.11381634E-11  2.03714543E+07  1.41043878E-12  2.03714543E+07
         6   16       9.86049409E-02  3.67303459E+08  8.72412817E-13  2.06935516E+07  3.87997010E+08
         6   18       9.22791612E-03  5.63910556E-14  1.05332113E+08  7.35332037E-12  1.05332113E+08
         7   11       2.58957159E-04  7.63660089E+00  1.79575696E-12  1.12793777E+05  1.12801414E+05
         7   13       2.85104886E-03  3.41137746E+06  1.04420659E-10  7.13823248E+06  1.05496099E+07
         7   15       1.95638730E-03  5.63475365E-11  7.32151145E+06  1.07501581E-10  7.32151145E+06
         7   17       1.15546307E-03  1.02463296E+03  2.09676413E-10  1.28072185E+07  1.28082432E+07
         8   12       2.58957159E-04  7.63660089E+00  1.79575696E-12  1.12793777E+05  1.12801414E+05
         8   14       2.85104886E-03  3.41137746E+06  1.04420659E-10  7.13823248E+06  1.05496099E+07
         8   16       1.95638730E-03  5.63475365E-11  7.32151145E+06  1.07501581E-10  7.32151145E+06
         8   18       1.15546307E-03  1.02463296E+03  2.09676413E-10  1.28072185E+07  1.28082432E+07
         9   11       2.82384353E-04  5.48327000E-18  1.22958896E+05  1.68861846E-12  1.22958896E+05
         9   13       1.87662799E-03  5.09903285E-11  6.94308582E+06  1.06981760E-10  6.94308582E+06
         9   15       2.96611303E-03  3.94933928E+06  1.08519385E-10  7.14947373E+06  1.10988130E+07
         9   17       1.28612592E-03  2.55920201E-14  1.42555450E+07  1.90472373E-10  1.42555450E+07
        10   12       2.82384353E-04  5.48327000E-18  1.22958896E+05  1.68861846E-12  1.22958896E+05
        10   14       1.87662799E-03  5.09903285E-11  6.94308582E+06  1.06981760E-10  6.94308582E+06
        10   16       2.96611303E-03  3.94933928E+06  1.08519385E-10  7.14947373E+06  1.10988130E+07
        10   18       1.28612592E-03  2.55920201E-14  1.42555450E+07  1.90472373E-10  1.42555450E+07
        11   13       1.51880663E-01  3.04679558E+02  1.60963932E-13  2.42507505E+08  2.42507810E+08
        11   15       1.52223703E-01  3.20818641E-16  2.47272275E+08  1.70822202E-13  2.47272275E+08
        11   17       2.57382019E-01  1.83402778E+09  5.19895075E-19  7.76392031E+03  1.83403555E+09
        12   14       1.51880663E-01  3.04679558E+02  1.60963932E-13  2.42507505E+08  2.42507810E+08
        12   16       1.52223703E-01  3.20818641E-16  2.47272275E+08  1.70822202E-13  2.47272275E+08
        12   18       2.57382019E-01  1.83402778E+09  5.19895075E-19  7.76392031E+03  1.83403555E+09
        13   15       5.51684818E-04  2.86078947E-24  6.57131999E+01  1.76819200E-19  6.57131999E+01
        13   17       1.02704290E-02  5.43501239E+02  1.34947882E-14  2.02966643E+07  2.02972078E+07
        14   16       5.51684818E-04  2.86078947E-24  6.57131999E+01  1.76819200E-19  6.57131999E+01
        14   18       1.02704290E-02  5.43501239E+02  1.34947882E-14  2.02966643E+07  2.02972078E+07
        15   17       9.66692710E-03  2.58530236E-18  1.88090372E+07  1.39542726E-14  1.88090372E+07
        16   18       9.66692710E-03  2.58530236E-18  1.88090372E+07  1.39542726E-14  1.88090372E+07
     -----------------------------------------------------------------------------------------------
--

++ Velocity transition strengths (SO states):
   ------------------------------------------
    for osc. strength at least    1.0000000000000001E-005

      From   To        Osc. strength     Einstein coefficients Ax, Ay, Az (sec-1)    Total A (sec-1)
     -----------------------------------------------------------------------------------------------
         1    3       1.21361533E-02  1.54835785E-02  2.65243649E-14  3.80361316E+05  3.80361331E+05
         1    5       1.19559665E-02  3.30334301E-17  3.77280776E+05  2.72039239E-14  3.77280776E+05
         1    7       3.10250624E-04  1.05334868E-01  2.56651004E-13  1.59544293E+04  1.59545346E+04
         1    9       3.41654095E-04  3.46934182E-17  1.75891491E+04  2.40197322E-13  1.75891491E+04
         1   11       1.31040778E-01  1.03045243E+08  1.47202859E-17  1.81459237E+02  1.03045424E+08
         1   13       1.19701294E-01  3.41889564E+03  4.06261055E-13  5.53510548E+08  5.53513967E+08
         1   15       1.18885744E-01  2.32612945E-14  5.55337202E+08  3.46908055E-13  5.55337202E+08
         1   17       9.55707729E-02  1.20862405E+09  6.83427368E-15  4.92366713E+03  1.20862898E+09
         2    4       1.21361533E-02  1.54835785E-02  2.65243649E-14  3.80361316E+05  3.80361331E+05
         2    6       1.19559665E-02  3.30334301E-17  3.77280776E+05  2.72039239E-14  3.77280776E+05
         2    8       3.10250624E-04  1.05334868E-01  2.56651004E-13  1.59544293E+04  1.59545346E+04
         2   10       3.41654095E-04  3.46934182E-17  1.75891491E+04  2.40197322E-13  1.75891491E+04
         2   12       1.31040778E-01  1.03045243E+08  1.47202859E-17  1.81459237E+02  1.03045424E+08
         2   14       1.19701294E-01  3.41889564E+03  4.06261055E-13  5.53510548E+08  5.53513967E+08
         2   16       1.18885744E-01  2.32612945E-14  5.55337202E+08  3.46908055E-13  5.55337202E+08
         2   18       9.55707729E-02  1.20862405E+09  6.83427368E-15  4.92366713E+03  1.20862898E+09
         3    5       5.53841640E-05  1.18282053E-19  2.02913602E-02  1.42283397E-19  2.02913602E-02
         3    7       4.88775620E-03  1.34932424E-02  1.52785684E-13  1.20905237E+04  1.20905372E+04
         3    9       4.84284311E-03  5.45767149E-18  1.20407482E+04  1.53612989E-13  1.20407482E+04
         3   11       6.11322889E-03  7.71116466E+00  2.12038980E-13  3.07937858E+06  3.07938629E+06
         3   13       9.01205843E-02  3.32721259E+08  1.10439122E-12  1.82160612E+07  3.50937320E+08
         3   15       4.90894753E-03  2.79600688E-11  1.93278969E+07  1.12411643E-12  1.93278969E+07
         3   17       8.46020872E-03  6.47199587E+03  6.77548781E-12  9.65975804E+07  9.66040524E+07
         4    6       5.53841640E-05  1.18282053E-19  2.02913602E-02  1.42283397E-19  2.02913602E-02
         4    8       4.88775620E-03  1.34932424E-02  1.52785684E-13  1.20905237E+04  1.20905372E+04
         4   10       4.84284311E-03  5.45767149E-18  1.20407482E+04  1.53612989E-13  1.20407482E+04
         4   12       6.11322889E-03  7.71116466E+00  2.12038980E-13  3.07937858E+06  3.07938629E+06
         4   14       9.01205843E-02  3.32721259E+08  1.10439122E-12  1.82160612E+07  3.50937320E+08
         4   16       4.90894753E-03  2.79600688E-11  1.93278969E+07  1.12411643E-12  1.93278969E+07
         4   18       8.46020872E-03  6.47199587E+03  6.77548781E-12  9.65975804E+07  9.66040524E+07
         5    7       4.90526129E-03  1.12064405E-18  1.18402952E+04  1.51842829E-13  1.18402952E+04
         5    9       4.91114568E-03  2.80303635E-02  1.52213086E-13  1.19158895E+04  1.19159176E+04
         5   11       6.04876852E-03  4.57261498E-15  3.04172116E+06  2.14745967E-13  3.04172116E+06
         5   13       4.88016363E-03  2.80484865E-11  1.89921213E+07  1.38246795E-12  1.89921213E+07
         5   15       8.97889020E-02  3.34013785E+08  7.64613143E-13  1.92945419E+07  3.53308327E+08
         5   17       8.54819441E-03  5.50774437E-14  9.75737639E+07  6.84778759E-12  9.75737639E+07
         6    8       4.90526129E-03  1.12064405E-18  1.18402952E+04  1.51842829E-13  1.18402952E+04
         6   10       4.91114568E-03  2.80303635E-02  1.52213086E-13  1.19158895E+04  1.19159176E+04
         6   12       6.04876852E-03  4.57261498E-15  3.04172116E+06  2.14745967E-13  3.04172116E+06
         6   14       4.88016363E-03  2.80484865E-11  1.89921213E+07  1.38246795E-12  1.89921213E+07
         6   16       8.97889020E-02  3.34013785E+08  7.64613143E-13  1.92945419E+07  3.53308327E+08
         6   18       8.54819441E-03  5.50774437E-14  9.75737639E+07  6.84778759E-12  9.75737639E+07
         7    9       1.32225499E-04  2.33266715E-22  2.13632594E-03  5.07844105E-21  2.13632594E-03
         7   11       3.34190691E-04  9.04283896E+00  2.29970683E-12  1.45564509E+05  1.45573552E+05
         7   13       2.76378532E-03  3.38994747E+06  9.99317636E-11  6.83680058E+06  1.02267481E+07
         7   15       1.87103426E-03  5.59550871E-11  7.00211375E+06  1.02436632E-10  7.00211375E+06
         7   17       9.39246421E-04  8.12626641E+02  1.70644432E-10  1.04107173E+07  1.04115299E+07
         8   10       1.32225499E-04  2.33266715E-22  2.13632594E-03  5.07844105E-21  2.13632594E-03
         8   12       3.34190691E-04  9.04283896E+00  2.29970683E-12  1.45564509E+05  1.45573552E+05
         8   14       2.76378532E-03  3.38994747E+06  9.99317636E-11  6.83680058E+06  1.02267481E+07
         8   16       1.87103426E-03  5.59550871E-11  7.00211375E+06  1.02436632E-10  7.00211375E+06
         8   18       9.39246421E-04  8.12626641E+02  1.70644432E-10  1.04107173E+07  1.04115299E+07
         9   11       3.60324600E-04  2.57279368E-16  1.56897039E+05  2.18501564E-12  1.56897039E+05
         9   13       1.79982411E-03  5.07234493E-11  6.65895256E+06  1.02701417E-10  6.65895256E+06
         9   15       2.86742514E-03  3.90032349E+06  1.03321734E-10  6.82924945E+06  1.07295729E+07
         9   17       1.04821974E-03  2.97596609E-14  1.16186101E+07  1.54950657E-10  1.16186101E+07
        10   12       3.60324600E-04  2.57279368E-16  1.56897039E+05  2.18501564E-12  1.56897039E+05
        10   14       1.79982411E-03  5.07234493E-11  6.65895256E+06  1.02701417E-10  6.65895256E+06
        10   16       2.86742514E-03  3.90032349E+06  1.03321734E-10  6.82924945E+06  1.07295729E+07
        10   18       1.04821974E-03  2.97596609E-14  1.16186101E+07  1.54950657E-10  1.16186101E+07
        11   13       2.24353732E-01  5.63082575E+02  2.49750279E-13  3.58226218E+08  3.58226781E+08
        11   15       2.23398493E-01  1.11534160E-16  3.62889909E+08  2.44520638E-13  3.62889909E+08
        11   17       1.96834225E-01  1.40258641E+09  9.73298874E-18  6.60320620E+03  1.40259301E+09
        12   14       2.24353732E-01  5.63082575E+02  2.49750279E-13  3.58226218E+08  3.58226781E+08
        12   16       2.23398493E-01  1.11534160E-16  3.62889909E+08  2.44520638E-13  3.62889909E+08
        12   18       1.96834225E-01  1.40258641E+09  9.73298874E-18  6.60320620E+03  1.40259301E+09
        13   15       3.23231663E-04  1.94625759E-18  3.85014414E+01  1.11402668E-19  3.85014414E+01
        13   17       1.72290847E-03  3.89274888E+02  2.15232076E-15  3.40456616E+06  3.40495544E+06
        14   16       3.23231663E-04  1.94625759E-18  3.85014414E+01  1.11402668E-19  3.85014414E+01
        14   18       1.72290847E-03  3.89274888E+02  2.15232076E-15  3.40456616E+06  3.40495544E+06
        15   17       1.56008148E-03  3.32268159E-17  3.03547678E+06  2.52679843E-15  3.03547678E+06
        16   18       1.56008148E-03  3.32268159E-17  3.03547678E+06  2.52679843E-15  3.03547678E+06
     -----------------------------------------------------------------------------------------------
--

++ Length and velocity gauge comparison (SO states):

 --------------------------------------------------
 A comparison between the dipole oscillator strengths in 
 length and velocity gauge will be performed

 All dipole oscillator differences above the tolerance of   0.10000000000000001       will be printed 

 Due to basis set deficiency these oscillator may be problematic 

 The tolerance is defined as ABS(1-O_l/O_v) 
 O_l : dipole oscillator strength in length gauge
 O_p : dipole oscillator strength in velocity gauge
 --------------------------------------------------

  Problematic transitions have been found

      From   To       Difference (%) Osc. st. (len.) Osc. st. (vel.)
     ---------------------------------------------------------------
         1    3            92.354819  9.27830908E-04  1.21361533E-02
         1    5            92.354387  9.14106967E-04  1.19559665E-02
         1    7            88.172373  3.66952876E-05  3.10250624E-04
         1    9            88.240874  4.01755351E-05  3.41654095E-04
         1   11            17.059952  1.53396272E-01  1.31040778E-01
         1   13            15.822357  1.00761728E-01  1.19701294E-01
         1   15            15.629065  1.00305014E-01  1.18885744E-01
         1   17            20.823895  1.15472330E-01  9.55707729E-02
         2    4            92.354819  9.27830908E-04  1.21361533E-02
         2    6            92.354387  9.14106967E-04  1.19559665E-02
         2    8            88.172373  3.66952876E-05  3.10250624E-04
         2   10            88.240874  4.01755351E-05  3.41654095E-04
         2   12            17.059952  1.53396272E-01  1.31040778E-01
         2   14            15.822357  1.00761728E-01  1.19701294E-01
         2   16            15.629065  1.00305014E-01  1.18885744E-01
         2   18            20.823895  1.15472330E-01  9.55707729E-02
         3    5      --------------- below threshold  5.53841640E-05
         3    7            99.676410  1.58162682E-05  4.88775620E-03
         3    9      --------------- below threshold  4.84284311E-03
         3   11            47.436279  9.01311717E-03  6.11322889E-03
         4    6      --------------- below threshold  5.53841640E-05
         4    8            99.676410  1.58162682E-05  4.88775620E-03
         4   10      --------------- below threshold  4.84284311E-03
         4   12            47.436279  9.01311717E-03  6.11322889E-03
         5    7      --------------- below threshold  4.90526129E-03
         5    9            99.676588  1.58832436E-05  4.91114568E-03
         5   11            46.492713  8.86100507E-03  6.04876852E-03
         6    8      --------------- below threshold  4.90526129E-03
         6   10            99.676588  1.58832436E-05  4.91114568E-03
         6   12            46.492713  8.86100507E-03  6.04876852E-03
         7    9      --------------- below threshold  1.32225499E-04
         7   11            22.512157  2.58957159E-04  3.34190691E-04
         7   17            23.020226  1.15546307E-03  9.39246421E-04
         8   10      --------------- below threshold  1.32225499E-04
         8   12            22.512157  2.58957159E-04  3.34190691E-04
         8   18            23.020226  1.15546307E-03  9.39246421E-04
         9   11            21.630565  2.82384353E-04  3.60324600E-04
         9   17            22.696213  1.28612592E-03  1.04821974E-03
        10   12            21.630565  2.82384353E-04  3.60324600E-04
        10   18            22.696213  1.28612592E-03  1.04821974E-03
        11   13            32.303037  1.51880663E-01  2.24353732E-01
        11   15            31.860014  1.52223703E-01  2.23398493E-01
        11   17            30.760806  2.57382019E-01  1.96834225E-01
        12   14            32.303037  1.51880663E-01  2.24353732E-01
        12   16            31.860014  1.52223703E-01  2.23398493E-01
        12   18            30.760806  2.57382019E-01  1.96834225E-01
        13   15            70.677839  5.51684818E-04  3.23231663E-04
        13   17           496.109956  1.02704290E-02  1.72290847E-03
        14   16            70.677839  5.51684818E-04  3.23231663E-04
        14   18           496.109956  1.02704290E-02  1.72290847E-03
        15   17           519.642448  9.66692710E-03  1.56008148E-03
        16   18           519.642448  9.66692710E-03  1.56008148E-03
     ---------------------------------------------------------------

 Number of problematic transitions =                    52

--

 Electric-dipole - electric-octupole not included
++ I/O STATISTICS
 
  I. General I/O information
  - - - - - - - - - - - - - - - - - - - - - - - - - - - - - - - - - - - - - - - - - - -
  Unit  Name          Flsize      Write/Read            MBytes           Write/Read
                      (MBytes)       Calls              In/Out           Time, sec.
  - - - - - - - - - - - - - - - - - - - - - - - - - - - - - - - - - - - - - - - - - - -
   1  SCRATCH           0.00 .       9/      45 .      0.0/      0.0 .       0/       0
   2  ANNI              0.00 .       0/       0 .      0.0/      0.0 .       0/       0
   3  RUNFILE          14.82 .     322/   10733 .      2.3/     77.8 .       0/       0
   4  ONEINT            5.45 .       0/   23543 .      0.0/   3734.6 .       0/       0
   5  JOBIPH            6.30 .       0/      92 .      0.0/      0.8 .       0/       0
   6  ORDINT          473.53 .       1/    3789 .      0.0/    947.0 .       0/       0
  - - - - - - - - - - - - - - - - - - - - - - - - - - - - - - - - - - - - - - - - - - -
   *  TOTAL           500.11 .     332/   38202 .      2.3/   4760.2 .       0/       0
  - - - - - - - - - - - - - - - - - - - - - - - - - - - - - - - - - - - - - - - - - - -
 
  II. I/O Access Patterns
  - - - - - - - - - - - - - - - - - - - -
  Unit  Name               % of random
                         Write/Read calls
  - - - - - - - - - - - - - - - - - - - -
   1  SCRATCH             88.9/ 100.0
   2  ANNI                 0.0/   0.0
   3  RUNFILE             28.6/  10.8
   4  ONEINT               0.0/  16.4
   5  JOBIPH               0.0/  76.1
   6  ORDINT             100.0/   0.1
  - - - - - - - - - - - - - - - - - - - -
--
--- Stop Module: rassi at Wed Mar 26 16:02:51 2025 /rc=_RC_ALL_IS_WELL_ ---
*** files: xmldump
    saved to directory /home4/s4752295/Internship/Initial_simulations/Point_charge_model/1_electron/Madelung_charges_9_active_space/V
--- Module rassi spent 3 seconds ---

.##################.
.# Happy landing! #.
.##################.

    Timing: Wall=52.48 User=41.44 System=8.98

###############################################################################
Hbrk Cluster
Job 15909513 for user s4752295
Finished at: Wed Mar 26 16:02:55 CET 2025

Job details:
============

Job ID                         : 15909513
Name                           : V_no_SO
User                           : s4752295
Partition                      : regularmedium
Nodes                          : node72
Number of Nodes                : 1
Cores                          : 1
Number of Tasks                : 1
State                          : COMPLETED  
Submit                         : 2025-03-26T16:01:17
Start                          : 2025-03-26T16:01:53
End                            : 2025-03-26T16:02:51
Reserved walltime              : 15:00:00
Used walltime                  : 00:00:58
Used CPU time                  : 00:00:52 (Efficiency: 89.23%)
% User (Computation)           : 82.20%
% System (I/O)                 : 17.80%
Total memory reserved          : 25000M
Maximum memory used            : 1.90G

Acknowledgements:
=================

Please see this page for information about acknowledging Hbrk in your publications:

https://wiki.hpc.rug.nl/habrok/introduction/scientific_output

################################################################################
