   This run of MOLCAS is using the pymolcas driver

                             OPE
                             OPE          NMOL  CASOP  ENMOLC A   SO
                 OPE        NMOLC        AS  OP EN  MO LC     AS  OP
                OPENM       OL CA        SO  PE NM  OL CA     SOP EN
                OP EN      MO   LC       AS  OP ENMOL  CASO   PENMOL
                OP  EN     MO   LC       AS  OP EN     MO     LC ASO
               OP   E  NMOL  C  AS       OP  EN MO     LC     AS  OP
               OP  E   NMO   LC AS        OPEN  MO     LCASOP EN   M
               O  PEN   MO  LCA  SO
            OPE   NMO   L   CAS    OP
        OPENMOL  CASOP     ENMOL   CASOPE
     OPENMOLCA   SOPENMOLCASOPEN   MOLCASOPE
    OPENMOLCAS   OP           EN   MOL    CAS
    OPENMOLCAS       OP  ENM        O     LCA
    OPENMOLCAS    OPEN  MOLCASO     P  E  NMO
    OPENMOLCAS     OP               E  N  MOL
    OPENMOLCA   SO           PENM   O  L  CAS    OPEN    MO    LCAS
    OPENMOLCA   SOP           ENM   O  L  CAS   OP  EN  MOLC  AS   O
    OPENMOLCA   SOPE           NM      O  LCA   S      OP  EN MO
    OPENMOLC                AS         O  PEN   M      OL  CA  SOPE
    OPENMO        LCASOPE  NMOL        C  ASO   P      ENMOLC     AS
    OPE     NMO      LCA  SO     P     E   NM   OL  CA SO  PE N   MO
          OPENMOLCA            SOPE   NMO        LCAS  O    P  ENMO
     OPENMOLCASOPENMOLCASOPENMOLCASOPENMOLCA
        OPENMOLCASOPENMOLCASOPENMOLCASOPE
            OPENMOLCASOPENMOLCASOPENM
               OPENMOLCASOPENMOLCA        version: o91e1abe7de707b ?
                   OPENMOLCASO
                       OPE                tag:

 OpenMolcas is free software; you can redistribute it and/or modify it
 under the terms of the GNU Lesser General Public License version 2.1.
 OpenMolcas is distributed in the hope that it will be useful, but it
 is provided "as is" and without any express or implied warranties.
 For more details see the full text of the license in the file
 LICENSE or in <http://www.gnu.org/licenses/>.

                 Copyright (C) The OpenMolcas Authors
           For the author list and the recommended citation,
                   consult the file CONTRIBUTORS.md

           *************************************************
           * pymolcas version py2.10                       *
           *   build 3068ae8b88c9345ec6cfef6fef7f1169      *
           *   (after the EMIL interpreter by V. Veryazov) *
           *************************************************

configuration info
------------------
Host name: login1 (Linux)
C Compiler ID: GNU
C flags: -std=gnu99
Fortran Compiler ID: GNU
Fortran flags: -fno-aggressive-loop-optimizations -cpp -fdefault-integer-8 -fmax-stack-var-size=1048576
Definitions: _MOLCAS_;_I8_;_LINUX_;_MKL_
Parallel: OFF (GA=OFF)


   ----------------------------------------------------------------------------------------------------------------------------------
  |
  |           Project: vanadium_so_cf
  |    Submitted from: /home4/s4752295/Internship/Initial_simulations/Point_charge_model/1_electron/Madelung_charges_9_active_space/V
  |      Scratch area: /tmp/vanadium_so_cf
  |   Save outputs to: /home4/s4752295/Internship/Initial_simulations/Point_charge_model/1_electron/Madelung_charges_9_active_space/V
  |            Molcas: /home4/s4752295/Internship/Molcas/recomp_try/OpenMolcas-master/build
  |
  | Scratch area is empty
  |
  |    MOLCAS_DRIVER = /home4/s4752295/Internship/Molcas/bin/pymolcas
  |    MOLCAS_NPROCS = 1
  |    MOLCAS_SOURCE = /home4/s4752295/Internship/Molcas/recomp_try/OpenMolcas-master
  | MOLCAS_STRUCTURE = 0
  |
   ----------------------------------------------------------------------------------------------------------------------------------

++ ---------   Input file   ---------

&SEWARD
AMFi

CLIG
$R

Basis Set
V.ANO-rcc.Roos.21s15p10d6f4g2h.10s9p8d6f4g2h.
Spherical d
V            -1.0658140267135469e-14    -3.5527134223784897e-15 0.008753588724385739
End of Basis

Xfield

414
-3.201760864,-1.2320000000000002,0.7112952      -0.625931
-3.201760864,-0.0,-1.4225912    -0.625931
-3.201760864,1.2320000000000002,0.7112952       -0.625931
-3.1962768560000003,0.0,0.0     1.892092
2.1273437520000003,-1.2320000000000002,-0.7112952       2.515516
2.1273437520000003,0.0,1.4225912        2.515516
2.1273437520000003,1.2320000000000002,-0.7112952        2.515516
2.850390624,-2.4640000000000004,0.0     0.004632
2.850390624,-1.2320000000000002,-2.1338864      0.004632
2.850390624,-1.2320000000000002,2.1338864       0.004632
2.850390624,1.2320000000000002,-2.1338864       0.004632
2.850390624,1.2320000000000002,2.1338864        0.004632
2.850390624,2.4640000000000004,0.0      0.004632
3.3033203120000003,-1.2320000000000002,0.7112952        -2.519484
3.3033203120000003,-0.0,-1.4225912      -2.519484
3.3033203120000003,1.2320000000000002,0.7112952 -2.519484
-2.3464843760000003,-0.0,-0.0   -3.142907
-3.9800781280000006,-2.4640000000000004,-1.4225912      -0.625931
-3.9800781280000006,0.0,2.8451816       -0.625931
-3.9800781280000006,2.4640000000000004,-1.4225912       -0.625931
-5.2875000000000005,-2.4640000000000004,0.0     1.892092
-5.2875000000000005,-1.2320000000000002,-2.1338864      1.892092
-5.2875000000000005,-1.2320000000000002,2.1338864       1.892092
-5.2875000000000005,1.2320000000000002,-2.1338864       1.892092
-5.2875000000000005,1.2320000000000002,2.1338864        1.892092
-5.2875000000000005,2.4640000000000004,0.0      1.892092
20.137500000000003,-2.4640000000000004,1.4225912        2.515516
20.137500000000003,-0.0,-2.8451816      2.515516
20.137500000000003,2.4640000000000004,1.4225912 2.515516
2.910937504,-2.4640000000000004,-1.4225912      -2.519484
2.910937504,0.0,2.8451816       -2.519484
2.910937504,2.4640000000000004,-1.4225912       -2.519484
-2.5859375040000003,-2.4640000000000004,-0.0    -3.142907
-2.5859375040000003,-1.2320000000000002,-2.1338864      -3.142907
-2.5859375040000003,-1.2320000000000002,2.1338864       -3.142907
-2.5859375040000003,1.2320000000000002,-2.1338864       -3.142907
-2.5859375040000003,1.2320000000000002,2.1338864        -3.142907
-2.5859375040000003,2.4640000000000004,-0.0     -3.142907
-7.61875,-2.4640000000000004,2.8451816  -0.625931
-7.61875,2.4640000000000004,2.8451816   -0.625931
-7.61875,-3.696,0.7112952       -0.625931
-7.61875,3.696,0.7112952        -0.625931
-7.61875,-1.2320000000000002,-3.5564776000000005        -0.625931
-7.61875,1.2320000000000002,-3.5564776000000005 -0.625931
4.80625,-1.2320000000000002,-0.7112952  4.409069
4.80625,1.2320000000000002,-0.7112952   4.409069
4.80625,0.0,1.4225912   4.409069
-140.20000000000002,-0.0,-0.0   -5.030367
-140.20000000000002,0.0,0.0     5.039632
10.814062496,-2.4640000000000004,-2.8451816     2.515516
10.814062496,2.4640000000000004,-2.8451816      2.515516
10.814062496,-3.696,-0.7112952  2.515516
10.814062496,3.696,-0.7112952   2.515516
10.814062496,-1.2320000000000002,3.5564776000000005     2.515516
10.814062496,1.2320000000000002,3.5564776000000005      2.515516
15.231250000000001,-3.696,-2.1338864    0.004632
15.231250000000001,-3.696,2.1338864     0.004632
15.231250000000001,3.696,-2.1338864     0.004632
15.231250000000001,3.696,2.1338864      0.004632
15.231250000000001,-0.0,-4.2677728      0.004632
15.231250000000001,0.0,4.2677728        0.004632
38.462500000000006,-2.4640000000000004,2.8451816        -2.519484
38.462500000000006,2.4640000000000004,2.8451816 -2.519484
38.462500000000006,-3.696,0.7112952     -2.519484
38.462500000000006,3.696,0.7112952      -2.519484
38.462500000000006,-1.2320000000000002,-3.5564776000000005      -2.519484
38.462500000000006,1.2320000000000002,-3.5564776000000005       -2.519484
-116.7,-3.696,-2.1338864        1.892092
-116.7,-3.696,2.1338864 1.892092
-116.7,3.696,-2.1338864 1.892092
-116.7,3.696,2.1338864  1.892092
-116.7,-0.0,-4.2677728  1.892092
-116.7,0.0,4.2677728    1.892092
-94.2,-2.4640000000000004,1.4225912     4.409069
-94.2,-0.0,-2.8451816   4.409069
-94.2,2.4640000000000004,1.4225912      4.409069
-71.2,-2.4640000000000004,-0.0  -5.030367
-71.2,-1.2320000000000002,-2.1338864    -5.030367
-71.2,-1.2320000000000002,2.1338864     -5.030367
-71.2,1.2320000000000002,-2.1338864     -5.030367
-71.2,-2.4640000000000004,0.0   5.039632
-71.2,2.4640000000000004,-0.0   -5.030367
-71.2,1.2320000000000002,2.1338864      -5.030367
-71.2,-1.2320000000000002,-2.1338864    5.039632
-71.2,-1.2320000000000002,2.1338864     5.039632
-71.2,1.2320000000000002,-2.1338864     5.039632
-71.2,2.4640000000000004,0.0    5.039632
-71.2,1.2320000000000002,2.1338864      5.039632
-37.300000000000004,-1.2320000000000002,-0.7112952      -5.660931
-37.300000000000004,0.0,1.4225912       -5.660931
-37.300000000000004,1.2320000000000002,-0.7112952       -5.660931
0.70625,-4.9279992,0.0  0.004632
0.70625,-2.4640000000000004,-4.2677728  0.004632
0.70625,-2.4640000000000004,4.2677728   0.004632
0.70625,2.4640000000000004,-4.2677728   0.004632
0.70625,4.9279992,0.0   0.004632
0.70625,2.4640000000000004,4.2677728    0.004632
54.35,-3.696,2.1338864  -3.142907
54.35,-3.696,-2.1338864 -3.142907
54.35,3.696,-2.1338864  -3.142907
54.35,3.696,2.1338864   -3.142907
54.35,-0.0,-4.2677728   -3.142907
54.35,0.0,4.2677728     -3.142907
69.10000000000001,-4.9279992,-1.4225912 -0.625931
69.10000000000001,-3.696,-3.5564776000000005    -0.625931
69.10000000000001,-1.2320000000000002,4.979068000000001 -0.625931
69.10000000000001,3.696,-3.5564776000000005     -0.625931
69.10000000000001,4.9279992,-1.4225912  -0.625931
69.10000000000001,1.2320000000000002,4.979068000000001  -0.625931
0.9578124960000001,-4.9279992,0.0       1.892092
0.9578124960000001,-2.4640000000000004,-4.2677728       1.892092
0.9578124960000001,-2.4640000000000004,4.2677728        1.892092
0.9578124960000001,2.4640000000000004,-4.2677728        1.892092
0.9578124960000001,4.9279992,0.0        1.892092
0.9578124960000001,2.4640000000000004,4.2677728 1.892092
27.075000000000003,-2.4640000000000004,-2.8451816       4.409069
27.075000000000003,2.4640000000000004,-2.8451816        4.409069
27.075000000000003,-3.696,-0.7112952    4.409069
27.075000000000003,3.696,-0.7112952     4.409069
27.075000000000003,-1.2320000000000002,3.5564776000000005       4.409069
27.075000000000003,1.2320000000000002,3.5564776000000005        4.409069
129.925,-2.4640000000000004,1.4225912   -5.660931
129.925,-0.0,-2.8451816 -5.660931
129.925,2.4640000000000004,1.4225912    -5.660931
0.275,-4.9279992,1.4225912      2.515516
0.275,-1.2320000000000002,-4.979068000000001    2.515516
0.275,-3.696,3.5564776000000005 2.515516
0.275,1.2320000000000002,-4.979068000000001     2.515516
0.275,4.9279992,1.4225912       2.515516
0.275,3.696,3.5564776000000005  2.515516
-75.35000000000001,-4.9279992,-1.4225912        -2.519484
-75.35000000000001,-3.696,-3.5564776000000005   -2.519484
-75.35000000000001,-1.2320000000000002,4.979068000000001        -2.519484
-75.35000000000001,3.696,-3.5564776000000005    -2.519484
-75.35000000000001,1.2320000000000002,4.979068000000001 -2.519484
-75.35000000000001,4.9279992,-1.4225912 -2.519484
-17.65625,-4.9279992,-0.0       -3.142907
-17.65625,-2.4640000000000004,-4.2677728        -3.142907
-17.65625,-2.4640000000000004,4.2677728 -3.142907
-17.65625,2.4640000000000004,-4.2677728 -3.142907
-17.65625,2.4640000000000004,4.2677728  -3.142907
-17.65625,4.9279992,-0.0        -3.142907
485.20000000000005,0.0,0.0      6.927092
258.6,-4.9279992,2.8451816      -0.625931
258.6,4.9279992,2.8451816       -0.625931
258.6,-0.0,-5.690364000000001   -0.625931
-4.3375,-3.696,2.1338864        -5.030367
-4.3375,-3.696,-2.1338864       -5.030367
-4.3375,-3.696,2.1338864        5.039632
-4.3375,-3.696,-2.1338864       5.039632
-4.3375,3.696,-2.1338864        -5.030367
-4.3375,3.696,2.1338864 -5.030367
-4.3375,3.696,-2.1338864        5.039632
-4.3375,3.696,2.1338864 5.039632
-4.3375,-0.0,-4.2677728 -5.030367
-4.3375,0.0,4.2677728   -5.030367
-4.3375,-0.0,-4.2677728 5.039632
-4.3375,0.0,4.2677728   5.039632
73.45,-2.4640000000000004,-2.8451816    -5.660931
73.45,2.4640000000000004,-2.8451816     -5.660931
73.45,-3.696,-0.7112952 -5.660931
73.45,3.696,-0.7112952  -5.660931
73.45,-1.2320000000000002,3.5564776000000005    -5.660931
73.45,1.2320000000000002,3.5564776000000005     -5.660931
240.4,-4.9279992,-2.8451816     2.515516
240.4,4.9279992,-2.8451816      2.515516
240.4,0.0,5.690364000000001     2.515516
-413.8,-4.9279992,2.8451816     -2.519484
-413.8,4.9279992,2.8451816      -2.519484
-413.8,-0.0,-5.690364000000001  -2.519484
42.85,-2.4640000000000004,0.0   6.927092
42.85,-1.2320000000000002,-2.1338864    6.927092
42.85,-1.2320000000000002,2.1338864     6.927092
42.85,1.2320000000000002,-2.1338864     6.927092
42.85,1.2320000000000002,2.1338864      6.927092
42.85,2.4640000000000004,0.0    6.927092
-44.2,-1.2320000000000002,0.7112952     7.550516
-44.2,0.0,-1.4225912    7.550516
-44.2,1.2320000000000002,0.7112952      7.550516
12.425,-1.2320000000000002,-0.7112952   -7.554483
12.425,1.2320000000000002,-0.7112952    -7.554483
12.425,-0.0,1.4225912   -7.554483
-99.9,-6.159999200000001,0.7112952      -0.625931
-99.9,-3.696,4.979068000000001  -0.625931
-99.9,-2.4640000000000004,-5.690364000000001    -0.625931
-99.9,2.4640000000000004,-5.690364000000001     -0.625931
-99.9,6.159999200000001,0.7112952       -0.625931
-99.9,3.696,4.979068000000001   -0.625931
-53.95,-4.9279992,1.4225912     4.409069
-53.95,-3.696,3.5564776000000005        4.409069
-53.95,-1.2320000000000002,-4.979068000000001   4.409069
-53.95,1.2320000000000002,-4.979068000000001    4.409069
-53.95,3.696,3.5564776000000005 4.409069
-53.95,4.9279992,1.4225912      4.409069
39.325,-4.9279992,-0.0  -5.030367
39.325,-2.4640000000000004,-4.2677728   -5.030367
39.325,-2.4640000000000004,4.2677728    -5.030367
39.325,-4.9279992,0.0   5.039632
39.325,-2.4640000000000004,-4.2677728   5.039632
39.325,2.4640000000000004,-4.2677728    -5.030367
39.325,2.4640000000000004,4.2677728     -5.030367
39.325,4.9279992,-0.0   -5.030367
39.325,-2.4640000000000004,4.2677728    5.039632
39.325,2.4640000000000004,-4.2677728    5.039632
39.325,4.9279992,0.0    5.039632
39.325,2.4640000000000004,4.2677728     5.039632
144.6,-6.159999200000001,-0.7112952     2.515516
144.6,-3.696,-4.979068000000001 2.515516
144.6,-2.4640000000000004,5.690364000000001     2.515516
144.6,3.696,-4.979068000000001  2.515516
144.6,6.159999200000001,-0.7112952      2.515516
144.6,2.4640000000000004,5.690364000000001      2.515516
-18.675,-6.159999200000001,-2.1338864   0.004632
-18.675,-6.159999200000001,2.1338864    0.004632
-18.675,-4.9279992,-4.2677728   0.004632
-18.675,-4.9279992,4.2677728    0.004632
-18.675,-1.2320000000000002,-6.401659200000001  0.004632
-18.675,1.2320000000000002,-6.401659200000001   0.004632
-18.675,-1.2320000000000002,6.401659200000001   0.004632
-18.675,4.9279992,-4.2677728    0.004632
-18.675,1.2320000000000002,6.401659200000001    0.004632
-18.675,6.159999200000001,-2.1338864    0.004632
-18.675,6.159999200000001,2.1338864     0.004632
-18.675,4.9279992,4.2677728     0.004632
-114.5,-6.159999200000001,0.7112952     -2.519484
-114.5,-3.696,4.979068000000001 -2.519484
-114.5,-2.4640000000000004,-5.690364000000001   -2.519484
-114.5,2.4640000000000004,-5.690364000000001    -2.519484
-114.5,6.159999200000001,0.7112952      -2.519484
-114.5,3.696,4.979068000000001  -2.519484
2425.6,-0.0,-0.0        -8.177907
-92.80000000000001,-2.4640000000000004,-1.4225912       7.550516
-92.80000000000001,0.0,2.8451816        7.550516
-92.80000000000001,2.4640000000000004,-1.4225912        7.550516
-482.8,-2.4640000000000004,1.4225912    -7.554483
-482.8,-0.0,-2.8451816  -7.554483
-482.8,2.4640000000000004,1.4225912     -7.554483
39.125,-6.159999200000001,2.1338864     1.892092
39.125,-6.159999200000001,-2.1338864    1.892092
39.125,-4.9279992,-4.2677728    1.892092
39.125,-4.9279992,4.2677728     1.892092
39.125,-1.2320000000000002,-6.401659200000001   1.892092
39.125,1.2320000000000002,-6.401659200000001    1.892092
39.125,-1.2320000000000002,6.401659200000001    1.892092
39.125,4.9279992,-4.2677728     1.892092
39.125,1.2320000000000002,6.401659200000001     1.892092
39.125,6.159999200000001,-2.1338864     1.892092
39.125,6.159999200000001,2.1338864      1.892092
39.125,4.9279992,4.2677728      1.892092
-404.0,-4.9279992,-2.8451816    4.409069
-404.0,4.9279992,-2.8451816     4.409069
-404.0,0.0,5.690364000000001    4.409069
20.65625,-4.9279992,1.4225912   -5.660931
20.65625,-1.2320000000000002,-4.979068000000001 -5.660931
20.65625,-3.696,3.5564776000000005      -5.660931
20.65625,1.2320000000000002,-4.979068000000001  -5.660931
20.65625,3.696,3.5564776000000005       -5.660931
20.65625,4.9279992,1.4225912    -5.660931
-46.550000000000004,-4.9279992,-4.2677728       -3.142907
-46.550000000000004,-6.159999200000001,2.1338864        -3.142907
-46.550000000000004,-6.159999200000001,-2.1338864       -3.142907
-46.550000000000004,-4.9279992,4.2677728        -3.142907
-46.550000000000004,-1.2320000000000002,-6.401659200000001      -3.142907
-46.550000000000004,1.2320000000000002,-6.401659200000001       -3.142907
-46.550000000000004,-1.2320000000000002,6.401659200000001       -3.142907
-46.550000000000004,6.159999200000001,-2.1338864        -3.142907
-46.550000000000004,4.9279992,-4.2677728        -3.142907
-46.550000000000004,1.2320000000000002,6.401659200000001        -3.142907
-46.550000000000004,6.159999200000001,2.1338864 -3.142907
-46.550000000000004,4.9279992,4.2677728 -3.142907
52.325,-3.696,-2.1338864        6.927092
52.325,-3.696,2.1338864 6.927092
52.325,3.696,-2.1338864 6.927092
52.325,3.696,2.1338864  6.927092
52.325,-0.0,-4.2677728  6.927092
52.325,0.0,4.2677728    6.927092
-66.60000000000001,-2.4640000000000004,-0.0     -8.177907
-66.60000000000001,-1.2320000000000002,2.1338864        -8.177907
-66.60000000000001,-1.2320000000000002,-2.1338864       -8.177907
-66.60000000000001,1.2320000000000002,-2.1338864        -8.177907
-66.60000000000001,2.4640000000000004,-0.0      -8.177907
-66.60000000000001,1.2320000000000002,2.1338864 -8.177907
-72.72500000000001,-2.4640000000000004,2.8451816        7.550516
-72.72500000000001,2.4640000000000004,2.8451816 7.550516
-72.72500000000001,-3.696,0.7112952     7.550516
-72.72500000000001,3.696,0.7112952      7.550516
-72.72500000000001,-1.2320000000000002,-3.5564776000000005      7.550516
-72.72500000000001,1.2320000000000002,-3.5564776000000005       7.550516
-36.550000000000004,-2.4640000000000004,-2.8451816      -7.554483
-36.550000000000004,2.4640000000000004,-2.8451816       -7.554483
-36.550000000000004,-3.696,-0.7112952   -7.554483
-36.550000000000004,3.696,-0.7112952    -7.554483
-36.550000000000004,-1.2320000000000002,3.5564776000000005      -7.554483
-36.550000000000004,1.2320000000000002,3.5564776000000005       -7.554483
-400.20000000000005,0.0,7.1129544       -0.625931
-400.20000000000005,-6.159999200000001,-3.5564776000000005      -0.625931
-400.20000000000005,6.159999200000001,-3.5564776000000005       -0.625931
-215.8,-6.159999200000001,-0.7112952    4.409069
-215.8,-3.696,-4.979068000000001        4.409069
-215.8,-2.4640000000000004,5.690364000000001    4.409069
-215.8,3.696,-4.979068000000001 4.409069
-215.8,6.159999200000001,-0.7112952     4.409069
-215.8,2.4640000000000004,5.690364000000001     4.409069
248.3,-4.9279992,-2.8451816     -5.660931
248.3,4.9279992,-2.8451816      -5.660931
248.3,0.0,5.690364000000001     -5.660931
469.6,-0.0,-7.1129544   2.515516
469.6,-6.159999200000001,3.5564776000000005     2.515516
469.6,6.159999200000001,3.5564776000000005      2.515516
-75.10000000000001,-7.3919992,-0.0      0.004632
-75.10000000000001,3.696,-6.401659200000001     0.004632
-75.10000000000001,-3.696,6.401659200000001     0.004632
-75.10000000000001,7.3919992,-0.0       0.004632
-75.10000000000001,-3.696,-6.401659200000001    0.004632
-75.10000000000001,3.696,6.401659200000001      0.004632
-308.6,0.0,7.1129544    -2.519484
-308.6,-6.159999200000001,-3.5564776000000005   -2.519484
-308.6,6.159999200000001,-3.5564776000000005    -2.519484
182.4,-4.9279992,0.0    6.927092
182.4,-2.4640000000000004,-4.2677728    6.927092
182.4,-2.4640000000000004,4.2677728     6.927092
182.4,2.4640000000000004,-4.2677728     6.927092
182.4,4.9279992,0.0     6.927092
182.4,2.4640000000000004,4.2677728      6.927092
169.5,-7.3919992,-1.4225912     -0.625931
169.5,-2.4640000000000004,7.1129544     -0.625931
169.5,-4.9279992,-5.690364000000001     -0.625931
169.5,4.9279992,-5.690364000000001      -0.625931
169.5,2.4640000000000004,7.1129544      -0.625931
169.5,7.3919992,-1.4225912      -0.625931
89.55000000000001,-7.3919992,0.0        1.892092
89.55000000000001,-3.696,-6.401659200000001     1.892092
89.55000000000001,-3.696,6.401659200000001      1.892092
89.55000000000001,3.696,-6.401659200000001      1.892092
89.55000000000001,7.3919992,0.0 1.892092
89.55000000000001,3.696,6.401659200000001       1.892092
-3.4562500000000003,-6.159999200000001,2.1338864        -5.030367
-3.4562500000000003,-6.159999200000001,-2.1338864       -5.030367
-3.4562500000000003,-4.9279992,-4.2677728       -5.030367
-3.4562500000000003,-4.9279992,4.2677728        -5.030367
-3.4562500000000003,-6.159999200000001,2.1338864        5.039632
-3.4562500000000003,1.2320000000000002,-6.401659200000001       -5.030367
-3.4562500000000003,-1.2320000000000002,-6.401659200000001      -5.030367
-3.4562500000000003,-6.159999200000001,-2.1338864       5.039632
-3.4562500000000003,-4.9279992,-4.2677728       5.039632
-3.4562500000000003,-1.2320000000000002,6.401659200000001       -5.030367
-3.4562500000000003,1.2320000000000002,-6.401659200000001       5.039632
-3.4562500000000003,-4.9279992,4.2677728        5.039632
-3.4562500000000003,-1.2320000000000002,-6.401659200000001      5.039632
-3.4562500000000003,4.9279992,-4.2677728        -5.030367
-3.4562500000000003,1.2320000000000002,6.401659200000001        -5.030367
-3.4562500000000003,6.159999200000001,-2.1338864        -5.030367
-3.4562500000000003,6.159999200000001,2.1338864 -5.030367
-3.4562500000000003,4.9279992,4.2677728 -5.030367
-3.4562500000000003,-1.2320000000000002,6.401659200000001       5.039632
-3.4562500000000003,4.9279992,-4.2677728        5.039632
-3.4562500000000003,6.159999200000001,-2.1338864        5.039632
-3.4562500000000003,1.2320000000000002,6.401659200000001        5.039632
-3.4562500000000003,6.159999200000001,2.1338864 5.039632
-3.4562500000000003,4.9279992,4.2677728 5.039632
-0.55,-6.159999200000001,-0.7112952     -5.660931
-0.55,-3.696,-4.979068000000001 -5.660931
-0.55,-2.4640000000000004,5.690364000000001     -5.660931
-0.55,3.696,-4.979068000000001  -5.660931
-0.55,2.4640000000000004,5.690364000000001      -5.660931
-0.55,6.159999200000001,-0.7112952      -5.660931
92.80000000000001,-1.2320000000000002,0.7112952 9.444068
92.80000000000001,0.0,-1.4225912        9.444068
92.80000000000001,1.2320000000000002,0.7112952  9.444068
41.050000000000004,-7.3919992,1.4225912 2.515516
41.050000000000004,-2.4640000000000004,-7.1129544       2.515516
41.050000000000004,2.4640000000000004,-7.1129544        2.515516
41.050000000000004,-4.9279992,5.690364000000001 2.515516
41.050000000000004,7.3919992,1.4225912  2.515516
41.050000000000004,4.9279992,5.690364000000001  2.515516
125.5,-7.3919992,-1.4225912     -2.519484
125.5,-2.4640000000000004,7.1129544     -2.519484
125.5,-4.9279992,-5.690364000000001     -2.519484
125.5,4.9279992,-5.690364000000001      -2.519484
125.5,7.3919992,-1.4225912      -2.519484
125.5,2.4640000000000004,7.1129544      -2.519484
175.70000000000002,-7.3919992,-0.0      -3.142907
175.70000000000002,-3.696,-6.401659200000001    -3.142907
175.70000000000002,-3.696,6.401659200000001     -3.142907
175.70000000000002,3.696,-6.401659200000001     -3.142907
175.70000000000002,7.3919992,-0.0       -3.142907
175.70000000000002,3.696,6.401659200000001      -3.142907
6.916406248,-3.696,-2.1338864   -8.177907
6.916406248,-3.696,2.1338864    -8.177907
6.916406248,3.696,2.1338864     -8.177907
6.916406248,3.696,-2.1338864    -8.177907
6.916406248,-0.0,-4.2677728     -8.177907
6.916406248,0.0,4.2677728       -8.177907
201.5,-3.696,-3.5564776000000005        7.550516
201.5,-4.9279992,-1.4225912     7.550516
201.5,-1.2320000000000002,4.979068000000001     7.550516
201.5,3.696,-3.5564776000000005 7.550516
201.5,1.2320000000000002,4.979068000000001      7.550516
201.5,4.9279992,-1.4225912      7.550516
-278.40000000000003,-3.696,3.5564776000000005   -7.554483
-278.40000000000003,-4.9279992,1.4225912        -7.554483
-278.40000000000003,-1.2320000000000002,-4.979068000000001      -7.554483
-278.40000000000003,1.2320000000000002,-4.979068000000001       -7.554483
-278.40000000000003,4.9279992,1.4225912 -7.554483
-278.40000000000003,3.696,3.5564776000000005    -7.554483
57.0125,-6.159999200000001,4.979068000000001    -0.625931
57.0125,-7.3919992,2.8451816    -0.625931
57.0125,-1.2320000000000002,-7.8242504  -0.625931
57.0125,1.2320000000000002,-7.8242504   -0.625931
57.0125,7.3919992,2.8451816     -0.625931
57.0125,6.159999200000001,4.979068000000001     -0.625931
-387.0,-0.0,-7.1129544  4.409069
-387.0,-6.159999200000001,3.5564776000000005    4.409069
-387.0,6.159999200000001,3.5564776000000005     4.409069

End of input

&SCF
Occupied
9
Iterations
   50  100
End of Input

&RASSCF
LumOrb
Symmetry
1
Spin
2
Nactel
1 0 0
CIRoot
9 9 1
inactive
9
ras2
9
End of Input

>>> COPY vanadium_so_cf.JobIph $SLURM_SUBMIT_DIR/vanadium_so_cf.doublet.JobIph

>>> COPY $SLURM_SUBMIT_DIR/vanadium_so_cf.doublet.JobIph ./JOB002

&RASSI
NROFJobIph
1 All
SpinOrbit
End of Input

EOF

-- ----------------------------------

--- Start Module: seward at Wed Mar 26 12:09:09 2025 ---

()()()()()()()()()()()()()()()()()()()()()()()()()()()()()()()()()()()()()()()()()()()()()()()()()()

                                              &SEWARD

                                   only a single process is used
                       available to each process: 4.1 GB of memory, 1 thread?
                                            pid: 3925140
()()()()()()()()()()()()()()()()()()()()()()()()()()()()()()()()()()()()()()()()()()()()()()()()()()

 The speed of LIGHT in this CALCULATION =   137.03599917700001     
               SEWARD will generate:
                  Multipole Moment integrals up to order  2
                  Kinetic Energy integrals
                  Nuclear Attraction integrals (point charge)
                  One-Electron Hamiltonian integrals
                  Velocity integrals
                  Relativistic Douglas-Kroll-Hess integrals:
                    - Parametrization         : EXP
                    - DKH order of Hamiltonian: 2
                    - DKH order of Properties : 0
                         - multipole moment operators
                         - electric potential operators
                         - contact operators
                  External field from   414 point(s) added to the one-electron Hamiltonian
                  Orbital angular momentum around (-0.0000 -0.0000  0.0088 )
                  Velocity quadrupole around (-0.0000 -0.0000  0.0088 )
                  Atomic mean-field integrals
                  Two-Electron Repulsion integrals

                   Integrals are discarded if absolute value <: 0.10E-13
                   Integral cutoff threshold is set to       <: 0.10E-15

++    Symmetry information:
      ---------------------

                    Character Table for C1 

                             E  
                    a        1  x, y, xy, Rz, z, xz, Ry, yz, Rx, I
--


++    Basis set information:
      ----------------------


      Basis set label: V.ANO-RCC.ROOS.21S15P10D6F4G2H.10S9P8D6F4G2H......

      Electronic valence basis set:
      ------------------
      Associated Effective Charge  23.000000 au
      Associated Actual Charge     23.000000 au
      Nuclear Model: Point charge

      Shell  nPrim  nBasis  Cartesian Spherical Contaminant
         s      21      10        X                  
         p      15       9        X                  
         d      10       8                 X         
         f       6       6                 X         
         g       4       4                 X         
         h       2       2                 X         
--


++    Molecular structure info:
      -------------------------

                    ************************************************ 
                    **** Cartesian Coordinates / Bohr, Angstrom **** 
                    ************************************************ 

     Center  Label                x              y              z                     x              y              z
        1      V               -0.000000      -0.000000       0.008754             -0.000000      -0.000000       0.004632
--


++    Operator info:
      --------------


  Net charge from external field:   -39.268449999999902     
--


            Nuclear Potential Energy              0.00000000 au

                    Nuclear-External Field Potential Energy    -263.03273129 au
                    External Field Potential Energy            2007.04612673 au 


            Total Nuclear Potential Energy           -263.03273129 au


      Basis set specifications :
      Symmetry species         a  
      Basis functions          177

 Sorry, Molden does not know how to handle
 functions with angular momentum larger than g
Note: The following floating-point exceptions are signalling: IEEE_UNDERFLOW_FLAG IEEE_DENORMAL
--- Stop Module: seward at Wed Mar 26 12:09:16 2025 /rc=_RC_ALL_IS_WELL_ ---
*** files: vanadium_so_cf.GssOrb xmldump
    saved to directory /home4/s4752295/Internship/Initial_simulations/Point_charge_model/1_electron/Madelung_charges_9_active_space/V
--- Module seward spent 7 seconds ---

*** symbolic link created: INPORB -> vanadium_so_cf.GssOrb
--- Start Module: scf at Wed Mar 26 12:09:16 2025 ---

()()()()()()()()()()()()()()()()()()()()()()()()()()()()()()()()()()()()()()()()()()()()()()()()()()

                                                &SCF

                                   only a single process is used
                       available to each process: 4.1 GB of memory, 1 thread?
                                            pid: 3925146
()()()()()()()()()()()()()()()()()()()()()()()()()()()()()()()()()()()()()()()()()()()()()()()()()()

++    Input section:
      --------------

      Header of the integral files:
      
       Integrals generated by seward 4.2.0  , Wed Mar 26 12:09:09 2025


      Cartesian coordinates in Angstrom:
      -----------------------------------------------------
      No.  Label        X            Y            Z        
      -----------------------------------------------------
       1   V         -0.00000000  -0.00000000   0.00463220
      -----------------------------------------------------
      Nuclear repulsion energy = -263.03273129
--

++    Orbital specifications:
      -----------------------

      Symmetry species               1
                                     a
      Frozen orbitals                0
      Occupied orbitals              9
      Secondary orbitals           168
      Deleted orbitals               0
      Total number of orbitals     177
      Number of basis functions    177
--

      Molecular charge                           5.000

++    Optimization specifications:
      ----------------------------

      SCF Algorithm: Conventional
      Minimized density differences are used
      Number of density matrices in core                5
      Maximum number of NDDO SCF iterations            50
      Maximum number of HF SCF iterations             100
      Threshold for SCF energy change            0.10E-08
      Threshold for density matrix               0.10E-03
      Threshold for Fock matrix                  0.15E-03
      Threshold for linear dependence            0.10E-08
      Threshold at which DIIS is turned on       0.15E+00
      Threshold at which QNR/C2DIIS is turned on 0.75E-01
      Threshold for Norm(delta) (QNR/C2DIIS)     0.20E-04
      DIIS extrapolation of the SCF procedure
      All orbitals punched on: SCFORB
--

      Detected guessorb starting orbitals                                             


++ Convergence information
                                   SCF        iterations: Energy and convergence statistics

Iter     Tot. SCF        One-elec.       Two-elec.     Energy      Max Dij or  Max Fij      DNorm      TNorm      AccCon     Time
         Energy          Energy          Energy        Change      Delta Norm                                                in Sec.
   1  -999.205173068 -1025.652209391   289.479767612   0.00E+00    0.39E+00*   0.72E+00*    0.60E+01   0.22E+03   None         1.
   2 -1000.721713743  -998.029358108   260.340375653  -0.15E+01*   0.16E+00*   0.30E+00*    0.38E+01   0.21E+03   EDIIS        1.
   3 -1000.740411268 -1038.277014107   300.569334128  -0.19E-01*   0.11E+00*   0.14E+00*    0.18E+01   0.22E+03   EDIIS        1.
   4 -1001.032781968 -1003.512516501   265.512465822  -0.29E+00*   0.53E+00*   0.45E-01*    0.12E+01   0.21E+03   c2DIIS       1.
   5 -1000.994169392 -1032.863742526   294.902304423   0.39E-01*   0.46E-01*   0.28E-01*    0.56E+00   0.22E+03   c2DIIS       1.
   6 -1001.190568739 -1016.708300983   278.550463533  -0.20E+00*   0.16E+00*   0.97E-02*    0.20E+00   0.22E+03   QNRc2DIIS    1.
   7 -1001.173111923 -1022.145004941   284.004624307   0.17E-01*   0.14E+00*   0.61E-01*    0.94E-02   0.22E+03   QNRc2DIIS    1.
   8 -1001.191087396 -1017.460903399   279.302547292  -0.18E-01*   0.16E-02*   0.17E-02*    0.10E-01   0.22E+03   QNRc2DIIS    1.
   9 -1001.191095319 -1017.431622007   279.273257978  -0.79E-05*   0.32E-03*   0.18E-03*    0.26E-02   0.22E+03   QNRc2DIIS    1.
  10 -1001.191095541 -1017.424506277   279.266142025  -0.22E-06*   0.83E-04*   0.33E-04     0.19E-03   0.22E+03   QNRc2DIIS    1.
  11 -1001.191095548 -1017.426814428   279.268450170  -0.66E-08*   0.61E-05    0.29E-05     0.56E-04   0.22E+03   QNRc2DIIS    1.
  12 -1001.191095548 -1017.426830797   279.268466539  -0.90E-10    0.59E-05    0.15E-05     0.17E-04   0.22E+03   QNRc2DIIS    1.

       Convergence after 12 Macro Iterations
--

 *****************************************************************************************************************************
 *                                                                                                                           *
 *                                             SCF/KS-DFT Program, Final results                                             *
 *                                                                                                                           *
 *                                                                                                                           *
 *                                                                                                                           *
 *                                                       Final Results                                                       *
 *                                                                                                                           *
 *****************************************************************************************************************************

::    Total SCF energy                              -1001.1910955476
      One-electron energy                           -1017.4268307971
      Two-electron energy                             279.2684665386
      Nuclear repulsion energy                       -263.0327312891
      Kinetic energy (interpolated)                   965.2038974714
      Virial theorem                                    1.0372845553
      Total spin, S(S+1)                                0.0000000000
      Total spin, S                                     0.0000000000
      Max non-diagonal density matrix element           0.0000113161
      Max non-diagonal Fock matrix element              0.0000020870


      All orbitals with orbital energies smaller than  E(LUMO)+0.5 are printed

++    Molecular orbitals:
      -------------------

      Title: SCF orbitals

      Molecular orbitals for symmetry species 1: a  

          Orbital            1         2         3         4         5         6         7         8         9        10    
          Energy         -195.7902  -17.0114  -12.9245  -12.9245  -12.9188    4.4232    5.7208    5.7210    6.2595    6.3539
          Occ. No.          2.0000    2.0000    2.0000    2.0000    2.0000    2.0000    2.0000    2.0000    2.0000    0.0000

        1 V      1s         1.0000    0.0000    0.0000   -0.0000    0.0000   -0.0000   -0.0000    0.0000    0.0000    0.0000
        2 V      2s        -0.0000    1.0000    0.0000   -0.0000   -0.0030    0.0031    0.0000    0.0000   -0.0022   -0.0021
        3 V      3s         0.0000   -0.0038   -0.0000    0.0000    0.0027    0.9338    0.0003    0.0000   -0.2330   -0.2308
        4 V      4s         0.0000    0.0004    0.0000   -0.0000   -0.0003   -0.0290   -0.0001   -0.0000    0.0246    0.1117
        5 V      5s         0.0000   -0.0005   -0.0000    0.0000    0.0003    0.0236    0.0001    0.0000   -0.3606    0.2445
        6 V      6s        -0.0000    0.0013    0.0000   -0.0000   -0.0005   -0.0415   -0.0001   -0.0000   -0.1231    0.2944
        7 V      7s         0.0000   -0.0007   -0.0000    0.0000    0.0001    0.0095   -0.0000   -0.0000   -0.3089    0.3235
        8 V      8s        -0.0000    0.0004   -0.0000   -0.0000    0.0002    0.0019    0.0000   -0.0000   -0.2479    0.2258
        9 V      9s         0.0000   -0.0001    0.0000   -0.0000   -0.0001   -0.0008    0.0000   -0.0000   -0.3961    0.3910
       10 V     10s        -0.0000    0.0000   -0.0000    0.0000    0.0002   -0.0003    0.0000   -0.0000   -0.1512    0.1553
       11 V      2px       -0.0000    0.0031   -0.0030    0.0000    1.0000   -0.0014   -0.0000    0.0000    0.0025    0.0025
       12 V      3px       -0.0000    0.0017    0.0000   -0.0000   -0.0032    0.3505   -0.0016   -0.0000    0.6187    0.6112
       13 V      4px        0.0000   -0.0002   -0.0000    0.0000    0.0005   -0.0005    0.0000   -0.0000   -0.0040   -0.0127
       14 V      5px       -0.0000    0.0004    0.0000   -0.0000   -0.0010   -0.0143   -0.0001   -0.0000    0.0229    0.0171
       15 V      6px        0.0000   -0.0001   -0.0000    0.0000    0.0003    0.0093    0.0001    0.0000    0.0250   -0.0617
       16 V      7px       -0.0000   -0.0002    0.0000   -0.0000    0.0001   -0.0018   -0.0000   -0.0000    0.0825   -0.0621
       17 V      8px        0.0000    0.0002   -0.0000    0.0000   -0.0002   -0.0027   -0.0000    0.0000    0.1184   -0.1182
       18 V      9px       -0.0000   -0.0002   -0.0000    0.0000    0.0003   -0.0001    0.0000    0.0000    0.0643   -0.0837
       19 V     10px        0.0000    0.0001    0.0000   -0.0000   -0.0003    0.0002    0.0000    0.0000    0.0167   -0.0240
       20 V      2py       -0.0000    0.0000    0.0000    1.0000    0.0000   -0.0000   -0.0000    0.0043   -0.0000   -0.0000
       21 V      3py       -0.0000   -0.0000   -0.0000   -0.0044   -0.0000   -0.0000   -0.0000    0.9664    0.0000    0.0000
       22 V      4py        0.0000    0.0000    0.0000    0.0008    0.0000    0.0000    0.0000   -0.0582   -0.0000   -0.0000
       23 V      5py       -0.0000   -0.0000   -0.0000   -0.0020   -0.0000   -0.0000   -0.0000    0.0849    0.0000    0.0000
       24 V      6py        0.0000    0.0000    0.0000    0.0010    0.0000    0.0000    0.0000   -0.0141    0.0000    0.0000
       25 V      7py       -0.0000   -0.0000   -0.0000   -0.0008   -0.0000    0.0000    0.0000   -0.0051    0.0000    0.0000
       26 V      8py        0.0000    0.0000    0.0000    0.0003    0.0000   -0.0000   -0.0000    0.0006    0.0000   -0.0000
       27 V      9py       -0.0000   -0.0000   -0.0000   -0.0002   -0.0000    0.0000   -0.0000    0.0002    0.0000    0.0000
       28 V     10py        0.0000    0.0000    0.0000    0.0001    0.0000    0.0000    0.0000   -0.0008    0.0000   -0.0000
       29 V      2pz       -0.0000   -0.0000    1.0000   -0.0000    0.0030   -0.0000    0.0043    0.0000    0.0000    0.0000
       30 V      3pz        0.0000    0.0000   -0.0044    0.0000   -0.0000    0.0003    0.9663    0.0000    0.0010    0.0010
       31 V      4pz       -0.0000   -0.0000    0.0008   -0.0000    0.0000   -0.0000   -0.0581   -0.0000   -0.0003    0.0002
       32 V      5pz        0.0000    0.0000   -0.0020    0.0000   -0.0000    0.0000    0.0847    0.0000   -0.0003    0.0004
       33 V      6pz       -0.0000    0.0000    0.0010   -0.0000    0.0000    0.0000   -0.0141   -0.0000   -0.0009    0.0009
       34 V      7pz        0.0000   -0.0000   -0.0008    0.0000   -0.0000   -0.0000   -0.0050   -0.0000   -0.0010    0.0010
       35 V      8pz       -0.0000    0.0000    0.0003   -0.0000    0.0000   -0.0000    0.0006    0.0000   -0.0016    0.0016
       36 V      9pz        0.0000   -0.0000   -0.0002    0.0000    0.0000    0.0000    0.0002    0.0000   -0.0011    0.0010
       37 V     10pz       -0.0000    0.0000    0.0001   -0.0000   -0.0000    0.0000   -0.0008   -0.0000   -0.0003    0.0003
       38 V      3d2-      -0.0000    0.0000    0.0000    0.0007    0.0000   -0.0000   -0.0000    0.2234    0.0000    0.0000
       39 V      4d2-      -0.0000   -0.0000   -0.0000   -0.0004   -0.0000    0.0000    0.0000   -0.0518   -0.0000   -0.0000
       40 V      5d2-       0.0000    0.0000    0.0000    0.0001    0.0000   -0.0000    0.0000   -0.0195   -0.0000   -0.0000
       41 V      6d2-      -0.0000   -0.0000    0.0000    0.0003    0.0000    0.0000   -0.0000    0.0201    0.0000    0.0000
       42 V      7d2-       0.0000    0.0000   -0.0000   -0.0005   -0.0000   -0.0000   -0.0000    0.0081    0.0000    0.0000
       43 V      8d2-      -0.0000   -0.0000    0.0000    0.0003    0.0000   -0.0000   -0.0000    0.0012   -0.0000   -0.0000
       44 V      9d2-       0.0000    0.0000   -0.0000   -0.0001   -0.0000   -0.0000    0.0000   -0.0021   -0.0000   -0.0000
       45 V     10d2-      -0.0000   -0.0000   -0.0000   -0.0000   -0.0000    0.0000    0.0000   -0.0006   -0.0000   -0.0000
       46 V      3d1-      -0.0000   -0.0000    0.0000    0.0000   -0.0000    0.0000    0.0000   -0.0052   -0.0000   -0.0000
       47 V      4d1-       0.0000    0.0000   -0.0000   -0.0000    0.0000   -0.0000    0.0000   -0.0009   -0.0000   -0.0000
       48 V      5d1-      -0.0000   -0.0000    0.0000    0.0000   -0.0000    0.0000   -0.0000    0.0025    0.0000    0.0000
       49 V      6d1-       0.0000    0.0000   -0.0000   -0.0000   -0.0000   -0.0000   -0.0000    0.0007    0.0000    0.0000
       50 V      7d1-      -0.0000   -0.0000    0.0000    0.0000    0.0000    0.0000    0.0000   -0.0007    0.0000    0.0000
       51 V      8d1-       0.0000    0.0000   -0.0000   -0.0000    0.0000    0.0000    0.0000   -0.0014    0.0000    0.0000
       52 V      9d1-      -0.0000    0.0000    0.0000    0.0000    0.0000    0.0000    0.0000   -0.0008    0.0000    0.0000
       53 V     10d1-       0.0000    0.0000   -0.0000   -0.0000    0.0000   -0.0000    0.0000   -0.0001   -0.0000   -0.0000
       54 V      3d0       -0.0000   -0.0000    0.0000   -0.0000   -0.0005   -0.0173    0.0050    0.0000   -0.1111   -0.1059
       55 V      4d0        0.0000    0.0001    0.0000   -0.0000    0.0003   -0.0007    0.0006    0.0000    0.0155    0.0285
       56 V      5d0       -0.0000   -0.0001   -0.0000    0.0000   -0.0002    0.0070   -0.0022   -0.0000    0.0059    0.0201
       57 V      6d0        0.0000    0.0003    0.0000   -0.0000   -0.0000   -0.0024   -0.0005   -0.0000   -0.0131   -0.0035
       58 V      7d0        0.0000   -0.0003   -0.0000    0.0000    0.0001   -0.0020    0.0006    0.0000   -0.0093   -0.0001
       59 V      8d0       -0.0000    0.0001    0.0000   -0.0000   -0.0001   -0.0010    0.0012    0.0000   -0.0059    0.0013
       60 V      9d0        0.0000   -0.0000   -0.0000    0.0000    0.0000    0.0005    0.0006    0.0000   -0.0024    0.0030
       61 V     10d0       -0.0000   -0.0000    0.0000   -0.0000    0.0000    0.0003    0.0001    0.0000   -0.0004    0.0009
       62 V      3d1+       0.0000   -0.0000    0.0007   -0.0000    0.0000   -0.0000    0.2238    0.0000    0.0007    0.0006
       63 V      4d1+      -0.0000    0.0000   -0.0004    0.0000   -0.0000    0.0000   -0.0517   -0.0000   -0.0001   -0.0002
       64 V      5d1+       0.0000    0.0000    0.0001   -0.0000    0.0000   -0.0000   -0.0197   -0.0000    0.0000   -0.0002
       65 V      6d1+      -0.0000   -0.0000    0.0003   -0.0000    0.0000    0.0000    0.0201    0.0000    0.0002   -0.0001
       66 V      7d1+      -0.0000    0.0000   -0.0005    0.0000   -0.0000    0.0000    0.0081    0.0000    0.0002   -0.0001
       67 V      8d1+       0.0000   -0.0000    0.0003   -0.0000    0.0000    0.0000    0.0013    0.0000    0.0001   -0.0001
       68 V      9d1+      -0.0000    0.0000   -0.0001    0.0000   -0.0000   -0.0000   -0.0021   -0.0000    0.0000   -0.0001
       69 V     10d1+       0.0000    0.0000   -0.0000    0.0000   -0.0000   -0.0000   -0.0006   -0.0000    0.0000   -0.0000
       70 V      3d2+       0.0000    0.0001   -0.0000    0.0000    0.0008    0.0300    0.0024    0.0000    0.1929    0.1839
       71 V      4d2+      -0.0000   -0.0001    0.0000   -0.0000   -0.0005    0.0012    0.0005    0.0000   -0.0268   -0.0495
       72 V      5d2+       0.0000    0.0002   -0.0000    0.0000    0.0003   -0.0122   -0.0013   -0.0000   -0.0104   -0.0351
       73 V      6d2+      -0.0000   -0.0005    0.0000   -0.0000    0.0001    0.0042   -0.0003   -0.0000    0.0228    0.0060
       74 V      7d2+      -0.0000    0.0004   -0.0000    0.0000   -0.0003    0.0036    0.0004    0.0000    0.0162    0.0003
       75 V      8d2+       0.0000   -0.0002    0.0000   -0.0000    0.0002    0.0018    0.0007    0.0000    0.0103   -0.0022
       76 V      9d2+      -0.0000    0.0001   -0.0000    0.0000   -0.0000   -0.0008    0.0004    0.0000    0.0041   -0.0052
       77 V     10d2+       0.0000    0.0000    0.0000   -0.0000   -0.0001   -0.0005    0.0001    0.0000    0.0007   -0.0015
       78 V      4f3-      -0.0000    0.0000    0.0000    0.0000    0.0000   -0.0000   -0.0000    0.0286    0.0000    0.0000
       79 V      5f3-      -0.0000   -0.0000   -0.0000   -0.0000   -0.0000    0.0000   -0.0000    0.0108    0.0000    0.0000
       80 V      6f3-       0.0000    0.0000    0.0000    0.0001    0.0000    0.0000    0.0000   -0.0100   -0.0000   -0.0000
       81 V      7f3-      -0.0000   -0.0000   -0.0000   -0.0002   -0.0000    0.0000    0.0000   -0.0056   -0.0000   -0.0000
       82 V      8f3-       0.0000    0.0000    0.0000    0.0002    0.0000   -0.0000   -0.0000    0.0015   -0.0000    0.0000
       83 V      9f3-      -0.0000   -0.0000   -0.0000   -0.0001   -0.0000   -0.0000   -0.0000    0.0049   -0.0000   -0.0000
       84 V      4f2-       0.0000    0.0000   -0.0000   -0.0000   -0.0000    0.0000    0.0000   -0.0087   -0.0000   -0.0000
       85 V      5f2-       0.0000   -0.0000    0.0000    0.0000   -0.0000   -0.0000    0.0000   -0.0058   -0.0000   -0.0000
       86 V      6f2-      -0.0000    0.0000   -0.0000   -0.0000    0.0000    0.0000   -0.0000    0.0028   -0.0000    0.0000
       87 V      7f2-      -0.0000   -0.0000   -0.0000   -0.0000   -0.0000   -0.0000   -0.0000    0.0033   -0.0000    0.0000
       88 V      8f2-      -0.0000   -0.0000    0.0000    0.0000    0.0000   -0.0000    0.0000   -0.0001   -0.0000    0.0000
       89 V      9f2-       0.0000    0.0000   -0.0000   -0.0000   -0.0000    0.0000    0.0000   -0.0025   -0.0000   -0.0000
       90 V      4f1-       0.0000    0.0000   -0.0000   -0.0000   -0.0000   -0.0000    0.0000   -0.0074   -0.0000   -0.0000
       91 V      5f1-      -0.0000   -0.0000    0.0000    0.0000    0.0000    0.0000    0.0000   -0.0028   -0.0000   -0.0000
       92 V      6f1-       0.0000    0.0000   -0.0000   -0.0000   -0.0000   -0.0000   -0.0000    0.0026    0.0000    0.0000
       93 V      7f1-      -0.0000   -0.0000    0.0000    0.0000    0.0000    0.0000   -0.0000    0.0014    0.0000    0.0000
       94 V      8f1-       0.0000    0.0000   -0.0000   -0.0001   -0.0000    0.0000    0.0000   -0.0004    0.0000    0.0000
       95 V      9f1-      -0.0000   -0.0000    0.0000    0.0000    0.0000    0.0000    0.0000   -0.0013    0.0000   -0.0000
       96 V      4f0       -0.0000    0.0000   -0.0000    0.0000    0.0000    0.0014   -0.0184   -0.0000    0.0049    0.0027
       97 V      5f0        0.0000    0.0000    0.0000   -0.0000   -0.0000    0.0007   -0.0070   -0.0000    0.0053    0.0004
       98 V      6f0       -0.0000   -0.0000   -0.0001    0.0000    0.0000   -0.0007    0.0064    0.0000    0.0008   -0.0029
       99 V      7f0        0.0000    0.0000    0.0001   -0.0000    0.0000   -0.0005    0.0036    0.0000   -0.0017   -0.0013
      100 V      8f0       -0.0000   -0.0000   -0.0001    0.0000   -0.0000    0.0001   -0.0010   -0.0000   -0.0022    0.0024
      101 V      9f0        0.0000    0.0000    0.0001   -0.0000    0.0000    0.0005   -0.0032   -0.0000   -0.0024    0.0052
      102 V      4f1+      -0.0000    0.0000    0.0000   -0.0000    0.0000   -0.0028    0.0068    0.0000   -0.0155   -0.0158
      103 V      5f1+       0.0000    0.0000   -0.0000    0.0000    0.0000   -0.0008    0.0045    0.0000   -0.0022   -0.0074
      104 V      6f1+      -0.0000   -0.0000    0.0000   -0.0000   -0.0001    0.0014   -0.0022   -0.0000    0.0120    0.0002
      105 V      7f1+       0.0000    0.0000   -0.0000    0.0000    0.0001    0.0003   -0.0026   -0.0000    0.0114   -0.0064
      106 V      8f1+      -0.0000   -0.0000    0.0000   -0.0000   -0.0002   -0.0002    0.0001    0.0000    0.0074   -0.0097
      107 V      9f1+       0.0000    0.0000   -0.0000    0.0000    0.0001   -0.0005    0.0020    0.0000    0.0062   -0.0110
      108 V      4f2+      -0.0000    0.0000    0.0000   -0.0000    0.0000    0.0011    0.0237    0.0000    0.0040    0.0023
      109 V      5f2+       0.0000    0.0000   -0.0000    0.0000   -0.0000    0.0006    0.0090    0.0000    0.0043    0.0004
      110 V      6f2+      -0.0000   -0.0000    0.0001   -0.0000    0.0000   -0.0005   -0.0082   -0.0000    0.0006   -0.0024
      111 V      7f2+       0.0000    0.0000   -0.0001    0.0000   -0.0000   -0.0004   -0.0047   -0.0000   -0.0013   -0.0011
      112 V      8f2+      -0.0000   -0.0000    0.0002   -0.0000    0.0000    0.0001    0.0013    0.0000   -0.0016    0.0019
      113 V      9f2+       0.0000    0.0000   -0.0001    0.0000   -0.0000    0.0004    0.0041    0.0000   -0.0017    0.0040
      114 V      4f3+       0.0000   -0.0000    0.0000   -0.0000   -0.0000    0.0038    0.0053    0.0000    0.0204    0.0207
      115 V      5f3+      -0.0000   -0.0000   -0.0000    0.0000   -0.0000    0.0011    0.0036    0.0000    0.0032    0.0097
      116 V      6f3+       0.0000    0.0000    0.0000   -0.0000    0.0001   -0.0019   -0.0017   -0.0000   -0.0157   -0.0004
      117 V      7f3+      -0.0000   -0.0001    0.0000   -0.0000   -0.0002   -0.0004   -0.0020   -0.0000   -0.0149    0.0082
      118 V      8f3+       0.0000    0.0001   -0.0000    0.0000    0.0002    0.0003    0.0001    0.0000   -0.0095    0.0125
      119 V      9f3+      -0.0000   -0.0000    0.0000   -0.0000   -0.0001    0.0007    0.0016    0.0000   -0.0079    0.0144
      120 V      5g4-       0.0000    0.0000    0.0000    0.0000    0.0000    0.0000   -0.0000    0.0081    0.0000    0.0000
      121 V      6g4-      -0.0000   -0.0000   -0.0000   -0.0000   -0.0000   -0.0000   -0.0000    0.0070    0.0000    0.0000
      122 V      7g4-       0.0000    0.0000    0.0000    0.0000    0.0000    0.0000    0.0000   -0.0008   -0.0000   -0.0000
      123 V      8g4-      -0.0000   -0.0000   -0.0000   -0.0000   -0.0000    0.0000    0.0000   -0.0047    0.0000   -0.0000
      124 V      5g3-      -0.0000   -0.0000   -0.0000   -0.0000   -0.0000    0.0000    0.0000   -0.0064   -0.0000   -0.0000
      125 V      6g3-       0.0000    0.0000    0.0000    0.0000   -0.0000    0.0000    0.0000   -0.0086   -0.0000   -0.0000
      126 V      7g3-      -0.0000   -0.0000   -0.0000   -0.0000   -0.0000    0.0000    0.0000   -0.0011    0.0000    0.0000
      127 V      8g3-       0.0000    0.0000    0.0000    0.0000   -0.0000   -0.0000   -0.0000    0.0041    0.0000    0.0000
      128 V      5g2-      -0.0000    0.0000   -0.0000   -0.0000   -0.0000    0.0000    0.0000   -0.0030   -0.0000   -0.0000
      129 V      6g2-       0.0000    0.0000    0.0000    0.0000    0.0000    0.0000    0.0000   -0.0025   -0.0000   -0.0000
      130 V      7g2-      -0.0000   -0.0000   -0.0000   -0.0000   -0.0000   -0.0000   -0.0000    0.0003   -0.0000   -0.0000
      131 V      8g2-       0.0000    0.0000    0.0000    0.0000    0.0000   -0.0000   -0.0000    0.0017   -0.0000    0.0000
      132 V      5g1-      -0.0000    0.0000    0.0000    0.0000   -0.0000   -0.0000   -0.0000    0.0028    0.0000    0.0000
      133 V      6g1-       0.0000   -0.0000    0.0000    0.0000   -0.0000   -0.0000   -0.0000    0.0036    0.0000    0.0000
      134 V      7g1-      -0.0000    0.0000   -0.0000   -0.0000    0.0000    0.0000    0.0000   -0.0000    0.0000    0.0000
      135 V      8g1-       0.0000   -0.0000    0.0000    0.0000   -0.0000    0.0000    0.0000   -0.0023    0.0000   -0.0000
      136 V      5g0        0.0000   -0.0000   -0.0000    0.0000    0.0000   -0.0005   -0.0036   -0.0000    0.0000    0.0009
      137 V      6g0        0.0000    0.0000    0.0000   -0.0000   -0.0000   -0.0007   -0.0049   -0.0000   -0.0026    0.0003
      138 V      7g0        0.0000   -0.0000   -0.0000    0.0000    0.0000   -0.0000   -0.0008   -0.0000   -0.0025    0.0009
      139 V      8g0       -0.0000    0.0000    0.0000   -0.0000   -0.0000    0.0004    0.0020    0.0000   -0.0011    0.0018
      140 V      5g1+      -0.0000    0.0000   -0.0000    0.0000    0.0000    0.0026   -0.0066   -0.0000    0.0042    0.0029
      141 V      6g1+      -0.0000    0.0000    0.0000   -0.0000    0.0000    0.0026   -0.0058   -0.0000    0.0068    0.0036
      142 V      7g1+       0.0000    0.0000   -0.0000    0.0000   -0.0000   -0.0002    0.0006    0.0000    0.0019   -0.0006
      143 V      8g1+       0.0000   -0.0000    0.0000   -0.0000   -0.0000   -0.0014    0.0039    0.0000   -0.0022   -0.0035
      144 V      5g2+      -0.0000    0.0000    0.0000   -0.0000   -0.0000    0.0007    0.0037    0.0000   -0.0001   -0.0014
      145 V      6g2+      -0.0000   -0.0000    0.0000   -0.0000    0.0000    0.0010    0.0048    0.0000    0.0038   -0.0005
      146 V      7g2+      -0.0000    0.0000   -0.0000    0.0000   -0.0000    0.0000    0.0002    0.0000    0.0037   -0.0013
      147 V      8g2+       0.0000   -0.0000   -0.0000    0.0000    0.0000   -0.0005   -0.0028   -0.0000    0.0017   -0.0026
      148 V      5g3+      -0.0000    0.0000    0.0000   -0.0000    0.0000    0.0030    0.0058    0.0000    0.0049    0.0034
      149 V      6g3+      -0.0000    0.0000   -0.0000    0.0000    0.0000    0.0030    0.0051    0.0000    0.0079    0.0043
      150 V      7g3+       0.0000    0.0000    0.0000   -0.0000   -0.0000   -0.0003   -0.0006   -0.0000    0.0022   -0.0007
      151 V      8g3+       0.0000   -0.0000   -0.0000    0.0000   -0.0000   -0.0017   -0.0034   -0.0000   -0.0027   -0.0041
      152 V      5g4+       0.0000   -0.0000    0.0000   -0.0000    0.0000   -0.0008    0.0047    0.0000    0.0004    0.0021
      153 V      6g4+       0.0000    0.0000   -0.0000    0.0000   -0.0000   -0.0011    0.0062    0.0000   -0.0047    0.0010
      154 V      7g4+       0.0000   -0.0000   -0.0000    0.0000    0.0000   -0.0001    0.0006    0.0000   -0.0049    0.0017
      155 V      8g4+      -0.0000    0.0000   -0.0000    0.0000   -0.0000    0.0006   -0.0032   -0.0000   -0.0024    0.0033
      156 V      6h5-      -0.0000   -0.0000   -0.0000   -0.0000    0.0000    0.0000   -0.0000    0.0018    0.0000    0.0000
      157 V      7h5-       0.0000    0.0000    0.0000    0.0000   -0.0000   -0.0000   -0.0000    0.0035   -0.0000   -0.0000
      158 V      6h4-       0.0000    0.0000    0.0000    0.0000    0.0000    0.0000    0.0000   -0.0020   -0.0000   -0.0000
      159 V      7h4-       0.0000    0.0000   -0.0000   -0.0000    0.0000    0.0000    0.0000   -0.0052   -0.0000   -0.0000
      160 V      6h3-      -0.0000   -0.0000    0.0000    0.0000    0.0000    0.0000    0.0000   -0.0008    0.0000    0.0000
      161 V      7h3-       0.0000    0.0000   -0.0000   -0.0000   -0.0000   -0.0000    0.0000   -0.0016   -0.0000   -0.0000
      162 V      6h2-      -0.0000   -0.0000    0.0000    0.0000    0.0000   -0.0000   -0.0000    0.0033    0.0000    0.0000
      163 V      7h2-      -0.0000   -0.0000   -0.0000   -0.0000    0.0000   -0.0000   -0.0000    0.0059    0.0000    0.0000
      164 V      6h1-       0.0000    0.0000   -0.0000   -0.0000    0.0000    0.0000   -0.0000    0.0001    0.0000    0.0000
      165 V      7h1-      -0.0000   -0.0000    0.0000    0.0000   -0.0000   -0.0000   -0.0000    0.0001   -0.0000   -0.0000
      166 V      6h0        0.0000   -0.0000   -0.0000    0.0000   -0.0000   -0.0018    0.0011    0.0000   -0.0027   -0.0021
      167 V      7h0        0.0000   -0.0000    0.0000   -0.0000   -0.0000   -0.0029    0.0022    0.0000   -0.0060   -0.0043
      168 V      6h1+       0.0000   -0.0000    0.0000   -0.0000   -0.0000   -0.0009   -0.0012   -0.0000   -0.0017   -0.0015
      169 V      7h1+       0.0000   -0.0000   -0.0000    0.0000    0.0000   -0.0017   -0.0035   -0.0000   -0.0038   -0.0031
      170 V      6h2+      -0.0000    0.0000    0.0000   -0.0000    0.0000    0.0010   -0.0013   -0.0000    0.0016    0.0012
      171 V      7h2+      -0.0000    0.0000   -0.0000    0.0000    0.0000    0.0017   -0.0024   -0.0000    0.0035    0.0025
      172 V      6h3+      -0.0000    0.0000    0.0000   -0.0000    0.0000    0.0010    0.0025    0.0000    0.0017    0.0015
      173 V      7h3+      -0.0000    0.0000   -0.0000    0.0000   -0.0000    0.0017    0.0043    0.0000    0.0039    0.0032
      174 V      6h4+      -0.0000    0.0000   -0.0000    0.0000    0.0000    0.0028    0.0012    0.0000    0.0042    0.0033
      175 V      7h4+      -0.0000    0.0000    0.0000   -0.0000    0.0000    0.0044    0.0024    0.0000    0.0094    0.0066
      176 V      6h5+       0.0000   -0.0000    0.0000   -0.0000   -0.0000   -0.0012    0.0027    0.0000   -0.0022   -0.0019
      177 V      7h5+       0.0000   -0.0000    0.0000   -0.0000    0.0000   -0.0022    0.0057    0.0000   -0.0050   -0.0041
--


++    Molecular charges:
      ------------------

      Mulliken charges per centre and basis function type
      ---------------------------------------------------

                V     
      1s       2.0000
      2s       2.0000
      2px      2.0000
      2pz      2.0000
      2py      2.0000
      3s       1.8526
      3px      1.0112
      3pz      1.8676
      3py      1.8680
      4s       0.0029
      3d2+     0.0762
      3d1+     0.1002
      3d0      0.0253
      3d1-     0.0001
      3d2-     0.0998
      4px      0.0000
      4pz      0.0067
      4py      0.0068
      5s       0.2612
      4d2+     0.0014
      4d1+     0.0054
      4d0      0.0005
      4d1-     0.0000
      4d2-     0.0054
      5px      0.0015
      5pz      0.0144
      5py      0.0144
      6s       0.0337
      4f3+     0.0009
      4f2+     0.0012
      4f1+     0.0006
      4f0      0.0007
      4f1-     0.0001
      4f2-     0.0002
      4f3-     0.0016
      5d2+     0.0005
      5d1+     0.0008
      5d0      0.0002
      5d1-     0.0000
      5d2-     0.0008
      6px      0.0014
      6pz      0.0004
      6py      0.0004
      7s       0.1910
      5f3+     0.0000
      5f2+     0.0002
      5f1+     0.0001
      5f0      0.0002
      5f1-     0.0000
      5f2-     0.0001
      5f3-     0.0002
      6d2+     0.0011
      6d1+     0.0008
      6d0      0.0004
      6d1-     0.0000
      6d2-     0.0008
      7px      0.0136
      7pz      0.0001
      7py      0.0001
      5g4+     0.0000
      5g3+     0.0001
      5g2+     0.0000
      5g1+     0.0001
      5g0      0.0000
      5g1-     0.0000
      5g2-     0.0000
      5g3-     0.0001
      5g4-     0.0001
      6f3+     0.0005
      6f2+     0.0001
      6f1+     0.0003
      6f0      0.0001
      6f1-     0.0000
      6f2-     0.0000
      6f3-     0.0002
      6g4+     0.0001
      6g3+     0.0002
      6g2+     0.0001
      6g1+     0.0002
      6g0      0.0001
      6g1-     0.0000
      6g2-     0.0000
      6g3-     0.0001
      6g4-     0.0001
      6h5+     0.0000
      6h4+     0.0001
      6h3+     0.0000
      6h2+     0.0000
      6h1+     0.0000
      6h0      0.0000
      6h1-     0.0000
      6h2-     0.0000
      6h3-     0.0000
      6h4-     0.0000
      6h5-     0.0000
      7d2+     0.0005
      7d1+     0.0001
      7d0      0.0002
      7d1-     0.0000
      7d2-     0.0001
      7f3+     0.0005
      7f2+     0.0000
      7f1+     0.0003
      7f0      0.0000
      7f1-     0.0000
      7f2-     0.0000
      7f3-     0.0001
      7g4+     0.0000
      7g3+     0.0000
      7g2+     0.0000
      7g1+     0.0000
      7g0      0.0000
      7g1-     0.0000
      7g2-     0.0000
      7g3-     0.0000
      7g4-     0.0000
      7h5+     0.0001
      7h4+     0.0002
      7h3+     0.0001
      7h2+     0.0000
      7h1+     0.0001
      7h0      0.0001
      7h1-     0.0000
      7h2-     0.0001
      7h3-     0.0000
      7h4-     0.0001
      7h5-     0.0000
      8s       0.1229
      8px      0.0280
      8pz      0.0000
      8py      0.0000
      8d2+     0.0002
      8d1+     0.0000
      8d0      0.0001
      8d1-     0.0000
      8d2-     0.0000
      8f3+     0.0002
      8f2+     0.0000
      8f1+     0.0001
      8f0      0.0000
      8f1-     0.0000
      8f2-     0.0000
      8f3-     0.0000
      8g4+     0.0000
      8g3+     0.0000
      8g2+     0.0000
      8g1+     0.0000
      8g0      0.0000
      8g1-     0.0000
      8g2-     0.0000
      8g3-     0.0000
      8g4-     0.0000
      9s       0.3139
      9px      0.0083
      9pz      0.0000
      9py      0.0000
      9d2+     0.0000
      9d1+     0.0000
      9d0      0.0000
      9d1-     0.0000
      9d2-     0.0000
      9f3+     0.0001
      9f2+     0.0000
      9f1+     0.0001
      9f0      0.0000
      9f1-     0.0000
      9f2-     0.0000
      9f3-     0.0000
     10s       0.0457
     10px      0.0006
     10pz      0.0000
     10py      0.0000
     10d2+     0.0000
     10d1+     0.0000
     10d0      0.0000
     10d1-     0.0000
     10d2-     0.0000
      Total   18.0000

      N-E      5.0000

      Total electronic charge=   18.000000

      Total            charge=    5.000000
--

 Sorry, Molden does not know how to handle
 functions with angular momentum larger than g

++    Static properties:
      ------------------


      LoProp Charges per center


                   V     
      Nuclear     23.0000
      Electronic -18.0000

      Total        5.0000
--


++    Molecular properties:
      ---------------------

      Charge (e):
                      =    5.0000
      Dipole Moment (Debye):
      Origin of the operator (Ang)=    0.0000    0.0000    0.0000
                   X=  1.8446E+00               Y=  2.5793E-13               Z=  1.1412E-02           Total=  1.8447E+00
      Center of Charge (Ang)
                     X=    0.07680777               Y=    0.00000000               Z=    0.00047519
      Quadrupole Moment (Debye*Ang):
      Origin of the operator (Ang)=   -0.0000   -0.0000    0.0046
                  XX= -7.8351E+01              XY= -1.6114E-13              XZ=  5.1988E-02              YY= -7.6032E+01
                  YZ=  3.1498E-14              ZZ= -7.6033E+01
      In traceless form (Debye*Ang)
                  XX= -2.3187E+00              XY= -2.4171E-13              XZ=  7.7982E-02              YY=  1.1600E+00
                  YZ=  4.7247E-14              ZZ=  1.1587E+00
--

 Sorry, Molden does not know how to handle
 functions with angular momentum larger than g
 ###############################################################################
 ###############################################################################
 ###                                                                         ###
 ###                                                                         ###
 ###    WARNING: RunFile label nBas                                          ###
 ###    was used       62 times                                              ###
 ###                                                                         ###
 ###                                                                         ###
 ###############################################################################
 ###############################################################################
Note: The following floating-point exceptions are signalling: IEEE_UNDERFLOW_FLAG IEEE_DENORMAL
--- Stop Module: scf at Wed Mar 26 12:09:27 2025 /rc=_RC_ALL_IS_WELL_ ---
*** files: vanadium_so_cf.LprOrb vanadium_so_cf.ScfOrb xmldump
    saved to directory /home4/s4752295/Internship/Initial_simulations/Point_charge_model/1_electron/Madelung_charges_9_active_space/V
--- Module scf spent 11 seconds ---

*** symbolic link created: INPORB -> vanadium_so_cf.ScfOrb
--- Start Module: rasscf at Wed Mar 26 12:09:27 2025 ---

()()()()()()()()()()()()()()()()()()()()()()()()()()()()()()()()()()()()()()()()()()()()()()()()()()

                                              &RASSCF

                                   only a single process is used
                       available to each process: 4.1 GB of memory, 1 thread?
                                            pid: 3925165
()()()()()()()()()()()()()()()()()()()()()()()()()()()()()()()()()()()()()()()()()()()()()()()()()()


      Header of the ONEINT file:
      --------------------------
      
      Integrals generated by seward 4.2.0  , Wed Mar 26 12:09:09 2025


      OrdInt status: non-squared


      Cartesian coordinates in Angstrom:
      -----------------------------------------------------
      No.  Label        X            Y            Z        
      -----------------------------------------------------
       1   V         -0.00000000  -0.00000000   0.00463220
      -----------------------------------------------------
      Nuclear repulsion energy = -263.03273129

++    Wave function specifications:
      -----------------------------

      Number of closed shell electrons          18
      Number of electrons in active shells       1
      Max number of holes in RAS1 space          0
      Max nr of electrons in RAS3 space          0
      Number of inactive orbitals                9
      Number of active orbitals                  9
      Number of secondary orbitals             159
      Spin quantum number                      0.5
      State symmetry                             1
--

++    Orbital specifications:
      -----------------------

      Symmetry species                           1
                                                 a
      Frozen orbitals                            0
      Inactive orbitals                          9
      Active orbitals                            9
      RAS1 orbitals                              0
      RAS2 orbitals                              9
      RAS3 orbitals                              0
      Secondary orbitals                       159
      Deleted orbitals                           0
      Number of basis functions                177
--

++    CI expansion specifications:
      ----------------------------

      Number of CSFs                             9
      Number of determinants                     9
      Number of root(s) required                 9
      Root chosen for geometry opt.              9
      CI roots used                              1     2     3     4     5     6     7     8     9
      weights                                0.111 0.111 0.111 0.111 0.111 0.111 0.111 0.111 0.111
      highest root included in the CI            9
      max. size of the explicit Hamiltonian      9
--

++    Optimization specifications:
      ----------------------------

      RASSCF algorithm: Conventional
      Maximum number of macro iterations       200
      Maximum number of SX iterations          100
      Threshold for RASSCF energy            0.100E-07
      Threshold for max MO rotation          0.100E+00
      Threshold for max BLB element          0.100E-03
      Level shift parameter                  0.500E+00
      Make Quasi-Newton update
--

      The MO-coefficients are taken from the file:
      INPORB                                                                                                                          
      Title: SCF orbitals                                                                  

      Total molecular charge    4.00

      ************************************************************************************************************************
      *                                                                                                                      *
      *                                            Wave function control section                                             *
      *                                                                                                                      *
      ************************************************************************************************************************


                                         RASSCF iterations: Energy and convergence statistics
                                         ----------------------------------------------------

      Iter CI   SX   CI       RASSCF       Energy    max ROT     max BLB   max BLB  Level Ln srch  Step   QN   Walltime
          iter iter root      energy       change     param      element    value   shift minimum  type update hh:mm:ss
 Nr of preliminary CI iterations:   1
        1   1    6    0  -993.73856734    0.00E+00  -0.21E+00*   9  10 1  0.22E+00*  0.35   0.00    SX    NO    0:00:03
        2   1    5    0  -993.79195010   -0.53E-01* -0.49E-01    6  15 1  0.59E-01*  0.33   0.00    SX    NO    0:00:01
        3   1    5    0  -993.80418709   -0.12E-01* -0.44E-01    9  10 1  0.42E-01*  0.33   0.00    SX    NO    0:00:01
        4   1    5    0  -993.80862915   -0.44E-02* -0.40E-01    9  10 1  0.21E-01*  0.34   0.00    SX    NO    0:00:01
        5   1    5    0  -993.81080332   -0.22E-02* -0.50E-01    9  10 1  0.16E-01*  0.34   2.50    LS   YES    0:00:01
        6   1    5    0  -993.81263125   -0.18E-02* -0.59E-01    9  10 1  0.10E-01*  0.35   2.50    LS   YES    0:00:01
        7   1    6    0  -993.81363831   -0.10E-02* -0.10E+00*   6  15 1 -0.13E-01*  0.35   1.34    QN   YES    0:00:01
        8   1    6    0  -993.81542140   -0.18E-02* -0.40E+00*   6  15 1 -0.10E-01*  0.36   2.50    QN   YES    0:00:01
        9   1    6    0  -993.82298472   -0.76E-02* -0.37E+00*   5 172 1 -0.21E-01*  0.37   2.50    QN   YES    0:00:01
       10   1    7    0  -993.82481124   -0.18E-02* -0.17E+00*   5 172 1 -0.53E-01*  0.37   0.72    QN   YES    0:00:01
       11   1    7    0  -993.82217858    0.26E-02* -0.63E-01    5 172 1 -0.57E-01*  0.37  -0.50    SX   YES    0:00:01
       12   1    6    0  -993.82853160   -0.64E-02* -0.26E+00*   5 172 1 -0.22E-01*  0.37   2.50    QN   YES    0:00:01
       13   1    6    0  -993.83650609   -0.80E-02* -0.12E+00*   9  10 1 -0.56E-02*  0.37   1.59    LS   YES    0:00:01
       14   1    6    0  -993.83791014   -0.14E-02*  0.63E-01    3 171 1  0.67E-02*  0.37   1.45    QN   YES    0:00:01
       15   1    6    0  -993.83913826   -0.12E-02* -0.16E-01    5 172 1  0.84E-02*  0.36   1.28    QN   YES    0:00:01
       16   1    6    0  -993.83931252   -0.17E-03*  0.11E-01    9  10 1 -0.27E-02*  0.36   1.27    QN   YES    0:00:01
       17   1    5    0  -993.83936346   -0.51E-04* -0.67E-02    9  10 1 -0.17E-02*  0.36   1.42    QN   YES    0:00:01
       18   1    5    0  -993.83939074   -0.27E-04* -0.57E-02    3 171 1 -0.12E-02*  0.36   1.48    QN   YES    0:00:01
       19   1    5    0  -993.83940342   -0.13E-04* -0.82E-02    5 172 1 -0.50E-03*  0.36   1.49    QN   YES    0:00:01
       20   1    5    0  -993.83941257   -0.91E-05* -0.20E-01   14  21 1 -0.42E-03*  0.36   1.86    QN   YES    0:00:01
       21   1    5    0  -993.83943029   -0.18E-04* -0.88E-01    3 171 1  0.11E-02*  0.35   2.50    QN   YES    0:00:01
       22   1    6    0  -993.83950750   -0.77E-04* -0.27E+00*   9  10 1  0.49E-02*  0.35   1.76    QN   YES    0:00:01
       23   1    6    0  -993.83941563    0.92E-04* -0.20E-01    9  10 1  0.21E-01*  0.33   0.48    SX   YES    0:00:01
       24   1    6    0  -993.84082462   -0.14E-02* -0.32E+00*   9  10 1  0.15E-01*  0.33   2.50    QN   YES    0:00:01
       25   1    7    0  -993.84517416   -0.43E-02* -0.23E+00*   9  10 1  0.17E-01*  0.33   2.50    LS   YES    0:00:01
       26   1    7    0  -993.84809727   -0.29E-02*  0.32E+00*   3 171 1 -0.24E-01*  0.32   2.18    QN   YES    0:00:01
       27   1    7    0  -993.85184538   -0.37E-02* -0.69E-01    3 171 1 -0.30E-01*  0.33   1.24    QN   YES    0:00:01
       28   1    7    0  -993.85430053   -0.25E-02* -0.44E-01    3 171 1 -0.22E-01*  0.33   1.76    LS   YES    0:00:01
       29   1    7    0  -993.85484541   -0.54E-03* -0.58E-01    5 172 1 -0.17E-01*  0.33   1.19    QN   YES    0:00:01
       30   1    6    0  -993.85544201   -0.60E-03* -0.14E-01    5 172 1 -0.57E-02*  0.33   1.32    QN   YES    0:00:01
       31   1    6    0  -993.85556131   -0.12E-03*  0.14E-01    7  10 1 -0.16E-02*  0.33   1.01    QN   YES    0:00:01
       32   1    6    0  -993.85557515   -0.14E-04* -0.66E-02    5 172 1  0.22E-02*  0.33   0.62    QN   YES    0:00:01
       33   1    6    0  -993.85559388   -0.19E-04* -0.41E-02    7  10 1 -0.99E-03*  0.33   1.26    QN   YES    0:00:01
       34   1    6    0  -993.85559969   -0.58E-05* -0.74E-02    7  10 1 -0.71E-03*  0.33   1.64    QN   YES    0:00:01
       35   1    6    0  -993.85560406   -0.44E-05*  0.44E-02    4 170 1 -0.46E-03*  0.33   1.23    QN   YES    0:00:01
       36   1    6    0  -993.85560563   -0.16E-05* -0.13E-02    8 144 1 -0.24E-03*  0.33   1.02    QN   YES    0:00:01
       37   1    5    0  -993.85560632   -0.69E-06* -0.11E-02    7  10 1  0.12E-03*  0.33   1.20    QN   YES    0:00:01
       38   1    5    0  -993.85560653   -0.22E-06* -0.11E-02    7  10 1  0.92E-04   0.33   1.45    QN   YES    0:00:01
       39   1    5    0  -993.85560662   -0.87E-07* -0.10E-02    7  10 1  0.59E-04   0.33   1.58    QN   YES    0:00:01
       40   1    5    0  -993.85560667   -0.47E-07*  0.74E-03    7  10 1  0.36E-04   0.33   1.59    QN   YES    0:00:01
       41   1    5    0  -993.85560669   -0.22E-07*  0.26E-03    7  10 1  0.18E-04   0.33   1.41    QN   YES    0:00:01
       42   1    4    0  -993.85560669   -0.61E-08   0.70E-04    7  10 1  0.97E-05   0.33   1.36    QN   YES    0:00:01
      Convergence after 42 iterations
       43   1    4    0  -993.85560669   -0.15E-08   0.70E-04    7  10 1  0.59E-05   0.33   1.36    QN   YES    0:00:01

      ************************************************************************************************************************
                                                      Wave function printout:
                       occupation of active orbitals, and spin coupling of open shells (u,d: Spin up or down)
      ************************************************************************************************************************

      Note: transformation to natural orbitals
      has been made, which may change the order of the CSFs.

      printout of CI-coefficients larger than  0.05 for root  1
      energy=    -995.045748
      conf/sym  111111111     Coeff  Weight
             1  u00000000  -0.60444 0.36535
             2  0u0000000   0.11241 0.01264
             3  00u000000  -0.18850 0.03553
             4  000u00000  -0.11967 0.01432
             5  0000u0000   0.52166 0.27213
             7  000000u00   0.51316 0.26333
             8  0000000u0  -0.12918 0.01669
             9  00000000u   0.13796 0.01903

      printout of CI-coefficients larger than  0.05 for root  2
      energy=    -994.052712
      conf/sym  111111111     Coeff  Weight
             2  0u0000000   0.94070 0.88491
             3  00u000000  -0.16652 0.02773
             4  000u00000  -0.09313 0.00867
             5  0000u0000  -0.13154 0.01730
             6  00000u000   0.13000 0.01690
             7  000000u00  -0.09520 0.00906
             9  00000000u  -0.18100 0.03276

      printout of CI-coefficients larger than  0.05 for root  3
      energy=    -994.052368
      conf/sym  111111111     Coeff  Weight
             1  u00000000   0.06252 0.00391
             2  0u0000000   0.08958 0.00802
             3  00u000000   0.84546 0.71481
             4  000u00000  -0.32068 0.10283
             6  00000u000   0.14820 0.02196
             7  000000u00   0.25795 0.06654
             8  0000000u0  -0.26916 0.07245
             9  00000000u  -0.09735 0.00948

      printout of CI-coefficients larger than  0.05 for root  4
      energy=    -993.684842
      conf/sym  111111111     Coeff  Weight
             1  u00000000  -0.40065 0.16052
             3  00u000000   0.11669 0.01362
             4  000u00000   0.44182 0.19520
             5  0000u0000  -0.60020 0.36023
             6  00000u000   0.33481 0.11210
             7  000000u00   0.32239 0.10394
             8  0000000u0   0.20146 0.04059
             9  00000000u   0.11737 0.01377

      printout of CI-coefficients larger than  0.05 for root  5
      energy=    -993.662053
      conf/sym  111111111     Coeff  Weight
             1  u00000000   0.63721 0.40603
             2  0u0000000   0.10057 0.01011
             3  00u000000  -0.14637 0.02142
             5  0000u0000   0.05600 0.00314
             6  00000u000   0.13649 0.01863
             7  000000u00   0.55881 0.31227
             8  0000000u0   0.21573 0.04654
             9  00000000u   0.42530 0.18088

      printout of CI-coefficients larger than  0.05 for root  6
      energy=    -993.660109
      conf/sym  111111111     Coeff  Weight
             1  u00000000  -0.10495 0.01102
             2  0u0000000   0.21115 0.04458
             3  00u000000   0.38382 0.14732
             4  000u00000   0.24321 0.05915
             5  0000u0000   0.40959 0.16776
             6  00000u000   0.07486 0.00560
             7  000000u00  -0.38019 0.14454
             8  0000000u0   0.48006 0.23046
             9  00000000u   0.43539 0.18957

      printout of CI-coefficients larger than  0.05 for root  7
      energy=    -993.539614
      conf/sym  111111111     Coeff  Weight
             1  u00000000   0.10601 0.01124
             2  0u0000000  -0.10876 0.01183
             4  000u00000   0.13639 0.01860
             5  0000u0000   0.34566 0.11948
             6  00000u000   0.47518 0.22580
             7  000000u00   0.12368 0.01530
             8  0000000u0   0.36810 0.13550
             9  00000000u  -0.67939 0.46156

      printout of CI-coefficients larger than  0.05 for root  8
      energy=    -993.538839
      conf/sym  111111111     Coeff  Weight
             1  u00000000  -0.11011 0.01212
             2  0u0000000  -0.16585 0.02751
             3  00u000000  -0.19637 0.03856
             4  000u00000  -0.49766 0.24767
             5  0000u0000  -0.05802 0.00337
             6  00000u000   0.70969 0.50366
[...]
         3    7       8.88192268E-03  8.54446622E-17  3.86193610E+07  8.56065000E-13  3.86193610E+07
         3   11       3.03424730E-04  1.33114089E+06  7.95460854E-15  1.71543107E+05  1.50268400E+06
         3   15       3.14775062E-05  2.56620903E+05  2.50813204E-18  1.04471319E+04  2.67068035E+05
         3   17       7.82777516E-04  8.18351866E-15  8.71148933E+06  1.71250113E-13  8.71148933E+06
         4    8       8.88192268E-03  8.54446622E-17  3.86193610E+07  8.56065000E-13  3.86193610E+07
         4   12       3.03424730E-04  1.33114089E+06  7.95460854E-15  1.71543107E+05  1.50268400E+06
         4   16       3.14775062E-05  2.56620903E+05  2.50813204E-18  1.04471319E+04  2.67068035E+05
         4   18       7.82777516E-04  8.18351866E-15  8.71148933E+06  1.71250113E-13  8.71148933E+06
         5    7       8.73912905E-03  2.29130309E+02  8.44770593E-13  3.79272260E+07  3.79274551E+07
         5    9       3.87156903E-04  1.41851076E+06  9.31434077E-19  4.76569889E+05  1.89508065E+06
         5   11       3.18195297E-05  7.18253201E-14  1.57307384E+05  9.64782681E-16  1.57307384E+05
         5   13       2.93960786E-05  2.43704149E+05  6.39470500E-16  4.61898202E+03  2.48323131E+05
         5   17       7.26201233E-04  2.67704180E+05  1.81203119E-13  7.80470649E+06  8.07241067E+06
         6    8       8.73912905E-03  2.29130309E+02  8.44770593E-13  3.79272260E+07  3.79274551E+07
         6   10       3.87156903E-04  1.41851076E+06  9.31434077E-19  4.76569889E+05  1.89508065E+06
         6   12       3.18195297E-05  7.18253201E-14  1.57307384E+05  9.64782681E-16  1.57307384E+05
         6   14       2.93960786E-05  2.43704149E+05  6.39470500E-16  4.61898202E+03  2.48323131E+05
         6   18       7.26201233E-04  2.67704180E+05  1.81203119E-13  7.80470649E+06  8.07241067E+06
         7    9       2.41571696E-03  4.78927872E+01  1.56333032E-16  4.02627351E+04  4.03106279E+04
         7   11       2.39297268E-03  4.60786583E-18  4.70329722E+04  1.88606495E-16  4.70329722E+04
         7   13       9.99590377E-04  2.64814682E+03  5.29741699E-15  6.74732939E+05  6.77381086E+05
         7   15       1.03096002E-03  1.25320048E-17  7.06117536E+05  6.94485878E-15  7.06117536E+05
         7   17       3.61380528E-02  5.65376590E+07  1.96352846E-17  4.58211535E+02  5.65381173E+07
         8   10       2.41571696E-03  4.78927872E+01  1.56333032E-16  4.02627351E+04  4.03106279E+04
         8   12       2.39297268E-03  4.60786583E-18  4.70329722E+04  1.88606495E-16  4.70329722E+04
         8   14       9.99590377E-04  2.64814682E+03  5.29741699E-15  6.74732939E+05  6.77381086E+05
         8   16       1.03096002E-03  1.25320048E-17  7.06117536E+05  6.94485878E-15  7.06117536E+05
         8   18       3.61380528E-02  5.65376590E+07  1.96352846E-17  4.58211535E+02  5.65381173E+07
         9   11       5.03702242E-05  1.37659896E-22  6.11417865E+00  5.65077011E-20  6.11417865E+00
         9   13       9.50857478E-04  4.40538931E+05  3.66410935E-17  1.74583487E+04  4.57997280E+05
         9   15       7.06935564E-05  1.21248846E-14  3.44833506E+04  2.84130241E-18  3.44833506E+04
         9   17       1.90151997E-04  6.91183430E+04  7.13645965E-16  1.70100448E+05  2.39218791E+05
        10   12       5.03702242E-05  1.37659896E-22  6.11417865E+00  5.65077011E-20  6.11417865E+00
        10   14       9.50857478E-04  4.40538931E+05  3.66410935E-17  1.74583487E+04  4.57997280E+05
        10   16       7.06935564E-05  1.21248846E-14  3.44833506E+04  2.84130241E-18  3.44833506E+04
        10   18       1.90151997E-04  6.91183430E+04  7.13645965E-16  1.70100448E+05  2.39218791E+05
        11   13       4.22218562E-05  9.54633860E-15  1.96963383E+04  7.07424091E-17  1.96963383E+04
        11   15       1.02445928E-03  4.58688891E+05  6.91406968E-20  2.53866934E+04  4.84075584E+05
        11   17       1.39288066E-04  3.26828666E-16  1.71804351E+05  6.46839626E-16  1.71804351E+05
        12   14       4.22218562E-05  9.54633860E-15  1.96963383E+04  7.07424091E-17  1.96963383E+04
        12   16       1.02445928E-03  4.58688891E+05  6.91406968E-20  2.53866934E+04  4.84075584E+05
        12   18       1.39288066E-04  3.26828666E-16  1.71804351E+05  6.46839626E-16  1.71804351E+05
        13   17       5.29843641E-05  1.01750875E+00  9.50847138E-17  9.68678041E+03  9.68779792E+03
        14   18       5.29843641E-05  1.01750875E+00  9.50847138E-17  9.68678041E+03  9.68779792E+03
        15   17       6.01359366E-05  4.81972507E-19  1.07705834E+04  8.22772110E-17  1.07705834E+04
        16   18       6.01359366E-05  4.81972507E-19  1.07705834E+04  8.22772110E-17  1.07705834E+04
     -----------------------------------------------------------------------------------------------
--

++ Velocity transition strengths (SO states):
   ------------------------------------------
    for osc. strength at least    1.0000000000000001E-005

      From   To        Osc. strength     Einstein coefficients Ax, Ay, Az (sec-1)    Total A (sec-1)
     -----------------------------------------------------------------------------------------------
         1    3       5.55140205E-04  1.68067949E-17  1.75891018E+07  3.42428737E-13  1.75891018E+07
         1    5       5.70703549E-04  6.75966661E+02  4.45751233E-13  1.80940649E+07  1.80947409E+07
         1    7       2.32199931E-01  1.38100858E+10  2.50460921E-13  7.40881735E+06  1.38174946E+10
         1    9       1.30071553E-01  1.35058356E+07  3.06996317E-11  7.98804651E+09  8.00155234E+09
         1   11       1.27533899E-01  8.39414263E-13  7.86750125E+09  3.24923710E-11  7.86750125E+09
         1   13       3.02286563E-02  3.76376688E+05  2.06319953E-11  2.20283977E+09  2.20321615E+09
         1   15       3.26670983E-02  1.60874524E-16  2.38339367E+09  2.14206446E-11  2.38339367E+09
         1   17       3.14626423E-03  2.52829683E+08  5.04719753E-15  3.23175219E+04  2.52862001E+08
         2    4       5.55140205E-04  1.68067949E-17  1.75891018E+07  3.42428737E-13  1.75891018E+07
         2    6       5.70703549E-04  6.75966661E+02  4.45751233E-13  1.80940649E+07  1.80947409E+07
         2    8       2.32199931E-01  1.38100858E+10  2.50460921E-13  7.40881735E+06  1.38174946E+10
         2   10       1.30071553E-01  1.35058356E+07  3.06996317E-11  7.98804651E+09  8.00155234E+09
         2   12       1.27533899E-01  8.39414263E-13  7.86750125E+09  3.24923710E-11  7.86750125E+09
         2   14       3.02286563E-02  3.76376688E+05  2.06319953E-11  2.20283977E+09  2.20321615E+09
         2   16       3.26670983E-02  1.60874524E-16  2.38339367E+09  2.14206446E-11  2.38339367E+09
         2   18       3.14626423E-03  2.52829683E+08  5.04719753E-15  3.23175219E+04  2.52862001E+08
         3    5       2.30200032E-04  1.28362811E-22  8.75113466E-01  1.01357442E-22  8.75113466E-01
         3    7       6.62509909E-05  5.37044913E-18  2.88065987E+05  6.14459173E-15  2.88065987E+05
         3   17       3.89273037E-03  3.02719923E-17  4.33221398E+07  9.68074190E-13  4.33221398E+07
         4    6       2.30200032E-04  1.28362811E-22  8.75113466E-01  1.01357442E-22  8.75113466E-01
         4    8       6.62509909E-05  5.37044913E-18  2.88065987E+05  6.14459173E-15  2.88065987E+05
         4   18       3.89273037E-03  3.02719923E-17  4.33221398E+07  9.68074190E-13  4.33221398E+07
         5    7       6.50236941E-05  6.76865012E-01  5.53481724E-15  2.82200421E+05  2.82201098E+05
         5   17       3.90686184E-03  1.81821481E+03  9.66433023E-13  4.34267818E+07  4.34286000E+07
         6    8       6.50236941E-05  6.76865012E-01  5.53481724E-15  2.82200421E+05  2.82201098E+05
         6   18       3.90686184E-03  1.81821481E+03  9.66433023E-13  4.34267818E+07  4.34286000E+07
         7    9       9.54455762E-02  4.13551887E+01  6.42229337E-15  1.59264708E+06  1.59268844E+06
         7   11       8.75543755E-02  9.22040158E-18  1.72085409E+06  6.86202265E-15  1.72085409E+06
         7   13       1.87701923E-03  2.12168360E+03  1.03530907E-14  1.26986109E+06  1.27198278E+06
         7   15       1.92244606E-03  5.75906121E-17  1.31671216E+06  1.33475870E-14  1.31671216E+06
         7   17       5.24108395E-03  8.19971573E+06  5.75492487E-18  7.99266658E+00  8.19972372E+06
         8   10       9.54455762E-02  4.13551887E+01  6.42229337E-15  1.59264708E+06  1.59268844E+06
         8   12       8.75543755E-02  9.22040158E-18  1.72085409E+06  6.86202265E-15  1.72085409E+06
         8   14       1.87701923E-03  2.12168360E+03  1.03530907E-14  1.26986109E+06  1.27198278E+06
         8   16       1.92244606E-03  5.75906121E-17  1.31671216E+06  1.33475870E-14  1.31671216E+06
         8   18       5.24108395E-03  8.19971573E+06  5.75492487E-18  7.99266658E+00  8.19972372E+06
         9   11       1.55366633E-03  3.04051634E-19  1.88592104E+02  5.16038327E-18  1.88592104E+02
         9   13       8.65745953E-04  3.22342823E+05  3.56037607E-16  9.46604386E+04  4.17003262E+05
         9   15       3.22458641E-04  8.40850728E-15  1.57291465E+05  1.04601451E-16  1.57291465E+05
         9   17       2.16501197E-04  1.04407408E+04  1.22138331E-15  2.61927340E+05  2.72368081E+05
        10   12       1.55366633E-03  3.04051634E-19  1.88592104E+02  5.16038327E-18  1.88592104E+02
        10   14       8.65745953E-04  3.22342823E+05  3.56037607E-16  9.46604386E+04  4.17003262E+05
        10   16       3.22458641E-04  8.40850728E-15  1.57291465E+05  1.04601451E-16  1.57291465E+05
        10   18       2.16501197E-04  1.04407408E+04  1.22138331E-15  2.61927340E+05  2.72368081E+05
        11   13       2.50184688E-04  8.93073404E-15  1.16710629E+05  5.28603573E-16  1.16710629E+05
        11   15       9.87632880E-04  3.39551883E+05  4.17454029E-18  1.27124183E+05  4.66676066E+05
        11   17       2.16037128E-04  3.99982730E-16  2.66471125E+05  8.71589686E-16  2.66471125E+05
        12   14       2.50184688E-04  8.93073404E-15  1.16710629E+05  5.28603573E-16  1.16710629E+05
        12   16       9.87632880E-04  3.39551883E+05  4.17454029E-18  1.27124183E+05  4.66676066E+05
        12   18       2.16037128E-04  3.99982730E-16  2.66471125E+05  8.71589686E-16  2.66471125E+05
        13   15       1.98547610E-05  3.85608447E-28  3.83380726E-01  1.84925999E-19  3.83380726E-01
        13   17       1.71131600E-04  1.17270708E+00  5.04781606E-16  3.12890796E+04  3.12902523E+04
        14   16       1.98547610E-05  3.85608447E-28  3.83380726E-01  1.84925999E-19  3.83380726E-01
        14   18       1.71131600E-04  1.17270708E+00  5.04781606E-16  3.12890796E+04  3.12902523E+04
        15   17       1.90584826E-04  2.40323771E-18  3.41346126E+04  2.01563862E-16  3.41346126E+04
        16   18       1.90584826E-04  2.40323771E-18  3.41346126E+04  2.01563862E-16  3.41346126E+04
     -----------------------------------------------------------------------------------------------
--

++ Length and velocity gauge comparison (SO states):

 --------------------------------------------------
 A comparison between the dipole oscillator strengths in 
 length and velocity gauge will be performed

 All dipole oscillator differences above the tolerance of   0.10000000000000001       will be printed 

 Due to basis set deficiency these oscillator may be problematic 

 The tolerance is defined as ABS(1-O_l/O_v) 
 O_l : dipole oscillator strength in length gauge
 O_p : dipole oscillator strength in velocity gauge
 --------------------------------------------------

  Problematic transitions have been found

      From   To       Difference (%) Osc. st. (len.) Osc. st. (vel.)
     ---------------------------------------------------------------
         1    3         36476.737707  2.03052177E-01  5.55140205E-04
         1    5         35452.313687  2.02898316E-01  5.70703549E-04
         1    7            11.827849  2.04735675E-01  2.32199931E-01
         1    9            14.094617  1.48404641E-01  1.30071553E-01
         1   11            13.984909  1.45369398E-01  1.27533899E-01
         1   13            11.653837  3.37514545E-02  3.02286563E-02
         1   15            11.610499  3.64599116E-02  3.26670983E-02
         1   17          3303.734635  1.07090485E-01  3.14626423E-03
         2    4         36476.737707  2.03052177E-01  5.55140205E-04
         2    6         35452.313687  2.02898316E-01  5.70703549E-04
         2    8            11.827849  2.04735675E-01  2.32199931E-01
         2   10            14.094617  1.48404641E-01  1.30071553E-01
         2   12            13.984909  1.45369398E-01  1.27533899E-01
         2   14            11.653837  3.37514545E-02  3.02286563E-02
         2   16            11.610499  3.64599116E-02  3.26670983E-02
         2   18          3303.734635  1.07090485E-01  3.14626423E-03
         3    5      --------------- below threshold  2.30200032E-04
         3    7         13306.475233  8.88192268E-03  6.62509909E-05
         3   11      ---------------  3.03424730E-04 below threshold
         3   15      ---------------  3.14775062E-05 below threshold
         3   17            79.891299  7.82777516E-04  3.89273037E-03
         4    6      --------------- below threshold  2.30200032E-04
         4    8         13306.475233  8.88192268E-03  6.62509909E-05
         4   12      ---------------  3.03424730E-04 below threshold
         4   16      ---------------  3.14775062E-05 below threshold
         4   18            79.891299  7.82777516E-04  3.89273037E-03
         5    7         13339.914735  8.73912905E-03  6.50236941E-05
         5    9      ---------------  3.87156903E-04 below threshold
         5   11      ---------------  3.18195297E-05 below threshold
         5   13      ---------------  2.93960786E-05 below threshold
         5   17            81.412160  7.26201233E-04  3.90686184E-03
         6    8         13339.914735  8.73912905E-03  6.50236941E-05
         6   10      ---------------  3.87156903E-04 below threshold
         6   12      ---------------  3.18195297E-05 below threshold
         6   14      ---------------  2.93960786E-05 below threshold
         6   18            81.412160  7.26201233E-04  3.90686184E-03
         7    9            97.469011  2.41571696E-03  9.54455762E-02
         7   11            97.266873  2.39297268E-03  8.75543755E-02
         7   13            46.745864  9.99590377E-04  1.87701923E-03
         7   15            46.372487  1.03096002E-03  1.92244606E-03
         7   17           589.514863  3.61380528E-02  5.24108395E-03
         8   10            97.469011  2.41571696E-03  9.54455762E-02
         8   12            97.266873  2.39297268E-03  8.75543755E-02
         8   14            46.745864  9.99590377E-04  1.87701923E-03
         8   16            46.372487  1.03096002E-03  1.92244606E-03
         8   18           589.514863  3.61380528E-02  5.24108395E-03
         9   11            96.757977  5.03702242E-05  1.55366633E-03
         9   15            78.076706  7.06935564E-05  3.22458641E-04
         9   17            12.170464  1.90151997E-04  2.16501197E-04
        10   12            96.757977  5.03702242E-05  1.55366633E-03
        10   16            78.076706  7.06935564E-05  3.22458641E-04
        10   18            12.170464  1.90151997E-04  2.16501197E-04
        11   13            83.123725  4.22218562E-05  2.50184688E-04
        11   17            35.525867  1.39288066E-04  2.16037128E-04
        12   14            83.123725  4.22218562E-05  2.50184688E-04
        12   18            35.525867  1.39288066E-04  2.16037128E-04
        13   15      --------------- below threshold  1.98547610E-05
        13   17            69.038819  5.29843641E-05  1.71131600E-04
        14   16      --------------- below threshold  1.98547610E-05
        14   18            69.038819  5.29843641E-05  1.71131600E-04
        15   17            68.446629  6.01359366E-05  1.90584826E-04
        16   18            68.446629  6.01359366E-05  1.90584826E-04
     ---------------------------------------------------------------

 Number of problematic transitions =                    62

--

 Electric-dipole - electric-octupole not included
++ Total transition strengths for the second-order expansion of the wave vector (SO states):
   -----------------------------------------------------------------------------------------
    for osc. strength at least    1.0000000000000001E-005

      From   To        Osc. strength
     -------------------------------
         3   17       1.39961944E-04
         4   18       1.39961944E-04
         5   17       1.39827152E-04
         6   18       1.39827152E-04
     -------------------------------
--

++ I/O STATISTICS
 
  I. General I/O information
  - - - - - - - - - - - - - - - - - - - - - - - - - - - - - - - - - - - - - - - - - - -
  Unit  Name          Flsize      Write/Read            MBytes           Write/Read
                      (MBytes)       Calls              In/Out           Time, sec.
  - - - - - - - - - - - - - - - - - - - - - - - - - - - - - - - - - - - - - - - - - - -
   1  SCRATCH           0.00 .       9/      45 .      0.0/      0.0 .       0/       0
   2  ANNI              0.00 .       0/       0 .      0.0/      0.0 .       0/       0
   3  RUNFILE          14.82 .     322/   10733 .      2.3/     77.8 .       0/       0
   4  ONEINT            5.45 .       0/   23543 .      0.0/   3734.6 .       0/       0
   5  JOBIPH            6.30 .       0/      92 .      0.0/      0.8 .       0/       0
   6  ORDINT          473.53 .       1/    3789 .      0.0/    947.0 .       0/       0
  - - - - - - - - - - - - - - - - - - - - - - - - - - - - - - - - - - - - - - - - - - -
   *  TOTAL           500.11 .     332/   38202 .      2.3/   4760.2 .       0/       0
  - - - - - - - - - - - - - - - - - - - - - - - - - - - - - - - - - - - - - - - - - - -
 
  II. I/O Access Patterns
  - - - - - - - - - - - - - - - - - - - -
  Unit  Name               % of random
                         Write/Read calls
  - - - - - - - - - - - - - - - - - - - -
   1  SCRATCH             88.9/ 100.0
   2  ANNI                 0.0/   0.0
   3  RUNFILE             28.6/  10.8
   4  ONEINT               0.0/  16.4
   5  JOBIPH               0.0/  76.1
   6  ORDINT             100.0/   0.1
  - - - - - - - - - - - - - - - - - - - -
--
--- Stop Module: rassi at Wed Mar 26 12:10:53 2025 /rc=_RC_ALL_IS_WELL_ ---
*** files: xmldump
    saved to directory /home4/s4752295/Internship/Initial_simulations/Point_charge_model/1_electron/Madelung_charges_9_active_space/V
--- Module rassi spent 2 seconds ---

.##################.
.# Happy landing! #.
.##################.

    Timing: Wall=104.45 User=86.06 System=16.79

###############################################################################
Hbrk Cluster
Job 15905666 for user s4752295
Finished at: Wed Mar 26 12:10:57 CET 2025

Job details:
============

Job ID                         : 15905666
Name                           : V_no_SO
User                           : s4752295
Partition                      : regularmedium
Nodes                          : node100
Number of Nodes                : 1
Cores                          : 1
Number of Tasks                : 1
State                          : COMPLETED  
Submit                         : 2025-03-26T12:07:25
Start                          : 2025-03-26T12:09:04
End                            : 2025-03-26T12:10:53
Reserved walltime              : 15:00:00
Used walltime                  : 00:01:49
Used CPU time                  : 00:01:44 (Efficiency: 95.37%)
% User (Computation)           : 83.65%
% System (I/O)                 : 16.35%
Total memory reserved          : 25000M
Maximum memory used            : 1.90G

Acknowledgements:
=================

Please see this page for information about acknowledging Hbrk in your publications:

https://wiki.hpc.rug.nl/habrok/introduction/scientific_output

################################################################################
