   This run of MOLCAS is using the pymolcas driver

                             OPE
                             OPE          NMOL  CASOP  ENMOLC A   SO
                 OPE        NMOLC        AS  OP EN  MO LC     AS  OP
                OPENM       OL CA        SO  PE NM  OL CA     SOP EN
                OP EN      MO   LC       AS  OP ENMOL  CASO   PENMOL
                OP  EN     MO   LC       AS  OP EN     MO     LC ASO
               OP   E  NMOL  C  AS       OP  EN MO     LC     AS  OP
               OP  E   NMO   LC AS        OPEN  MO     LCASOP EN   M
               O  PEN   MO  LCA  SO
            OPE   NMO   L   CAS    OP
        OPENMOL  CASOP     ENMOL   CASOPE
     OPENMOLCA   SOPENMOLCASOPEN   MOLCASOPE
    OPENMOLCAS   OP           EN   MOL    CAS
    OPENMOLCAS       OP  ENM        O     LCA
    OPENMOLCAS    OPEN  MOLCASO     P  E  NMO
    OPENMOLCAS     OP               E  N  MOL
    OPENMOLCA   SO           PENM   O  L  CAS    OPEN    MO    LCAS
    OPENMOLCA   SOP           ENM   O  L  CAS   OP  EN  MOLC  AS   O
    OPENMOLCA   SOPE           NM      O  LCA   S      OP  EN MO
    OPENMOLC                AS         O  PEN   M      OL  CA  SOPE
    OPENMO        LCASOPE  NMOL        C  ASO   P      ENMOLC     AS
    OPE     NMO      LCA  SO     P     E   NM   OL  CA SO  PE N   MO
          OPENMOLCA            SOPE   NMO        LCAS  O    P  ENMO
     OPENMOLCASOPENMOLCASOPENMOLCASOPENMOLCA
        OPENMOLCASOPENMOLCASOPENMOLCASOPE
            OPENMOLCASOPENMOLCASOPENM
               OPENMOLCASOPENMOLCA        version: o91e1abe7de707b ?
                   OPENMOLCASO
                       OPE                tag:

 OpenMolcas is free software; you can redistribute it and/or modify it
 under the terms of the GNU Lesser General Public License version 2.1.
 OpenMolcas is distributed in the hope that it will be useful, but it
 is provided "as is" and without any express or implied warranties.
 For more details see the full text of the license in the file
 LICENSE or in <http://www.gnu.org/licenses/>.

                 Copyright (C) The OpenMolcas Authors
           For the author list and the recommended citation,
                   consult the file CONTRIBUTORS.md

           *************************************************
           * pymolcas version py2.10                       *
           *   build 3068ae8b88c9345ec6cfef6fef7f1169      *
           *   (after the EMIL interpreter by V. Veryazov) *
           *************************************************

configuration info
------------------
Host name: login1 (Linux)
C Compiler ID: GNU
C flags: -std=gnu99
Fortran Compiler ID: GNU
Fortran flags: -fno-aggressive-loop-optimizations -cpp -fdefault-integer-8 -fmax-stack-var-size=1048576
Definitions: _MOLCAS_;_I8_;_LINUX_;_MKL_
Parallel: OFF (GA=OFF)


   ----------------------------------------------------------------------------------------
  |
  |           Project: vanadium_so_cf
  |    Submitted from: /home4/s4752295/Internship/Initial_simulations/real_atoms
  |      Scratch area: /tmp/vanadium_so_cf
  |   Save outputs to: /home4/s4752295/Internship/Initial_simulations/real_atoms
  |            Molcas: /home4/s4752295/Internship/Molcas/recomp_try/OpenMolcas-master/build
  |
  | Scratch area is empty
  |
  |    MOLCAS_DRIVER = /home4/s4752295/Internship/Molcas/bin/pymolcas
  |    MOLCAS_NPROCS = 1
  |    MOLCAS_SOURCE = /home4/s4752295/Internship/Molcas/recomp_try/OpenMolcas-master
  | MOLCAS_STRUCTURE = 0
  |
   ----------------------------------------------------------------------------------------

++ ---------   Input file   ---------

&SEWARD
AMFi

CLIG
$R

Basis Set
V.ANO-rcc.Roos.21s15p10d6f4g2h.10s9p8d6f4g2h.
Spherical d
V            1.3622586056200833e-23, 1.0564093208707871e-23, 4.021794571567122e-05
End of Basis

Basis Set
C.ano-rcc.Roos.14s9p4d3f2g.8s8p4d3f2g.
Spherical d
C1      -2.174155543459757e-24, -3.0022887108308313e-24, -3.6163116621761056
C2      -1.7049303940339897, -2.9530260658352963, 1.2060174669474921
C3      -1.7049303940339895, 2.9530260658352963, 1.2060174669474921
C4       3.4098607880679794, -3.0627755497712127e-16, 1.2060174669474921
End of Basis

Basis Set
H.ano-rcc.Widmark.8s4p3d1f.6s4p3d1f.
Spherical d
H1      0.9549348037276577, 1.653995597972118, -4.4169159731946674
H2      -1.9098696074553145, 1.7482834985164085e-16, -4.4169159731946674
H3      0.9549348037276573, -1.653995597972118, -4.4169159731946674
H4      -3.67354413597126, -3.0547888976509676, 0.5715500658404704
H5      -1.7636116560911752, -3.0546649931706056, 3.273222176208161
H6      -0.8087527205787725, -4.708776992499951, 0.571550065840470
H7      -3.67354413597126, 3.0547888976509676, 0.5715500658404704
H8      -0.808752720578772, 4.708776992499951, 0.5715500658404704
H9      -1.7636116560911745, 3.0546649931706056, 3.273222176208161
H10       4.482296856550032, 1.6539880948489796, 0.5715500658404704
H11       4.482296856550032, -1.65398809484898, 0.5715500658404704
H12       3.5272233121823495, -2.9422135948321774e-16, 3.273222176208161
End of Basis
End of input

&SCF
Occupied
29
Iterations
   50  100
End of Input

&RASSCF
LumOrb
Symmetry
1
Spin
2
Nactel
1 0 0
CIRoot
5 5 1
inactive
29
ras2
5
End of Input

>>> COPY vanadium_so_cf.JobIph $SLURM_SUBMIT_DIR/vanadium_so_cf.doublet.JobIph

>>> COPY $SLURM_SUBMIT_DIR/vanadium_so_cf.doublet.JobIph ./JOB002

&RASSI
NROFJobIph
1 All
SpinOrbit
End of Input

EOF

-- ----------------------------------

--- Start Module: seward at Sun Apr  6 10:07:35 2025 ---

()()()()()()()()()()()()()()()()()()()()()()()()()()()()()()()()()()()()()()()()()()()()()()()()()()

                                              &SEWARD

                                   only a single process is used
                       available to each process: 32 GB of memory, 1 thread?
                                            pid: 880260
()()()()()()()()()()()()()()()()()()()()()()()()()()()()()()()()()()()()()()()()()()()()()()()()()()

 The speed of LIGHT in this CALCULATION =   137.03599917700001     
               SEWARD will generate:
                  Multipole Moment integrals up to order  2
                  Kinetic Energy integrals
                  Nuclear Attraction integrals (point charge)
                  One-Electron Hamiltonian integrals
                  Velocity integrals
                  Relativistic Douglas-Kroll-Hess integrals:
                    - Parametrization         : EXP
                    - DKH order of Hamiltonian: 2
                    - DKH order of Properties : 0
                         - multipole moment operators
                         - electric potential operators
                         - contact operators
                  Orbital angular momentum around ( 0.0000 -0.0000  0.0002 )
                  Velocity quadrupole around ( 0.0000 -0.0000  0.0002 )
                  Atomic mean-field integrals
                  Two-Electron Repulsion integrals

                   Integrals are discarded if absolute value <: 0.10E-13
                   Integral cutoff threshold is set to       <: 0.10E-15

++    Symmetry information:
      ---------------------

                    Character Table for C1 

                             E  
                    a        1  x, y, xy, Rz, z, xz, Ry, yz, Rx, I
--


++    Basis set information:
      ----------------------


      Basis set label: V.ANO-RCC.ROOS.21S15P10D6F4G2H.10S9P8D6F4G2H......

      Electronic valence basis set:
      ------------------
      Associated Effective Charge  23.000000 au
      Associated Actual Charge     23.000000 au
      Nuclear Model: Point charge

      Shell  nPrim  nBasis  Cartesian Spherical Contaminant
         s      21      10        X                  
         p      15       9        X                  
         d      10       8                 X         
         f       6       6                 X         
         g       4       4                 X         
         h       2       2                 X         


      Basis set label: C.ANO-RCC.ROOS.14S9P4D3F2G.8S8P4D3F2G......

      Electronic valence basis set:
      ------------------
      Associated Effective Charge   6.000000 au
      Associated Actual Charge      6.000000 au
      Nuclear Model: Point charge

      Shell  nPrim  nBasis  Cartesian Spherical Contaminant
         s      14       8        X                  
         p       9       8        X                  
         d       4       4                 X         
         f       3       3                 X         
         g       2       2                 X         


      Basis set label: H.ANO-RCC.WIDMARK.8S4P3D1F.6S4P3D1F......

      Electronic valence basis set:
      ------------------
      Associated Effective Charge   1.000000 au
      Associated Actual Charge      1.000000 au
      Nuclear Model: Point charge

      Shell  nPrim  nBasis  Cartesian Spherical Contaminant
         s       8       6        X                  
         p       4       4        X                  
         d       3       3                 X         
         f       1       1                 X         
--


++    Molecular structure info:
      -------------------------

                    ************************************************ 
                    **** Cartesian Coordinates / Bohr, Angstrom **** 
                    ************************************************ 

     Center  Label                x              y              z                     x              y              z
        1      V                0.000000       0.000000       0.000040              0.000000       0.000000       0.000021
        2      C1              -0.000000      -0.000000      -3.616312             -0.000000      -0.000000      -1.913670
        3      C2              -1.704930      -2.953026       1.206017             -0.902210      -1.562674       0.638197
        4      C3              -1.704930       2.953026       1.206017             -0.902210       1.562674       0.638197
        5      C4               3.409861      -0.000000       1.206017              1.804421      -0.000000       0.638197
        6      H1               0.954935       1.653996      -4.416916              0.505330       0.875257      -2.337331
        7      H2              -1.909870       0.000000      -4.416916             -1.010659       0.000000      -2.337331
        8      H3               0.954935      -1.653996      -4.416916              0.505330      -0.875257      -2.337331
        9      H4              -3.673544      -3.054789       0.571550             -1.943956      -1.616525       0.302451
       10      H5              -1.763612      -3.054665       3.273222             -0.933263      -1.616459       1.732115
       11      H6              -0.808753      -4.708777       0.571550             -0.427974      -2.491777       0.302451
       12      H7              -3.673544       3.054789       0.571550             -1.943956       1.616525       0.302451
       13      H8              -0.808753       4.708777       0.571550             -0.427974       2.491777       0.302451
       14      H9              -1.763612       3.054665       3.273222             -0.933263       1.616459       1.732115
       15      H10              4.482297       1.653988       0.571550              2.371929       0.875253       0.302451
       16      H11              4.482297      -1.653988       0.571550              2.371929      -0.875253       0.302451
       17      H12              3.527223      -0.000000       3.273222              1.866526      -0.000000       1.732115

                    ************************************************* 
                    **** InterNuclear Distances / Bohr, Angstrom **** 
                    ************************************************* 

     Atom centers         Bohr        Angstrom
   10 H5        3 C2      2.070534        1.095679
   14 H9        4 C3    
   17 H12       5 C4    
    9 H4        3 C2      2.070832        1.095837
   11 H6        3 C2    
   12 H7        4 C3    
   13 H8        4 C3    
   15 H10       5 C4    
   16 H11       5 C4    
    6 H1        2 C1      2.070886        1.095866
    7 H2        2 C1    
    8 H3        2 C1    
    7 H2        6 H1      3.307976        1.750506
    8 H3        6 H1    
    8 H3        7 H2    
   11 H6        9 H4    
   13 H8       12 H7    
   16 H11      15 H10   
   10 H5        9 H4      3.308606        1.750839
   11 H6       10 H5    
   14 H9       12 H7    
   14 H9       13 H8    
   17 H12      15 H10   
   17 H12      16 H11   
    2 C1        1 V       3.616352        1.913691
    3 C2        1 V       3.616840        1.913949
    4 C3        1 V     
    5 C4        1 V     
    9 H4        1 V       4.811786        2.546288
   11 H6        1 V     
   12 H7        1 V     
   13 H8        1 V     
   15 H10       1 V     
   16 H11       1 V     
   10 H5        1 V       4.811967        2.546383
   14 H9        1 V     
   17 H12       1 V     
    6 H1        1 V       4.812183        2.546498
    7 H2        1 V     
    8 H3        1 V     
--


            Nuclear Potential Energy            324.14551335 au


      Basis set specifications :
      Symmetry species         a  
      Basis functions         1021

 Sorry, Molden does not know how to handle
 functions with angular momentum larger than g
Note: The following floating-point exceptions are signalling: IEEE_UNDERFLOW_FLAG IEEE_DENORMAL
--- Stop Module: seward at Sun Apr  6 21:30:18 2025 /rc=_RC_ALL_IS_WELL_ ---
*** files: vanadium_so_cf.GssOrb xmldump
    saved to directory /home4/s4752295/Internship/Initial_simulations/real_atoms
--- Module seward spent 11 hours 22 minutes 43 seconds ---

*** symbolic link created: INPORB -> vanadium_so_cf.GssOrb
--- Start Module: scf at Sun Apr  6 21:30:18 2025 ---

()()()()()()()()()()()()()()()()()()()()()()()()()()()()()()()()()()()()()()()()()()()()()()()()()()

                                                &SCF

                                   only a single process is used
                       available to each process: 32 GB of memory, 1 thread?
                                            pid: 888867
()()()()()()()()()()()()()()()()()()()()()()()()()()()()()()()()()()()()()()()()()()()()()()()()()()

++    Input section:
      --------------

      Header of the integral files:
      
       Integrals generated by seward 4.2.0  , Sun Apr  6 10:07:36 2025


      Cartesian coordinates in Angstrom:
      -----------------------------------------------------
      No.  Label        X            Y            Z        
      -----------------------------------------------------
       1   V          0.00000000   0.00000000   0.00002128
       2   C1        -0.00000000  -0.00000000  -1.91366972
       3   C2        -0.90221031  -1.56267410   0.63819696
       4   C3        -0.90221031   1.56267410   0.63819696
       5   C4         1.80442062  -0.00000000   0.63819696
       6   H1         0.50532974   0.87525678  -2.33733128
       7   H2        -1.01065947   0.00000000  -2.33733128
       8   H3         0.50532974  -0.87525678  -2.33733128
       9   H4        -1.94395584  -1.61652467   0.30245127
      10   H5        -0.93326310  -1.61645910   1.73211458
      11   H6        -0.42797351  -2.49177748   0.30245127
      12   H7        -1.94395584   1.61652467   0.30245127
      13   H8        -0.42797351   2.49177748   0.30245127
      14   H9        -0.93326310   1.61645910   1.73211458
      15   H10        2.37192935   0.87525281   0.30245127
      16   H11        2.37192935  -0.87525281   0.30245127
      17   H12        1.86652619  -0.00000000   1.73211458
      -----------------------------------------------------
      Nuclear repulsion energy =  324.14551335
--

++    Orbital specifications:
      -----------------------

      Symmetry species               1
                                     a
      Frozen orbitals                0
      Occupied orbitals             29
      Secondary orbitals           992
      Deleted orbitals               0
      Total number of orbitals    1021
      Number of basis functions   1021
--

      Molecular charge                           1.000

++    Optimization specifications:
      ----------------------------

      SCF Algorithm: Conventional
      Minimized density differences are used
      Number of density matrices in core                5
      Maximum number of NDDO SCF iterations            50
      Maximum number of HF SCF iterations             100
      Threshold for SCF energy change            0.10E-08
      Threshold for density matrix               0.10E-03
      Threshold for Fock matrix                  0.15E-03
      Threshold for linear dependence            0.10E-08
      Threshold at which DIIS is turned on       0.15E+00
      Threshold at which QNR/C2DIIS is turned on 0.75E-01
      Threshold for Norm(delta) (QNR/C2DIIS)     0.20E-04
      DIIS extrapolation of the SCF procedure
      All orbitals punched on: SCFORB
--

      Detected guessorb starting orbitals                                             


++ Convergence information
                                   SCF        iterations: Energy and convergence statistics

Iter     Tot. SCF        One-elec.       Two-elec.     Energy      Max Dij or  Max Fij      DNorm      TNorm      AccCon     Time
         Energy          Energy          Energy        Change      Delta Norm                                                in Sec.

 The total and one-electron energies are shifted by a value of      1000. a.u.

   1  -105.353534781 -1150.414898303   720.915850168   0.00E+00    0.41E+00*   0.23E+00*    0.10E+02   0.63E+03   None      3452.
   2  -105.689775674 -1127.738718047   697.903429019  -0.34E+00*   0.28E+00*   0.91E-01*    0.43E+01   0.63E+03   EDIIS     3445.
   3  -106.019756796 -1158.424038872   728.258768722  -0.33E+00*   0.11E+00*   0.94E-01*    0.28E+01   0.63E+03   EDIIS     3437.
   4  -106.281429677 -1139.202586168   708.775643137  -0.26E+00*   0.13E+00*   0.31E-01*    0.60E+00   0.63E+03   EDIIS     3439.
   5  -106.281449913 -1149.741017536   719.314054268  -0.20E-04*   0.31E-01*   0.22E-01*    0.25E+00   0.63E+03   EDIIS     3438.
   6  -106.319108312 -1144.294633411   713.830011745  -0.38E-01*   0.14E-01*   0.35E-02*    0.38E-01   0.63E+03   c2DIIS    3437.
   7  -106.319470520 -1144.337195054   713.872211180  -0.36E-03*   0.77E-02*   0.16E-02*    0.25E-01   0.63E+03   QNRc2DIIS 3427.
   8  -106.319493894 -1144.716217171   714.251209922  -0.23E-04*   0.43E-02*   0.20E-02*    0.57E-02   0.63E+03   QNRc2DIIS 3420.
   9  -106.319557903 -1144.528259831   714.063188573  -0.64E-04*   0.12E-02*   0.29E-03*    0.92E-03   0.63E+03   QNRc2DIIS 3423.
  10  -106.319559356 -1144.507252338   714.042179627  -0.15E-05*   0.23E-03*   0.43E-04     0.10E-02   0.63E+03   QNRc2DIIS 3427.
  11  -106.319559500 -1144.513520611   714.048447756  -0.14E-06*   0.12E-03*   0.17E-04     0.24E-03   0.63E+03   QNRc2DIIS 3428.
  12  -106.319559513 -1144.514139841   714.049066974  -0.13E-07*   0.75E-05    0.99E-06     0.87E-04   0.63E+03   QNRc2DIIS 3562.
  13  -106.319559513 -1144.514168605   714.049095737  -0.10E-09    0.35E-05    0.43E-06     0.92E-04   0.63E+03   QNRc2DIIS 4485.

       Convergence after 13 Macro Iterations
--

 *****************************************************************************************************************************
 *                                                                                                                           *
 *                                             SCF/KS-DFT Program, Final results                                             *
 *                                                                                                                           *
 *                                                                                                                           *
 *                                                                                                                           *
 *                                                       Final Results                                                       *
 *                                                                                                                           *
 *****************************************************************************************************************************

::    Total SCF energy                              -1106.3195595133
      One-electron energy                           -2144.5141686051
      Two-electron energy                             714.0490957374
      Nuclear repulsion energy                        324.1455133544
      Kinetic energy (interpolated)                  1138.6869270027
      Virial theorem                                    0.9715748317
      Total spin, S(S+1)                                0.0000000000
      Total spin, S                                     0.0000000000
      Max non-diagonal density matrix element           0.0000020162
      Max non-diagonal Fock matrix element              0.0000002267


      All orbitals with orbital energies smaller than  E(LUMO)+0.5 are printed

++    Molecular orbitals:
      -------------------

      Title: SCF orbitals

      Molecular orbitals for symmetry species 1: a  


      Basis set list:
        1 V      1s                206 C1     6pz               411 C3     6d2+              616 H2     4f2-              821 H7     4f3+   
        2 V      2s                207 C1     7pz               412 C3     4f3-              617 H2     4f1-              822 H8     1s     
        3 V      3s                208 C1     8pz               413 C3     5f3-              618 H2     4f0               823 H8     2s     
        4 V      4s                209 C1     9pz               414 C3     6f3-              619 H2     4f1+              824 H8     3s     
        5 V      5s                210 C1     3d2-              415 C3     4f2-              620 H2     4f2+              825 H8     4s     
        6 V      6s                211 C1     4d2-              416 C3     5f2-              621 H2     4f3+              826 H8     5s     
        7 V      7s                212 C1     5d2-              417 C3     6f2-              622 H3     1s                827 H8     6s     
        8 V      8s                213 C1     6d2-              418 C3     4f1-              623 H3     2s                828 H8     2px    
        9 V      9s                214 C1     3d1-              419 C3     5f1-              624 H3     3s                829 H8     3px    
       10 V     10s                215 C1     4d1-              420 C3     6f1-              625 H3     4s                830 H8     4px    
       11 V      2px               216 C1     5d1-              421 C3     4f0               626 H3     5s                831 H8     5px    
       12 V      3px               217 C1     6d1-              422 C3     5f0               627 H3     6s                832 H8     2py    
       13 V      4px               218 C1     3d0               423 C3     6f0               628 H3     2px               833 H8     3py    
       14 V      5px               219 C1     4d0               424 C3     4f1+              629 H3     3px               834 H8     4py    
       15 V      6px               220 C1     5d0               425 C3     5f1+              630 H3     4px               835 H8     5py    
       16 V      7px               221 C1     6d0               426 C3     6f1+              631 H3     5px               836 H8     2pz    
       17 V      8px               222 C1     3d1+              427 C3     4f2+              632 H3     2py               837 H8     3pz    
       18 V      9px               223 C1     4d1+              428 C3     5f2+              633 H3     3py               838 H8     4pz    
       19 V     10px               224 C1     5d1+              429 C3     6f2+              634 H3     4py               839 H8     5pz    
       20 V      2py               225 C1     6d1+              430 C3     4f3+              635 H3     5py               840 H8     3d2-   
       21 V      3py               226 C1     3d2+              431 C3     5f3+              636 H3     2pz               841 H8     4d2-   
       22 V      4py               227 C1     4d2+              432 C3     6f3+              637 H3     3pz               842 H8     5d2-   
       23 V      5py               228 C1     5d2+              433 C3     5g4-              638 H3     4pz               843 H8     3d1-   
       24 V      6py               229 C1     6d2+              434 C3     6g4-              639 H3     5pz               844 H8     4d1-   
       25 V      7py               230 C1     4f3-              435 C3     5g3-              640 H3     3d2-              845 H8     5d1-   
       26 V      8py               231 C1     5f3-              436 C3     6g3-              641 H3     4d2-              846 H8     3d0    
       27 V      9py               232 C1     6f3-              437 C3     5g2-              642 H3     5d2-              847 H8     4d0    
       28 V     10py               233 C1     4f2-              438 C3     6g2-              643 H3     3d1-              848 H8     5d0    
       29 V      2pz               234 C1     5f2-              439 C3     5g1-              644 H3     4d1-              849 H8     3d1+   
       30 V      3pz               235 C1     6f2-              440 C3     6g1-              645 H3     5d1-              850 H8     4d1+   
       31 V      4pz               236 C1     4f1-              441 C3     5g0               646 H3     3d0               851 H8     5d1+   
       32 V      5pz               237 C1     5f1-              442 C3     6g0               647 H3     4d0               852 H8     3d2+   
       33 V      6pz               238 C1     6f1-              443 C3     5g1+              648 H3     5d0               853 H8     4d2+   
       34 V      7pz               239 C1     4f0               444 C3     6g1+              649 H3     3d1+              854 H8     5d2+   
       35 V      8pz               240 C1     5f0               445 C3     5g2+              650 H3     4d1+              855 H8     4f3-   
       36 V      9pz               241 C1     6f0               446 C3     6g2+              651 H3     5d1+              856 H8     4f2-   
       37 V     10pz               242 C1     4f1+              447 C3     5g3+              652 H3     3d2+              857 H8     4f1-   
       38 V      3d2-              243 C1     5f1+              448 C3     6g3+              653 H3     4d2+              858 H8     4f0    
       39 V      4d2-              244 C1     6f1+              449 C3     5g4+              654 H3     5d2+              859 H8     4f1+   
       40 V      5d2-              245 C1     4f2+              450 C3     6g4+              655 H3     4f3-              860 H8     4f2+   
       41 V      6d2-              246 C1     5f2+              451 C4     1s                656 H3     4f2-              861 H8     4f3+   
       42 V      7d2-              247 C1     6f2+              452 C4     2s                657 H3     4f1-              862 H9     1s     
       43 V      8d2-              248 C1     4f3+              453 C4     3s                658 H3     4f0               863 H9     2s     
       44 V      9d2-              249 C1     5f3+              454 C4     4s                659 H3     4f1+              864 H9     3s     
       45 V     10d2-              250 C1     6f3+              455 C4     5s                660 H3     4f2+              865 H9     4s     
       46 V      3d1-              251 C1     5g4-              456 C4     6s                661 H3     4f3+              866 H9     5s     
       47 V      4d1-              252 C1     6g4-              457 C4     7s                662 H4     1s                867 H9     6s     
       48 V      5d1-              253 C1     5g3-              458 C4     8s                663 H4     2s                868 H9     2px    
       49 V      6d1-              254 C1     6g3-              459 C4     2px               664 H4     3s                869 H9     3px    
       50 V      7d1-              255 C1     5g2-              460 C4     3px               665 H4     4s                870 H9     4px    
       51 V      8d1-              256 C1     6g2-              461 C4     4px               666 H4     5s                871 H9     5px    
       52 V      9d1-              257 C1     5g1-              462 C4     5px               667 H4     6s                872 H9     2py    
       53 V     10d1-              258 C1     6g1-              463 C4     6px               668 H4     2px               873 H9     3py    
       54 V      3d0               259 C1     5g0               464 C4     7px               669 H4     3px               874 H9     4py    
       55 V      4d0               260 C1     6g0               465 C4     8px               670 H4     4px               875 H9     5py    
       56 V      5d0               261 C1     5g1+              466 C4     9px               671 H4     5px               876 H9     2pz    
       57 V      6d0               262 C1     6g1+              467 C4     2py               672 H4     2py               877 H9     3pz    
       58 V      7d0               263 C1     5g2+              468 C4     3py               673 H4     3py               878 H9     4pz    
       59 V      8d0               264 C1     6g2+              469 C4     4py               674 H4     4py               879 H9     5pz    
       60 V      9d0               265 C1     5g3+              470 C4     5py               675 H4     5py               880 H9     3d2-   
       61 V     10d0               266 C1     6g3+              471 C4     6py               676 H4     2pz               881 H9     4d2-   
       62 V      3d1+              267 C1     5g4+              472 C4     7py               677 H4     3pz               882 H9     5d2-   
       63 V      4d1+              268 C1     6g4+              473 C4     8py               678 H4     4pz               883 H9     3d1-   
       64 V      5d1+              269 C2     1s                474 C4     9py               679 H4     5pz               884 H9     4d1-   
       65 V      6d1+              270 C2     2s                475 C4     2pz               680 H4     3d2-              885 H9     5d1-   
       66 V      7d1+              271 C2     3s                476 C4     3pz               681 H4     4d2-              886 H9     3d0    
       67 V      8d1+              272 C2     4s                477 C4     4pz               682 H4     5d2-              887 H9     4d0    
       68 V      9d1+              273 C2     5s                478 C4     5pz               683 H4     3d1-              888 H9     5d0    
       69 V     10d1+              274 C2     6s                479 C4     6pz               684 H4     4d1-              889 H9     3d1+   
       70 V      3d2+              275 C2     7s                480 C4     7pz               685 H4     5d1-              890 H9     4d1+   
       71 V      4d2+              276 C2     8s                481 C4     8pz               686 H4     3d0               891 H9     5d1+   
       72 V      5d2+              277 C2     2px               482 C4     9pz               687 H4     4d0               892 H9     3d2+   
       73 V      6d2+              278 C2     3px               483 C4     3d2-              688 H4     5d0               893 H9     4d2+   
       74 V      7d2+              279 C2     4px               484 C4     4d2-              689 H4     3d1+              894 H9     5d2+   
       75 V      8d2+              280 C2     5px               485 C4     5d2-              690 H4     4d1+              895 H9     4f3-   
       76 V      9d2+              281 C2     6px               486 C4     6d2-              691 H4     5d1+              896 H9     4f2-   
       77 V     10d2+              282 C2     7px               487 C4     3d1-              692 H4     3d2+              897 H9     4f1-   
       78 V      4f3-              283 C2     8px               488 C4     4d1-              693 H4     4d2+              898 H9     4f0    
       79 V      5f3-              284 C2     9px               489 C4     5d1-              694 H4     5d2+              899 H9     4f1+   
       80 V      6f3-              285 C2     2py               490 C4     6d1-              695 H4     4f3-              900 H9     4f2+   
       81 V      7f3-              286 C2     3py               491 C4     3d0               696 H4     4f2-              901 H9     4f3+   
       82 V      8f3-              287 C2     4py               492 C4     4d0               697 H4     4f1-              902 H10    1s     
       83 V      9f3-              288 C2     5py               493 C4     5d0               698 H4     4f0               903 H10    2s     
       84 V      4f2-              289 C2     6py               494 C4     6d0               699 H4     4f1+              904 H10    3s     
       85 V      5f2-              290 C2     7py               495 C4     3d1+              700 H4     4f2+              905 H10    4s     
       86 V      6f2-              291 C2     8py               496 C4     4d1+              701 H4     4f3+              906 H10    5s     
       87 V      7f2-              292 C2     9py               497 C4     5d1+              702 H5     1s                907 H10    6s     
       88 V      8f2-              293 C2     2pz               498 C4     6d1+              703 H5     2s                908 H10    2px    
       89 V      9f2-              294 C2     3pz               499 C4     3d2+              704 H5     3s                909 H10    3px    
       90 V      4f1-              295 C2     4pz               500 C4     4d2+              705 H5     4s                910 H10    4px    
       91 V      5f1-              296 C2     5pz               501 C4     5d2+              706 H5     5s                911 H10    5px    
       92 V      6f1-              297 C2     6pz               502 C4     6d2+              707 H5     6s                912 H10    2py    
       93 V      7f1-              298 C2     7pz               503 C4     4f3-              708 H5     2px               913 H10    3py    
       94 V      8f1-              299 C2     8pz               504 C4     5f3-              709 H5     3px               914 H10    4py    
       95 V      9f1-              300 C2     9pz               505 C4     6f3-              710 H5     4px               915 H10    5py    
       96 V      4f0               301 C2     3d2-              506 C4     4f2-              711 H5     5px               916 H10    2pz    
       97 V      5f0               302 C2     4d2-              507 C4     5f2-              712 H5     2py               917 H10    3pz    
       98 V      6f0               303 C2     5d2-              508 C4     6f2-              713 H5     3py               918 H10    4pz    
       99 V      7f0               304 C2     6d2-              509 C4     4f1-              714 H5     4py               919 H10    5pz    
      100 V      8f0               305 C2     3d1-              510 C4     5f1-              715 H5     5py               920 H10    3d2-   
      101 V      9f0               306 C2     4d1-              511 C4     6f1-              716 H5     2pz               921 H10    4d2-   
      102 V      4f1+              307 C2     5d1-              512 C4     4f0               717 H5     3pz               922 H10    5d2-   
      103 V      5f1+              308 C2     6d1-              513 C4     5f0               718 H5     4pz               923 H10    3d1-   
      104 V      6f1+              309 C2     3d0               514 C4     6f0               719 H5     5pz               924 H10    4d1-   
      105 V      7f1+              310 C2     4d0               515 C4     4f1+              720 H5     3d2-              925 H10    5d1-   
      106 V      8f1+              311 C2     5d0               516 C4     5f1+              721 H5     4d2-              926 H10    3d0    
      107 V      9f1+              312 C2     6d0               517 C4     6f1+              722 H5     5d2-              927 H10    4d0    
      108 V      4f2+              313 C2     3d1+              518 C4     4f2+              723 H5     3d1-              928 H10    5d0    
      109 V      5f2+              314 C2     4d1+              519 C4     5f2+              724 H5     4d1-              929 H10    3d1+   
      110 V      6f2+              315 C2     5d1+              520 C4     6f2+              725 H5     5d1-              930 H10    4d1+   
      111 V      7f2+              316 C2     6d1+              521 C4     4f3+              726 H5     3d0               931 H10    5d1+   
      112 V      8f2+              317 C2     3d2+              522 C4     5f3+              727 H5     4d0               932 H10    3d2+   
      113 V      9f2+              318 C2     4d2+              523 C4     6f3+              728 H5     5d0               933 H10    4d2+   
      114 V      4f3+              319 C2     5d2+              524 C4     5g4-              729 H5     3d1+              934 H10    5d2+   
      115 V      5f3+              320 C2     6d2+              525 C4     6g4-              730 H5     4d1+              935 H10    4f3-   
      116 V      6f3+              321 C2     4f3-              526 C4     5g3-              731 H5     5d1+              936 H10    4f2-   
      117 V      7f3+              322 C2     5f3-              527 C4     6g3-              732 H5     3d2+              937 H10    4f1-   
      118 V      8f3+              323 C2     6f3-              528 C4     5g2-              733 H5     4d2+              938 H10    4f0    
      119 V      9f3+              324 C2     4f2-              529 C4     6g2-              734 H5     5d2+              939 H10    4f1+   
      120 V      5g4-              325 C2     5f2-              530 C4     5g1-              735 H5     4f3-              940 H10    4f2+   
      121 V      6g4-              326 C2     6f2-              531 C4     6g1-              736 H5     4f2-              941 H10    4f3+   
      122 V      7g4-              327 C2     4f1-              532 C4     5g0               737 H5     4f1-              942 H11    1s     
      123 V      8g4-              328 C2     5f1-              533 C4     6g0               738 H5     4f0               943 H11    2s     
      124 V      5g3-              329 C2     6f1-              534 C4     5g1+              739 H5     4f1+              944 H11    3s     
      125 V      6g3-              330 C2     4f0               535 C4     6g1+              740 H5     4f2+              945 H11    4s     
      126 V      7g3-              331 C2     5f0               536 C4     5g2+              741 H5     4f3+              946 H11    5s     
      127 V      8g3-              332 C2     6f0               537 C4     6g2+              742 H6     1s                947 H11    6s     
      128 V      5g2-              333 C2     4f1+              538 C4     5g3+              743 H6     2s                948 H11    2px    
      129 V      6g2-              334 C2     5f1+              539 C4     6g3+              744 H6     3s                949 H11    3px    
      130 V      7g2-              335 C2     6f1+              540 C4     5g4+              745 H6     4s                950 H11    4px    
      131 V      8g2-              336 C2     4f2+              541 C4     6g4+              746 H6     5s                951 H11    5px    
      132 V      5g1-              337 C2     5f2+              542 H1     1s                747 H6     6s                952 H11    2py    
      133 V      6g1-              338 C2     6f2+              543 H1     2s                748 H6     2px               953 H11    3py    
      134 V      7g1-              339 C2     4f3+              544 H1     3s                749 H6     3px               954 H11    4py    
      135 V      8g1-              340 C2     5f3+              545 H1     4s                750 H6     4px               955 H11    5py    
      136 V      5g0               341 C2     6f3+              546 H1     5s                751 H6     5px               956 H11    2pz    
      137 V      6g0               342 C2     5g4-              547 H1     6s                752 H6     2py               957 H11    3pz    
      138 V      7g0               343 C2     6g4-              548 H1     2px               753 H6     3py               958 H11    4pz    
      139 V      8g0               344 C2     5g3-              549 H1     3px               754 H6     4py               959 H11    5pz    
      140 V      5g1+              345 C2     6g3-              550 H1     4px               755 H6     5py               960 H11    3d2-   
      141 V      6g1+              346 C2     5g2-              551 H1     5px               756 H6     2pz               961 H11    4d2-   
      142 V      7g1+              347 C2     6g2-              552 H1     2py               757 H6     3pz               962 H11    5d2-   
      143 V      8g1+              348 C2     5g1-              553 H1     3py               758 H6     4pz               963 H11    3d1-   
      144 V      5g2+              349 C2     6g1-              554 H1     4py               759 H6     5pz               964 H11    4d1-   
      145 V      6g2+              350 C2     5g0               555 H1     5py               760 H6     3d2-              965 H11    5d1-   
      146 V      7g2+              351 C2     6g0               556 H1     2pz               761 H6     4d2-              966 H11    3d0    
      147 V      8g2+              352 C2     5g1+              557 H1     3pz               762 H6     5d2-              967 H11    4d0    
      148 V      5g3+              353 C2     6g1+              558 H1     4pz               763 H6     3d1-              968 H11    5d0    
      149 V      6g3+              354 C2     5g2+              559 H1     5pz               764 H6     4d1-              969 H11    3d1+   
      150 V      7g3+              355 C2     6g2+              560 H1     3d2-              765 H6     5d1-              970 H11    4d1+   
      151 V      8g3+              356 C2     5g3+              561 H1     4d2-              766 H6     3d0               971 H11    5d1+   
      152 V      5g4+              357 C2     6g3+              562 H1     5d2-              767 H6     4d0               972 H11    3d2+   
      153 V      6g4+              358 C2     5g4+              563 H1     3d1-              768 H6     5d0               973 H11    4d2+   
      154 V      7g4+              359 C2     6g4+              564 H1     4d1-              769 H6     3d1+              974 H11    5d2+   
      155 V      8g4+              360 C3     1s                565 H1     5d1-              770 H6     4d1+              975 H11    4f3-   
      156 V      6h5-              361 C3     2s                566 H1     3d0               771 H6     5d1+              976 H11    4f2-   
      157 V      7h5-              362 C3     3s                567 H1     4d0               772 H6     3d2+              977 H11    4f1-   
      158 V      6h4-              363 C3     4s                568 H1     5d0               773 H6     4d2+              978 H11    4f0    
      159 V      7h4-              364 C3     5s                569 H1     3d1+              774 H6     5d2+              979 H11    4f1+   
      160 V      6h3-              365 C3     6s                570 H1     4d1+              775 H6     4f3-              980 H11    4f2+   
      161 V      7h3-              366 C3     7s                571 H1     5d1+              776 H6     4f2-              981 H11    4f3+   
      162 V      6h2-              367 C3     8s                572 H1     3d2+              777 H6     4f1-              982 H12    1s     
      163 V      7h2-              368 C3     2px               573 H1     4d2+              778 H6     4f0               983 H12    2s     
      164 V      6h1-              369 C3     3px               574 H1     5d2+              779 H6     4f1+              984 H12    3s     
      165 V      7h1-              370 C3     4px               575 H1     4f3-              780 H6     4f2+              985 H12    4s     
      166 V      6h0               371 C3     5px               576 H1     4f2-              781 H6     4f3+              986 H12    5s     
      167 V      7h0               372 C3     6px               577 H1     4f1-              782 H7     1s                987 H12    6s     
      168 V      6h1+              373 C3     7px               578 H1     4f0               783 H7     2s                988 H12    2px    
      169 V      7h1+              374 C3     8px               579 H1     4f1+              784 H7     3s                989 H12    3px    
      170 V      6h2+              375 C3     9px               580 H1     4f2+              785 H7     4s                990 H12    4px    
      171 V      7h2+              376 C3     2py               581 H1     4f3+              786 H7     5s                991 H12    5px    
      172 V      6h3+              377 C3     3py               582 H2     1s                787 H7     6s                992 H12    2py    
      173 V      7h3+              378 C3     4py               583 H2     2s                788 H7     2px               993 H12    3py    
      174 V      6h4+              379 C3     5py               584 H2     3s                789 H7     3px               994 H12    4py    
      175 V      7h4+              380 C3     6py               585 H2     4s                790 H7     4px               995 H12    5py    
      176 V      6h5+              381 C3     7py               586 H2     5s                791 H7     5px               996 H12    2pz    
      177 V      7h5+              382 C3     8py               587 H2     6s                792 H7     2py               997 H12    3pz    
      178 C1     1s                383 C3     9py               588 H2     2px               793 H7     3py               998 H12    4pz    
      179 C1     2s                384 C3     2pz               589 H2     3px               794 H7     4py               999 H12    5pz    
      180 C1     3s                385 C3     3pz               590 H2     4px               795 H7     5py              1000 H12    3d2-   
      181 C1     4s                386 C3     4pz               591 H2     5px               796 H7     2pz              1001 H12    4d2-   
      182 C1     5s                387 C3     5pz               592 H2     2py               797 H7     3pz              1002 H12    5d2-   
      183 C1     6s                388 C3     6pz               593 H2     3py               798 H7     4pz              1003 H12    3d1-   
      184 C1     7s                389 C3     7pz               594 H2     4py               799 H7     5pz              1004 H12    4d1-   
      185 C1     8s                390 C3     8pz               595 H2     5py               800 H7     3d2-             1005 H12    5d1-   
      186 C1     2px               391 C3     9pz               596 H2     2pz               801 H7     4d2-             1006 H12    3d0    
      187 C1     3px               392 C3     3d2-              597 H2     3pz               802 H7     5d2-             1007 H12    4d0    
      188 C1     4px               393 C3     4d2-              598 H2     4pz               803 H7     3d1-             1008 H12    5d0    
      189 C1     5px               394 C3     5d2-              599 H2     5pz               804 H7     4d1-             1009 H12    3d1+   
      190 C1     6px               395 C3     6d2-              600 H2     3d2-              805 H7     5d1-             1010 H12    4d1+   
      191 C1     7px               396 C3     3d1-              601 H2     4d2-              806 H7     3d0              1011 H12    5d1+   
      192 C1     8px               397 C3     4d1-              602 H2     5d2-              807 H7     4d0              1012 H12    3d2+   
      193 C1     9px               398 C3     5d1-              603 H2     3d1-              808 H7     5d0              1013 H12    4d2+   
      194 C1     2py               399 C3     6d1-              604 H2     4d1-              809 H7     3d1+             1014 H12    5d2+   
      195 C1     3py               400 C3     3d0               605 H2     5d1-              810 H7     4d1+             1015 H12    4f3-   
      196 C1     4py               401 C3     4d0               606 H2     3d0               811 H7     5d1+             1016 H12    4f2-   
      197 C1     5py               402 C3     5d0               607 H2     4d0               812 H7     3d2+             1017 H12    4f1-   
      198 C1     6py               403 C3     6d0               608 H2     5d0               813 H7     4d2+             1018 H12    4f0    
      199 C1     7py               404 C3     3d1+              609 H2     3d1+              814 H7     5d2+             1019 H12    4f1+   
      200 C1     8py               405 C3     4d1+              610 H2     4d1+              815 H7     4f3-             1020 H12    4f2+   
      201 C1     9py               406 C3     5d1+              611 H2     5d1+              816 H7     4f2-             1021 H12    4f3+   
      202 C1     2pz               407 C3     6d1+              612 H2     3d2+              817 H7     4f1-   
      203 C1     3pz               408 C3     3d2+              613 H2     4d2+              818 H7     4f0    
      204 C1     4pz               409 C3     4d2+              614 H2     5d2+              819 H7     4f1+   
      205 C1     5pz               410 C3     5d2+              615 H2     4f3-              820 H7     4f2+   


  Index Energy  Occupation Coefficients ...

    1 -203.2126    2.0000          1 V      1s     ( 1.000),                                                                                                                        

    2  -24.5460    2.0000          2 V      2s     ( 1.000),                                                                                                                        

    3  -20.4467    2.0000         29 V      2pz    ( 1.000),                                                                                                                        

    4  -20.4467    2.0000         11 V      2px    ( 0.951),                                                                                                                        

    5  -20.4467    2.0000         20 V      2py    ( 0.951),                                                                                                                        

    6  -11.3959    2.0000        269 C2     1s     ( 0.576),   360 C3     1s     ( 0.576),   451 C4     1s     ( 0.576),                                                            

    7  -11.3959    2.0000        269 C2     1s     (-0.696),   451 C4     1s     ( 0.718),                                                                                          

    8  -11.3959    2.0000        269 C2     1s     (-0.427),   360 C3     1s     ( 0.816),                                                                                          

    9  -11.3959    2.0000        178 C1     1s     ( 0.999),                                                                                                                        

   10   -3.5577    2.0000          3 V      3s     (-0.994),                                                                                                                        

   11   -2.3487    2.0000         30 V      3pz    ( 0.982),                                                                                                                        

   12   -2.3487    2.0000         21 V      3py    ( 0.954),                                                                                                                        

   13   -2.3487    2.0000         12 V      3px    ( 0.954),                                                                                                                        

   14   -1.1292    2.0000          4 V      4s     ( 0.290),   179 C1     2s     ( 0.359),   270 C2     2s     ( 0.360),   361 C3     2s     ( 0.360),                              
                                 452 C4     2s     ( 0.360),                                                                                                                        

   15   -1.1099    2.0000        270 C2     2s     (-0.662),   361 C3     2s     ( 0.531),                                                                                          

   16   -1.1099    2.0000        361 C3     2s     (-0.458),   452 C4     2s     ( 0.689),                                                                                          

   17   -1.1098    2.0000        179 C1     2s     (-0.744),                                                                                                                        

   18   -0.7499    2.0000         54 V      3d0    ( 0.156),   293 C2     2pz    ( 0.296),   384 C3     2pz    ( 0.296),   475 C4     2pz    ( 0.296),                              
                                 702 H5     1s     ( 0.267),   862 H9     1s     ( 0.267),   982 H12    1s     ( 0.267),                                                            

   19   -0.7497    2.0000        186 C1     2px    ( 0.226),   194 C1     2py    ( 0.237),   368 C3     2px    ( 0.260),   376 C3     2py    ( 0.176),                              
                                 467 C4     2py    ( 0.236),   542 H1     1s     ( 0.267),   582 H2     1s     (-0.189),   782 H7     1s     (-0.208),                              
                                 822 H8     1s     ( 0.247),   902 H10    1s     ( 0.219),                                                                                          

   20   -0.7497    2.0000        186 C1     2px    (-0.237),   194 C1     2py    ( 0.226),   277 C2     2px    (-0.265),   285 C2     2py    ( 0.175),                              
                                 467 C4     2py    ( 0.225),   582 H2     1s     ( 0.199),   622 H3     1s     (-0.263),   662 H4     1s     ( 0.214),                              
                                 742 H6     1s     (-0.247),   782 H7     1s     ( 0.133),   942 H11    1s     (-0.214),                                                            

   21   -0.7439    2.0000        194 C1     2py    (-0.274),   277 C2     2px    (-0.198),   293 C2     2pz    (-0.197),   384 C3     2pz    ( 0.253),                              
                                 467 C4     2py    ( 0.276),   542 H1     1s     (-0.154),   622 H3     1s     ( 0.197),   662 H4     1s     ( 0.199),                              
                                 702 H5     1s     (-0.155),   782 H7     1s     (-0.155),   862 H9     1s     ( 0.199),   902 H10    1s     ( 0.199),                              
                                 942 H11    1s     (-0.155),                                                                                                                        

   22   -0.7439    2.0000        186 C1     2px    (-0.274),   277 C2     2px    ( 0.150),   285 C2     2py    (-0.159),   293 C2     2pz    (-0.178),                              
                                 368 C3     2px    ( 0.218),   376 C3     2py    ( 0.159),   475 C4     2pz    ( 0.260),   542 H1     1s     (-0.139),                              
                                 582 H2     1s     ( 0.202),   702 H5     1s     (-0.140),   742 H6     1s     ( 0.204),   782 H7     1s     (-0.140),                              
                                 822 H8     1s     ( 0.204),   942 H11    1s     (-0.140),   982 H12    1s     ( 0.204),                                                            

   23   -0.7165    2.0000        194 C1     2py    (-0.341),   293 C2     2pz    ( 0.252),   384 C3     2pz    (-0.301),   542 H1     1s     (-0.233),                              
                                 622 H3     1s     ( 0.278),   702 H5     1s     ( 0.232),   862 H9     1s     (-0.276),                                                            

   24   -0.7165    2.0000        186 C1     2px    (-0.341),   293 C2     2pz    ( 0.202),   475 C4     2pz    (-0.320),   542 H1     1s     (-0.186),                              
                                 582 H2     1s     ( 0.295),   702 H5     1s     ( 0.185),   982 H12    1s     (-0.293),                                                            

   25   -0.7165    2.0000        277 C2     2px    ( 0.280),   368 C3     2px    (-0.280),   376 C3     2py    (-0.162),   467 C4     2py    ( 0.324),                              
                                 662 H4     1s     (-0.243),   742 H6     1s     ( 0.243),   782 H7     1s     ( 0.243),   822 H8     1s     (-0.243),                              
                                 902 H10    1s     ( 0.243),   942 H11    1s     (-0.243),                                                                                          

   26   -0.6499    2.0000         54 V      3d0    ( 0.587),   202 C1     2pz    ( 0.418),                                                                                          

   27   -0.6499    2.0000         38 V      3d2-   ( 0.339),    46 V      3d1-   (-0.240),    62 V      3d1+   ( 0.240),    70 V      3d2+   ( 0.339),                              
                                 376 C3     2py    ( 0.312),   459 C4     2px    (-0.258),                                                                                          

   28   -0.6499    2.0000         38 V      3d2-   ( 0.339),    46 V      3d1-   (-0.240),    62 V      3d1+   (-0.240),    70 V      3d2+   (-0.339),                              
                                 285 C2     2py    ( 0.312),   459 C4     2px    ( 0.258),                                                                                          

   29   -0.6268    2.0000          4 V      4s     (-0.792),                                                                                                                        

   30   -0.0992    0.0000         22 V      4py    (-0.869),    38 V      3d2-   (-0.546),   376 C3     2py    ( 0.472),                                                            

   31   -0.0992    0.0000         13 V      4px    (-0.869),    70 V      3d2+   ( 0.546),   459 C4     2px    ( 0.541),                                                            

   32   -0.0992    0.0000         31 V      4pz    (-0.879),    54 V      3d0    (-0.677),   202 C1     2pz    ( 0.595),                                                            

   33   -0.0954    0.0000         62 V      3d1+   (-0.739),    70 V      3d2+   ( 0.524),                                                                                          

   34   -0.0954    0.0000         38 V      3d2-   (-0.524),    46 V      3d1-   (-0.739),                                                                                          

   35   -0.0862    0.0000          4 V      4s     (-0.837),     5 V      5s     (-1.051),                                                                                          

   36   -0.0637    0.0000         31 V      4pz    ( 2.592),    32 V      5pz    ( 1.506),    33 V      6pz    ( 2.303),   543 H1     2s     ( 1.320),                              
                                 583 H2     2s     ( 1.320),   623 H3     2s     ( 1.320),   703 H5     2s     (-1.318),   863 H9     2s     (-1.318),                              
                                 983 H12    2s     (-1.317),                                                                                                                        

   37   -0.0637    0.0000         13 V      4px    ( 2.422),    14 V      5px    ( 1.407),    15 V      6px    ( 2.151),   782 H7     1s     ( 1.459),                              
                                 783 H7     2s     ( 1.596),   942 H11    1s     (-1.461),   943 H11    2s     (-1.596),                                                            

   38   -0.0637    0.0000         22 V      4py    ( 2.422),    23 V      5py    ( 1.407),    24 V      6py    ( 2.151),   663 H4     2s     ( 1.257),                              
                                 742 H6     1s     ( 1.382),   743 H6     2s     ( 1.510),   822 H8     1s     (-1.378),   823 H8     2s     (-1.508),                              
                                 903 H10    2s     (-1.254),                                                                                                                        

   39   -0.0367    0.0000         55 V      4d0    ( 2.165),   179 C1     2s     (-3.555),   180 C1     3s     (-2.146),   702 H5     1s     (-1.915),                              
                                 703 H5     2s     (-1.880),   862 H9     1s     (-1.915),   863 H9     2s     (-1.880),   982 H12    1s     (-1.915),                              
                                 983 H12    2s     (-1.880),                                                                                                                        

   40   -0.0367    0.0000         71 V      4d2+   (-1.618),   270 C2     2s     (-2.700),   271 C2     3s     (-1.630),   452 C4     2s     ( 3.073),                              
                                 453 C4     3s     ( 1.855),   542 H1     1s     (-1.578),   543 H1     2s     (-1.650),   582 H2     1s     ( 1.796),                              
                                 583 H2     2s     ( 1.877),   782 H7     1s     ( 1.744),   783 H7     2s     ( 1.785),   822 H8     1s     (-1.630),                              
                                 823 H8     2s     (-1.741),                                                                                                                        

   41   -0.0367    0.0000        270 C2     2s     (-1.989),   361 C3     2s     ( 3.333),   362 C3     3s     ( 2.012),   622 H3     1s     ( 1.948),                              
                                 623 H3     2s     ( 2.036),   742 H6     1s     ( 1.672),   942 H11    1s     ( 1.762),   943 H11    2s     ( 1.704),                              

   42   -0.0356    0.0000         63 V      4d1+   (-1.127),    64 V      5d1+   (-0.852),    71 V      4d2+   ( 0.799),    72 V      5d2+   ( 0.604),                              
                                 187 C1     3px    (-0.648),   369 C3     3px    ( 0.601),   476 C4     3pz    ( 0.610),   542 H1     1s     (-0.594),                              
                                 582 H2     1s     ( 0.666),   583 H2     2s     ( 0.585),   702 H5     1s     (-0.595),   742 H6     1s     ( 0.671),                              
                                 743 H6     2s     ( 0.589),   782 H7     1s     (-0.598),   822 H8     1s     ( 0.671),   823 H8     2s     ( 0.589),                              
                                 942 H11    1s     (-0.598),   982 H12    1s     ( 0.668),   983 H12    2s     ( 0.586),                                                            

   43   -0.0356    0.0000         39 V      4d2-   ( 0.799),    40 V      5d2-   ( 0.604),    47 V      4d1-   ( 1.127),    48 V      5d1-   ( 0.852),                              
                                 195 C1     3py    ( 0.648),   278 C2     3px    ( 0.569),   385 C3     3pz    (-0.666),   468 C4     3py    (-0.648),                              
                                 622 H3     1s     (-0.728),   623 H3     2s     (-0.639),   662 H4     1s     (-0.732),   663 H4     2s     (-0.643),                              
                                 862 H9     1s     (-0.729),   863 H9     2s     (-0.640),   902 H10    1s     (-0.733),   903 H10    2s     (-0.643),                              

   44   -0.0319    0.0000        179 C1     2s     (-8.594),   180 C1     3s     (-4.598),   270 C2     2s     (-8.590),   271 C2     3s     (-4.596),                              
                                 361 C3     2s     (-8.590),   362 C3     3s     (-4.596),   452 C4     2s     (-8.590),   453 C4     3s     (-4.596),                              

   45   -0.0054    0.0000        542 H1     1s     ( 3.836),   543 H1     2s     ( 4.229),   582 H2     1s     (-2.413),   583 H2     2s     (-2.660),                              
                                 663 H4     2s     ( 2.298),   702 H5     1s     (-3.835),   703 H5     2s     (-4.229),   903 H10    2s     (-2.298),                              
                                 982 H12    1s     ( 2.413),   983 H12    2s     ( 2.660),                                                                                          

   46   -0.0054    0.0000        582 H2     1s     ( 3.036),   583 H2     2s     ( 3.347),   622 H3     1s     (-3.608),   623 H3     2s     (-3.978),                              
                                 782 H7     1s     (-2.217),   783 H7     2s     (-2.443),   862 H9     1s     ( 3.607),   863 H9     2s     ( 3.977),                              
                                 942 H11    1s     ( 2.217),   943 H11    2s     ( 2.444),   982 H12    1s     (-3.035),   983 H12    2s     (-3.347),                              

   47   -0.0054    0.0000        662 H4     1s     ( 3.167),   663 H4     2s     ( 3.492),   742 H6     1s     (-3.167),   743 H6     2s     (-3.492),                              
                                 782 H7     1s     (-3.167),   783 H7     2s     (-3.492),   822 H8     1s     ( 3.167),   823 H8     2s     ( 3.492),                              
                                 902 H10    1s     (-3.167),   903 H10    2s     (-3.492),   942 H11    1s     ( 3.167),   943 H11    2s     ( 3.492),                              

   48   -0.0003    0.0000          4 V      4s     (-8.289),     5 V      5s     (-6.274),   179 C1     2s     ( 5.030),   270 C2     2s     ( 5.037),                              
                                 361 C3     2s     ( 5.037),   452 C4     2s     ( 5.037),                                                                                          

   49    0.0008    0.0000         31 V      4pz    ( 8.966),    33 V      6pz    ( 5.979),   702 H5     1s     (-5.584),   703 H5     2s     (-6.503),                              
                                 862 H9     1s     (-5.583),   863 H9     2s     (-6.503),   982 H12    1s     (-5.583),   983 H12    2s     (-6.503),                              

   50    0.0008    0.0000         13 V      4px    ( 8.773),    15 V      6px    ( 5.848),   582 H2     1s     ( 4.852),   583 H2     2s     ( 5.365),                              
                                 662 H4     1s     ( 5.138),   663 H4     2s     ( 5.966),   782 H7     1s     ( 5.467),   783 H7     2s     ( 6.660),                              
                                 943 H11    2s     (-5.559),                                                                                                                        

   51    0.0008    0.0000         22 V      4py    ( 8.773),    24 V      6py    ( 5.848),   542 H1     1s     (-4.715),   543 H1     2s     (-5.214),                              
                                 742 H6     1s     ( 4.561),   743 H6     2s     ( 5.918),   822 H8     1s     (-5.399),   823 H8     2s     (-6.654),                              
                                 902 H10    1s     (-4.907),   903 H10    2s     (-5.617),                                                                                          

   52    0.0094    0.0000        361 C3     2s     (-14.76),   452 C4     2s     ( 16.07),                                                                                          

   53    0.0094    0.0000        270 C2     2s     (-17.80),   361 C3     2s     ( 10.03),                                                                                          

   54    0.0094    0.0000        179 C1     2s     (-18.92),                                                                                                                        

   55    0.0520    0.0000         63 V      4d1+   (-6.958),    64 V      5d1+   (-4.968),    71 V      4d2+   ( 4.918),    72 V      5d2+   ( 3.512),                              

   56    0.0520    0.0000         39 V      4d2-   ( 4.918),    40 V      5d2-   ( 3.512),    47 V      4d1-   ( 6.958),    48 V      5d1-   ( 4.968),                              

   57    0.0587    0.0000         22 V      4py    (-15.54),                                                                                                                        

   58    0.0587    0.0000         13 V      4px    (-15.54),                                                                                                                        

   59    0.0587    0.0000         31 V      4pz    (-17.36),                                                                                                                        

   60    0.0694    0.0000        179 C1     2s     (-24.98),   180 C1     3s     (-13.09),   270 C2     2s     (-24.97),   271 C2     3s     (-13.08),                              
                                 361 C3     2s     (-24.97),   362 C3     3s     (-13.08),   452 C4     2s     (-24.97),   453 C4     3s     (-13.08),                              

   61    0.0874    0.0000        277 C2     2px    ( 9.969),   278 C2     3px    ( 13.20),   368 C3     2px    (-9.969),   369 C3     3px    (-13.20),                              
                                 467 C4     2py    ( 11.51),   468 C4     3py    ( 15.24),                                                                                          

   62    0.0874    0.0000        186 C1     2px    (-10.94),   187 C1     3px    (-14.49),   293 C2     2pz    ( 9.594),   294 C2     3pz    ( 12.71),                              
                                 475 C4     2pz    (-10.31),   476 C4     3pz    (-13.65),                                                                                          

   63    0.0874    0.0000        194 C1     2py    (-10.94),   195 C1     3py    (-14.49),   294 C2     3pz    ( 8.427),   384 C3     2pz    (-11.49),                              
                                 385 C3     3pz    (-15.22),                                                                                                                        

   64    0.0950    0.0000        195 C1     3py    (-4.301),   294 C2     3pz    (-4.110),   369 C3     3px    ( 3.276),   468 C4     3py    ( 4.295),                              
                                 542 H1     1s     ( 4.197),   543 H1     2s     ( 5.911),   622 H3     1s     (-3.036),   623 H3     2s     (-4.275),                              
                                 662 H4     1s     (-3.061),   663 H4     2s     (-4.293),   702 H5     1s     ( 4.268),   703 H5     2s     ( 5.946),                              
                                 782 H7     1s     ( 4.266),   783 H7     2s     ( 5.948),   862 H9     1s     (-3.087),   863 H9     2s     (-4.301),                              
                                 902 H10    1s     (-3.127),   903 H10    2s     (-4.318),   942 H11    1s     ( 4.289),   943 H11    2s     ( 5.957),                              

   65    0.0950    0.0000        187 C1     3px    (-4.301),   278 C2     3px    ( 3.553),   385 C3     3pz    (-3.030),   476 C4     3pz    ( 4.089),                              
                                 582 H2     1s     (-4.176),   583 H2     2s     (-5.881),   622 H3     1s     ( 3.094),   623 H3     2s     ( 4.357),                              
                                 662 H4     1s     ( 3.185),   663 H4     2s     ( 4.400),   742 H6     1s     (-4.268),   743 H6     2s     (-5.927),                              
                                 822 H8     1s     (-4.243),   823 H8     2s     (-5.918),   862 H9     1s     ( 3.146),   863 H9     2s     ( 4.383),                              
                                 902 H10    1s     ( 3.120),   903 H10    2s     ( 4.375),   982 H12    1s     (-4.246),   983 H12    2s     (-5.916),                              

   66    0.0959    0.0000        179 C1     2s     (-14.92),   180 C1     3s     (-10.34),                                                                                          

   67    0.0959    0.0000        270 C2     2s     ( 9.237),   452 C4     2s     (-13.79),   453 C4     3s     (-9.558),                                                            

   68    0.0959    0.0000        270 C2     2s     (-10.59),   271 C2     3s     (-7.341),   361 C3     2s     ( 13.30),   362 C3     3s     ( 9.213),                              

   69    0.1119    0.0000        361 C3     2s     ( 21.92),   452 C4     2s     (-24.37),   460 C4     3px    (-12.24),                                                            

   70    0.1119    0.0000        270 C2     2s     (-26.72),   361 C3     2s     ( 15.48),                                                                                          

   71    0.1119    0.0000        179 C1     2s     (-28.43),   203 C1     3pz    ( 15.80),                                                                                          

   72    0.1277    0.0000        187 C1     3px    (-4.947),   194 C1     2py    (-4.329),   195 C1     3py    (-5.482),   293 C2     2pz    ( 5.381),                              
                                 294 C2     3pz    ( 6.812),   476 C4     3pz    (-4.667),   542 H1     1s     ( 8.654),   543 H1     2s     ( 6.983),                              
                                 582 H2     1s     (-5.929),   583 H2     2s     (-4.783),   662 H4     1s     ( 4.866),   702 H5     1s     (-8.654),                              
                                 703 H5     2s     (-6.984),   902 H10    1s     (-4.867),   982 H12    1s     ( 5.928),   983 H12    2s     ( 4.784),                              

   73    0.1277    0.0000        186 C1     2px    ( 4.329),   187 C1     3px    ( 5.482),   195 C1     3py    (-4.947),   384 C3     2pz    (-5.235),                              
                                 385 C3     3pz    (-6.627),   476 C4     3pz    ( 5.172),   582 H2     1s     ( 6.570),   583 H2     2s     ( 5.301),                              
                                 622 H3     1s     (-8.420),   623 H3     2s     (-6.793),   782 H7     1s     (-5.001),   862 H9     1s     ( 8.419),                              
                                 863 H9     2s     ( 6.795),   942 H11    1s     ( 5.002),   982 H12    1s     (-6.570),   983 H12    2s     (-5.302),                              

   74    0.1277    0.0000        277 C2     2px    ( 4.764),   278 C2     3px    ( 6.030),   368 C3     2px    (-4.764),   369 C3     3px    (-6.030),                              
                                 467 C4     2py    ( 5.501),   468 C4     3py    ( 6.963),   662 H4     1s     ( 7.230),   663 H4     2s     ( 5.833),                              
                                 742 H6     1s     (-7.230),   743 H6     2s     (-5.833),   782 H7     1s     (-7.230),   783 H7     2s     (-5.833),                              
                                 822 H8     1s     ( 7.230),   823 H8     2s     ( 5.833),   902 H10    1s     (-7.230),   903 H10    2s     (-5.833),                              
                                 942 H11    1s     ( 7.230),   943 H11    2s     ( 5.833),                                                                                          

   75    0.1334    0.0000          4 V      4s     (-12.61),     5 V      5s     (-9.005),                                                                                          

   76    0.1384    0.0000        187 C1     3px    ( 7.258),   270 C2     2s     ( 9.046),   271 C2     3s     ( 7.171),   277 C2     2px    ( 6.185),                              
                                 278 C2     3px    ( 7.798),   369 C3     3px    ( 7.446),   452 C4     2s     (-12.16),   453 C4     3s     (-9.636),                              
                                 459 C4     2px    ( 6.882),   460 C4     3px    ( 8.703),   582 H2     1s     ( 7.826),   583 H2     2s     ( 7.173),                              
                                 663 H4     2s     ( 7.080),   782 H7     1s     ( 7.139),   783 H7     2s     ( 7.147),   822 H8     1s     (-6.535),                              

   77    0.1384    0.0000        195 C1     3py    ( 7.258),   270 C2     2s     ( 8.814),   271 C2     3s     ( 6.987),   285 C2     2py    ( 6.469),                              
                                 286 C2     3py    ( 8.167),   361 C3     2s     (-12.24),   362 C3     3s     (-9.703),   376 C3     2py    ( 6.740),                              
                                 377 C3     3py    ( 8.518),   468 C4     3py    ( 7.262),   622 H3     1s     ( 7.880),   623 H3     2s     ( 7.223),                              
                                 743 H6     2s     ( 7.133),   902 H10    1s     (-6.457),   942 H11    1s     ( 7.122),   943 H11    2s     ( 7.193),                              

   78    0.1385    0.0000        179 C1     2s     ( 13.46),   180 C1     3s     ( 10.64),   202 C1     2pz    ( 7.276),   203 C1     3pz    ( 9.207),                              
                                 294 C2     3pz    ( 7.733),   385 C3     3pz    ( 7.733),   476 C4     3pz    ( 7.733),   702 H5     1s     (-7.627),                              
                                 703 H5     2s     (-7.858),   862 H9     1s     (-7.627),   863 H9     2s     (-7.858),   982 H12    1s     (-7.627),                              
                                 983 H12    2s     (-7.858),                                                                                                                        

   79    0.1636    0.0000          4 V      4s     ( 1.224),     5 V      5s     ( 1.675),   179 C1     2s     ( 1.639),   270 C2     2s     ( 1.630),                              
                                 361 C3     2s     ( 1.630),   452 C4     2s     ( 1.630),                                                                                          

   80    0.1815    0.0000         13 V      4px    ( 6.204),    63 V      4d1+   ( 4.356),    64 V      5d1+   ( 3.112),    71 V      4d2+   ( 6.124),                              
                                  72 V      5d2+   ( 4.377),   187 C1     3px    ( 3.466),   277 C2     2px    ( 3.563),   278 C2     3px    ( 3.720),                              
                                 368 C3     2px    ( 3.288),   369 C3     3px    ( 3.597),   453 C4     3s     (-4.667),   459 C4     2px    ( 4.854),                              
[...]
     VELOCITY   2 (ANTISING)     VELOCITY   3 (ANTISING)     ANGMOM     1 (ANTISING)
     ANGMOM     2 (ANTISING)     ANGMOM     3 (ANTISING)     MLTPV  2   1 (ANTISING)
     MLTPV  2   2 (ANTISING)     MLTPV  2   3 (ANTISING)     MLTPV  2   4 (ANTISING)
     MLTPV  2   5 (ANTISING)     MLTPV  2   6 (ANTISING)     AMFI       1 (ANTITRIP)
     AMFI       2 (ANTITRIP)     AMFI       3 (ANTITRIP)

       EIGENSTATES OF A SPIN-FREE HAMILTONIAN WILL BE COMPUTED BASED ON:

  A Hamiltonian matrix computed by RASSI.
  SO coupling elements will be added.
       EIGENSTATES OF SPIN-ORBIT HAMILTONIAN WILL BE COMPUTED
        MATRIX ELEMENTS OVER SPIN EIGENSTATES FOR:
     MLTPL  0   1 (HERMSING)     MLTPL  0   1 (ANTITRIP)     MLTPL  1   1 (HERMSING)
     MLTPL  1   1 (ANTITRIP)     MLTPL  1   2 (HERMSING)     MLTPL  1   2 (ANTITRIP)
     MLTPL  1   3 (HERMSING)     MLTPL  1   3 (ANTITRIP)     MLTPL  2   1 (HERMSING)
     MLTPL  2   2 (HERMSING)     MLTPL  2   3 (HERMSING)     MLTPL  2   4 (HERMSING)
     MLTPL  2   5 (HERMSING)     MLTPL  2   6 (HERMSING)     VELOCITY   1 (ANTISING)
     VELOCITY   2 (ANTISING)     VELOCITY   3 (ANTISING)     ANGMOM     1 (ANTISING)
     ANGMOM     2 (ANTISING)     ANGMOM     3 (ANTISING)     MLTPV  2   1 (ANTISING)
     MLTPV  2   2 (ANTISING)     MLTPV  2   3 (ANTISING)     MLTPV  2   4 (ANTISING)
     MLTPV  2   5 (ANTISING)     MLTPV  2   6 (ANTISING)     AMFI       1 (ANTITRIP)
     AMFI       2 (ANTITRIP)     AMFI       3 (ANTITRIP)

  Nr of states:                    5

   State:        1   2   3   4   5
  JobIph:        1   1   1   1   1
 Root nr:        1   2   3   4   5

  HAMILTONIAN MATRIX FOR THE ORIGINAL STATES:

  Diagonal, with energies
  -1106.58716345  -1106.58716345  -1106.51125188  -1106.51123777  -1106.51123777

      OVERLAP MATRIX FOR THE ORIGINAL STATES:

  Diagonal, with elements
      1.00000000      1.00000000      1.00000000      1.00000000      1.00000000

::    RASSI State    1     Total energy:  -1106.58716345
::    RASSI State    2     Total energy:  -1106.58716345
::    RASSI State    3     Total energy:  -1106.51125188
::    RASSI State    4     Total energy:  -1106.51123777
::    RASSI State    5     Total energy:  -1106.51123777



      ****************************************************************************************************
      *                                                                                                  *
      *                                         Spin-free section                                        *
      *                                                                                                  *
      *                 Note: index according to input order, order according to energy.                 *
      *                                                                                                  *
      ****************************************************************************************************



  SPIN-FREE ENERGIES:
  (Shifted by EMIN (a.u.) =      -1106.5871634537)

 SF State       Relative EMIN(au)   Rel lowest level(eV)    D:o, cm**(-1)

     1             0.0000000000        0.0000000000              0.0000
     2             0.0000000000        0.0000000000              0.0000
     3             0.0759115758        2.0656592101          16660.6651
     4             0.0759256795        2.0660429908          16663.7605
     5             0.0759256795        2.0660429908          16663.7605

++ Dipole transition strengths (spin-free states):
   -----------------------------------------------
     for osc. strength at least  1.00000000E-05

      From   To        Osc. strength     Einstein coefficients Ax, Ay, Az (sec-1)    Total A (sec-1)
     -----------------------------------------------------------------------------------------------
         1    3       1.52114895E-03  9.10318032E+04  1.90610987E+05  3.22421413E-10  2.81642791E+05
         1    4       7.74387401E-04  1.13868934E+05  2.71415596E+04  2.42166532E+03  1.43432159E+05
         1    5       2.27085838E-03  2.71415553E+04  1.13868926E+05  2.79598275E+05  4.20608755E+05
         2    3       1.52114880E-03  1.90610969E+05  9.10317937E+04  2.59424899E-11  2.81642763E+05
         2    4       2.27085845E-03  2.71415578E+04  1.13868937E+05  2.79598275E+05  4.20608769E+05
         2    5       7.74387476E-04  1.13868946E+05  2.71415622E+04  2.42166532E+03  1.43432173E+05
     -----------------------------------------------------------------------------------------------
--

++ Velocity transition strengths (spin-free states):
   -------------------------------------------------
     for osc. strength at least  1.00000000E-05

      From   To        Osc. strength     Einstein coefficients Ax, Ay, Az (sec-1)    Total A (sec-1)
     -----------------------------------------------------------------------------------------------
         1    3       1.21157122E-02  7.25053998E+05  1.51818654E+06  2.56382376E-09  2.24324054E+06
         1    4       6.16513419E-03  9.06559166E+05  2.16085535E+05  1.92624488E+04  1.14190715E+06
         1    5       1.80683874E-02  2.16085501E+05  9.06559095E+05  2.22398504E+06  3.34662964E+06
         2    3       1.21157110E-02  1.51818639E+06  7.25053923E+05  2.06567576E-10  2.24324032E+06
         2    4       1.80683880E-02  2.16085521E+05  9.06559187E+05  2.22398504E+06  3.34662975E+06
         2    5       6.16513479E-03  9.06559257E+05  2.16085555E+05  1.92624488E+04  1.14190726E+06
     -----------------------------------------------------------------------------------------------
--

++ Length and velocity gauge comparison (spin-free states):
   --------------------------------------------------------

 --------------------------------------------------
 A comparison between the dipole oscillator strengths in 
 length and velocity gauge will be performed

 All dipole oscillator differences above the tolerance of   0.10000000000000001       will be printed 

 Due to basis set deficiency these oscillator may be problematic 

 The tolerance is defined as ABS(1-O_l/O_v) 
 O_l : dipole oscillator strength in length gauge
 O_p : dipole oscillator strength in velocity gauge
 --------------------------------------------------

  Problematic transitions have been found

      From   To       Difference (%) Osc. st. (len.) Osc. st. (vel.)
     ---------------------------------------------------------------
         1    3            87.444824  1.52114895E-03  1.21157122E-02
         1    4            87.439245  7.74387401E-04  6.16513419E-03
         1    5            87.431870  2.27085838E-03  1.80683874E-02
         2    3            87.444824  1.52114880E-03  1.21157110E-02
         2    4            87.431870  2.27085845E-03  1.80683880E-02
         2    5            87.439245  7.74387476E-04  6.16513479E-03
     ---------------------------------------------------------------

 Number of problematic transitions =                     6

--

 Electric-dipole - electric-octupole not included
 Electric-dipole - magnetic-quadrupole not included



      ****************************************************************************************************
      *                                                                                                  *
      *                                         Spin-orbit section                                       *
      *                                                                                                  *
      ****************************************************************************************************


       Total energies including SO-coupling:
::    SO-RASSI State    1     Total energy:  -1106.58716345
::    SO-RASSI State    2     Total energy:  -1106.58716345
::    SO-RASSI State    3     Total energy:  -1106.58716345
::    SO-RASSI State    4     Total energy:  -1106.58716345
::    SO-RASSI State    5     Total energy:  -1106.51125188
::    SO-RASSI State    6     Total energy:  -1106.51125188
::    SO-RASSI State    7     Total energy:  -1106.51123777
::    SO-RASSI State    8     Total energy:  -1106.51123777
::    SO-RASSI State    9     Total energy:  -1106.51123777
::    SO-RASSI State   10     Total energy:  -1106.51123777


   Eigenvalues of complex Hamiltonian:
   -----------------------------------
  (Shifted by EMIN (a.u.) =      -1106.5871634537)

 SO State       Relative EMIN(au)   Rel lowest level(eV)    D:o, cm**(-1)

     1             0.0000000000        0.0000000000              0.0000
     2             0.0000000000        0.0000000000              0.0000
     3             0.0000000000        0.0000000000              0.0000
     4             0.0000000000        0.0000000000              0.0000
     5             0.0759115758        2.0656592101          16660.6651
     6             0.0759115758        2.0656592101          16660.6651
     7             0.0759256795        2.0660429908          16663.7605
     8             0.0759256795        2.0660429908          16663.7605
     9             0.0759256795        2.0660429908          16663.7605
    10             0.0759256795        2.0660429908          16663.7605


 Weights of the five most important spin-orbit-free states for each spin-orbit state.

 SO State  Total energy (au)           Spin-free states, spin, and weights
 -------------------------------------------------------------------------------------------------------
    1         0.000000       2 0.5  1.0000    5 0.5  0.0000    4 0.5  0.0000    3 0.5  0.0000    1 0.5  0.0000
    2         0.000000       2 0.5  1.0000    5 0.5  0.0000    4 0.5  0.0000    3 0.5  0.0000    1 0.5  0.0000
    3         0.000000       1 0.5  1.0000    5 0.5  0.0000    4 0.5  0.0000    3 0.5  0.0000    2 0.5  0.0000
    4         0.000000       1 0.5  1.0000    5 0.5  0.0000    4 0.5  0.0000    3 0.5  0.0000    2 0.5  0.0000
    5         0.075912       3 0.5  1.0000    5 0.5  0.0000    4 0.5  0.0000    2 0.5  0.0000    1 0.5  0.0000
    6         0.075912       3 0.5  1.0000    5 0.5  0.0000    4 0.5  0.0000    2 0.5  0.0000    1 0.5  0.0000
    7         0.075926       5 0.5  1.0000    4 0.5  0.0000    3 0.5  0.0000    2 0.5  0.0000    1 0.5  0.0000
    8         0.075926       5 0.5  1.0000    4 0.5  0.0000    3 0.5  0.0000    2 0.5  0.0000    1 0.5  0.0000
    9         0.075926       4 0.5  1.0000    5 0.5  0.0000    3 0.5  0.0000    2 0.5  0.0000    1 0.5  0.0000
   10         0.075926       4 0.5  1.0000    5 0.5  0.0000    3 0.5  0.0000    2 0.5  0.0000    1 0.5  0.0000
 -------------------------------------------------------------------------------------------------------


      ****************************************************************************************************
      *                                                                                                  *
      *                                    Special properties section                                    *
      *                                                                                                  *
      ****************************************************************************************************


++ Dipole transition strengths (SO states):
   ----------------------------------------
    for osc. strength at least    1.0000000000000001E-005

      From   To        Osc. strength     Einstein coefficients Ax, Ay, Az (sec-1)    Total A (sec-1)
     -----------------------------------------------------------------------------------------------
         1    5       1.52114880E-03  1.90610306E+05  9.10314772E+04  2.59423997E-11  2.81641783E+05
         1    7       7.74387476E-04  1.13868550E+05  2.71414678E+04  2.42165690E+03  1.43431675E+05
         1    9       2.27085845E-03  2.71414634E+04  1.13868541E+05  2.79597302E+05  4.20607307E+05
         2    6       1.52114880E-03  1.90610306E+05  9.10314772E+04  2.59423997E-11  2.81641783E+05
         2    8       7.74387476E-04  1.13868550E+05  2.71414678E+04  2.42165690E+03  1.43431675E+05
         2   10       2.27085845E-03  2.71414634E+04  1.13868541E+05  2.79597302E+05  4.20607307E+05
         3    5       1.52114895E-03  9.10314867E+04  1.90610325E+05  3.22420292E-10  2.81641811E+05
         3    7       2.27085838E-03  2.71414609E+04  1.13868530E+05  2.79597302E+05  4.20607293E+05
         3    9       7.74387401E-04  1.13868539E+05  2.71414653E+04  2.42165690E+03  1.43431661E+05
         4    6       1.52114895E-03  9.10314867E+04  1.90610325E+05  3.22420292E-10  2.81641811E+05
         4    8       2.27085838E-03  2.71414609E+04  1.13868530E+05  2.79597302E+05  4.20607293E+05
         4   10       7.74387401E-04  1.13868539E+05  2.71414653E+04  2.42165690E+03  1.43431661E+05
     -----------------------------------------------------------------------------------------------
--

++ Velocity transition strengths (SO states):
   ------------------------------------------
    for osc. strength at least    1.0000000000000001E-005

      From   To        Osc. strength     Einstein coefficients Ax, Ay, Az (sec-1)    Total A (sec-1)
     -----------------------------------------------------------------------------------------------
         1    5       1.21157110E-02  1.51818639E+06  7.25053923E+05  2.06567576E-10  2.24324032E+06
         1    7       6.16513479E-03  9.06559257E+05  2.16085555E+05  1.92624488E+04  1.14190726E+06
         1    9       1.80683880E-02  2.16085521E+05  9.06559187E+05  2.22398504E+06  3.34662975E+06
         2    6       1.21157110E-02  1.51818639E+06  7.25053923E+05  2.06567576E-10  2.24324032E+06
         2    8       6.16513479E-03  9.06559257E+05  2.16085555E+05  1.92624488E+04  1.14190726E+06
         2   10       1.80683880E-02  2.16085521E+05  9.06559187E+05  2.22398504E+06  3.34662975E+06
         3    5       1.21157122E-02  7.25053998E+05  1.51818654E+06  2.56382376E-09  2.24324054E+06
         3    7       1.80683874E-02  2.16085501E+05  9.06559095E+05  2.22398504E+06  3.34662964E+06
         3    9       6.16513419E-03  9.06559166E+05  2.16085535E+05  1.92624488E+04  1.14190715E+06
         4    6       1.21157122E-02  7.25053998E+05  1.51818654E+06  2.56382376E-09  2.24324054E+06
         4    8       1.80683874E-02  2.16085501E+05  9.06559095E+05  2.22398504E+06  3.34662964E+06
         4   10       6.16513419E-03  9.06559166E+05  2.16085535E+05  1.92624488E+04  1.14190715E+06
     -----------------------------------------------------------------------------------------------
--

++ Length and velocity gauge comparison (SO states):

 --------------------------------------------------
 A comparison between the dipole oscillator strengths in 
 length and velocity gauge will be performed

 All dipole oscillator differences above the tolerance of   0.10000000000000001       will be printed 

 Due to basis set deficiency these oscillator may be problematic 

 The tolerance is defined as ABS(1-O_l/O_v) 
 O_l : dipole oscillator strength in length gauge
 O_p : dipole oscillator strength in velocity gauge
 --------------------------------------------------

  Problematic transitions have been found

      From   To       Difference (%) Osc. st. (len.) Osc. st. (vel.)
     ---------------------------------------------------------------
         1    5            87.444824  1.52114880E-03  1.21157110E-02
         1    7            87.439245  7.74387476E-04  6.16513479E-03
         1    9            87.431870  2.27085845E-03  1.80683880E-02
         2    6            87.444824  1.52114880E-03  1.21157110E-02
         2    8            87.439245  7.74387476E-04  6.16513479E-03
         2   10            87.431870  2.27085845E-03  1.80683880E-02
         3    5            87.444824  1.52114895E-03  1.21157122E-02
         3    7            87.431870  2.27085838E-03  1.80683874E-02
         3    9            87.439245  7.74387401E-04  6.16513419E-03
         4    6            87.444824  1.52114895E-03  1.21157122E-02
         4    8            87.431870  2.27085838E-03  1.80683874E-02
         4   10            87.439245  7.74387401E-04  6.16513419E-03
     ---------------------------------------------------------------

 Number of problematic transitions =                    12

--

 Electric-dipole - electric-octupole not included
++ I/O STATISTICS
 
  I. General I/O information
  - - - - - - - - - - - - - - - - - - - - - - - - - - - - - - - - - - - - - - - - - - -
  Unit  Name          Flsize      Write/Read            MBytes           Write/Read
                      (MBytes)       Calls              In/Out           Time, sec.
  - - - - - - - - - - - - - - - - - - - - - - - - - - - - - - - - - - - - - - - - - - -
   1  SCRATCH           0.00 .       5/      15 .      0.0/      0.0 .       0/       0
   2  ANNI              0.00 .       0/       0 .      0.0/      0.0 .       0/       0
   3  RUNFILE          68.98 .     322/    3173 .      2.3/     23.1 .       0/       0
   4  ONEINT          132.72 .       0/  223266 .      0.0/   2960.0 .       0/       1
   5  JOBIPH          104.61 .       0/      76 .      0.0/     16.2 .       0/       0
   6  ORDINT      1930325.78 .       1/11574993 .      0.0/2893748.0 .       0/    2327
  - - - - - - - - - - - - - - - - - - - - - - - - - - - - - - - - - - - - - - - - - - -
   *  TOTAL       1930632.10 .     328/11801523 .      2.3/2896747.4 .       0/    2328
  - - - - - - - - - - - - - - - - - - - - - - - - - - - - - - - - - - - - - - - - - - -
 
  II. I/O Access Patterns
  - - - - - - - - - - - - - - - - - - - -
  Unit  Name               % of random
                         Write/Read calls
  - - - - - - - - - - - - - - - - - - - -
   1  SCRATCH             80.0/ 100.0
   2  ANNI                 0.0/   0.0
   3  RUNFILE             28.6/  10.1
   4  ONEINT               0.0/   0.6
   5  JOBIPH               0.0/  81.6
   6  ORDINT             100.0/   0.0
  - - - - - - - - - - - - - - - - - - - -
--
Note: The following floating-point exceptions are signalling: IEEE_UNDERFLOW_FLAG IEEE_DENORMAL
--- Stop Module: rassi at Wed Apr  9 05:42:15 2025 /rc=_RC_ALL_IS_WELL_ ---
*** files: xmldump
    saved to directory /home4/s4752295/Internship/Initial_simulations/real_atoms
--- Module rassi spent 3 hours 11 minutes 14 seconds ---

.##################.
.# Happy landing! #.
.##################.

    Timing: Wall=243277.61 User=186067.63 System=40929.23

###############################################################################
Hbrk Cluster
Job 16241848 for user s4752295
Finished at: Wed Apr  9 05:42:19 CEST 2025

Job details:
============

Job ID                         : 16241848
Name                           : V_no_c_light
User                           : s4752295
Partition                      : himemlong
Nodes                          : memory1
Number of Nodes                : 1
Cores                          : 1
Number of Tasks                : 1
State                          : COMPLETED  
Submit                         : 2025-04-05T21:09:59
Start                          : 2025-04-06T10:07:31
End                            : 2025-04-09T05:42:15
Reserved walltime              : 3-15:00:00
Used walltime                  : 2-19:34:44
Used CPU time                  : 2-15:03:21 (Efficiency: 93.31%)
% User (Computation)           : 81.97%
% System (I/O)                 : 18.03%
Total memory reserved          : 45000M
Maximum memory used            : 27.54G
Hints and tips      :
 1) You requested much more CPU memory than your program used.
    Please reduce the requested amount of memory.
 *) For more information on these issues see:
    https://wiki.hpc.rug.nl/habrok/additional_information/job_hints

Acknowledgements:
=================

Please see this page for information about acknowledging Hbrk in your publications:

https://wiki.hpc.rug.nl/habrok/introduction/scientific_output

################################################################################
