   This run of MOLCAS is using the pymolcas driver

                             OPE
                             OPE          NMOL  CASOP  ENMOLC A   SO
                 OPE        NMOLC        AS  OP EN  MO LC     AS  OP
                OPENM       OL CA        SO  PE NM  OL CA     SOP EN
                OP EN      MO   LC       AS  OP ENMOL  CASO   PENMOL
                OP  EN     MO   LC       AS  OP EN     MO     LC ASO
               OP   E  NMOL  C  AS       OP  EN MO     LC     AS  OP
               OP  E   NMO   LC AS        OPEN  MO     LCASOP EN   M
               O  PEN   MO  LCA  SO
            OPE   NMO   L   CAS    OP
        OPENMOL  CASOP     ENMOL   CASOPE
     OPENMOLCA   SOPENMOLCASOPEN   MOLCASOPE
    OPENMOLCAS   OP           EN   MOL    CAS
    OPENMOLCAS       OP  ENM        O     LCA
    OPENMOLCAS    OPEN  MOLCASO     P  E  NMO
    OPENMOLCAS     OP               E  N  MOL
    OPENMOLCA   SO           PENM   O  L  CAS    OPEN    MO    LCAS
    OPENMOLCA   SOP           ENM   O  L  CAS   OP  EN  MOLC  AS   O
    OPENMOLCA   SOPE           NM      O  LCA   S      OP  EN MO
    OPENMOLC                AS         O  PEN   M      OL  CA  SOPE
    OPENMO        LCASOPE  NMOL        C  ASO   P      ENMOLC     AS
    OPE     NMO      LCA  SO     P     E   NM   OL  CA SO  PE N   MO
          OPENMOLCA            SOPE   NMO        LCAS  O    P  ENMO
     OPENMOLCASOPENMOLCASOPENMOLCASOPENMOLCA
        OPENMOLCASOPENMOLCASOPENMOLCASOPE
            OPENMOLCASOPENMOLCASOPENM
               OPENMOLCASOPENMOLCA        version: o91e1abe7de707b ?
                   OPENMOLCASO
                       OPE                tag:

 OpenMolcas is free software; you can redistribute it and/or modify it
 under the terms of the GNU Lesser General Public License version 2.1.
 OpenMolcas is distributed in the hope that it will be useful, but it
 is provided "as is" and without any express or implied warranties.
 For more details see the full text of the license in the file
 LICENSE or in <http://www.gnu.org/licenses/>.

                 Copyright (C) The OpenMolcas Authors
           For the author list and the recommended citation,
                   consult the file CONTRIBUTORS.md

           *************************************************
           * pymolcas version py2.10                       *
           *   build 3068ae8b88c9345ec6cfef6fef7f1169      *
           *   (after the EMIL interpreter by V. Veryazov) *
           *************************************************

configuration info
------------------
Host name: login1 (Linux)
C Compiler ID: GNU
C flags: -std=gnu99
Fortran Compiler ID: GNU
Fortran flags: -fno-aggressive-loop-optimizations -cpp -fdefault-integer-8 -fmax-stack-var-size=1048576
Definitions: _MOLCAS_;_I8_;_LINUX_;_MKL_
Parallel: OFF (GA=OFF)


   ----------------------------------------------------------------------------------------------------------------------------------------------
  |
  |           Project: chromium_so_cf
  |    Submitted from: /home4/s4752295/Internship/Initial_simulations/Point_charge_model/1_electron/active_space_9_non_rel/Cr/varying_bond_length
  |      Scratch area: /tmp/chromium_so_cf
  |   Save outputs to: /home4/s4752295/Internship/Initial_simulations/Point_charge_model/1_electron/active_space_9_non_rel/Cr/varying_bond_length
  |            Molcas: /home4/s4752295/Internship/Molcas/recomp_try/OpenMolcas-master/build
  |
  | Scratch area is empty
  |
  |    MOLCAS_DRIVER = /home4/s4752295/Internship/Molcas/bin/pymolcas
  |    MOLCAS_NPROCS = 1
  |    MOLCAS_SOURCE = /home4/s4752295/Internship/Molcas/recomp_try/OpenMolcas-master
  | MOLCAS_STRUCTURE = 0
  |
   ----------------------------------------------------------------------------------------------------------------------------------------------

++ ---------   Input file   ---------

&SEWARD
AMFi

CLIG
$R

Basis Set
Cr.ANO-rcc.Roos.21s15p10d6f4g2h.10s10p8d6f4g2h.
Spherical d
Cr            0.0       0.0     0.0
End of Basis

Xfield

4
0.000000,  0.000,  3.78         -1.0
3.273576,  0.000, -1.89         -1.0
-1.636788,  2.835, -1.89        -1.0
-1.636788, -2.835, -1.89        -1.0

End of input

&SCF
Occupied
9
Iterations
   50  100
End of Input

&RASSCF
LumOrb
Symmetry
1
Spin
2
Nactel
1 0 0
CIRoot
9 9 1
inactive
9
ras2
9
End of Input

>>> COPY chromium_so_cf.JobIph $SLURM_SUBMIT_DIR/chromium_so_cf.doublet.JobIph

>>> COPY $SLURM_SUBMIT_DIR/chromium_so_cf.doublet.JobIph ./JOB002

&RASSI
NROFJobIph
1 All
SpinOrbit
End of Input

EOF

-- ----------------------------------

--- Start Module: seward at Thu Jan  9 00:50:08 2025 ---

()()()()()()()()()()()()()()()()()()()()()()()()()()()()()()()()()()()()()()()()()()()()()()()()()()

                                              &SEWARD

                                   only a single process is used
                       available to each process: 4.1 GB of memory, 1 thread?
                                            pid: 1478589
()()()()()()()()()()()()()()()()()()()()()()()()()()()()()()()()()()()()()()()()()()()()()()()()()()

 The speed of LIGHT in this CALCULATION =   137.03599917700001     
               SEWARD will generate:
                  Multipole Moment integrals up to order  2
                  Kinetic Energy integrals
                  Nuclear Attraction integrals (point charge)
                  One-Electron Hamiltonian integrals
                  Velocity integrals
                  Relativistic Douglas-Kroll-Hess integrals:
                    - Parametrization         : EXP
                    - DKH order of Hamiltonian: 2
                    - DKH order of Properties : 0
                         - multipole moment operators
                         - electric potential operators
                         - contact operators
                  External field from     4 point(s) added to the one-electron Hamiltonian
                  Orbital angular momentum around ( 0.0000  0.0000  0.0000 )
                  Velocity quadrupole around ( 0.0000  0.0000  0.0000 )
                  Atomic mean-field integrals
                  Two-Electron Repulsion integrals

                   Integrals are discarded if absolute value <: 0.10E-13
                   Integral cutoff threshold is set to       <: 0.10E-15

++    Symmetry information:
      ---------------------

                    Character Table for C1 

                             E  
                    a        1  x, y, xy, Rz, z, xz, Ry, yz, Rx, I
--


++    Basis set information:
      ----------------------


      Basis set label: CR.ANO-RCC.ROOS.21S15P10D6F4G2H.10S10P8D6F4G2H......

      Electronic valence basis set:
      ------------------
      Associated Effective Charge  24.000000 au
      Associated Actual Charge     24.000000 au
      Nuclear Model: Point charge

      Shell  nPrim  nBasis  Cartesian Spherical Contaminant
         s      21      10        X                  
         p      15      10        X                  
         d      10       8                 X         
         f       6       6                 X         
         g       4       4                 X         
         h       2       2                 X         
--


++    Molecular structure info:
      -------------------------

                    ************************************************ 
                    **** Cartesian Coordinates / Bohr, Angstrom **** 
                    ************************************************ 

     Center  Label                x              y              z                     x              y              z
        1      CR               0.000000       0.000000       0.000000              0.000000       0.000000       0.000000
--


++    Operator info:
      --------------


  Net charge from external field:   -4.0000000000000000     
--


            Nuclear Potential Energy              0.00000000 au

                    Nuclear-External Field Potential Energy     -25.39682545 au
                    External Field Potential Energy               0.98731503 au 


            Total Nuclear Potential Energy            -25.39682545 au


      Basis set specifications :
      Symmetry species         a  
      Basis functions          180

 Sorry, Molden does not know how to handle
 functions with angular momentum larger than g
Note: The following floating-point exceptions are signalling: IEEE_UNDERFLOW_FLAG IEEE_DENORMAL
--- Stop Module: seward at Thu Jan  9 00:50:18 2025 /rc=_RC_ALL_IS_WELL_ ---
*** files: chromium_so_cf.GssOrb xmldump
    saved to directory /home4/s4752295/Internship/Initial_simulations/Point_charge_model/1_electron/active_space_9_non_rel/Cr/varying_bond_length
--- Module seward spent 10 seconds ---

*** symbolic link created: INPORB -> chromium_so_cf.GssOrb
--- Start Module: scf at Thu Jan  9 00:50:18 2025 ---

()()()()()()()()()()()()()()()()()()()()()()()()()()()()()()()()()()()()()()()()()()()()()()()()()()

                                                &SCF

                                   only a single process is used
                       available to each process: 4.1 GB of memory, 1 thread?
                                            pid: 1478592
()()()()()()()()()()()()()()()()()()()()()()()()()()()()()()()()()()()()()()()()()()()()()()()()()()

++    Input section:
      --------------

      Header of the integral files:
      
       Integrals generated by seward 4.2.0  , Thu Jan  9 00:50:09 2025


      Cartesian coordinates in Angstrom:
      -----------------------------------------------------
      No.  Label        X            Y            Z        
      -----------------------------------------------------
       1   CR         0.00000000   0.00000000   0.00000000
      -----------------------------------------------------
      Nuclear repulsion energy =  -25.39682545
--

++    Orbital specifications:
      -----------------------

      Symmetry species               1
                                     a
      Frozen orbitals                0
      Occupied orbitals              9
      Secondary orbitals           171
      Deleted orbitals               0
      Total number of orbitals     180
      Number of basis functions    180
--

      Molecular charge                           6.000

++    Optimization specifications:
      ----------------------------

      SCF Algorithm: Conventional
      Minimized density differences are used
      Number of density matrices in core                5
      Maximum number of NDDO SCF iterations            50
      Maximum number of HF SCF iterations             100
      Threshold for SCF energy change            0.10E-08
      Threshold for density matrix               0.10E-03
      Threshold for Fock matrix                  0.15E-03
      Threshold for linear dependence            0.10E-08
      Threshold at which DIIS is turned on       0.15E+00
      Threshold at which QNR/C2DIIS is turned on 0.75E-01
      Threshold for Norm(delta) (QNR/C2DIIS)     0.20E-04
      DIIS extrapolation of the SCF procedure
      All orbitals punched on: SCFORB
--

      Detected guessorb starting orbitals                                             


++ Convergence information
                                   SCF        iterations: Energy and convergence statistics

Iter     Tot. SCF        One-elec.       Two-elec.     Energy      Max Dij or  Max Fij      DNorm      TNorm      AccCon     Time
         Energy          Energy          Energy        Change      Delta Norm                                                in Sec.

 The total and one-electron energies are shifted by a value of      1000. a.u.

   1   -45.956528864  -325.936366488   305.376663078   0.00E+00    0.25E+00*   0.39E+00*    0.60E+01   0.25E+03   None         1.
   2   -46.545145292  -338.484518665   317.336198827  -0.59E+00*   0.16E-01*   0.78E-01*    0.10E+01   0.25E+03   EDIIS        1.
   3   -46.553623606  -337.026662637   315.869864486  -0.85E-02*   0.29E-02*   0.12E-01*    0.73E-01   0.25E+03   EDIIS        1.
   4   -46.553809847  -337.268169984   316.111185591  -0.19E-03*   0.29E-03*   0.17E-02*    0.41E-02   0.25E+03   c2DIIS       1.
   5   -46.553814619  -337.237377995   316.080388831  -0.48E-05*   0.63E-04*   0.84E-04     0.48E-03   0.25E+03   QNRc2DIIS    1.
   6   -46.553814652  -337.237049957   316.080060759  -0.33E-07*   0.34E-04*   0.39E-04     0.97E-04   0.25E+03   QNRc2DIIS    1.
   7   -46.553814657  -337.237166485   316.080177282  -0.43E-08*   0.33E-05    0.42E-05     0.15E-04   0.25E+03   QNRc2DIIS    1.
   8   -46.553814657  -337.237130366   316.080141163  -0.66E-10    0.37E-06    0.75E-06     0.34E-04   0.25E+03   QNRc2DIIS    1.

       Convergence after  8 Macro Iterations
--

 *****************************************************************************************************************************
 *                                                                                                                           *
 *                                             SCF/KS-DFT Program, Final results                                             *
 *                                                                                                                           *
 *                                                                                                                           *
 *                                                                                                                           *
 *                                                       Final Results                                                       *
 *                                                                                                                           *
 *****************************************************************************************************************************

::    Total SCF energy                              -1046.5538146568
      One-electron energy                           -1337.2371303656
      Two-electron energy                             316.0801411630
      Nuclear repulsion energy                        -25.3968254542
      Kinetic energy (interpolated)                  1078.5337807713
      Virial theorem                                    0.9703486653
      Total spin, S(S+1)                                0.0000000000
      Total spin, S                                     0.0000000000
      Max non-diagonal density matrix element           0.0000003887
      Max non-diagonal Fock matrix element              0.0000001161


      All orbitals with orbital energies smaller than  E(LUMO)+0.5 are printed

++    Molecular orbitals:
      -------------------

      Title: SCF orbitals

      Molecular orbitals for symmetry species 1: a  

          Orbital            1         2         3         4         5         6         7         8         9        10    
          Energy         -225.2373  -29.9203  -25.5439  -25.5439  -25.5436   -6.2249   -4.8434   -4.8434   -4.8377   -2.1954
          Occ. No.          2.0000    2.0000    2.0000    2.0000    2.0000    2.0000    2.0000    2.0000    2.0000    0.0000

        1 CR     1s         1.0000   -0.0001    0.0000   -0.0000   -0.0000    0.0001   -0.0000   -0.0000    0.0000   -0.0000
        2 CR     2s         0.0001    1.0000    0.0000   -0.0000   -0.0002    0.0021    0.0000   -0.0000   -0.0001   -0.0000
        3 CR     3s        -0.0001   -0.0021   -0.0000    0.0000    0.0001    0.9954    0.0000   -0.0000   -0.0075   -0.0000
        4 CR     4s         0.0000    0.0001    0.0000   -0.0000   -0.0000   -0.0506   -0.0000    0.0000    0.0016    0.0000
        5 CR     5s        -0.0000   -0.0004   -0.0000    0.0000    0.0000    0.0741    0.0000   -0.0000   -0.0024   -0.0000
        6 CR     6s         0.0000    0.0003    0.0000   -0.0000   -0.0000   -0.0301   -0.0000    0.0000    0.0010    0.0000
        7 CR     7s        -0.0000   -0.0001   -0.0000    0.0000    0.0000   -0.0092   -0.0000    0.0000    0.0003    0.0000
        8 CR     8s         0.0000   -0.0000    0.0000    0.0000   -0.0000    0.0066    0.0000   -0.0000   -0.0002   -0.0000
        9 CR     9s        -0.0001    0.0002    0.0000   -0.0000   -0.0000    0.0022    0.0000   -0.0000   -0.0001   -0.0000
       10 CR    10s         0.0001   -0.0003   -0.0000    0.0000    0.0000    0.0004    0.0000    0.0000   -0.0000   -0.0000
       11 CR     2px       -0.0000   -0.0000    0.9972   -0.0747   -0.0000    0.0000    0.0032   -0.0000   -0.0000   -0.0000
       12 CR     3px        0.0000   -0.0000   -0.0031    0.0002    0.0000   -0.0000    0.9909   -0.0011   -0.0000   -0.0001
       13 CR     4px       -0.0000    0.0000    0.0005   -0.0000   -0.0000    0.0000   -0.0911    0.0001    0.0000   -0.0017
       14 CR     5px        0.0000   -0.0000   -0.0008    0.0001    0.0000    0.0000    0.0977   -0.0001   -0.0000    0.0007
       15 CR     6px       -0.0000    0.0000    0.0002   -0.0000   -0.0000   -0.0000   -0.0017    0.0000    0.0000    0.0005
       16 CR     7px        0.0000   -0.0000    0.0000   -0.0000    0.0000    0.0000   -0.0157    0.0000    0.0000   -0.0004
       17 CR     8px       -0.0000    0.0000   -0.0002    0.0000    0.0000    0.0000    0.0024   -0.0000   -0.0000   -0.0002
       18 CR     9px        0.0000   -0.0000    0.0003   -0.0000   -0.0000   -0.0000    0.0039   -0.0000   -0.0000    0.0001
       19 CR    10px       -0.0000    0.0000   -0.0003    0.0000    0.0000   -0.0000    0.0001   -0.0000   -0.0000    0.0001
       20 CR    11px        0.0000   -0.0000    0.0002   -0.0000   -0.0000   -0.0000   -0.0004    0.0000    0.0000    0.0000
       21 CR     2py       -0.0000   -0.0000    0.0747    0.9972   -0.0000   -0.0000    0.0000    0.0032   -0.0000   -0.0000
       22 CR     3py        0.0000    0.0000   -0.0002   -0.0031    0.0000   -0.0000    0.0011    0.9909   -0.0000   -0.0000
       23 CR     4py       -0.0000   -0.0000    0.0000    0.0005   -0.0000    0.0000   -0.0001   -0.0911    0.0000   -0.0000
       24 CR     5py        0.0000    0.0000   -0.0001   -0.0008    0.0000   -0.0000    0.0001    0.0977   -0.0000    0.0000
       25 CR     6py       -0.0000   -0.0000    0.0000    0.0002   -0.0000    0.0000   -0.0000   -0.0017    0.0000    0.0000
       26 CR     7py        0.0000    0.0000    0.0000    0.0000    0.0000   -0.0000   -0.0000   -0.0157    0.0000   -0.0000
       27 CR     8py       -0.0000   -0.0000   -0.0000   -0.0002    0.0000    0.0000    0.0000    0.0024   -0.0000   -0.0000
       28 CR     9py        0.0000    0.0000    0.0000    0.0003   -0.0000   -0.0000    0.0000    0.0039   -0.0000    0.0000
       29 CR    10py       -0.0000   -0.0000   -0.0000   -0.0003    0.0000    0.0000    0.0000    0.0001    0.0000    0.0000
       30 CR    11py        0.0000    0.0000    0.0000    0.0002   -0.0000   -0.0000   -0.0000   -0.0004    0.0000    0.0000
       31 CR     2pz        0.0000    0.0002    0.0000   -0.0000    1.0000   -0.0000    0.0000   -0.0000    0.0032    0.0000
       32 CR     3pz       -0.0000    0.0000   -0.0000    0.0000   -0.0031    0.0079    0.0000   -0.0000    0.9907    0.0000
       33 CR     4pz        0.0000   -0.0000    0.0000   -0.0000    0.0005   -0.0001   -0.0000    0.0000   -0.0920   -0.0000
       34 CR     5pz       -0.0000    0.0000   -0.0000    0.0000   -0.0008   -0.0002    0.0000   -0.0000    0.0987    0.0000
       35 CR     6pz        0.0000   -0.0000    0.0000   -0.0000    0.0002    0.0002   -0.0000    0.0000   -0.0018    0.0000
       36 CR     7pz       -0.0000    0.0000    0.0000   -0.0000   -0.0000   -0.0002   -0.0000    0.0000   -0.0159   -0.0000
       37 CR     8pz        0.0000   -0.0000   -0.0000    0.0000   -0.0002   -0.0000    0.0000   -0.0000    0.0025   -0.0000
       38 CR     9pz       -0.0000    0.0000    0.0000   -0.0000    0.0003    0.0001    0.0000   -0.0000    0.0040    0.0000
       39 CR    10pz        0.0000   -0.0000   -0.0000    0.0000   -0.0003    0.0000    0.0000    0.0000    0.0001    0.0000
       40 CR    11pz       -0.0000    0.0000    0.0000   -0.0000    0.0002    0.0000   -0.0000    0.0000   -0.0004    0.0000
       41 CR     3d2-       0.0000    0.0000    0.0000    0.0000   -0.0000   -0.0000    0.0000    0.0016   -0.0000   -0.0001
       42 CR     4d2-      -0.0000   -0.0000   -0.0000   -0.0000    0.0000    0.0000   -0.0000   -0.0001    0.0000    0.0000
       43 CR     5d2-       0.0000    0.0000   -0.0000   -0.0000    0.0000   -0.0000   -0.0000   -0.0003    0.0000    0.0000
       44 CR     6d2-      -0.0000   -0.0000    0.0000    0.0000   -0.0000    0.0000    0.0000    0.0000    0.0000   -0.0000
       45 CR     7d2-       0.0000    0.0000   -0.0000   -0.0000    0.0000   -0.0000    0.0000    0.0001   -0.0000   -0.0000
       46 CR     8d2-      -0.0000   -0.0000    0.0000    0.0000   -0.0000    0.0000    0.0000    0.0000   -0.0000    0.0000
       47 CR     9d2-       0.0000    0.0000   -0.0000   -0.0000    0.0000   -0.0000   -0.0000   -0.0000    0.0000    0.0000
       48 CR    10d2-      -0.0000    0.0000    0.0000    0.0000   -0.0000   -0.0000   -0.0000   -0.0000    0.0000    0.0000
       49 CR     3d1-      -0.0000    0.0000    0.0000    0.0000   -0.0000   -0.0000    0.0000    0.0061   -0.0000    0.0000
       50 CR     4d1-       0.0000   -0.0000   -0.0000   -0.0000    0.0000    0.0000   -0.0000   -0.0011    0.0000   -0.0000
       51 CR     5d1-      -0.0000    0.0000    0.0000    0.0000   -0.0000   -0.0000   -0.0000   -0.0009    0.0000   -0.0000
       52 CR     6d1-      -0.0000   -0.0000   -0.0000   -0.0000    0.0000    0.0000    0.0000    0.0003   -0.0000    0.0000
       53 CR     7d1-       0.0000    0.0000    0.0000    0.0000    0.0000    0.0000    0.0000    0.0002   -0.0000    0.0000
       54 CR     8d1-      -0.0000   -0.0000   -0.0000   -0.0000    0.0000   -0.0000   -0.0000   -0.0000   -0.0000   -0.0000
       55 CR     9d1-       0.0000    0.0000    0.0000    0.0000   -0.0000   -0.0000   -0.0000   -0.0001    0.0000   -0.0000
       56 CR    10d1-       0.0000   -0.0000   -0.0000   -0.0000    0.0000    0.0000   -0.0000   -0.0000    0.0000   -0.0000
       57 CR     3d0       -0.0000   -0.0000    0.0000   -0.0000    0.0000   -0.0013    0.0000   -0.0000    0.0026   -0.0000
       58 CR     4d0        0.0000    0.0000   -0.0000    0.0000   -0.0000    0.0002   -0.0000    0.0000   -0.0011    0.0000
       59 CR     5d0       -0.0000   -0.0000    0.0000   -0.0000    0.0000    0.0003   -0.0000    0.0000   -0.0002   -0.0000
       60 CR     6d0        0.0000    0.0000   -0.0000    0.0000   -0.0000   -0.0001    0.0000   -0.0000    0.0003   -0.0000
       61 CR     7d0       -0.0000   -0.0000    0.0000   -0.0000    0.0000   -0.0001    0.0000   -0.0000    0.0001   -0.0000
       62 CR     8d0        0.0000    0.0000   -0.0000    0.0000   -0.0000    0.0000   -0.0000    0.0000   -0.0001    0.0000
       63 CR     9d0       -0.0000   -0.0000    0.0000   -0.0000    0.0000    0.0000   -0.0000    0.0000   -0.0000    0.0000
       64 CR    10d0        0.0000   -0.0000   -0.0000    0.0000   -0.0000    0.0000   -0.0000    0.0000    0.0000   -0.0000
       65 CR     3d1+       0.0000    0.0000    0.0000   -0.0000   -0.0000    0.0000    0.0061   -0.0000   -0.0000    0.2126
       66 CR     4d1+      -0.0000   -0.0000   -0.0000    0.0000    0.0000   -0.0000   -0.0011    0.0000    0.0000   -0.0723
       67 CR     5d1+       0.0000    0.0000    0.0000   -0.0000   -0.0000   -0.0000   -0.0009    0.0000    0.0000   -0.0002
       68 CR     6d1+      -0.0000   -0.0000   -0.0000    0.0000    0.0000    0.0000    0.0003   -0.0000   -0.0000    0.0043
       69 CR     7d1+       0.0000    0.0000    0.0000   -0.0000   -0.0000    0.0000    0.0002   -0.0000   -0.0000    0.0035
       70 CR     8d1+      -0.0000   -0.0000   -0.0000    0.0000    0.0000   -0.0000   -0.0000    0.0000    0.0000   -0.0012
       71 CR     9d1+       0.0000    0.0000    0.0000   -0.0000   -0.0000   -0.0000   -0.0001    0.0000    0.0000   -0.0010
       72 CR    10d1+      -0.0000    0.0000   -0.0000    0.0000    0.0000   -0.0000   -0.0000    0.0000    0.0000   -0.0001
       73 CR     3d2+       0.0000    0.0000   -0.0000    0.0000    0.0000    0.0000   -0.0016    0.0000    0.0000    0.9211
       74 CR     4d2+      -0.0000   -0.0000    0.0000   -0.0000   -0.0000   -0.0000    0.0001   -0.0000   -0.0000   -0.3168
       75 CR     5d2+       0.0000    0.0000    0.0000   -0.0000   -0.0000   -0.0000    0.0003   -0.0000   -0.0000   -0.0011
       76 CR     6d2+      -0.0000   -0.0000   -0.0000    0.0000    0.0000    0.0000   -0.0000    0.0000    0.0000    0.0193
       77 CR     7d2+       0.0000    0.0000    0.0000   -0.0000   -0.0000    0.0000   -0.0001    0.0000    0.0000    0.0158
       78 CR     8d2+      -0.0000   -0.0000   -0.0000    0.0000    0.0000    0.0000   -0.0000    0.0000    0.0000   -0.0054
       79 CR     9d2+       0.0000    0.0000    0.0000   -0.0000   -0.0000   -0.0000    0.0000   -0.0000   -0.0000   -0.0047
       80 CR    10d2+      -0.0000    0.0000   -0.0000    0.0000    0.0000   -0.0000    0.0000   -0.0000   -0.0000   -0.0004
       81 CR     4f3-      -0.0000   -0.0000    0.0000    0.0000    0.0000    0.0000    0.0000    0.0000   -0.0000    0.0000
       82 CR     5f3-       0.0000    0.0000   -0.0000   -0.0000    0.0000   -0.0000    0.0000    0.0000   -0.0000    0.0000
       83 CR     6f3-      -0.0000   -0.0000    0.0000    0.0000   -0.0000    0.0000   -0.0000   -0.0000   -0.0000   -0.0000
       84 CR     7f3-       0.0000    0.0000   -0.0000   -0.0000    0.0000   -0.0000   -0.0000   -0.0000    0.0000   -0.0000
       85 CR     8f3-      -0.0000   -0.0000    0.0000    0.0000   -0.0000    0.0000   -0.0000   -0.0000   -0.0000   -0.0000
       86 CR     9f3-       0.0000    0.0000   -0.0000   -0.0000    0.0000   -0.0000    0.0000    0.0000   -0.0000    0.0000
       87 CR     4f2-      -0.0000   -0.0000   -0.0000   -0.0000    0.0000   -0.0000   -0.0000   -0.0003    0.0000   -0.0000
       88 CR     5f2-       0.0000    0.0000    0.0000    0.0000   -0.0000    0.0000   -0.0000   -0.0002    0.0000   -0.0000
       89 CR     6f2-      -0.0000   -0.0000   -0.0000   -0.0000    0.0000   -0.0000    0.0000    0.0000   -0.0000    0.0000
       90 CR     7f2-       0.0000   -0.0000   -0.0000   -0.0000   -0.0000   -0.0000    0.0000    0.0001   -0.0000    0.0000
       91 CR     8f2-      -0.0000    0.0000    0.0000    0.0000   -0.0000    0.0000    0.0000    0.0000   -0.0000    0.0000
       92 CR     9f2-       0.0000   -0.0000    0.0000    0.0000   -0.0000   -0.0000   -0.0000   -0.0000   -0.0000   -0.0000
       93 CR     4f1-      -0.0000   -0.0000   -0.0000   -0.0000    0.0000    0.0000   -0.0000   -0.0008    0.0000    0.0000
       94 CR     5f1-       0.0000    0.0000    0.0000    0.0000   -0.0000   -0.0000   -0.0000   -0.0001    0.0000    0.0000
       95 CR     6f1-      -0.0000   -0.0000   -0.0000   -0.0000    0.0000    0.0000    0.0000    0.0002   -0.0000   -0.0000
       96 CR     7f1-       0.0000    0.0000    0.0000    0.0000   -0.0000   -0.0000    0.0000    0.0000   -0.0000   -0.0000
       97 CR     8f1-      -0.0000   -0.0000   -0.0000   -0.0000    0.0000    0.0000   -0.0000   -0.0000    0.0000   -0.0000
       98 CR     9f1-      -0.0000    0.0000    0.0000    0.0000   -0.0000   -0.0000   -0.0000   -0.0000    0.0000    0.0000
       99 CR     4f0        0.0000   -0.0000   -0.0000    0.0000   -0.0000   -0.0010   -0.0000    0.0000   -0.0010    0.0000
      100 CR     5f0       -0.0000    0.0000    0.0000   -0.0000    0.0000   -0.0002   -0.0000    0.0000   -0.0002    0.0000
      101 CR     6f0        0.0000   -0.0000   -0.0000    0.0000   -0.0000    0.0002    0.0000   -0.0000    0.0002   -0.0000
      102 CR     7f0       -0.0000   -0.0000    0.0000   -0.0000    0.0000    0.0001    0.0000   -0.0000    0.0000   -0.0000
      103 CR     8f0        0.0000    0.0000   -0.0000    0.0000   -0.0000   -0.0000   -0.0000    0.0000   -0.0000   -0.0000
      104 CR     9f0       -0.0000   -0.0000    0.0000   -0.0000    0.0000   -0.0001   -0.0000    0.0000   -0.0000   -0.0000
      105 CR     4f1+       0.0000   -0.0000   -0.0000    0.0000    0.0000   -0.0000   -0.0008    0.0000    0.0000    0.0016
      106 CR     5f1+      -0.0000    0.0000    0.0000   -0.0000   -0.0000   -0.0000   -0.0001    0.0000    0.0000    0.0008
      107 CR     6f1+       0.0000   -0.0000   -0.0000    0.0000    0.0000    0.0000    0.0002   -0.0000   -0.0000   -0.0002
      108 CR     7f1+      -0.0000   -0.0000    0.0000   -0.0000   -0.0000    0.0000    0.0000   -0.0000   -0.0000   -0.0002
      109 CR     8f1+       0.0000    0.0000   -0.0000    0.0000    0.0000   -0.0000   -0.0000    0.0000    0.0000   -0.0000
      110 CR     9f1+      -0.0000   -0.0000    0.0000   -0.0000   -0.0000   -0.0000   -0.0000    0.0000    0.0000    0.0001
      111 CR     4f2+      -0.0000    0.0000    0.0000   -0.0000   -0.0000    0.0000    0.0003   -0.0000   -0.0000    0.0061
      112 CR     5f2+       0.0000   -0.0000   -0.0000    0.0000    0.0000    0.0000    0.0002   -0.0000   -0.0000    0.0034
      113 CR     6f2+      -0.0000    0.0000    0.0000   -0.0000    0.0000   -0.0000   -0.0000    0.0000    0.0000   -0.0004
      114 CR     7f2+       0.0000    0.0000    0.0000   -0.0000   -0.0000   -0.0000   -0.0001    0.0000    0.0000   -0.0009
      115 CR     8f2+      -0.0000   -0.0000   -0.0000    0.0000    0.0000    0.0000   -0.0000    0.0000    0.0000   -0.0003
      116 CR     9f2+       0.0000    0.0000   -0.0000    0.0000   -0.0000    0.0000    0.0000   -0.0000   -0.0000    0.0001
      117 CR     4f3+       0.0000   -0.0000    0.0000   -0.0000    0.0000   -0.0006    0.0000   -0.0000    0.0003   -0.0000
      118 CR     5f3+      -0.0000    0.0000   -0.0000    0.0000   -0.0000   -0.0001    0.0000   -0.0000    0.0002   -0.0000
      119 CR     6f3+       0.0000   -0.0000    0.0000   -0.0000    0.0000    0.0002   -0.0000    0.0000   -0.0000    0.0000
      120 CR     7f3+      -0.0000   -0.0000   -0.0000    0.0000    0.0000    0.0000   -0.0000    0.0000   -0.0000    0.0000
      121 CR     8f3+       0.0000    0.0000    0.0000   -0.0000   -0.0000   -0.0000   -0.0000    0.0000   -0.0000    0.0000
      122 CR     9f3+      -0.0000   -0.0000   -0.0000    0.0000   -0.0000   -0.0000    0.0000   -0.0000    0.0000   -0.0000
      123 CR     5g4-      -0.0000   -0.0000   -0.0000   -0.0000    0.0000    0.0000   -0.0000   -0.0005    0.0000    0.0000
      124 CR     6g4-       0.0000    0.0000    0.0000    0.0000   -0.0000    0.0000   -0.0000   -0.0004    0.0000    0.0000
      125 CR     7g4-      -0.0000   -0.0000   -0.0000   -0.0000    0.0000   -0.0000   -0.0000   -0.0000   -0.0000   -0.0000
      126 CR     8g4-       0.0000    0.0000   -0.0000   -0.0000   -0.0000    0.0000    0.0000    0.0001   -0.0000   -0.0000
      127 CR     5g3-       0.0000    0.0000    0.0000    0.0000    0.0000    0.0000    0.0000    0.0000   -0.0000   -0.0000
      128 CR     6g3-      -0.0000   -0.0000   -0.0000   -0.0000    0.0000   -0.0000   -0.0000   -0.0000    0.0000   -0.0000
      129 CR     7g3-       0.0000    0.0000    0.0000    0.0000    0.0000    0.0000   -0.0000   -0.0000   -0.0000   -0.0000
      130 CR     8g3-      -0.0000   -0.0000    0.0000   -0.0000    0.0000   -0.0000   -0.0000   -0.0000    0.0000    0.0000
      131 CR     5g2-      -0.0000   -0.0000   -0.0000   -0.0000    0.0000   -0.0000   -0.0000   -0.0000    0.0000    0.0000
      132 CR     6g2-       0.0000    0.0000    0.0000    0.0000   -0.0000   -0.0000   -0.0000   -0.0000    0.0000    0.0000
      133 CR     7g2-      -0.0000   -0.0000   -0.0000   -0.0000    0.0000    0.0000    0.0000    0.0000   -0.0000    0.0000
      134 CR     8g2-       0.0000    0.0000   -0.0000   -0.0000   -0.0000   -0.0000    0.0000    0.0000   -0.0000   -0.0000
      135 CR     5g1-      -0.0000   -0.0000   -0.0000   -0.0000    0.0000    0.0000   -0.0000   -0.0006    0.0000   -0.0000
      136 CR     6g1-       0.0000    0.0000    0.0000    0.0000   -0.0000   -0.0000   -0.0000   -0.0004    0.0000   -0.0000
      137 CR     7g1-      -0.0000   -0.0000   -0.0000   -0.0000   -0.0000    0.0000   -0.0000   -0.0000    0.0000   -0.0000
      138 CR     8g1-       0.0000    0.0000   -0.0000   -0.0000    0.0000   -0.0000    0.0000    0.0001   -0.0000   -0.0000
      139 CR     5g0        0.0000   -0.0000   -0.0000    0.0000   -0.0000   -0.0000   -0.0000    0.0000   -0.0008   -0.0000
      140 CR     6g0        0.0000    0.0000    0.0000   -0.0000    0.0000   -0.0000   -0.0000    0.0000   -0.0006    0.0000
      141 CR     7g0       -0.0000   -0.0000   -0.0000   -0.0000   -0.0000   -0.0000   -0.0000    0.0000   -0.0001    0.0000
      142 CR     8g0       -0.0000    0.0000   -0.0000    0.0000   -0.0000    0.0000    0.0000    0.0000    0.0001    0.0000
      143 CR     5g1+       0.0000   -0.0000   -0.0000    0.0000    0.0000   -0.0000   -0.0006    0.0000    0.0000   -0.0006
      144 CR     6g1+       0.0000    0.0000    0.0000   -0.0000   -0.0000   -0.0000   -0.0004    0.0000    0.0000   -0.0007
      145 CR     7g1+      -0.0000   -0.0000   -0.0000    0.0000    0.0000   -0.0000   -0.0000    0.0000    0.0000   -0.0004
      146 CR     8g1+      -0.0000    0.0000   -0.0000    0.0000    0.0000    0.0000    0.0001   -0.0000   -0.0000   -0.0001
      147 CR     5g2+       0.0000   -0.0000    0.0000   -0.0000    0.0000   -0.0000    0.0000   -0.0000    0.0000   -0.0007
      148 CR     6g2+       0.0000    0.0000   -0.0000    0.0000   -0.0000   -0.0000    0.0000   -0.0000    0.0000   -0.0007
      149 CR     7g2+      -0.0000   -0.0000    0.0000   -0.0000   -0.0000   -0.0000   -0.0000    0.0000    0.0000   -0.0002
      150 CR     8g2+      -0.0000    0.0000    0.0000   -0.0000   -0.0000    0.0000   -0.0000    0.0000   -0.0000    0.0000
      151 CR     5g3+      -0.0000    0.0000   -0.0000    0.0000   -0.0000    0.0002   -0.0000    0.0000   -0.0004    0.0000
      152 CR     6g3+      -0.0000   -0.0000    0.0000   -0.0000    0.0000    0.0002   -0.0000    0.0000   -0.0003    0.0000
      153 CR     7g3+       0.0000    0.0000   -0.0000    0.0000   -0.0000    0.0000   -0.0000    0.0000   -0.0001    0.0000
      154 CR     8g3+       0.0000   -0.0000   -0.0000    0.0000   -0.0000   -0.0000    0.0000   -0.0000    0.0001   -0.0000
      155 CR     5g4+       0.0000   -0.0000   -0.0000    0.0000    0.0000   -0.0000   -0.0005    0.0000    0.0000    0.0000
      156 CR     6g4+       0.0000    0.0000    0.0000   -0.0000   -0.0000   -0.0000   -0.0004    0.0000    0.0000    0.0000
      157 CR     7g4+      -0.0000   -0.0000   -0.0000    0.0000    0.0000   -0.0000   -0.0000    0.0000    0.0000   -0.0000
      158 CR     8g4+      -0.0000    0.0000   -0.0000    0.0000    0.0000    0.0000    0.0001   -0.0000   -0.0000   -0.0000
      159 CR     6h5-      -0.0000   -0.0000    0.0000    0.0000    0.0000    0.0000    0.0000    0.0000   -0.0000    0.0000
      160 CR     7h5-       0.0000    0.0000   -0.0000   -0.0000   -0.0000   -0.0000    0.0000    0.0000   -0.0000    0.0000
      161 CR     6h4-      -0.0000   -0.0000    0.0000    0.0000   -0.0000   -0.0000    0.0000    0.0002   -0.0000   -0.0000
      162 CR     7h4-       0.0000    0.0000   -0.0000   -0.0000    0.0000    0.0000    0.0000    0.0002   -0.0000   -0.0000
      163 CR     6h3-      -0.0000   -0.0000   -0.0000   -0.0000    0.0000    0.0000   -0.0000   -0.0000    0.0000    0.0000
      164 CR     7h3-       0.0000    0.0000    0.0000    0.0000   -0.0000   -0.0000   -0.0000   -0.0000    0.0000   -0.0000
      165 CR     6h2-      -0.0000    0.0000    0.0000    0.0000   -0.0000    0.0000    0.0000    0.0000   -0.0000    0.0000
      166 CR     7h2-      -0.0000   -0.0000   -0.0000   -0.0000    0.0000   -0.0000    0.0000    0.0001   -0.0000    0.0000
      167 CR     6h1-      -0.0000   -0.0000   -0.0000   -0.0000   -0.0000    0.0000    0.0000    0.0000    0.0000   -0.0000
      168 CR     7h1-       0.0000    0.0000    0.0000    0.0000   -0.0000   -0.0000    0.0000    0.0000    0.0000   -0.0000
      169 CR     6h0        0.0000   -0.0000   -0.0000    0.0000   -0.0000   -0.0000   -0.0000   -0.0000   -0.0000    0.0000
      170 CR     7h0        0.0000   -0.0000    0.0000    0.0000    0.0000   -0.0000   -0.0000   -0.0000   -0.0001    0.0000
      171 CR     6h1+      -0.0000    0.0000   -0.0000    0.0000   -0.0000    0.0000    0.0000   -0.0000   -0.0000   -0.0002
      172 CR     7h1+      -0.0000    0.0000    0.0000   -0.0000    0.0000    0.0000    0.0000   -0.0000   -0.0000   -0.0002
      173 CR     6h2+      -0.0000    0.0000   -0.0000    0.0000    0.0000    0.0000   -0.0000    0.0000    0.0000   -0.0006
      174 CR     7h2+      -0.0000    0.0000    0.0000   -0.0000   -0.0000    0.0000   -0.0001    0.0000    0.0000   -0.0007
      175 CR     6h3+       0.0000   -0.0000    0.0000   -0.0000    0.0000   -0.0000    0.0000    0.0000    0.0001   -0.0000
      176 CR     7h3+       0.0000   -0.0000   -0.0000    0.0000   -0.0000   -0.0000    0.0000    0.0000    0.0002   -0.0000
      177 CR     6h4+      -0.0000    0.0000    0.0000   -0.0000   -0.0000    0.0000    0.0002   -0.0000   -0.0000   -0.0001
      178 CR     7h4+      -0.0000    0.0000   -0.0000    0.0000    0.0000    0.0000    0.0002   -0.0000   -0.0000   -0.0001
      179 CR     6h5+      -0.0000    0.0000   -0.0000    0.0000    0.0000    0.0000   -0.0000    0.0000    0.0000   -0.0007
      180 CR     7h5+      -0.0000    0.0000    0.0000   -0.0000    0.0000    0.0000   -0.0000    0.0000    0.0000   -0.0009

          Orbital           11        12        13        14    
          Energy           -2.1954   -2.1898   -2.1898   -2.1881
          Occ. No.          0.0000    0.0000    0.0000    0.0000

        1 CR     1s         0.0000    0.0000    0.0000    0.0000
        2 CR     2s         0.0000    0.0000   -0.0000    0.0000
        3 CR     3s        -0.0000   -0.0000   -0.0000    0.0008
        4 CR     4s         0.0000    0.0000   -0.0000   -0.0048
        5 CR     5s        -0.0000   -0.0000    0.0000    0.0043
        6 CR     6s         0.0000   -0.0000    0.0000   -0.0001
        7 CR     7s         0.0000    0.0000    0.0000   -0.0011
        8 CR     8s        -0.0000   -0.0000   -0.0000    0.0001
        9 CR     9s        -0.0000   -0.0000   -0.0000    0.0002
       10 CR    10s        -0.0000   -0.0000   -0.0000    0.0000
       11 CR     2px       -0.0000   -0.0000   -0.0001    0.0000
       12 CR     3px       -0.0000   -0.0000   -0.0048    0.0000
       13 CR     4px       -0.0000    0.0000    0.0093   -0.0000
       14 CR     5px        0.0000   -0.0000   -0.0064    0.0000
       15 CR     6px        0.0000   -0.0000   -0.0017    0.0000
       16 CR     7px       -0.0000    0.0000    0.0021   -0.0000
       17 CR     8px       -0.0000    0.0000    0.0006   -0.0000
       18 CR     9px        0.0000   -0.0000   -0.0006    0.0000
       19 CR    10px        0.0000   -0.0000   -0.0003    0.0000
       20 CR    11px        0.0000   -0.0000   -0.0000    0.0000
       21 CR     2py        0.0000   -0.0001    0.0000    0.0000
       22 CR     3py        0.0001   -0.0048    0.0000   -0.0000
       23 CR     4py        0.0017    0.0093   -0.0000    0.0000
       24 CR     5py       -0.0007   -0.0064    0.0000    0.0000
       25 CR     6py       -0.0005   -0.0017    0.0000    0.0000
       26 CR     7py        0.0004    0.0021   -0.0000   -0.0000
       27 CR     8py        0.0002    0.0006   -0.0000   -0.0000
       28 CR     9py       -0.0001   -0.0006    0.0000    0.0000
       29 CR    10py       -0.0001   -0.0003    0.0000    0.0000
       30 CR    11py       -0.0000   -0.0000    0.0000    0.0000
       31 CR     2pz       -0.0000   -0.0000    0.0000   -0.0000
       32 CR     3pz        0.0000    0.0000    0.0000   -0.0028
       33 CR     4pz       -0.0000   -0.0000   -0.0000   -0.0005
       34 CR     5pz        0.0000    0.0000    0.0000   -0.0011
       35 CR     6pz       -0.0000    0.0000    0.0000    0.0007
       36 CR     7pz       -0.0000   -0.0000   -0.0000   -0.0000
       37 CR     8pz        0.0000    0.0000   -0.0000   -0.0004
       38 CR     9pz        0.0000    0.0000    0.0000   -0.0001
       39 CR    10pz        0.0000    0.0000    0.0000    0.0001
       40 CR    11pz        0.0000    0.0000    0.0000    0.0000
       41 CR     3d2-       0.9211    0.2118   -0.0000    0.0000
       42 CR     4d2-      -0.3168   -0.0744    0.0000   -0.0000
       43 CR     5d2-      -0.0011   -0.0001    0.0000    0.0000
       44 CR     6d2-       0.0193    0.0048   -0.0000    0.0000
       45 CR     7d2-       0.0158    0.0038   -0.0000    0.0000
       46 CR     8d2-      -0.0054   -0.0014    0.0000   -0.0000
       47 CR     9d2-      -0.0047   -0.0012    0.0000   -0.0000
       48 CR    10d2-      -0.0004   -0.0001    0.0000   -0.0000
       49 CR     3d1-      -0.2126    0.9201   -0.0001    0.0000
       50 CR     4d1-       0.0723   -0.3196    0.0000   -0.0000
       51 CR     5d1-       0.0002   -0.0002    0.0000    0.0000
       52 CR     6d1-      -0.0043    0.0198   -0.0000    0.0000
       53 CR     7d1-      -0.0035    0.0159   -0.0000    0.0000
       54 CR     8d1-       0.0012   -0.0057    0.0000   -0.0000
       55 CR     9d1-       0.0010   -0.0049    0.0000   -0.0000
       56 CR    10d1-       0.0001   -0.0005    0.0000   -0.0000
       57 CR     3d0       -0.0000    0.0000    0.0000    0.9439
       58 CR     4d0        0.0000   -0.0000   -0.0000   -0.3290
       59 CR     5d0       -0.0000   -0.0000   -0.0000    0.0001
       60 CR     6d0       -0.0000    0.0000    0.0000    0.0205
       61 CR     7d0       -0.0000    0.0000    0.0000    0.0164
       62 CR     8d0        0.0000   -0.0000   -0.0000   -0.0059
       63 CR     9d0        0.0000   -0.0000   -0.0000   -0.0050
       64 CR    10d0        0.0000   -0.0000   -0.0000   -0.0005
       65 CR     3d1+       0.0000    0.0001    0.9201   -0.0000
       66 CR     4d1+      -0.0000   -0.0000   -0.3196    0.0000
       67 CR     5d1+      -0.0000   -0.0000   -0.0002   -0.0000
       68 CR     6d1+       0.0000    0.0000    0.0198   -0.0000
       69 CR     7d1+       0.0000    0.0000    0.0159   -0.0000
       70 CR     8d1+      -0.0000   -0.0000   -0.0057    0.0000
       71 CR     9d1+      -0.0000   -0.0000   -0.0049    0.0000
       72 CR    10d1+      -0.0000   -0.0000   -0.0005    0.0000
       73 CR     3d2+       0.0001   -0.0000   -0.2118    0.0000
       74 CR     4d2+      -0.0000    0.0000    0.0744   -0.0000
       75 CR     5d2+      -0.0000    0.0000    0.0001   -0.0000
       76 CR     6d2+       0.0000   -0.0000   -0.0048    0.0000
       77 CR     7d2+       0.0000   -0.0000   -0.0038    0.0000
       78 CR     8d2+      -0.0000    0.0000    0.0014   -0.0000
       79 CR     9d2+      -0.0000    0.0000    0.0012   -0.0000
       80 CR    10d2+      -0.0000    0.0000    0.0001   -0.0000
       81 CR     4f3-      -0.0000   -0.0000    0.0000   -0.0000
       82 CR     5f3-      -0.0000   -0.0000    0.0000    0.0000
       83 CR     6f3-       0.0000    0.0000   -0.0000   -0.0000
       84 CR     7f3-       0.0000    0.0000   -0.0000   -0.0000
       85 CR     8f3-       0.0000    0.0000   -0.0000   -0.0000
       86 CR     9f3-      -0.0000    0.0000   -0.0000    0.0000
       87 CR     4f2-       0.0061    0.0032   -0.0000    0.0000
       88 CR     5f2-       0.0034    0.0023   -0.0000    0.0000
       89 CR     6f2-      -0.0004    0.0001   -0.0000   -0.0000
       90 CR     7f2-      -0.0009   -0.0006    0.0000   -0.0000
       91 CR     8f2-      -0.0003   -0.0003    0.0000   -0.0000
       92 CR     9f2-       0.0001   -0.0001    0.0000    0.0000
       93 CR     4f1-      -0.0016    0.0039   -0.0000    0.0000
       94 CR     5f1-      -0.0008    0.0014   -0.0000    0.0000
       95 CR     6f1-       0.0002   -0.0006    0.0000   -0.0000
       96 CR     7f1-       0.0002   -0.0004    0.0000   -0.0000
       97 CR     8f1-       0.0000   -0.0000    0.0000    0.0000
       98 CR     9f1-      -0.0001    0.0002   -0.0000    0.0000
       99 CR     4f0        0.0000    0.0000    0.0000    0.0024
      100 CR     5f0        0.0000    0.0000    0.0000   -0.0000
      101 CR     6f0        0.0000   -0.0000   -0.0000   -0.0009
      102 CR     7f0       -0.0000   -0.0000   -0.0000   -0.0000
      103 CR     8f0       -0.0000   -0.0000    0.0000    0.0003
      104 CR     9f0        0.0000    0.0000    0.0000    0.0003
      105 CR     4f1+       0.0000    0.0000    0.0039   -0.0000
      106 CR     5f1+       0.0000    0.0000    0.0014   -0.0000
      107 CR     6f1+      -0.0000   -0.0000   -0.0006    0.0000
      108 CR     7f1+      -0.0000   -0.0000   -0.0004    0.0000
      109 CR     8f1+      -0.0000   -0.0000   -0.0000    0.0000
      110 CR     9f1+       0.0000    0.0000    0.0002   -0.0000
      111 CR     4f2+       0.0000   -0.0000   -0.0032    0.0000
      112 CR     5f2+       0.0000   -0.0000   -0.0023    0.0000
      113 CR     6f2+      -0.0000   -0.0000   -0.0001    0.0000
      114 CR     7f2+      -0.0000    0.0000    0.0006   -0.0000
      115 CR     8f2+      -0.0000    0.0000    0.0003   -0.0000
      116 CR     9f2+       0.0000    0.0000    0.0001   -0.0000
      117 CR     4f3+      -0.0000    0.0000    0.0000    0.0019
      118 CR     5f3+      -0.0000    0.0000    0.0000    0.0014
      119 CR     6f3+       0.0000   -0.0000   -0.0000    0.0000
      120 CR     7f3+       0.0000   -0.0000   -0.0000   -0.0004
      121 CR     8f3+      -0.0000    0.0000   -0.0000   -0.0002
      122 CR     9f3+      -0.0000    0.0000    0.0000   -0.0000
      123 CR     5g4-      -0.0000    0.0004   -0.0000    0.0000
      124 CR     6g4-      -0.0000    0.0006   -0.0000    0.0000
      125 CR     7g4-       0.0000    0.0004   -0.0000   -0.0000
      126 CR     8g4-       0.0000    0.0002   -0.0000   -0.0000
      127 CR     5g3-       0.0000    0.0000   -0.0000   -0.0000
      128 CR     6g3-       0.0000    0.0000   -0.0000   -0.0000
      129 CR     7g3-       0.0000    0.0000   -0.0000   -0.0000
      130 CR     8g3-      -0.0000    0.0000   -0.0000   -0.0000
      131 CR     5g2-      -0.0007   -0.0005    0.0000   -0.0000
      132 CR     6g2-      -0.0007   -0.0007    0.0000   -0.0000
      133 CR     7g2-      -0.0002   -0.0004    0.0000   -0.0000
      134 CR     8g2-       0.0000   -0.0001    0.0000    0.0000
      135 CR     5g1-       0.0006   -0.0010    0.0000   -0.0000
      136 CR     6g1-       0.0007   -0.0008    0.0000   -0.0000
      137 CR     7g1-       0.0004   -0.0002    0.0000   -0.0000
      138 CR     8g1-       0.0001    0.0002   -0.0000   -0.0000
      139 CR     5g0        0.0000   -0.0000   -0.0000   -0.0015
      140 CR     6g0        0.0000   -0.0000   -0.0000   -0.0017
      141 CR     7g0       -0.0000   -0.0000   -0.0000   -0.0009
      142 CR     8g0        0.0000    0.0000   -0.0000   -0.0002
      143 CR     5g1+      -0.0000   -0.0000   -0.0010    0.0000
      144 CR     6g1+      -0.0000   -0.0000   -0.0008    0.0000
      145 CR     7g1+      -0.0000   -0.0000   -0.0002    0.0000
      146 CR     8g1+      -0.0000    0.0000    0.0002   -0.0000
      147 CR     5g2+      -0.0000    0.0000    0.0005   -0.0000
      148 CR     6g2+      -0.0000    0.0000    0.0007   -0.0000
      149 CR     7g2+      -0.0000    0.0000    0.0004   -0.0000
      150 CR     8g2+       0.0000    0.0000    0.0001   -0.0000
      151 CR     5g3+       0.0000   -0.0000   -0.0000   -0.0002
      152 CR     6g3+       0.0000   -0.0000   -0.0000   -0.0003
      153 CR     7g3+       0.0000   -0.0000   -0.0000   -0.0002
      154 CR     8g3+      -0.0000   -0.0000   -0.0000   -0.0001
      155 CR     5g4+       0.0000    0.0000    0.0004   -0.0000
      156 CR     6g4+       0.0000    0.0000    0.0006   -0.0000
      157 CR     7g4+      -0.0000    0.0000    0.0004   -0.0000
      158 CR     8g4+      -0.0000    0.0000    0.0002   -0.0000
      159 CR     6h5-      -0.0007   -0.0002    0.0000    0.0000
      160 CR     7h5-      -0.0009   -0.0002    0.0000   -0.0000
      161 CR     6h4-       0.0001   -0.0005    0.0000   -0.0000
      162 CR     7h4-       0.0001   -0.0007    0.0000   -0.0000
      163 CR     6h3-      -0.0000   -0.0000   -0.0000    0.0000
      164 CR     7h3-      -0.0000   -0.0000    0.0000   -0.0000
      165 CR     6h2-      -0.0006   -0.0002    0.0000   -0.0000
      166 CR     7h2-      -0.0007   -0.0003    0.0000   -0.0000
      167 CR     6h1-       0.0002   -0.0010    0.0000   -0.0000
      168 CR     7h1-       0.0002   -0.0012    0.0000   -0.0000
      169 CR     6h0        0.0000   -0.0000   -0.0000   -0.0012
      170 CR     7h0        0.0000   -0.0000   -0.0000   -0.0015
      171 CR     6h1+      -0.0000   -0.0000   -0.0010    0.0000
      172 CR     7h1+      -0.0000   -0.0000   -0.0012    0.0000
      173 CR     6h2+      -0.0000    0.0000    0.0002   -0.0000
      174 CR     7h2+      -0.0000    0.0000    0.0003   -0.0000
      175 CR     6h3+       0.0000    0.0000   -0.0000   -0.0004
      176 CR     7h3+      -0.0000    0.0000   -0.0000   -0.0005
      177 CR     6h4+      -0.0000   -0.0000   -0.0005    0.0000
      178 CR     7h4+      -0.0000   -0.0000   -0.0007    0.0000
      179 CR     6h5+      -0.0000    0.0000    0.0002   -0.0000
      180 CR     7h5+      -0.0000    0.0000    0.0002   -0.0000
--


++    Molecular charges:
      ------------------

      Mulliken charges per centre and basis function type
      ---------------------------------------------------

                CR    
      1s       2.0000
      2s       2.0000
      2px      2.0000
      2pz      2.0000
      2py      2.0000
      3s       1.9818
      3px      1.9637
      3pz      1.9630
      3py      1.9637
      4s       0.0051
      3d2+     0.0000
      3d1+     0.0001
      3d0      0.0000
      3d1-     0.0001
      3d2-     0.0000
      4px      0.0166
      4pz      0.0169
      4py      0.0166
      5s       0.0110
      4d2+     0.0000
      4d1+     0.0000
      4d0      0.0000
      4d1-     0.0000
      4d2-     0.0000
      5px      0.0191
      5pz      0.0195
      5py      0.0191
      6s       0.0018
      4f3+     0.0000
      4f2+     0.0000
      4f1+     0.0000
      4f0      0.0000
      4f1-     0.0000
      4f2-     0.0000
      4f3-     0.0000
      5d2+     0.0000
      5d1+     0.0000
      5d0      0.0000
      5d1-     0.0000
      5d2-     0.0000
      6px      0.0000
      6pz      0.0000
      6py      0.0000
      7s       0.0002
      5f3+     0.0000
      5f2+     0.0000
      5f1+     0.0000
      5f0      0.0000
      5f1-     0.0000
      5f2-     0.0000
      5f3-     0.0000
      6d2+     0.0000
      6d1+     0.0000
      6d0      0.0000
      6d1-     0.0000
      6d2-     0.0000
      7px      0.0005
      7pz      0.0005
      7py      0.0005
      5g4+     0.0000
      5g3+     0.0000
      5g2+     0.0000
      5g1+     0.0000
      5g0      0.0000
      5g1-     0.0000
      5g2-     0.0000
      5g3-     0.0000
      5g4-     0.0000
      6f3+     0.0000
      6f2+     0.0000
      6f1+     0.0000
      6f0      0.0000
      6f1-     0.0000
      6f2-     0.0000
      6f3-     0.0000
      6g4+     0.0000
      6g3+     0.0000
      6g2+     0.0000
      6g1+     0.0000
      6g0      0.0000
      6g1-     0.0000
      6g2-     0.0000
      6g3-     0.0000
      6g4-     0.0000
      6h5+     0.0000
      6h4+     0.0000
      6h3+     0.0000
      6h2+     0.0000
      6h1+     0.0000
      6h0      0.0000
      6h1-     0.0000
      6h2-     0.0000
      6h3-     0.0000
      6h4-     0.0000
      6h5-     0.0000
      7d2+     0.0000
      7d1+     0.0000
      7d0      0.0000
      7d1-     0.0000
      7d2-     0.0000
      7f3+     0.0000
      7f2+     0.0000
      7f1+     0.0000
      7f0      0.0000
      7f1-     0.0000
      7f2-     0.0000
      7f3-     0.0000
      7g4+     0.0000
      7g3+     0.0000
      7g2+     0.0000
      7g1+     0.0000
      7g0      0.0000
      7g1-     0.0000
      7g2-     0.0000
      7g3-     0.0000
      7g4-     0.0000
      7h5+     0.0000
      7h4+     0.0000
      7h3+     0.0000
      7h2+     0.0000
      7h1+     0.0000
      7h0      0.0000
      7h1-     0.0000
      7h2-     0.0000
      7h3-     0.0000
      7h4-     0.0000
      7h5-     0.0000
      8s       0.0001
      8px      0.0000
      8pz      0.0000
      8py      0.0000
      8d2+     0.0000
      8d1+     0.0000
      8d0      0.0000
      8d1-     0.0000
      8d2-     0.0000
      8f3+     0.0000
      8f2+     0.0000
      8f1+     0.0000
      8f0      0.0000
      8f1-     0.0000
      8f2-     0.0000
      8f3-     0.0000
      8g4+     0.0000
      8g3+     0.0000
      8g2+     0.0000
      8g1+     0.0000
      8g0      0.0000
      8g1-     0.0000
      8g2-     0.0000
      8g3-     0.0000
      8g4-     0.0000
      9s       0.0000
      9px      0.0000
      9pz      0.0000
      9py      0.0000
      9d2+     0.0000
      9d1+     0.0000
      9d0      0.0000
      9d1-     0.0000
      9d2-     0.0000
      9f3+     0.0000
      9f2+     0.0000
      9f1+     0.0000
      9f0      0.0000
      9f1-     0.0000
      9f2-     0.0000
      9f3-     0.0000
     10s       0.0000
     10px      0.0000
     10pz      0.0000
     10py      0.0000
     10d2+     0.0000
     10d1+     0.0000
     10d0      0.0000
     10d1-     0.0000
     10d2-     0.0000
     11px      0.0000
     11pz      0.0000
     11py      0.0000
      Total   18.0000

      N-E      6.0000

      Total electronic charge=   18.000000

      Total            charge=    6.000000
--

 Sorry, Molden does not know how to handle
 functions with angular momentum larger than g

++    Static properties:
      ------------------


      LoProp Charges per center


                   CR    
      Nuclear     24.0000
      Electronic -18.0000

      Total        6.0000
--


++    Molecular properties:
      ---------------------

      Charge (e):
                      =    6.0000
      Dipole Moment (Debye):
      Origin of the operator (Ang)=    0.0000    0.0000    0.0000
                   X=  1.6898E-09               Y=  2.0889E-14               Z= -7.2046E-02           Total=  7.2046E-02
      Center of Charge (Ang)
                     X=    0.00000000               Y=    0.00000000               Z=   -0.00249992
      Quadrupole Moment (Debye*Ang):
      Origin of the operator (Ang)=    0.0000    0.0000    0.0000
                  XX= -3.4380E+00              XY= -6.5973E-15              XZ= -1.6046E-10              YY= -3.4380E+00
                  YZ=  5.3393E-15              ZZ= -3.4273E+00
      In traceless form (Debye*Ang)
                  XX= -5.3241E-03              XY= -9.8960E-15              XZ= -2.4069E-10              YY= -5.3241E-03
                  YZ=  8.0090E-15              ZZ=  1.0648E-02
--

 Sorry, Molden does not know how to handle
 functions with angular momentum larger than g
 ###############################################################################
 ###############################################################################
 ###                                                                         ###
 ###                                                                         ###
 ###    WARNING: RunFile label nBas                                          ###
 ###    was used       62 times                                              ###
 ###                                                                         ###
 ###                                                                         ###
 ###############################################################################
 ###############################################################################
Note: The following floating-point exceptions are signalling: IEEE_UNDERFLOW_FLAG IEEE_DENORMAL
--- Stop Module: scf at Thu Jan  9 00:50:38 2025 /rc=_RC_ALL_IS_WELL_ ---
*** files: chromium_so_cf.LprOrb chromium_so_cf.ScfOrb xmldump
    saved to directory /home4/s4752295/Internship/Initial_simulations/Point_charge_model/1_electron/active_space_9_non_rel/Cr/varying_bond_length
--- Module scf spent 19 seconds ---

*** symbolic link created: INPORB -> chromium_so_cf.ScfOrb
--- Start Module: rasscf at Thu Jan  9 00:50:38 2025 ---

()()()()()()()()()()()()()()()()()()()()()()()()()()()()()()()()()()()()()()()()()()()()()()()()()()

                                              &RASSCF

                                   only a single process is used
                       available to each process: 4.1 GB of memory, 1 thread?
                                            pid: 1478598
()()()()()()()()()()()()()()()()()()()()()()()()()()()()()()()()()()()()()()()()()()()()()()()()()()


      Header of the ONEINT file:
      --------------------------
      
      Integrals generated by seward 4.2.0  , Thu Jan  9 00:50:09 2025


      OrdInt status: non-squared


      Cartesian coordinates in Angstrom:
      -----------------------------------------------------
      No.  Label        X            Y            Z        
      -----------------------------------------------------
       1   CR         0.00000000   0.00000000   0.00000000
      -----------------------------------------------------
      Nuclear repulsion energy =  -25.39682545

++    Wave function specifications:
      -----------------------------

      Number of closed shell electrons          18
      Number of electrons in active shells       1
      Max number of holes in RAS1 space          0
      Max nr of electrons in RAS3 space          0
      Number of inactive orbitals                9
      Number of active orbitals                  9
      Number of secondary orbitals             162
      Spin quantum number                      0.5
      State symmetry                             1
--

++    Orbital specifications:
      -----------------------

      Symmetry species                           1
                                                 a
      Frozen orbitals                            0
      Inactive orbitals                          9
      Active orbitals                            9
      RAS1 orbitals                              0
      RAS2 orbitals                              9
      RAS3 orbitals                              0
      Secondary orbitals                       162
      Deleted orbitals                           0
      Number of basis functions                180
--

++    CI expansion specifications:
      ----------------------------

      Number of CSFs                             9
      Number of determinants                     9
      Number of root(s) required                 9
      Root chosen for geometry opt.              9
      CI roots used                              1     2     3     4     5     6     7     8     9
      weights                                0.111 0.111 0.111 0.111 0.111 0.111 0.111 0.111 0.111
      highest root included in the CI            9
      max. size of the explicit Hamiltonian      9
--

++    Optimization specifications:
      ----------------------------

      RASSCF algorithm: Conventional
      Maximum number of macro iterations       200
      Maximum number of SX iterations          100
      Threshold for RASSCF energy            0.100E-07
      Threshold for max MO rotation          0.100E+00
      Threshold for max BLB element          0.100E-03
      Level shift parameter                  0.500E+00
      Make Quasi-Newton update
--

      The MO-coefficients are taken from the file:
      INPORB                                                                                                                          
      Title: SCF orbitals                                                                  

      Total molecular charge    5.00

      ************************************************************************************************************************
      *                                                                                                                      *
      *                                            Wave function control section                                             *
      *                                                                                                                      *
      ************************************************************************************************************************


                                         RASSCF iterations: Energy and convergence statistics
                                         ----------------------------------------------------

      Iter CI   SX   CI       RASSCF       Energy    max ROT     max BLB   max BLB  Level Ln srch  Step   QN   Walltime
          iter iter root      energy       change     param      element    value   shift minimum  type update hh:mm:ss
 Nr of preliminary CI iterations:   1
      Total energies have been shifted. Add                -1000.00 au
        1   1    6    0   -48.20175339    0.00E+00  -0.18E-01    9  18 1  0.13E+00*  0.00   0.00    SX    NO    0:00:06
        2   1    6    0   -48.21680736   -0.15E-01*  0.13E-01    9 128 1 -0.23E-01*  0.00   0.00    SX    NO    0:00:03
        3   1    6    0   -48.21716523   -0.36E-03*  0.96E-02    5 171 1  0.43E-02*  0.00   0.00    SX    NO    0:00:03
        4   1    6    0   -48.21720315   -0.38E-04* -0.74E-02    6 111 1  0.17E-02*  0.00   0.00    SX    NO    0:00:03
        5   1    6    0   -48.21721236   -0.92E-05* -0.30E-02    6 111 1 -0.75E-03*  0.00   0.59    LS   YES    0:00:03
        6   1    5    0   -48.21722045   -0.81E-05* -0.38E-03    9 128 1 -0.25E-03*  0.00   1.01    QN   YES    0:00:03
        7   1    5    0   -48.21722080   -0.36E-06* -0.20E-03    6 111 1 -0.92E-04   0.00   0.84    QN   YES    0:00:03
        8   1    4    0   -48.21722090   -0.99E-07* -0.86E-04    7 126 1  0.44E-04   0.00   1.11    QN   YES    0:00:03
        9   1    4    0   -48.21722091   -0.69E-08  -0.29E-04    7 126 1 -0.13E-04   0.00   0.79    QN   YES    0:00:03
      Convergence after  9 iterations
       10   1    4    0   -48.21722091   -0.13E-08  -0.29E-04    4 170 1 -0.47E-05   0.00   0.79    QN   YES    0:00:03

      ************************************************************************************************************************
                                                      Wave function printout:
                       occupation of active orbitals, and spin coupling of open shells (u,d: Spin up or down)
      ************************************************************************************************************************

      Note: transformation to natural orbitals
      has been made, which may change the order of the CSFs.

      printout of CI-coefficients larger than  0.05 for root  1
      energy=   -1048.783544
      conf/sym  111111111     Coeff  Weight
             1  u00000000   0.55779 0.31113
             3  00u000000  -0.49979 0.24979
             4  000u00000  -0.17476 0.03054
             5  0000u0000  -0.31085 0.09663
             7  000000u00  -0.26990 0.07285
             8  0000000u0   0.45486 0.20690
             9  00000000u   0.17488 0.03058

      printout of CI-coefficients larger than  0.05 for root  2
      energy=   -1048.783544
      conf/sym  111111111     Coeff  Weight
             2  0u0000000   0.70733 0.50032
             6  00000u000  -0.70570 0.49801

      printout of CI-coefficients larger than  0.05 for root  3
      energy=   -1048.778034
      conf/sym  111111111     Coeff  Weight
             1  u00000000   0.46334 0.21468
             3  00u000000   0.66342 0.44013
             4  000u00000  -0.05054 0.00255
             5  0000u0000  -0.18352 0.03368
             6  00000u000  -0.05236 0.00274
             7  000000u00   0.47722 0.22774
             8  0000000u0   0.27547 0.07588
             9  00000000u   0.05083 0.00258

      printout of CI-coefficients larger than  0.05 for root  4
      energy=   -1048.778034
      conf/sym  111111111     Coeff  Weight
             1  u00000000   0.29082 0.08458
             3  00u000000  -0.15722 0.02472
             4  000u00000   0.66510 0.44235
             7  000000u00   0.06606 0.00436
             9  00000000u  -0.66426 0.44124

      printout of CI-coefficients larger than  0.05 for root  5
      energy=   -1048.776375
      conf/sym  111111111     Coeff  Weight
             1  u00000000   0.27330 0.07469
             2  0u0000000  -0.25367 0.06435
             3  00u000000  -0.06633 0.00440
             5  0000u0000   0.87214 0.76062
             6  00000u000  -0.26241 0.06886
             8  0000000u0   0.15378 0.02365

      printout of CI-coefficients larger than  0.05 for root  6
      energy=   -1047.733345
      conf/sym  111111111     Coeff  Weight
             1  u00000000   0.13088 0.01713
             2  0u0000000   0.65217 0.42532
             3  00u000000   0.05747 0.00330
             5  0000u0000   0.32612 0.10636
             6  00000u000   0.64786 0.41973
             7  000000u00  -0.09030 0.00815
             8  0000000u0   0.14057 0.01976

      printout of CI-coefficients larger than  0.05 for root  7
      energy=   -1047.456836
      conf/sym  111111111     Coeff  Weight
             1  u00000000   0.16315 0.02662
             2  0u0000000   0.09758 0.00952
             3  00u000000  -0.48526 0.23548
             4  000u00000  -0.13378 0.01790
             6  00000u000   0.09503 0.00903
             7  000000u00   0.72615 0.52729
             8  0000000u0  -0.39514 0.15613
             9  00000000u   0.13424 0.01802

      printout of CI-coefficients larger than  0.05 for root  8
      energy=   -1047.456836
      conf/sym  111111111     Coeff  Weight
             1  u00000000  -0.51962 0.27000
             3  00u000000  -0.20443 0.04179
             4  000u00000   0.07673 0.00589
             7  000000u00   0.39774 0.15820
             8  0000000u0   0.71938 0.51751
             9  00000000u  -0.07721 0.00596

      printout of CI-coefficients larger than  0.05 for root  9
      energy=   -1047.408440
      conf/sym  111111111     Coeff  Weight
             4  000u00000   0.70681 0.49958
             9  00000000u   0.70740 0.50042

      Natural orbitals and occupation numbers for root  1
      sym 1:   1.000000   0.000000  -0.000000  -0.000000   0.000000  -0.000000   0.000000   0.000000   0.000000

      Natural orbitals and occupation numbers for root  2
      sym 1:  -0.000000   1.000000   0.000000   0.000000   0.000000   0.000000   0.000000   0.000000  -0.000000

      Natural orbitals and occupation numbers for root  3
      sym 1:  -0.000000   0.000000   1.000000  -0.000000   0.000000  -0.000000   0.000000   0.000000   0.000000

      Natural orbitals and occupation numbers for root  4
      sym 1:  -0.000000  -0.000000   0.000000   1.000000  -0.000000   0.000000  -0.000000   0.000000   0.000000

      Natural orbitals and occupation numbers for root  5
      sym 1:   0.000000   0.000000  -0.000000  -0.000000   1.000000   0.000000   0.000000  -0.000000  -0.000000

      Natural orbitals and occupation numbers for root  6
      sym 1:  -0.000000   1.000000   0.000000  -0.000000   0.000000  -0.000000  -0.000000  -0.000000  -0.000000

      Natural orbitals and occupation numbers for root  7
      sym 1:  -0.000000  -0.000000   0.000000   0.000000   0.000000  -0.000000   1.000000   0.000000   0.000000

      Natural orbitals and occupation numbers for root  8
      sym 1:   0.000000   0.000000   0.000000  -0.000000   0.000000  -0.000000  -0.000000   1.000000   0.000000

      Natural orbitals and occupation numbers for root  9
      sym 1:   0.000000  -0.000000   0.000000  -0.000000  -0.000000   0.000000  -0.000000   0.000000   1.000000

      ************************************************************************************************************************
      *                                                                                                                      *
      *                                                    Final results                                                     *
      *                                                                                                                      *
      ************************************************************************************************************************


++    Wave function specifications:
      -----------------------------

      Number of closed shell electrons          18
      Number of electrons in active shells       1
      Max number of holes in RAS1 space          0
      Max nr of electrons in RAS3 space          0
      Number of inactive orbitals                9
      Number of active orbitals                  9
      Number of secondary orbitals             162
      Spin quantum number                      0.5
      State symmetry                             1
--

++    Orbital specifications:
      -----------------------

      Symmetry species                           1
                                                 a
      Frozen orbitals                            0
      Inactive orbitals                          9
      Active orbitals                            9
      RAS1 orbitals                              0
      RAS2 orbitals                              9
      RAS3 orbitals                              0
      Secondary orbitals                       162
      Deleted orbitals                           0
      Number of basis functions                180
--

++    CI expansion specifications:
      ----------------------------

      Number of CSFs                             9
      Number of determinants                     9
      Number of root(s) required                 9
      CI roots used                              1     2     3     4     5     6     7     8     9
      weights                                0.111 0.111 0.111 0.111 0.111 0.111 0.111 0.111 0.111
      highest root included in the CI            9
      Root passed to geometry opt.               9
--

++    Final optimization conditions:
      ------------------------------

      Average CI energy                           -1048.21722091
      RASSCF energy for state  9                  -1047.40844041
      Super-CI energy                                -0.00000000
      RASSCF energy change                           -0.00000000
      Max change in MO coefficients              -0.250E-04
      Max non-diagonal density matrix element    -0.290E-04
      Maximum BLB matrix element                 -0.470E-05
      (orbital pair   4, 170 in symmetry   1)
      Norm of electronic gradient            0.350E+00
--


      Final state energy(ies):
      ------------------------

::    RASSCF root number  1 Total energy:  -1048.78354361
::    RASSCF root number  2 Total energy:  -1048.78354361
::    RASSCF root number  3 Total energy:  -1048.77803447
::    RASSCF root number  4 Total energy:  -1048.77803447
::    RASSCF root number  5 Total energy:  -1048.77637513
::    RASSCF root number  6 Total energy:  -1047.73334475
::    RASSCF root number  7 Total energy:  -1047.45683588
::    RASSCF root number  8 Total energy:  -1047.45683587
::    RASSCF root number  9 Total energy:  -1047.40844041

++    Molecular orbitals:
      -------------------

      Pseudonatural active orbitals and approximate occupation numbers




      Molecular orbitals for symmetry species 1: a  


      Orbital                 1         2         3         4         5         6         7         8         9        10
      Energy          -224.4333  -29.1034  -24.7281  -24.7281  -24.7279   -5.5187   -4.1517   -4.1517   -4.1462    0.0000
      Occ. No.           2.0000    2.0000    2.0000    2.0000    2.0000    2.0000    2.0000    2.0000    2.0000    0.1111

     1 CR     1s         1.0000   -0.0001    0.0000   -0.0000   -0.0000    0.0001   -0.0000   -0.0000    0.0000    0.0000
     2 CR     2s         0.0001    1.0000    0.0000   -0.0000   -0.0002    0.0015    0.0000   -0.0000   -0.0001    0.0000
     3 CR     3s        -0.0001   -0.0015   -0.0000    0.0000    0.0001    0.9968    0.0000   -0.0000   -0.0068   -0.0091
     4 CR     4s         0.0000   -0.0000    0.0000   -0.0000   -0.0000   -0.0431   -0.0000    0.0000    0.0016   -0.1020
     5 CR     5s        -0.0000   -0.0002   -0.0000    0.0000    0.0000    0.0612    0.0000    0.0000   -0.0023    0.0797
     6 CR     6s         0.0000    0.0002    0.0000    0.0000   -0.0000   -0.0238   -0.0000   -0.0000    0.0008    0.0010
     7 CR     7s        -0.0000   -0.0000    0.0000    0.0000    0.0000   -0.0085   -0.0000   -0.0000    0.0004   -0.0190
     8 CR     8s         0.0000   -0.0001    0.0000   -0.0000   -0.0000    0.0057    0.0000    0.0000   -0.0002    0.0002
     9 CR     9s        -0.0001    0.0002    0.0000   -0.0000   -0.0000    0.0020    0.0000    0.0000   -0.0001    0.0034
    10 CR    10s         0.0001   -0.0002   -0.0000   -0.0000    0.0000    0.0004    0.0000    0.0000   -0.0000    0.0004
    11 CR     2px       -0.0000   -0.0000    0.9969   -0.0785   -0.0000    0.0000    0.0024   -0.0000   -0.0000    0.0000
    12 CR     3px        0.0000   -0.0000   -0.0024    0.0002    0.0000   -0.0000    0.9935   -0.0011   -0.0000   -0.0180
    13 CR     4px        0.0000    0.0000    0.0003   -0.0000   -0.0000   -0.0000   -0.0782    0.0001    0.0000   -0.1395
    14 CR     5px        0.0000   -0.0000   -0.0005    0.0000    0.0000    0.0000    0.0807   -0.0001   -0.0000    0.0630
    15 CR     6px       -0.0000    0.0000    0.0001   -0.0000   -0.0000   -0.0000    0.0005   -0.0000   -0.0000    0.0295
    16 CR     7px        0.0000   -0.0000    0.0001   -0.0000   -0.0000    0.0000   -0.0146    0.0000    0.0000   -0.0224
    17 CR     8px       -0.0000    0.0000   -0.0002    0.0000    0.0000    0.0000    0.0016   -0.0000   -0.0000   -0.0108
    18 CR     9px        0.0000   -0.0000    0.0003   -0.0000   -0.0000   -0.0000    0.0037   -0.0000   -0.0000    0.0043
    19 CR    10px       -0.0000    0.0000   -0.0002    0.0000    0.0000   -0.0000    0.0004   -0.0000   -0.0000    0.0032
    20 CR    11px        0.0000   -0.0000    0.0002   -0.0000   -0.0000   -0.0000   -0.0003    0.0000    0.0000    0.0005
    21 CR     2py       -0.0000    0.0000    0.0785    0.9969   -0.0000   -0.0000    0.0000    0.0024   -0.0000    0.0001
    22 CR     3py        0.0000    0.0000   -0.0002   -0.0024    0.0000   -0.0000    0.0011    0.9935   -0.0000   -0.0554
    23 CR     4py       -0.0000   -0.0000    0.0000    0.0003   -0.0000   -0.0000   -0.0001   -0.0782    0.0000   -0.4465
    24 CR     5py       -0.0000    0.0000   -0.0000   -0.0005    0.0000   -0.0000    0.0001    0.0807   -0.0000    0.2027
    25 CR     6py        0.0000   -0.0000    0.0000    0.0001   -0.0000    0.0000    0.0000    0.0005    0.0000    0.0940
    26 CR     7py        0.0000    0.0000    0.0000    0.0001    0.0000    0.0000   -0.0000   -0.0146    0.0000   -0.0717
    27 CR     8py       -0.0000   -0.0000   -0.0000   -0.0002    0.0000    0.0000    0.0000    0.0016    0.0000   -0.0342
    28 CR     9py        0.0000    0.0000    0.0000    0.0003   -0.0000    0.0000    0.0000    0.0037   -0.0000    0.0137
    29 CR    10py        0.0000    0.0000   -0.0000   -0.0002    0.0000    0.0000    0.0000    0.0004    0.0000    0.0102
    30 CR    11py        0.0000   -0.0000    0.0000    0.0002   -0.0000   -0.0000   -0.0000   -0.0003    0.0000    0.0017
    31 CR     2pz        0.0000    0.0002    0.0000   -0.0000    1.0000   -0.0000    0.0000   -0.0000    0.0024   -0.0000
    32 CR     3pz       -0.0000    0.0000   -0.0000    0.0000   -0.0024    0.0071    0.0000   -0.0000    0.9934   -0.0019
    33 CR     4pz        0.0000   -0.0000    0.0000   -0.0000    0.0003    0.0000   -0.0000    0.0000   -0.0792   -0.0138
    34 CR     5pz       -0.0000    0.0000   -0.0000    0.0000   -0.0005   -0.0004    0.0000   -0.0000    0.0817    0.0054
    35 CR     6pz        0.0000   -0.0000    0.0000   -0.0000    0.0001    0.0002    0.0000   -0.0000    0.0005    0.0033
    36 CR     7pz       -0.0000    0.0000    0.0000   -0.0000    0.0001   -0.0001   -0.0000    0.0000   -0.0148   -0.0020
    37 CR     8pz        0.0000   -0.0000   -0.0000    0.0000   -0.0002   -0.0000    0.0000    0.0000    0.0016   -0.0013
    38 CR     9pz       -0.0000    0.0000    0.0000   -0.0000    0.0003    0.0000    0.0000   -0.0000    0.0038    0.0002
    39 CR    10pz        0.0000   -0.0000   -0.0000    0.0000   -0.0002    0.0000    0.0000   -0.0000    0.0004    0.0002
    40 CR    11pz       -0.0000    0.0000    0.0000   -0.0000    0.0002    0.0000   -0.0000    0.0000   -0.0003    0.0000
    41 CR     3d2-       0.0000    0.0000    0.0000    0.0000   -0.0000    0.0000    0.0000    0.0017   -0.0000    0.0553
    42 CR     4d2-      -0.0000    0.0000   -0.0000   -0.0000    0.0000    0.0000    0.0000    0.0001   -0.0000   -0.0554
    43 CR     5d2-      -0.0000   -0.0000   -0.0000   -0.0000    0.0000   -0.0000   -0.0000   -0.0003   -0.0000   -0.0048
    44 CR     6d2-       0.0000   -0.0000    0.0000    0.0000   -0.0000   -0.0000   -0.0000   -0.0000   -0.0000    0.0047
    45 CR     7d2-      -0.0000    0.0000   -0.0000   -0.0000    0.0000   -0.0000    0.0000    0.0001    0.0000    0.0059
    46 CR     8d2-      -0.0000   -0.0000    0.0000    0.0000    0.0000    0.0000    0.0000    0.0001    0.0000    0.0002
    47 CR     9d2-      -0.0000    0.0000   -0.0000   -0.0000    0.0000    0.0000   -0.0000   -0.0000    0.0000   -0.0021
    48 CR    10d2-      -0.0000    0.0000    0.0000    0.0000    0.0000    0.0000   -0.0000   -0.0000    0.0000   -0.0006
    49 CR     3d1-      -0.0000   -0.0000    0.0000    0.0000   -0.0000    0.0000    0.0000    0.0059   -0.0000    0.4143
    50 CR     4d1-       0.0000    0.0000   -0.0000   -0.0000    0.0000    0.0000   -0.0000   -0.0006   -0.0000   -0.2174
    51 CR     5d1-      -0.0000   -0.0000    0.0000    0.0000   -0.0000    0.0000   -0.0000   -0.0009   -0.0000   -0.0046
    52 CR     6d1-       0.0000   -0.0000   -0.0000   -0.0000    0.0000    0.0000    0.0000    0.0002   -0.0000    0.0158
    53 CR     7d1-       0.0000    0.0000   -0.0000   -0.0000    0.0000    0.0000    0.0000    0.0002    0.0000    0.0156
    54 CR     8d1-       0.0000   -0.0000    0.0000    0.0000    0.0000    0.0000    0.0000    0.0000    0.0000   -0.0028
    55 CR     9d1-      -0.0000   -0.0000    0.0000    0.0000    0.0000    0.0000   -0.0000   -0.0001    0.0000   -0.0054
    56 CR    10d1-      -0.0000    0.0000   -0.0000   -0.0000    0.0000    0.0000   -0.0000   -0.0000    0.0000   -0.0011
    57 CR     3d0       -0.0000   -0.0000    0.0000   -0.0000    0.0000   -0.0013    0.0000   -0.0000    0.0021    0.2581
    58 CR     4d0        0.0000    0.0000   -0.0000    0.0000   -0.0000    0.0001   -0.0000    0.0000   -0.0010   -0.0874
    59 CR     5d0       -0.0000   -0.0000    0.0000   -0.0000    0.0000    0.0003   -0.0000    0.0000   -0.0003    0.0023
    60 CR     6d0        0.0000    0.0000   -0.0000    0.0000   -0.0000   -0.0001    0.0000   -0.0000    0.0003    0.0046
    61 CR     7d0       -0.0000   -0.0000    0.0000    0.0000    0.0000   -0.0001    0.0000   -0.0000    0.0001    0.0036
    62 CR     8d0       -0.0000    0.0000   -0.0000    0.0000   -0.0000    0.0000   -0.0000   -0.0000   -0.0001   -0.0019
    63 CR     9d0        0.0000   -0.0000    0.0000   -0.0000    0.0000    0.0000   -0.0000   -0.0000   -0.0001   -0.0010
    64 CR    10d0        0.0000   -0.0000   -0.0000    0.0000   -0.0000    0.0000   -0.0000   -0.0000   -0.0000   -0.0000
[...]
   16         1.326708       7 0.5  1.0000    9 0.5  0.0000    8 0.5  0.0000    6 0.5  0.0000    5 0.5  0.0000
   17         1.375103       9 0.5  1.0000    8 0.5  0.0000    7 0.5  0.0000    6 0.5  0.0000    5 0.5  0.0000
   18         1.375103       9 0.5  1.0000    8 0.5  0.0000    7 0.5  0.0000    6 0.5  0.0000    5 0.5  0.0000
 -------------------------------------------------------------------------------------------------------


      ****************************************************************************************************
      *                                                                                                  *
      *                                    Special properties section                                    *
      *                                                                                                  *
      ****************************************************************************************************


++ Dipole transition strengths (SO states):
   ----------------------------------------
    for osc. strength at least    1.0000000000000001E-005

      From   To        Osc. strength     Einstein coefficients Ax, Ay, Az (sec-1)    Total A (sec-1)
     -----------------------------------------------------------------------------------------------
         1   13       4.11127641E-02  2.20089715E+09  8.24645406E+03  1.24167477E+08  2.32507288E+09
         1   15       3.89171915E-02  8.24645346E+03  2.20089714E+09  6.25686185E+01  2.20090545E+09
         1   17       2.97317691E-03  3.16059861E+02  1.80634188E+08  1.03068472E-11  1.80634504E+08
         2   14       4.11127641E-02  2.20089715E+09  8.24645406E+03  1.24167477E+08  2.32507288E+09
         2   16       3.89171915E-02  8.24645346E+03  2.20089714E+09  6.25686185E+01  2.20090545E+09
         2   18       2.97317691E-03  3.16059861E+02  1.80634188E+08  1.03068472E-11  1.80634504E+08
         3   13       3.89171912E-02  8.24645355E+03  2.20089712E+09  6.25686829E+01  2.20090543E+09
         3   15       4.11127644E-02  2.20089714E+09  8.24645350E+03  1.24167504E+08  2.32507289E+09
         3   17       2.97317707E-03  1.80634197E+08  3.16060099E+02  1.14004402E-08  1.80634514E+08
         4   14       3.89171912E-02  8.24645355E+03  2.20089712E+09  6.25686829E+01  2.20090543E+09
         4   16       4.11127644E-02  2.20089714E+09  8.24645350E+03  1.24167504E+08  2.32507289E+09
         4   18       2.97317707E-03  1.80634197E+08  3.16060099E+02  1.14004402E-08  1.80634514E+08
         5   11       1.38664495E-03  4.86235987E+07  2.45131434E+02  3.07173742E-09  4.86238438E+07
         5   13       1.65355449E-03  2.47081274E+02  9.27231068E+07  1.60055465E+04  9.27393594E+07
         5   15       3.65860858E-02  9.27231231E+07  2.47081322E+02  1.95920184E+09  2.05192521E+09
         5   17       3.98343530E-02  2.40075964E+09  1.21032111E+04  8.50660643E-07  2.40077175E+09
         6   12       1.38664495E-03  4.86235987E+07  2.45131434E+02  3.07173742E-09  4.86238438E+07
         6   14       1.65355449E-03  2.47081274E+02  9.27231068E+07  1.60055465E+04  9.27393594E+07
         6   16       3.65860858E-02  9.27231231E+07  2.47081322E+02  1.95920184E+09  2.05192521E+09
         6   18       3.98343530E-02  2.40075964E+09  1.21032111E+04  8.50660643E-07  2.40077175E+09
         7   11       1.38664493E-03  2.45131441E+02  4.86235979E+07  8.87915347E-16  4.86238430E+07
         7   13       3.65860858E-02  9.27230962E+07  2.47081470E+02  1.95920187E+09  2.05192522E+09
         7   15       1.65355446E-03  2.47081684E+02  9.27231051E+07  1.60055460E+04  9.27393577E+07
         7   17       3.98343533E-02  1.21032106E+04  2.40075966E+09  3.83741900E-11  2.40077176E+09
         8   12       1.38664493E-03  2.45131441E+02  4.86235979E+07  8.87915347E-16  4.86238430E+07
         8   14       3.65860858E-02  9.27230962E+07  2.47081470E+02  1.95920187E+09  2.05192522E+09
         8   16       1.65355446E-03  2.47081684E+02  9.27231051E+07  1.60055460E+04  9.27393577E+07
         8   18       3.98343533E-02  1.21032106E+04  2.40075966E+09  3.83741900E-11  2.40077176E+09
         9   11       1.00544158E-04  1.22255200E-08  2.97769960E-13  3.51447237E+06  3.51447237E+06
         9   13       1.54341259E-02  3.24359151E+02  8.63447391E+08  5.66238255E-12  8.63447715E+08
         9   15       1.54341254E-02  8.63447362E+08  3.24359422E+02  3.40423288E-07  8.63447687E+08
         9   17       4.78222893E-02  7.05657049E-07  8.77582576E-12  2.87521606E+09  2.87521606E+09
        10   12       1.00544158E-04  1.22255200E-08  2.97769960E-13  3.51447237E+06  3.51447237E+06
        10   14       1.54341259E-02  3.24359151E+02  8.63447391E+08  5.66238255E-12  8.63447715E+08
        10   16       1.54341254E-02  8.63447362E+08  3.24359422E+02  3.40423288E-07  8.63447687E+08
        10   18       4.78222893E-02  7.05657049E-07  8.77582576E-12  2.87521606E+09  2.87521606E+09
        11   13       2.93782893E-01  2.71109253E+02  7.21695301E+08  2.32400352E-14  7.21695572E+08
        11   15       2.93782893E-01  7.21695302E+08  2.71109252E+02  6.68583456E-08  7.21695573E+08
        11   17       2.86190817E-01  1.00672083E-07  4.77035659E-17  9.70680070E+08  9.70680070E+08
        12   14       2.93782893E-01  2.71109253E+02  7.21695301E+08  2.32400352E-14  7.21695572E+08
        12   16       2.93782893E-01  7.21695302E+08  2.71109252E+02  6.68583456E-08  7.21695573E+08
        12   18       2.86190817E-01  1.00672083E-07  4.77035659E-17  9.70680070E+08  9.70680070E+08
     -----------------------------------------------------------------------------------------------
--

++ Velocity transition strengths (SO states):
   ------------------------------------------
    for osc. strength at least    1.0000000000000001E-005

      From   To        Osc. strength     Einstein coefficients Ax, Ay, Az (sec-1)    Total A (sec-1)
     -----------------------------------------------------------------------------------------------
         1    5       3.61117087E-05  2.99702756E-05  3.52148326E+01  1.24043690E-06  3.52148638E+01
         1    7       3.62116208E-05  3.52148322E+01  2.99702485E-05  9.74324246E-02  3.53122945E+01
         1   13       3.64646771E-02  1.95196818E+09  7.31375200E+03  1.10238719E+08  2.06221422E+09
         1   15       3.45154045E-02  7.31375146E+03  1.95196817E+09  5.55498474E+01  1.95197554E+09
         1   17       2.64744078E-03  2.81433868E+02  1.60844777E+08  8.93958401E-12  1.60845058E+08
         2    6       3.61117087E-05  2.99702756E-05  3.52148326E+01  1.24043690E-06  3.52148638E+01
         2    8       3.62116208E-05  3.52148322E+01  2.99702485E-05  9.74324246E-02  3.53122945E+01
         2   14       3.64646771E-02  1.95196818E+09  7.31375200E+03  1.10238719E+08  2.06221422E+09
         2   16       3.45154045E-02  7.31375146E+03  1.95196817E+09  5.55498474E+01  1.95197554E+09
         2   18       2.64744078E-03  2.81433868E+02  1.60844777E+08  8.93958401E-12  1.60845058E+08
         3    5       3.62116214E-05  3.52148330E+01  2.99702626E-05  9.74322169E-02  3.53122952E+01
         3    7       3.61117069E-05  2.99702609E-05  3.52148309E+01  1.24043605E-06  3.52148621E+01
         3   13       3.45154043E-02  7.31375155E+03  1.95196816E+09  5.55499042E+01  1.95197553E+09
         3   15       3.64646774E-02  1.95196817E+09  7.31375150E+03  1.10238743E+08  2.06221423E+09
         3   17       2.64744092E-03  1.60844786E+08  2.81434077E+02  9.97029519E-09  1.60845067E+08
         4    6       3.62116214E-05  3.52148330E+01  2.99702626E-05  9.74322169E-02  3.53122952E+01
         4    8       3.61117069E-05  2.99702609E-05  3.52148309E+01  1.24043605E-06  3.52148621E+01
         4   14       3.45154043E-02  7.31375155E+03  1.95196816E+09  5.55499042E+01  1.95197553E+09
         4   16       3.64646774E-02  1.95196817E+09  7.31375150E+03  1.10238743E+08  2.06221423E+09
         4   18       2.64744092E-03  1.60844786E+08  2.81434077E+02  9.97029519E-09  1.60845067E+08
         5    9       4.17554854E-04  3.69394948E+01  1.86227099E-04  2.29548780E-14  3.69396810E+01
         5   11       1.20800182E-03  4.23595095E+07  2.13551601E+02  2.70099182E-09  4.23597231E+07
         5   13       1.46280820E-03  2.18579830E+02  8.20272644E+07  1.41840975E+04  8.20416671E+07
         5   15       3.24198710E-02  8.20272788E+07  2.18579873E+02  1.73624250E+09  1.81826999E+09
         5   17       3.53962830E-02  2.13329091E+09  1.07547918E+04  7.54194904E-07  2.13330166E+09
         6   10       4.17554854E-04  3.69394948E+01  1.86227099E-04  2.29548780E-14  3.69396810E+01
         6   12       1.20800182E-03  4.23595095E+07  2.13551601E+02  2.70099182E-09  4.23597231E+07
         6   14       1.46280820E-03  2.18579830E+02  8.20272644E+07  1.41840975E+04  8.20416671E+07
         6   16       3.24198710E-02  8.20272788E+07  2.18579873E+02  1.73624250E+09  1.81826999E+09
         6   18       3.53962830E-02  2.13329091E+09  1.07547918E+04  7.54194904E-07  2.13330166E+09
         7    9       4.17554860E-04  1.86227094E-04  3.69394954E+01  1.69788902E-19  3.69396816E+01
         7   11       1.20800180E-03  2.13551606E+02  4.23595088E+07  3.26922575E-17  4.23597224E+07
         7   13       3.24198710E-02  8.20272551E+07  2.18580005E+02  1.73624252E+09  1.81827000E+09
         7   15       1.46280817E-03  2.18580193E+02  8.20272628E+07  1.41840971E+04  8.20416655E+07
         7   17       3.53962832E-02  1.07547914E+04  2.13329092E+09  3.45034982E-11  2.13330167E+09
         8   10       4.17554860E-04  1.86227094E-04  3.69394954E+01  1.69788902E-19  3.69396816E+01
         8   12       1.20800180E-03  2.13551606E+02  4.23595088E+07  3.26922575E-17  4.23597224E+07
         8   14       3.24198710E-02  8.20272551E+07  2.18580005E+02  1.73624252E+09  1.81827000E+09
         8   16       1.46280817E-03  2.18580193E+02  8.20272628E+07  1.41840971E+04  8.20416655E+07
         8   18       3.53962832E-02  1.07547914E+04  2.13329092E+09  3.45034982E-11  2.13330167E+09
         9   11       8.53331790E-05  1.06071993E-08  2.83445744E-13  2.98279032E+06  2.98279032E+06
         9   13       1.37695701E-02  2.89378329E+02  7.70328086E+08  5.02409571E-12  7.70328376E+08
         9   15       1.37695696E-02  7.70328060E+08  2.89378572E+02  3.03161593E-07  7.70328350E+08
         9   17       4.22821059E-02  6.25226492E-07  7.87607126E-12  2.54213285E+09  2.54213285E+09
        10   12       8.53331790E-05  1.06071993E-08  2.83445744E-13  2.98279032E+06  2.98279032E+06
        10   14       1.37695701E-02  2.89378329E+02  7.70328086E+08  5.02409571E-12  7.70328376E+08
        10   16       1.37695696E-02  7.70328060E+08  2.89378572E+02  3.03161593E-07  7.70328350E+08
        10   18       4.22821059E-02  6.25226492E-07  7.87607126E-12  2.54213285E+09  2.54213285E+09
        11   13       3.24141412E-01  2.99125795E+02  7.96275593E+08  2.42745159E-14  7.96275892E+08
        11   15       3.24141412E-01  7.96275592E+08  2.99125795E+02  7.57247037E-08  7.96275892E+08
        11   17       3.20473997E-01  1.09202743E-07  4.63280930E-18  1.08696291E+09  1.08696291E+09
        12   14       3.24141412E-01  2.99125795E+02  7.96275593E+08  2.42745159E-14  7.96275892E+08
        12   16       3.24141412E-01  7.96275592E+08  2.99125795E+02  7.57247037E-08  7.96275892E+08
        12   18       3.20473997E-01  1.09202743E-07  4.63280930E-18  1.08696291E+09  1.08696291E+09
        13   17       1.58731904E-04  4.48719405E-03  1.19449500E+04  1.61626850E-17  1.19449545E+04
        14   18       1.58731904E-04  4.48719405E-03  1.19449500E+04  1.61626850E-17  1.19449545E+04
        15   17       1.58731912E-04  1.19449506E+04  4.48719324E-03  2.39738274E-11  1.19449551E+04
        16   18       1.58731912E-04  1.19449506E+04  4.48719324E-03  2.39738274E-11  1.19449551E+04
     -----------------------------------------------------------------------------------------------
--

++ Length and velocity gauge comparison (SO states):

 --------------------------------------------------
 A comparison between the dipole oscillator strengths in 
 length and velocity gauge will be performed

 All dipole oscillator differences above the tolerance of   0.10000000000000001       will be printed 

 Due to basis set deficiency these oscillator may be problematic 

 The tolerance is defined as ABS(1-O_l/O_v) 
 O_l : dipole oscillator strength in length gauge
 O_p : dipole oscillator strength in velocity gauge
 --------------------------------------------------

  Problematic transitions have been found

      From   To       Difference (%) Osc. st. (len.) Osc. st. (vel.)
     ---------------------------------------------------------------
         1    5      --------------- below threshold  3.61117087E-05
         1    7      --------------- below threshold  3.62116208E-05
         1   13            12.746821  4.11127641E-02  3.64646771E-02
         1   15            12.753109  3.89171915E-02  3.45154045E-02
         1   17            12.303812  2.97317691E-03  2.64744078E-03
         2    6      --------------- below threshold  3.61117087E-05
         2    8      --------------- below threshold  3.62116208E-05
         2   14            12.746821  4.11127641E-02  3.64646771E-02
         2   16            12.753109  3.89171915E-02  3.45154045E-02
         2   18            12.303812  2.97317691E-03  2.64744078E-03
         3    5      --------------- below threshold  3.62116214E-05
         3    7      --------------- below threshold  3.61117069E-05
         3   13            12.753109  3.89171912E-02  3.45154043E-02
         3   15            12.746821  4.11127644E-02  3.64646774E-02
         3   17            12.303812  2.97317707E-03  2.64744092E-03
         4    6      --------------- below threshold  3.62116214E-05
         4    8      --------------- below threshold  3.61117069E-05
         4   14            12.753109  3.89171912E-02  3.45154043E-02
         4   16            12.746821  4.11127644E-02  3.64646774E-02
         4   18            12.303812  2.97317707E-03  2.64744092E-03
         5    9      --------------- below threshold  4.17554854E-04
         5   11            14.788316  1.38664495E-03  1.20800182E-03
         5   13            13.039734  1.65355449E-03  1.46280820E-03
         5   15            12.850806  3.65860858E-02  3.24198710E-02
         5   17            12.538238  3.98343530E-02  3.53962830E-02
         6   10      --------------- below threshold  4.17554854E-04
         6   12            14.788316  1.38664495E-03  1.20800182E-03
         6   14            13.039734  1.65355449E-03  1.46280820E-03
         6   16            12.850806  3.65860858E-02  3.24198710E-02
         6   18            12.538238  3.98343530E-02  3.53962830E-02
         7    9      --------------- below threshold  4.17554860E-04
         7   11            14.788316  1.38664493E-03  1.20800180E-03
         7   13            12.850806  3.65860858E-02  3.24198710E-02
         7   15            13.039734  1.65355446E-03  1.46280817E-03
         7   17            12.538238  3.98343533E-02  3.53962832E-02
         8   10      --------------- below threshold  4.17554860E-04
         8   12            14.788316  1.38664493E-03  1.20800180E-03
         8   14            12.850806  3.65860858E-02  3.24198710E-02
         8   16            13.039734  1.65355446E-03  1.46280817E-03
         8   18            12.538238  3.98343533E-02  3.53962832E-02
         9   11            17.825399  1.00544158E-04  8.53331790E-05
         9   13            12.088655  1.54341259E-02  1.37695701E-02
         9   15            12.088655  1.54341254E-02  1.37695696E-02
         9   17            13.102903  4.78222893E-02  4.22821059E-02
        10   12            17.825399  1.00544158E-04  8.53331790E-05
        10   14            12.088655  1.54341259E-02  1.37695701E-02
        10   16            12.088655  1.54341254E-02  1.37695696E-02
        10   18            13.102903  4.78222893E-02  4.22821059E-02
        11   17            10.697648  2.86190817E-01  3.20473997E-01
        12   18            10.697648  2.86190817E-01  3.20473997E-01
        13   17      --------------- below threshold  1.58731904E-04
        14   18      --------------- below threshold  1.58731904E-04
        15   17      --------------- below threshold  1.58731912E-04
        16   18      --------------- below threshold  1.58731912E-04
     ---------------------------------------------------------------

 Number of problematic transitions =                    54

--

 Electric-dipole - electric-octupole not included
++ I/O STATISTICS
 
  I. General I/O information
  - - - - - - - - - - - - - - - - - - - - - - - - - - - - - - - - - - - - - - - - - - -
  Unit  Name          Flsize      Write/Read            MBytes           Write/Read
                      (MBytes)       Calls              In/Out           Time, sec.
  - - - - - - - - - - - - - - - - - - - - - - - - - - - - - - - - - - - - - - - - - - -
   1  SCRATCH           0.00 .       9/      45 .      0.0/      0.0 .       0/       0
   2  ANNI              0.00 .       0/       0 .      0.0/      0.0 .       0/       0
   3  RUNFILE          14.85 .     322/    9923 .      2.3/     72.0 .       0/       0
   4  ONEINT            5.58 .       0/   23543 .      0.0/   3739.9 .       0/       0
   5  JOBIPH            6.48 .       0/      92 .      0.0/      0.8 .       0/       0
   6  ORDINT          506.53 .       1/    4053 .      0.0/   1013.0 .       0/       0
  - - - - - - - - - - - - - - - - - - - - - - - - - - - - - - - - - - - - - - - - - - -
   *  TOTAL           533.45 .     332/   37656 .      2.3/   4825.7 .       0/       0
  - - - - - - - - - - - - - - - - - - - - - - - - - - - - - - - - - - - - - - - - - - -
 
  II. I/O Access Patterns
  - - - - - - - - - - - - - - - - - - - -
  Unit  Name               % of random
                         Write/Read calls
  - - - - - - - - - - - - - - - - - - - -
   1  SCRATCH             88.9/ 100.0
   2  ANNI                 0.0/   0.0
   3  RUNFILE             28.6/  10.8
   4  ONEINT               0.0/  16.4
   5  JOBIPH               0.0/  76.1
   6  ORDINT             100.0/   0.0
  - - - - - - - - - - - - - - - - - - - -
--
--- Stop Module: rassi at Thu Jan  9 00:51:27 2025 /rc=_RC_ALL_IS_WELL_ ---
*** files: xmldump
    saved to directory /home4/s4752295/Internship/Initial_simulations/Point_charge_model/1_electron/active_space_9_non_rel/Cr/varying_bond_length
--- Module rassi spent 3 seconds ---

.##################.
.# Happy landing! #.
.##################.

    Timing: Wall=78.52 User=42.69 System=33.88

###############################################################################
Hbrk Cluster
Job 14530272 for user s4752295
Finished at: Thu Jan  9 00:51:27 CET 2025

Job details:
============

Job ID                         : 14530272
Name                           : Cr_no_c_light
User                           : s4752295
Partition                      : regularmedium
Nodes                          : node99
Number of Nodes                : 1
Cores                          : 1
Number of Tasks                : 1
State                          : RUNNING  
Submit                         : 2025-01-09T00:50:04
Start                          : 2025-01-09T00:50:05
End                            : --
Reserved walltime              : 15:00:00
Used walltime                  : 00:01:22
Used CPU time                  : -- 
% User (Computation)           : --
% System (I/O)                 : --
Total memory reserved          : 25000M
Maximum memory used            : --

Acknowledgements:
=================

Please see this page for information about acknowledging Hbrk in your publications:

https://wiki.hpc.rug.nl/habrok/introduction/scientific_output

################################################################################
