   This run of MOLCAS is using the pymolcas driver

                             OPE
                             OPE          NMOL  CASOP  ENMOLC A   SO
                 OPE        NMOLC        AS  OP EN  MO LC     AS  OP
                OPENM       OL CA        SO  PE NM  OL CA     SOP EN
                OP EN      MO   LC       AS  OP ENMOL  CASO   PENMOL
                OP  EN     MO   LC       AS  OP EN     MO     LC ASO
               OP   E  NMOL  C  AS       OP  EN MO     LC     AS  OP
               OP  E   NMO   LC AS        OPEN  MO     LCASOP EN   M
               O  PEN   MO  LCA  SO
            OPE   NMO   L   CAS    OP
        OPENMOL  CASOP     ENMOL   CASOPE
     OPENMOLCA   SOPENMOLCASOPEN   MOLCASOPE
    OPENMOLCAS   OP           EN   MOL    CAS
    OPENMOLCAS       OP  ENM        O     LCA
    OPENMOLCAS    OPEN  MOLCASO     P  E  NMO
    OPENMOLCAS     OP               E  N  MOL
    OPENMOLCA   SO           PENM   O  L  CAS    OPEN    MO    LCAS
    OPENMOLCA   SOP           ENM   O  L  CAS   OP  EN  MOLC  AS   O
    OPENMOLCA   SOPE           NM      O  LCA   S      OP  EN MO
    OPENMOLC                AS         O  PEN   M      OL  CA  SOPE
    OPENMO        LCASOPE  NMOL        C  ASO   P      ENMOLC     AS
    OPE     NMO      LCA  SO     P     E   NM   OL  CA SO  PE N   MO
          OPENMOLCA            SOPE   NMO        LCAS  O    P  ENMO
     OPENMOLCASOPENMOLCASOPENMOLCASOPENMOLCA
        OPENMOLCASOPENMOLCASOPENMOLCASOPE
            OPENMOLCASOPENMOLCASOPENM
               OPENMOLCASOPENMOLCA        version: o91e1abe7de707b ?
                   OPENMOLCASO
                       OPE                tag:

 OpenMolcas is free software; you can redistribute it and/or modify it
 under the terms of the GNU Lesser General Public License version 2.1.
 OpenMolcas is distributed in the hope that it will be useful, but it
 is provided "as is" and without any express or implied warranties.
 For more details see the full text of the license in the file
 LICENSE or in <http://www.gnu.org/licenses/>.

                 Copyright (C) The OpenMolcas Authors
           For the author list and the recommended citation,
                   consult the file CONTRIBUTORS.md

           *************************************************
           * pymolcas version py2.10                       *
           *   build 3068ae8b88c9345ec6cfef6fef7f1169      *
           *   (after the EMIL interpreter by V. Veryazov) *
           *************************************************

configuration info
------------------
Host name: login1 (Linux)
C Compiler ID: GNU
C flags: -std=gnu99
Fortran Compiler ID: GNU
Fortran flags: -fno-aggressive-loop-optimizations -cpp -fdefault-integer-8 -fmax-stack-var-size=1048576
Definitions: _MOLCAS_;_I8_;_LINUX_;_MKL_
Parallel: OFF (GA=OFF)


   ----------------------------------------------------------------------------------------------------------------------------------------------
  |
  |           Project: chromium_so_cf
  |    Submitted from: /home4/s4752295/Internship/Initial_simulations/Point_charge_model/1_electron/active_space_9_non_rel/Cr/varying_bond_length
  |      Scratch area: /tmp/chromium_so_cf
  |   Save outputs to: /home4/s4752295/Internship/Initial_simulations/Point_charge_model/1_electron/active_space_9_non_rel/Cr/varying_bond_length
  |            Molcas: /home4/s4752295/Internship/Molcas/recomp_try/OpenMolcas-master/build
  |
  | Scratch area is empty
  |
  |    MOLCAS_DRIVER = /home4/s4752295/Internship/Molcas/bin/pymolcas
  |    MOLCAS_NPROCS = 1
  |    MOLCAS_SOURCE = /home4/s4752295/Internship/Molcas/recomp_try/OpenMolcas-master
  | MOLCAS_STRUCTURE = 0
  |
   ----------------------------------------------------------------------------------------------------------------------------------------------

++ ---------   Input file   ---------

&SEWARD
AMFi

CLIG
$R

Basis Set
Cr.ANO-rcc.Roos.21s15p10d6f4g2h.10s10p8d6f4g2h.
Spherical d
Cr            0.0       0.0     0.0
End of Basis

Xfield

4
0.000000,  0.0000,  0.630       -1.0
0.545596,  0.0000, -0.315       -1.0
-0.272798,  0.4725, -0.315      -1.0
-0.272798, -0.4725, -0.315      -1.0

End of input

&SCF
Occupied
9
Iterations
   50  100
End of Input

&RASSCF
LumOrb
Symmetry
1
Spin
2
Nactel
1 0 0
CIRoot
9 9 1
inactive
9
ras2
9
End of Input

>>> COPY chromium_so_cf.JobIph $SLURM_SUBMIT_DIR/chromium_so_cf.doublet.JobIph

>>> COPY $SLURM_SUBMIT_DIR/chromium_so_cf.doublet.JobIph ./JOB002

&RASSI
NROFJobIph
1 All
SpinOrbit
End of Input

EOF

-- ----------------------------------

--- Start Module: seward at Thu Jan  9 20:09:02 2025 ---

()()()()()()()()()()()()()()()()()()()()()()()()()()()()()()()()()()()()()()()()()()()()()()()()()()

                                              &SEWARD

                                   only a single process is used
                       available to each process: 4.1 GB of memory, 1 thread?
                                            pid: 511683
()()()()()()()()()()()()()()()()()()()()()()()()()()()()()()()()()()()()()()()()()()()()()()()()()()

 The speed of LIGHT in this CALCULATION =   137.03599917700001     
               SEWARD will generate:
                  Multipole Moment integrals up to order  2
                  Kinetic Energy integrals
                  Nuclear Attraction integrals (point charge)
                  One-Electron Hamiltonian integrals
                  Velocity integrals
                  Relativistic Douglas-Kroll-Hess integrals:
                    - Parametrization         : EXP
                    - DKH order of Hamiltonian: 2
                    - DKH order of Properties : 0
                         - multipole moment operators
                         - electric potential operators
                         - contact operators
                  External field from     4 point(s) added to the one-electron Hamiltonian
                  Orbital angular momentum around ( 0.0000  0.0000  0.0000 )
                  Velocity quadrupole around ( 0.0000  0.0000  0.0000 )
                  Atomic mean-field integrals
                  Two-Electron Repulsion integrals

                   Integrals are discarded if absolute value <: 0.10E-13
                   Integral cutoff threshold is set to       <: 0.10E-15

++    Symmetry information:
      ---------------------

                    Character Table for C1 

                             E  
                    a        1  x, y, xy, Rz, z, xz, Ry, yz, Rx, I
--


++    Basis set information:
      ----------------------


      Basis set label: CR.ANO-RCC.ROOS.21S15P10D6F4G2H.10S10P8D6F4G2H......

      Electronic valence basis set:
      ------------------
      Associated Effective Charge  24.000000 au
      Associated Actual Charge     24.000000 au
      Nuclear Model: Point charge

      Shell  nPrim  nBasis  Cartesian Spherical Contaminant
         s      21      10        X                  
         p      15      10        X                  
         d      10       8                 X         
         f       6       6                 X         
         g       4       4                 X         
         h       2       2                 X         
--


++    Molecular structure info:
      -------------------------

                    ************************************************ 
                    **** Cartesian Coordinates / Bohr, Angstrom **** 
                    ************************************************ 

     Center  Label                x              y              z                     x              y              z
        1      CR               0.000000       0.000000       0.000000              0.000000       0.000000       0.000000
--


++    Operator info:
      --------------


  Net charge from external field:   -4.0000000000000000     
--


            Nuclear Potential Energy              0.00000000 au

                    Nuclear-External Field Potential Energy    -152.38095273 au
                    External Field Potential Energy               5.92389019 au 


            Total Nuclear Potential Energy           -152.38095273 au


      Basis set specifications :
      Symmetry species         a  
      Basis functions          180

 Sorry, Molden does not know how to handle
 functions with angular momentum larger than g
Note: The following floating-point exceptions are signalling: IEEE_UNDERFLOW_FLAG IEEE_DENORMAL
--- Stop Module: seward at Thu Jan  9 20:09:11 2025 /rc=_RC_ALL_IS_WELL_ ---
*** files: chromium_so_cf.GssOrb xmldump
    saved to directory /home4/s4752295/Internship/Initial_simulations/Point_charge_model/1_electron/active_space_9_non_rel/Cr/varying_bond_length
--- Module seward spent 8 seconds ---

*** symbolic link created: INPORB -> chromium_so_cf.GssOrb
--- Start Module: scf at Thu Jan  9 20:09:11 2025 ---

()()()()()()()()()()()()()()()()()()()()()()()()()()()()()()()()()()()()()()()()()()()()()()()()()()

                                                &SCF

                                   only a single process is used
                       available to each process: 4.1 GB of memory, 1 thread?
                                            pid: 511736
()()()()()()()()()()()()()()()()()()()()()()()()()()()()()()()()()()()()()()()()()()()()()()()()()()

++    Input section:
      --------------

      Header of the integral files:
      
       Integrals generated by seward 4.2.0  , Thu Jan  9 20:09:03 2025


      Cartesian coordinates in Angstrom:
      -----------------------------------------------------
      No.  Label        X            Y            Z        
      -----------------------------------------------------
       1   CR         0.00000000   0.00000000   0.00000000
      -----------------------------------------------------
      Nuclear repulsion energy = -152.38095273
--

++    Orbital specifications:
      -----------------------

      Symmetry species               1
                                     a
      Frozen orbitals                0
      Occupied orbitals              9
      Secondary orbitals           171
      Deleted orbitals               0
      Total number of orbitals     180
      Number of basis functions    180
--

      Molecular charge                           6.000

++    Optimization specifications:
      ----------------------------

      SCF Algorithm: Conventional
      Minimized density differences are used
      Number of density matrices in core                5
      Maximum number of NDDO SCF iterations            50
      Maximum number of HF SCF iterations             100
      Threshold for SCF energy change            0.10E-08
      Threshold for density matrix               0.10E-03
      Threshold for Fock matrix                  0.15E-03
      Threshold for linear dependence            0.10E-08
      Threshold at which DIIS is turned on       0.15E+00
      Threshold at which QNR/C2DIIS is turned on 0.75E-01
      Threshold for Norm(delta) (QNR/C2DIIS)     0.20E-04
      DIIS extrapolation of the SCF procedure
      All orbitals punched on: SCFORB
--

      Detected guessorb starting orbitals                                             


++ Convergence information
                                   SCF        iterations: Energy and convergence statistics

Iter     Tot. SCF        One-elec.       Two-elec.     Energy      Max Dij or  Max Fij      DNorm      TNorm      AccCon     Time
         Energy          Energy          Energy        Change      Delta Norm                                                in Sec.

 The total and one-electron energies are shifted by a value of      1000. a.u.

   1   -92.580415991  -245.576126344   305.376663078   0.00E+00    0.23E+00*   0.60E+00*    0.60E+01   0.25E+03   None         1.
   2   -93.741318466  -232.057925075   290.697559334  -0.12E+01*   0.53E-01*   0.70E-01*    0.15E+01   0.24E+03   EDIIS        1.
   3   -93.787918263  -235.282395623   293.875430085  -0.47E-01*   0.13E-01*   0.21E-01*    0.33E+00   0.24E+03   EDIIS        1.
   4   -93.791115309  -234.678877249   293.268714666  -0.32E-02*   0.59E-02*   0.51E-02*    0.36E-01   0.24E+03   c2DIIS       1.
   5   -93.791389631  -234.799301650   293.388864744  -0.27E-03*   0.25E-02*   0.21E-02*    0.32E-02   0.24E+03   QNRc2DIIS    1.
   6   -93.791428915  -234.789797897   293.379321707  -0.39E-04*   0.13E-02*   0.69E-03*    0.28E-03   0.24E+03   QNRc2DIIS    1.
   7   -93.791433807  -234.794071203   293.383590122  -0.49E-05*   0.28E-04*   0.54E-04     0.42E-04   0.24E+03   QNRc2DIIS    1.
   8   -93.791433815  -234.792611737   293.382130648  -0.78E-08*   0.31E-05    0.28E-05     0.72E-05   0.24E+03   QNRc2DIIS    1.
   9   -93.791433815  -234.792626494   293.382145405  -0.43E-10    0.16E-06    0.12E-06     0.10E-02   0.24E+03   QNRc2DIIS    1.

       Convergence after  9 Macro Iterations
--

 *****************************************************************************************************************************
 *                                                                                                                           *
 *                                             SCF/KS-DFT Program, Final results                                             *
 *                                                                                                                           *
 *                                                                                                                           *
 *                                                                                                                           *
 *                                                       Final Results                                                       *
 *                                                                                                                           *
 *****************************************************************************************************************************

::    Total SCF energy                              -1093.7914338147
      One-electron energy                           -1234.7926264944
      Two-electron energy                             293.3821454050
      Nuclear repulsion energy                       -152.3809527253
      Kinetic energy (interpolated)                  1049.4289157099
      Virial theorem                                    1.0422730091
      Total spin, S(S+1)                                0.0000000000
      Total spin, S                                     0.0000000000
      Max non-diagonal density matrix element           0.0000001774
      Max non-diagonal Fock matrix element              0.0000000281


      All orbitals with orbital energies smaller than  E(LUMO)+0.5 are printed

++    Molecular orbitals:
      -------------------

      Title: SCF orbitals

      Molecular orbitals for symmetry species 1: a  

          Orbital            1         2         3         4         5         6         7         8         9        10    
          Energy         -222.0862  -26.3018  -22.0158  -22.0158  -21.9075   -3.3322   -2.1955   -2.1955   -1.9639   -0.4588
          Occ. No.          2.0000    2.0000    2.0000    2.0000    2.0000    2.0000    2.0000    2.0000    2.0000    0.0000

        1 CR     1s         1.0000    0.0001    0.0000   -0.0000   -0.0001   -0.0000   -0.0000   -0.0000    0.0000    0.0000
        2 CR     2s        -0.0001    0.9996    0.0000   -0.0000   -0.0271    0.0035    0.0000   -0.0000   -0.0020   -0.0007
        3 CR     3s         0.0001   -0.0045    0.0000   -0.0000    0.0017    0.9843    0.0000    0.0000   -0.1128   -0.0470
        4 CR     4s        -0.0000    0.0008   -0.0000   -0.0000   -0.0003    0.0512    0.0000   -0.0000   -0.0312    0.9885
        5 CR     5s         0.0000   -0.0026   -0.0000    0.0000    0.0009   -0.0870   -0.0000   -0.0000    0.0373   -0.0030
        6 CR     6s        -0.0000    0.0024    0.0000   -0.0000   -0.0008    0.0393    0.0000   -0.0000   -0.0099   -0.0784
        7 CR     7s         0.0000   -0.0019   -0.0000    0.0000    0.0006    0.0055   -0.0000    0.0000   -0.0058   -0.0282
        8 CR     8s        -0.0000    0.0014    0.0000   -0.0000   -0.0004   -0.0056    0.0000    0.0000    0.0021    0.0029
        9 CR     9s         0.0001   -0.0011   -0.0000    0.0000    0.0003    0.0019   -0.0000    0.0000    0.0001    0.0041
       10 CR    10s        -0.0001   -0.0002   -0.0000    0.0000    0.0000   -0.0009   -0.0000    0.0000    0.0003    0.0009
       11 CR     2px       -0.0000   -0.0000    0.9999   -0.0014   -0.0000    0.0000    0.0025   -0.0000   -0.0000   -0.0000
       12 CR     3px        0.0000   -0.0000   -0.0042    0.0000    0.0000   -0.0000    0.9794   -0.0000   -0.0000   -0.0000
       13 CR     4px       -0.0000    0.0000    0.0012   -0.0000   -0.0000    0.0000    0.0794   -0.0000   -0.0000   -0.0000
       14 CR     5px        0.0000   -0.0000   -0.0029    0.0000    0.0000   -0.0000   -0.0928    0.0000    0.0000    0.0000
       15 CR     6px       -0.0000    0.0000    0.0015   -0.0000   -0.0000    0.0000    0.0060   -0.0000   -0.0000    0.0000
       16 CR     7px        0.0000   -0.0000   -0.0020    0.0000    0.0000   -0.0000    0.0097   -0.0000   -0.0000    0.0000
       17 CR     8px       -0.0000    0.0000    0.0013   -0.0000   -0.0000    0.0000   -0.0021    0.0000   -0.0000   -0.0000
       18 CR     9px        0.0000   -0.0000   -0.0007    0.0000    0.0000   -0.0000   -0.0008    0.0000    0.0000    0.0000
       19 CR    10px       -0.0000    0.0000    0.0000   -0.0000   -0.0000   -0.0000   -0.0024    0.0000    0.0000    0.0000
       20 CR    11px        0.0000    0.0000    0.0001   -0.0000   -0.0000    0.0000   -0.0003    0.0000   -0.0000   -0.0000
       21 CR     2py       -0.0000   -0.0000    0.0014    0.9999   -0.0000   -0.0000    0.0000    0.0025   -0.0000    0.0000
       22 CR     3py        0.0000    0.0000   -0.0000   -0.0042    0.0000   -0.0000    0.0000    0.9794   -0.0000   -0.0000
       23 CR     4py       -0.0000   -0.0000    0.0000    0.0012   -0.0000    0.0000    0.0000    0.0794    0.0000    0.0000
       24 CR     5py        0.0000    0.0000   -0.0000   -0.0029    0.0000   -0.0000   -0.0000   -0.0928    0.0000    0.0000
       25 CR     6py       -0.0000   -0.0000    0.0000    0.0015   -0.0000    0.0000    0.0000    0.0060    0.0000   -0.0000
       26 CR     7py        0.0000    0.0000   -0.0000   -0.0020    0.0000   -0.0000    0.0000    0.0097   -0.0000   -0.0000
       27 CR     8py       -0.0000   -0.0000    0.0000    0.0013   -0.0000    0.0000   -0.0000   -0.0021    0.0000    0.0000
       28 CR     9py        0.0000    0.0000   -0.0000   -0.0007    0.0000   -0.0000   -0.0000   -0.0008    0.0000    0.0000
       29 CR    10py       -0.0000   -0.0000    0.0000    0.0000   -0.0000    0.0000   -0.0000   -0.0024    0.0000    0.0000
       30 CR    11py        0.0000    0.0000    0.0000    0.0001   -0.0000   -0.0000   -0.0000   -0.0003    0.0000    0.0000
       31 CR     2pz        0.0001    0.0271    0.0000   -0.0000    0.9996   -0.0009    0.0000    0.0000    0.0055    0.0003
       32 CR     3pz       -0.0000    0.0014   -0.0000    0.0000   -0.0069    0.1164    0.0000    0.0000    0.9700    0.0155
       33 CR     4pz        0.0000   -0.0005    0.0000   -0.0000    0.0021   -0.0049    0.0000    0.0000    0.1268    0.1077
       34 CR     5pz       -0.0000    0.0012   -0.0000    0.0000   -0.0049    0.0042   -0.0000    0.0000   -0.1321    0.0039
       35 CR     6pz        0.0000   -0.0006    0.0000   -0.0000    0.0025    0.0006   -0.0000   -0.0000    0.0015   -0.0084
       36 CR     7pz       -0.0000    0.0008   -0.0000    0.0000   -0.0033   -0.0014    0.0000   -0.0000    0.0187   -0.0015
       37 CR     8pz        0.0000   -0.0006    0.0000   -0.0000    0.0020    0.0004   -0.0000   -0.0000   -0.0015    0.0006
       38 CR     9pz       -0.0000    0.0004   -0.0000    0.0000   -0.0010   -0.0003    0.0000    0.0000   -0.0016    0.0008
       39 CR    10pz        0.0000   -0.0001   -0.0000    0.0000   -0.0000    0.0004    0.0000    0.0000   -0.0043    0.0000
       40 CR    11pz       -0.0000    0.0000   -0.0000    0.0000    0.0002    0.0001   -0.0000    0.0000   -0.0007   -0.0000
       41 CR     3d2-       0.0000    0.0000    0.0000    0.0031   -0.0000   -0.0000    0.0000    0.0832   -0.0000   -0.0000
       42 CR     4d2-      -0.0000   -0.0000   -0.0000   -0.0029    0.0000    0.0000   -0.0000   -0.0327    0.0000   -0.0000
       43 CR     5d2-       0.0000    0.0000    0.0000    0.0023   -0.0000   -0.0000    0.0000    0.0034    0.0000   -0.0000
       44 CR     6d2-      -0.0000   -0.0000   -0.0000   -0.0019    0.0000   -0.0000    0.0000    0.0028    0.0000   -0.0000
       45 CR     7d2-       0.0000    0.0000    0.0000    0.0005   -0.0000   -0.0000   -0.0000   -0.0016   -0.0000   -0.0000
       46 CR     8d2-      -0.0000   -0.0000    0.0000    0.0001   -0.0000   -0.0000    0.0000    0.0015   -0.0000   -0.0000
       47 CR     9d2-       0.0000    0.0000   -0.0000   -0.0003    0.0000    0.0000   -0.0000   -0.0012   -0.0000    0.0000
       48 CR    10d2-      -0.0000    0.0000    0.0000    0.0004   -0.0000   -0.0000   -0.0000   -0.0006    0.0000    0.0000
       49 CR     3d1-       0.0000    0.0000    0.0000    0.0048   -0.0000   -0.0000    0.0000    0.1221   -0.0000   -0.0000
       50 CR     4d1-       0.0000   -0.0000   -0.0000   -0.0046    0.0000    0.0000   -0.0000   -0.0464   -0.0000    0.0000
       51 CR     5d1-      -0.0000    0.0000    0.0000    0.0038   -0.0000   -0.0000    0.0000    0.0036   -0.0000    0.0000
       52 CR     6d1-      -0.0000   -0.0000   -0.0000   -0.0034    0.0000    0.0000    0.0000    0.0047   -0.0000   -0.0000
       53 CR     7d1-       0.0000    0.0000    0.0000    0.0013   -0.0000    0.0000   -0.0000   -0.0021    0.0000    0.0000
       54 CR     8d1-      -0.0000   -0.0000   -0.0000   -0.0003    0.0000   -0.0000    0.0000    0.0021   -0.0000    0.0000
       55 CR     9d1-       0.0000    0.0000   -0.0000   -0.0001    0.0000   -0.0000   -0.0000   -0.0016    0.0000    0.0000
       56 CR    10d1-       0.0000   -0.0000    0.0000    0.0004    0.0000    0.0000   -0.0000   -0.0007    0.0000    0.0000
       57 CR     3d0       -0.0000   -0.0022   -0.0000    0.0000   -0.0029   -0.0451   -0.0000    0.0000   -0.0874    0.0393
       58 CR     4d0        0.0000    0.0022    0.0000   -0.0000    0.0026    0.0235    0.0000   -0.0000    0.0332   -0.0028
       59 CR     5d0       -0.0000   -0.0018   -0.0000    0.0000   -0.0020   -0.0053    0.0000   -0.0000   -0.0040   -0.0002
       60 CR     6d0        0.0000    0.0017    0.0000    0.0000    0.0012   -0.0022   -0.0000   -0.0000   -0.0020    0.0003
       61 CR     7d0       -0.0000   -0.0007    0.0000   -0.0000    0.0001    0.0023    0.0000   -0.0000    0.0016   -0.0003
       62 CR     8d0        0.0000    0.0002   -0.0000    0.0000   -0.0006   -0.0013   -0.0000    0.0000   -0.0019    0.0004
       63 CR     9d0       -0.0000    0.0001    0.0000   -0.0000    0.0008    0.0008    0.0000    0.0000    0.0013   -0.0002
       64 CR    10d0        0.0000   -0.0003   -0.0000    0.0000   -0.0007    0.0004    0.0000    0.0000    0.0009   -0.0001
       65 CR     3d1+       0.0000    0.0000    0.0048   -0.0000   -0.0000    0.0000    0.1221   -0.0000   -0.0000   -0.0000
       66 CR     4d1+      -0.0000   -0.0000   -0.0046    0.0000    0.0000   -0.0000   -0.0464    0.0000    0.0000   -0.0000
       67 CR     5d1+       0.0000    0.0000    0.0038   -0.0000   -0.0000    0.0000    0.0036   -0.0000   -0.0000   -0.0000
       68 CR     6d1+      -0.0000   -0.0000   -0.0034    0.0000    0.0000   -0.0000    0.0047   -0.0000    0.0000    0.0000
       69 CR     7d1+       0.0000    0.0000    0.0013   -0.0000   -0.0000    0.0000   -0.0021    0.0000    0.0000    0.0000
       70 CR     8d1+      -0.0000   -0.0000   -0.0003    0.0000    0.0000    0.0000    0.0021   -0.0000   -0.0000    0.0000
       71 CR     9d1+       0.0000    0.0000   -0.0001    0.0000   -0.0000   -0.0000   -0.0016    0.0000    0.0000    0.0000
       72 CR    10d1+      -0.0000    0.0000    0.0004   -0.0000   -0.0000    0.0000   -0.0007    0.0000   -0.0000   -0.0000
       73 CR     3d2+      -0.0000    0.0000   -0.0031    0.0000    0.0000    0.0000   -0.0832    0.0000   -0.0000   -0.0000
       74 CR     4d2+       0.0000   -0.0000    0.0029   -0.0000   -0.0000   -0.0000    0.0327   -0.0000    0.0000    0.0000
       75 CR     5d2+      -0.0000    0.0000   -0.0023    0.0000    0.0000    0.0000   -0.0034    0.0000    0.0000    0.0000
       76 CR     6d2+      -0.0000    0.0000    0.0019   -0.0000   -0.0000    0.0000   -0.0028    0.0000   -0.0000   -0.0000
       77 CR     7d2+       0.0000   -0.0000   -0.0005    0.0000    0.0000   -0.0000    0.0016   -0.0000    0.0000    0.0000
       78 CR     8d2+      -0.0000    0.0000   -0.0001    0.0000   -0.0000    0.0000   -0.0015    0.0000   -0.0000   -0.0000
       79 CR     9d2+       0.0000   -0.0000    0.0003   -0.0000   -0.0000    0.0000    0.0012   -0.0000   -0.0000   -0.0000
       80 CR    10d2+      -0.0000   -0.0000   -0.0004    0.0000    0.0000   -0.0000    0.0006   -0.0000    0.0000    0.0000
       81 CR     4f3-      -0.0000   -0.0000    0.0000    0.0000    0.0000    0.0000    0.0000    0.0000   -0.0000   -0.0000
       82 CR     5f3-       0.0000    0.0000   -0.0000   -0.0000    0.0000   -0.0000   -0.0000   -0.0000   -0.0000    0.0000
       83 CR     6f3-      -0.0000   -0.0000    0.0000    0.0000   -0.0000    0.0000    0.0000    0.0000   -0.0000   -0.0000
       84 CR     7f3-       0.0000    0.0000   -0.0000   -0.0000    0.0000    0.0000    0.0000   -0.0000    0.0000    0.0000
       85 CR     8f3-      -0.0000   -0.0000    0.0000    0.0000   -0.0000    0.0000   -0.0000   -0.0000   -0.0000   -0.0000
       86 CR     9f3-       0.0000    0.0000   -0.0000   -0.0000    0.0000   -0.0000    0.0000    0.0000   -0.0000   -0.0000
       87 CR     4f2-      -0.0000   -0.0000   -0.0000   -0.0012    0.0000    0.0000   -0.0000   -0.0104    0.0000    0.0000
       88 CR     5f2-       0.0000    0.0000    0.0000    0.0014   -0.0000   -0.0000    0.0000    0.0061   -0.0000   -0.0000
       89 CR     6f2-      -0.0000    0.0000   -0.0000   -0.0014    0.0000    0.0000   -0.0000   -0.0030    0.0000    0.0000
       90 CR     7f2-       0.0000   -0.0000    0.0000    0.0011   -0.0000   -0.0000    0.0000    0.0011   -0.0000   -0.0000
       91 CR     8f2-      -0.0000    0.0000   -0.0000   -0.0010    0.0000    0.0000    0.0000    0.0002   -0.0000   -0.0000
       92 CR     9f2-       0.0000   -0.0000    0.0000    0.0004   -0.0000   -0.0000   -0.0000   -0.0006   -0.0000    0.0000
       93 CR     4f1-      -0.0000   -0.0000   -0.0000   -0.0007    0.0000    0.0000   -0.0000   -0.0104    0.0000   -0.0000
       94 CR     5f1-       0.0000    0.0000    0.0000    0.0008   -0.0000   -0.0000    0.0000    0.0043    0.0000   -0.0000
       95 CR     6f1-      -0.0000   -0.0000   -0.0000   -0.0007    0.0000    0.0000   -0.0000   -0.0013    0.0000   -0.0000
       96 CR     7f1-       0.0000    0.0000    0.0000    0.0007   -0.0000   -0.0000    0.0000    0.0004   -0.0000   -0.0000
       97 CR     8f1-      -0.0000   -0.0000   -0.0000   -0.0007    0.0000   -0.0000    0.0000    0.0000   -0.0000    0.0000
       98 CR     9f1-      -0.0000    0.0000    0.0000    0.0003   -0.0000   -0.0000   -0.0000   -0.0002   -0.0000   -0.0000
       99 CR     4f0        0.0000   -0.0029   -0.0000    0.0000   -0.0009   -0.0385   -0.0000   -0.0000   -0.0104    0.0088
      100 CR     5f0       -0.0000    0.0032    0.0000   -0.0000    0.0011    0.0213    0.0000    0.0000    0.0035   -0.0054
      101 CR     6f0       -0.0000   -0.0032   -0.0000    0.0000   -0.0010   -0.0098   -0.0000   -0.0000   -0.0008    0.0030
      102 CR     7f0        0.0000    0.0028    0.0000   -0.0000    0.0009    0.0033    0.0000   -0.0000    0.0003   -0.0011
      103 CR     8f0       -0.0000   -0.0027   -0.0000    0.0000   -0.0010    0.0002   -0.0000   -0.0000   -0.0001    0.0001
      104 CR     9f0        0.0000    0.0012    0.0000   -0.0000    0.0004   -0.0013    0.0000   -0.0000   -0.0002    0.0004
      105 CR     4f1+       0.0000   -0.0000   -0.0007    0.0000    0.0000   -0.0000   -0.0104    0.0000    0.0000    0.0000
      106 CR     5f1+       0.0000    0.0000    0.0008   -0.0000   -0.0000    0.0000    0.0043   -0.0000   -0.0000   -0.0000
      107 CR     6f1+      -0.0000   -0.0000   -0.0007    0.0000    0.0000   -0.0000   -0.0013    0.0000    0.0000    0.0000
      108 CR     7f1+       0.0000    0.0000    0.0007   -0.0000   -0.0000    0.0000    0.0004   -0.0000   -0.0000   -0.0000
      109 CR     8f1+      -0.0000   -0.0000   -0.0007    0.0000    0.0000   -0.0000    0.0000   -0.0000    0.0000   -0.0000
      110 CR     9f1+       0.0000    0.0000    0.0003   -0.0000   -0.0000   -0.0000   -0.0002    0.0000   -0.0000    0.0000
      111 CR     4f2+       0.0000   -0.0000    0.0012   -0.0000   -0.0000   -0.0000    0.0104   -0.0000    0.0000    0.0000
      112 CR     5f2+      -0.0000    0.0000   -0.0014    0.0000    0.0000    0.0000   -0.0061    0.0000   -0.0000   -0.0000
      113 CR     6f2+       0.0000   -0.0000    0.0014   -0.0000   -0.0000   -0.0000    0.0030   -0.0000   -0.0000    0.0000
      114 CR     7f2+      -0.0000   -0.0000   -0.0011    0.0000    0.0000   -0.0000   -0.0011    0.0000    0.0000    0.0000
      115 CR     8f2+       0.0000    0.0000    0.0010   -0.0000   -0.0000    0.0000   -0.0002    0.0000   -0.0000   -0.0000
      116 CR     9f2+      -0.0000   -0.0000   -0.0004    0.0000    0.0000   -0.0000    0.0006   -0.0000    0.0000    0.0000
      117 CR     4f3+       0.0000   -0.0019    0.0000   -0.0000    0.0011   -0.0243    0.0000   -0.0000    0.0158    0.0072
      118 CR     5f3+      -0.0000    0.0021   -0.0000    0.0000   -0.0012    0.0134   -0.0000    0.0000   -0.0080   -0.0035
      119 CR     6f3+      -0.0000   -0.0021    0.0000   -0.0000    0.0012   -0.0061    0.0000    0.0000    0.0037    0.0022
      120 CR     7f3+       0.0000    0.0018   -0.0000    0.0000   -0.0010    0.0021    0.0000   -0.0000   -0.0015   -0.0008
      121 CR     8f3+      -0.0000   -0.0018    0.0000   -0.0000    0.0009    0.0001   -0.0000    0.0000   -0.0001    0.0001
      122 CR     9f3+       0.0000    0.0008    0.0000   -0.0000   -0.0004   -0.0008    0.0000   -0.0000    0.0006    0.0003
      123 CR     5g4-      -0.0000   -0.0000   -0.0000   -0.0010    0.0000    0.0000   -0.0000   -0.0098    0.0000   -0.0000
      124 CR     6g4-       0.0000    0.0000    0.0000    0.0011   -0.0000   -0.0000    0.0000    0.0043   -0.0000    0.0000
      125 CR     7g4-      -0.0000   -0.0000   -0.0000   -0.0012    0.0000   -0.0000   -0.0000   -0.0025    0.0000   -0.0000
      126 CR     8g4-       0.0000    0.0000    0.0000    0.0006   -0.0000    0.0000    0.0000    0.0010   -0.0000    0.0000
      127 CR     5g3-       0.0000    0.0000   -0.0000   -0.0000    0.0000    0.0000   -0.0000   -0.0000   -0.0000   -0.0000
      128 CR     6g3-      -0.0000   -0.0000    0.0000    0.0000    0.0000   -0.0000    0.0000    0.0000    0.0000    0.0000
      129 CR     7g3-       0.0000    0.0000   -0.0000   -0.0000    0.0000    0.0000   -0.0000   -0.0000   -0.0000   -0.0000
      130 CR     8g3-      -0.0000   -0.0000    0.0000    0.0000    0.0000   -0.0000    0.0000    0.0000    0.0000    0.0000
      131 CR     5g2-      -0.0000   -0.0000    0.0000    0.0002   -0.0000    0.0000   -0.0000   -0.0000    0.0000    0.0000
      132 CR     6g2-       0.0000    0.0000   -0.0000   -0.0002    0.0000   -0.0000   -0.0000   -0.0005   -0.0000   -0.0000
      133 CR     7g2-      -0.0000   -0.0000    0.0000    0.0002   -0.0000    0.0000    0.0000    0.0004   -0.0000    0.0000
      134 CR     8g2-       0.0000    0.0000   -0.0000   -0.0001    0.0000   -0.0000   -0.0000   -0.0002   -0.0000   -0.0000
      135 CR     5g1-      -0.0000    0.0000   -0.0000   -0.0012    0.0000    0.0000   -0.0000   -0.0127    0.0000    0.0000
      136 CR     6g1-      -0.0000   -0.0000    0.0000    0.0013   -0.0000   -0.0000    0.0000    0.0054   -0.0000   -0.0000
      137 CR     7g1-       0.0000    0.0000   -0.0000   -0.0014    0.0000    0.0000   -0.0000   -0.0030    0.0000    0.0000
      138 CR     8g1-      -0.0000   -0.0000    0.0000    0.0007   -0.0000   -0.0000    0.0000    0.0013   -0.0000   -0.0000
      139 CR     5g0       -0.0000   -0.0001   -0.0000    0.0000   -0.0020   -0.0025   -0.0000   -0.0000   -0.0195   -0.0003
      140 CR     6g0        0.0000    0.0002    0.0000   -0.0000    0.0023    0.0014    0.0000   -0.0000    0.0089   -0.0002
      141 CR     7g0       -0.0000   -0.0002   -0.0000    0.0000   -0.0024   -0.0008   -0.0000   -0.0000   -0.0053    0.0000
      142 CR     8g0        0.0000    0.0001    0.0000   -0.0000    0.0013    0.0003    0.0000    0.0000    0.0023   -0.0000
      143 CR     5g1+      -0.0000    0.0000   -0.0012    0.0000    0.0000    0.0000   -0.0127    0.0000   -0.0000    0.0000
      144 CR     6g1+       0.0000    0.0000    0.0013   -0.0000   -0.0000   -0.0000    0.0054   -0.0000    0.0000    0.0000
      145 CR     7g1+      -0.0000   -0.0000   -0.0014    0.0000    0.0000    0.0000   -0.0030    0.0000    0.0000    0.0000
      146 CR     8g1+       0.0000    0.0000    0.0007   -0.0000   -0.0000    0.0000    0.0013   -0.0000   -0.0000   -0.0000
      147 CR     5g2+      -0.0000   -0.0000   -0.0002    0.0000    0.0000   -0.0000    0.0000   -0.0000   -0.0000    0.0000
      148 CR     6g2+       0.0000    0.0000    0.0002   -0.0000   -0.0000    0.0000    0.0005   -0.0000    0.0000    0.0000
      149 CR     7g2+      -0.0000   -0.0000   -0.0002    0.0000    0.0000   -0.0000   -0.0004    0.0000    0.0000    0.0000
      150 CR     8g2+       0.0000    0.0000    0.0001   -0.0000   -0.0000    0.0000    0.0002   -0.0000   -0.0000   -0.0000
      151 CR     5g3+       0.0000    0.0013   -0.0000    0.0000   -0.0012    0.0106   -0.0000    0.0000   -0.0129   -0.0025
      152 CR     6g3+      -0.0000   -0.0015    0.0000   -0.0000    0.0014   -0.0065    0.0000    0.0000    0.0063    0.0022
      153 CR     7g3+       0.0000    0.0016   -0.0000    0.0000   -0.0014    0.0041   -0.0000   -0.0000   -0.0039   -0.0011
      154 CR     8g3+      -0.0000   -0.0008    0.0000   -0.0000    0.0008   -0.0017   -0.0000    0.0000    0.0017    0.0006
      155 CR     5g4+      -0.0000   -0.0000   -0.0010    0.0000    0.0000   -0.0000   -0.0098    0.0000    0.0000    0.0000
      156 CR     6g4+       0.0000    0.0000    0.0011   -0.0000   -0.0000    0.0000    0.0043   -0.0000   -0.0000   -0.0000
      157 CR     7g4+      -0.0000   -0.0000   -0.0012    0.0000    0.0000   -0.0000   -0.0025    0.0000    0.0000    0.0000
      158 CR     8g4+       0.0000    0.0000    0.0006   -0.0000   -0.0000    0.0000    0.0010   -0.0000   -0.0000   -0.0000
      159 CR     6h5-      -0.0000   -0.0000    0.0000    0.0001    0.0000    0.0000    0.0000    0.0004   -0.0000    0.0000
      160 CR     7h5-       0.0000    0.0000   -0.0000   -0.0001   -0.0000   -0.0000   -0.0000   -0.0004   -0.0000    0.0000
      161 CR     6h4-       0.0000   -0.0000    0.0000    0.0004   -0.0000   -0.0000    0.0000    0.0042   -0.0000   -0.0000
      162 CR     7h4-      -0.0000    0.0000   -0.0000   -0.0003    0.0000    0.0000   -0.0000   -0.0022    0.0000    0.0000
      163 CR     6h3-      -0.0000   -0.0000    0.0000    0.0000    0.0000    0.0000    0.0000    0.0000    0.0000    0.0000
      164 CR     7h3-       0.0000    0.0000   -0.0000   -0.0000   -0.0000   -0.0000   -0.0000   -0.0000    0.0000   -0.0000
      165 CR     6h2-       0.0000   -0.0000    0.0000    0.0001   -0.0000   -0.0000    0.0000    0.0012   -0.0000    0.0000
      166 CR     7h2-      -0.0000    0.0000   -0.0000   -0.0001    0.0000    0.0000   -0.0000   -0.0007    0.0000   -0.0000
      167 CR     6h1-      -0.0000   -0.0000    0.0000    0.0001   -0.0000    0.0000    0.0000    0.0002    0.0000    0.0000
      168 CR     7h1-       0.0000    0.0000   -0.0000   -0.0001    0.0000   -0.0000   -0.0000   -0.0003    0.0000   -0.0000
      169 CR     6h0       -0.0000   -0.0001   -0.0000    0.0000   -0.0003   -0.0013   -0.0000   -0.0000   -0.0016   -0.0001
      170 CR     7h0        0.0000    0.0001    0.0000   -0.0000    0.0002    0.0009    0.0000   -0.0000    0.0012   -0.0001
      171 CR     6h1+       0.0000    0.0000    0.0001   -0.0000   -0.0000   -0.0000    0.0002   -0.0000    0.0000    0.0000
      172 CR     7h1+      -0.0000   -0.0000   -0.0001    0.0000    0.0000    0.0000   -0.0003    0.0000   -0.0000   -0.0000
      173 CR     6h2+      -0.0000    0.0000   -0.0001    0.0000    0.0000    0.0000   -0.0012    0.0000   -0.0000   -0.0000
      174 CR     7h2+       0.0000   -0.0000    0.0001   -0.0000   -0.0000   -0.0000    0.0007   -0.0000    0.0000    0.0000
      175 CR     6h3+      -0.0000   -0.0002    0.0000   -0.0000    0.0003   -0.0019    0.0000    0.0000    0.0048    0.0004
      176 CR     7h3+       0.0000    0.0002   -0.0000    0.0000   -0.0003    0.0013   -0.0000    0.0000   -0.0025   -0.0004
      177 CR     6h4+       0.0000    0.0000    0.0004   -0.0000   -0.0000    0.0000    0.0042   -0.0000   -0.0000   -0.0000
      178 CR     7h4+      -0.0000   -0.0000   -0.0003    0.0000    0.0000   -0.0000   -0.0022    0.0000    0.0000    0.0000
      179 CR     6h5+      -0.0000    0.0000   -0.0001    0.0000    0.0000    0.0000   -0.0004    0.0000   -0.0000   -0.0000
      180 CR     7h5+      -0.0000   -0.0000    0.0001   -0.0000   -0.0000   -0.0000    0.0004   -0.0000    0.0000    0.0000

          Orbital           11        12        13        14        15        16        17        18        19        20    
          Energy           -0.3360   -0.3360   -0.3222   -0.2718   -0.2718   -0.2484   -0.2484   -0.2483   -0.2059   -0.1658
          Occ. No.          0.0000    0.0000    0.0000    0.0000    0.0000    0.0000    0.0000    0.0000    0.0000    0.0000

        1 CR     1s         0.0000   -0.0000   -0.0000   -0.0000    0.0000    0.0000    0.0000    0.0000   -0.0000   -0.0000
        2 CR     2s        -0.0000    0.0000    0.0005   -0.0000    0.0000    0.0000    0.0000    0.0004    0.0004    0.0000
        3 CR     3s        -0.0000    0.0000    0.0167   -0.0000    0.0000    0.0000    0.0000    0.0074    0.0258    0.0000
        4 CR     4s         0.0000   -0.0000   -0.1028    0.0000   -0.0000   -0.0000   -0.0000   -0.0097    0.0643   -0.0000
        5 CR     5s         0.0000   -0.0000   -0.0468    0.0000   -0.0000   -0.0000   -0.0000   -0.0413    0.6442   -0.0000
        6 CR     6s         0.0000   -0.0000   -0.0153    0.0000   -0.0000   -0.0000   -0.0000   -0.0281    0.6613    0.0000
        7 CR     7s        -0.0000    0.0000    0.0056    0.0000   -0.0000   -0.0000   -0.0000   -0.0049    0.3173    0.0000
        8 CR     8s        -0.0000    0.0000    0.0055   -0.0000    0.0000    0.0000    0.0000    0.0007    0.1575    0.0000
        9 CR     9s        -0.0000    0.0000    0.0014   -0.0000    0.0000    0.0000    0.0000    0.0010    0.0113    0.0000
       10 CR    10s         0.0000   -0.0000    0.0001   -0.0000    0.0000    0.0000    0.0000    0.0001    0.0001    0.0000
       11 CR     2px        0.0000   -0.0000    0.0000    0.0001   -0.0000   -0.0012   -0.0000    0.0000    0.0000   -0.0000
       12 CR     3px       -0.0293    0.0000    0.0000    0.0059   -0.0000   -0.0482   -0.0000    0.0000    0.0000    0.0161
       13 CR     4px        0.9329   -0.0002   -0.0000   -0.0462    0.0000    0.0721    0.0000   -0.0000   -0.0000   -0.1391
       14 CR     5px        0.2938   -0.0001   -0.0000   -0.0270    0.0000    0.0926    0.0000   -0.0000   -0.0000    0.2616
       15 CR     6px        0.1145   -0.0000   -0.0000   -0.0202    0.0000    0.0848    0.0000   -0.0000   -0.0000    0.8064
       16 CR     7px       -0.0526    0.0000    0.0000    0.0015   -0.0000    0.0014    0.0000   -0.0000   -0.0000    0.4196
       17 CR     8px       -0.0551    0.0000    0.0000    0.0049   -0.0000   -0.0141   -0.0000    0.0000    0.0000    0.2192
       18 CR     9px       -0.0169    0.0000    0.0000    0.0024   -0.0000   -0.0082   -0.0000    0.0000    0.0000    0.0504
       19 CR    10px       -0.0014    0.0000   -0.0000    0.0004   -0.0000   -0.0017   -0.0000    0.0000    0.0000    0.0021
       20 CR    11px        0.0001   -0.0000    0.0000    0.0000   -0.0000   -0.0001   -0.0000    0.0000    0.0000   -0.0008
       21 CR     2py        0.0000    0.0000    0.0000   -0.0000   -0.0001    0.0000   -0.0012    0.0000   -0.0000    0.0000
       22 CR     3py       -0.0000   -0.0293    0.0000   -0.0000   -0.0059    0.0000   -0.0482    0.0000    0.0000   -0.0000
       23 CR     4py        0.0002    0.9329   -0.0000    0.0000    0.0462   -0.0000    0.0721   -0.0000    0.0000    0.0001
       24 CR     5py        0.0001    0.2938   -0.0000    0.0000    0.0270   -0.0000    0.0926   -0.0000   -0.0000   -0.0001
       25 CR     6py        0.0000    0.1145   -0.0000    0.0000    0.0202   -0.0000    0.0848   -0.0000   -0.0000   -0.0004
       26 CR     7py       -0.0000   -0.0526    0.0000   -0.0000   -0.0015   -0.0000    0.0014   -0.0000   -0.0000   -0.0002
       27 CR     8py       -0.0000   -0.0551    0.0000   -0.0000   -0.0049    0.0000   -0.0141    0.0000   -0.0000   -0.0001
       28 CR     9py       -0.0000   -0.0169    0.0000   -0.0000   -0.0024    0.0000   -0.0082    0.0000    0.0000   -0.0000
       29 CR    10py       -0.0000   -0.0014    0.0000   -0.0000   -0.0004    0.0000   -0.0017    0.0000    0.0000   -0.0000
       30 CR    11py        0.0000    0.0001    0.0000   -0.0000   -0.0000    0.0000   -0.0001    0.0000    0.0000    0.0000
       31 CR     2pz       -0.0000   -0.0000   -0.0008    0.0000   -0.0000    0.0000    0.0000    0.0008   -0.0002    0.0000
       32 CR     3pz        0.0000   -0.0000   -0.0601    0.0000   -0.0000    0.0000    0.0000    0.0355   -0.0064   -0.0000
       33 CR     4pz        0.0000    0.0000    0.8974   -0.0000    0.0000   -0.0000   -0.0000   -0.1282    0.0057   -0.0000
       34 CR     5pz        0.0000    0.0000    0.3351   -0.0000   -0.0000   -0.0000   -0.0000   -0.1094    0.0525    0.0000
       35 CR     6pz        0.0000    0.0000    0.1563   -0.0000   -0.0000   -0.0000   -0.0000   -0.1001    0.0891    0.0000
       36 CR     7pz       -0.0000   -0.0000   -0.0538    0.0000   -0.0000   -0.0000   -0.0000   -0.0023    0.0254    0.0000
       37 CR     8pz       -0.0000   -0.0000   -0.0640    0.0000   -0.0000    0.0000    0.0000    0.0170    0.0031    0.0000
       38 CR     9pz       -0.0000   -0.0000   -0.0218    0.0000   -0.0000    0.0000    0.0000    0.0101   -0.0035    0.0000
       39 CR    10pz       -0.0000    0.0000   -0.0023    0.0000    0.0000    0.0000    0.0000    0.0023   -0.0018    0.0000
       40 CR    11pz        0.0000    0.0000    0.0000    0.0000    0.0000    0.0000    0.0000    0.0002   -0.0003   -0.0000
       41 CR     3d2-      -0.0000   -0.1060    0.0000    0.0001    0.6112   -0.0000    0.2669   -0.0000    0.0000   -0.0000
       42 CR     4d2-      -0.0000   -0.0438    0.0000    0.0001    0.4963   -0.0000    0.3016   -0.0000    0.0000    0.0000
       43 CR     5d2-      -0.0000   -0.0205    0.0000    0.0000    0.3094   -0.0000    0.2187   -0.0000    0.0000    0.0000
       44 CR     6d2-      -0.0000   -0.0079    0.0000    0.0000    0.1550   -0.0000    0.1209   -0.0000    0.0000    0.0000
       45 CR     7d2-      -0.0000   -0.0028   -0.0000    0.0000    0.1028   -0.0000    0.0915   -0.0000    0.0000    0.0000
       46 CR     8d2-       0.0000    0.0018   -0.0000   -0.0000   -0.0044   -0.0000    0.0075   -0.0000    0.0000    0.0000
       47 CR     9d2-       0.0000    0.0014   -0.0000   -0.0000   -0.0155    0.0000   -0.0082    0.0000   -0.0000    0.0000
       48 CR    10d2-       0.0000    0.0004   -0.0000   -0.0000   -0.0044    0.0000   -0.0025    0.0000   -0.0000    0.0000
       49 CR     3d1-      -0.0000   -0.0963    0.0000   -0.0000   -0.3551   -0.0000    0.4843   -0.0000    0.0000   -0.0000
       50 CR     4d1-      -0.0000   -0.0189    0.0000   -0.0000   -0.2795   -0.0000    0.5335   -0.0000    0.0000    0.0000
       51 CR     5d1-      -0.0000   -0.0052    0.0000   -0.0000   -0.1742   -0.0000    0.3882   -0.0000    0.0000    0.0000
       52 CR     6d1-      -0.0000   -0.0019    0.0000   -0.0000   -0.0870   -0.0000    0.2145   -0.0000    0.0000    0.0000
       53 CR     7d1-       0.0000    0.0003    0.0000   -0.0000   -0.0575   -0.0000    0.1625   -0.0000    0.0000    0.0000
       54 CR     8d1-       0.0000    0.0004    0.0000    0.0000    0.0024   -0.0000    0.0138   -0.0000    0.0000    0.0000
       55 CR     9d1-       0.0000    0.0004    0.0000    0.0000    0.0089    0.0000   -0.0147    0.0000    0.0000    0.0000
       56 CR    10d1-       0.0000    0.0001    0.0000    0.0000    0.0025    0.0000   -0.0046    0.0000    0.0000    0.0000
       57 CR     3d0       -0.0000    0.0000    0.1479   -0.0000    0.0000    0.0000    0.0000    0.5594    0.0060    0.0000
       58 CR     4d0       -0.0000    0.0000    0.0917   -0.0000    0.0000    0.0000    0.0000    0.6031    0.0465   -0.0000
       59 CR     5d0       -0.0000    0.0000    0.0513   -0.0000    0.0000    0.0000    0.0000    0.4351    0.0442   -0.0000
       60 CR     6d0       -0.0000    0.0000    0.0210   -0.0000    0.0000    0.0000    0.0000    0.2399    0.0294   -0.0000
       61 CR     7d0       -0.0000    0.0000    0.0102   -0.0000    0.0000    0.0000    0.0000    0.1811    0.0272   -0.0000
       62 CR     8d0        0.0000   -0.0000   -0.0038    0.0000   -0.0000    0.0000    0.0000    0.0150    0.0072   -0.0000
       63 CR     9d0        0.0000   -0.0000   -0.0033    0.0000   -0.0000   -0.0000   -0.0000   -0.0165    0.0002   -0.0000
       64 CR    10d0       -0.0000   -0.0000   -0.0009    0.0000   -0.0000   -0.0000   -0.0000   -0.0052   -0.0002   -0.0000
       65 CR     3d1+      -0.0963    0.0000    0.0000    0.3551   -0.0000    0.4843    0.0000   -0.0000   -0.0000    0.0424
       66 CR     4d1+      -0.0189    0.0000    0.0000    0.2795   -0.0000    0.5335    0.0000   -0.0000   -0.0000   -0.0401
       67 CR     5d1+      -0.0052    0.0000    0.0000    0.1742   -0.0000    0.3882    0.0000   -0.0000   -0.0000   -0.0675
       68 CR     6d1+      -0.0019    0.0000    0.0000    0.0870   -0.0000    0.2145    0.0000   -0.0000   -0.0000   -0.0552
       69 CR     7d1+       0.0003   -0.0000    0.0000    0.0575   -0.0000    0.1625    0.0000   -0.0000   -0.0000   -0.0590
       70 CR     8d1+       0.0004   -0.0000   -0.0000   -0.0024    0.0000    0.0138    0.0000   -0.0000   -0.0000   -0.0232
       71 CR     9d1+       0.0004   -0.0000   -0.0000   -0.0089    0.0000   -0.0147   -0.0000    0.0000   -0.0000   -0.0042
       72 CR    10d1+       0.0001   -0.0000   -0.0000   -0.0025    0.0000   -0.0046   -0.0000    0.0000    0.0000   -0.0005
       73 CR     3d2+       0.1060   -0.0000    0.0000    0.6112   -0.0001   -0.2669   -0.0000    0.0000   -0.0000   -0.0451
       74 CR     4d2+       0.0438   -0.0000    0.0000    0.4963   -0.0001   -0.3016   -0.0000    0.0000   -0.0000    0.0355
       75 CR     5d2+       0.0205   -0.0000    0.0000    0.3094   -0.0000   -0.2187   -0.0000    0.0000   -0.0000    0.0751
       76 CR     6d2+       0.0079   -0.0000    0.0000    0.1550   -0.0000   -0.1209   -0.0000    0.0000   -0.0000    0.0669
       77 CR     7d2+       0.0028   -0.0000    0.0000    0.1028   -0.0000   -0.0915   -0.0000    0.0000   -0.0000    0.0747
       78 CR     8d2+      -0.0018    0.0000   -0.0000   -0.0044    0.0000   -0.0075   -0.0000    0.0000   -0.0000    0.0324
       79 CR     9d2+      -0.0014    0.0000   -0.0000   -0.0155    0.0000    0.0082    0.0000   -0.0000    0.0000    0.0068
       80 CR    10d2+      -0.0004    0.0000   -0.0000   -0.0044    0.0000    0.0025    0.0000   -0.0000    0.0000    0.0010
       81 CR     4f3-      -0.0000   -0.0000    0.0000    0.0000    0.0000   -0.0000   -0.0000   -0.0000    0.0000    0.0000
       82 CR     5f3-       0.0000    0.0000   -0.0000    0.0000    0.0000   -0.0000    0.0000   -0.0000   -0.0000    0.0000
       83 CR     6f3-       0.0000    0.0000   -0.0000   -0.0000    0.0000   -0.0000    0.0000   -0.0000   -0.0000    0.0000
       84 CR     7f3-       0.0000    0.0000   -0.0000    0.0000    0.0000   -0.0000    0.0000   -0.0000   -0.0000    0.0000
       85 CR     8f3-       0.0000    0.0000   -0.0000   -0.0000   -0.0000   -0.0000    0.0000   -0.0000   -0.0000    0.0000
       86 CR     9f3-       0.0000   -0.0000   -0.0000   -0.0000    0.0000   -0.0000    0.0000   -0.0000   -0.0000   -0.0000
       87 CR     4f2-      -0.0000   -0.0030    0.0000    0.0000    0.0170   -0.0000    0.0159   -0.0000    0.0000   -0.0000
       88 CR     5f2-      -0.0000   -0.0017    0.0000    0.0000    0.0071   -0.0000    0.0038   -0.0000    0.0000   -0.0000
       89 CR     6f2-      -0.0000   -0.0005    0.0000    0.0000    0.0075   -0.0000    0.0062   -0.0000    0.0000    0.0000
       90 CR     7f2-      -0.0000   -0.0003    0.0000    0.0000    0.0034   -0.0000    0.0024   -0.0000    0.0000    0.0000
       91 CR     8f2-      -0.0000   -0.0001    0.0000    0.0000    0.0017   -0.0000    0.0014   -0.0000   -0.0000    0.0000
       92 CR     9f2-       0.0000    0.0001    0.0000    0.0000    0.0009   -0.0000    0.0010   -0.0000    0.0000    0.0000
       93 CR     4f1-      -0.0000   -0.0003    0.0000   -0.0000   -0.0078   -0.0000    0.0079   -0.0000    0.0000    0.0000
       94 CR     5f1-      -0.0000   -0.0044    0.0000   -0.0000   -0.0055   -0.0000    0.0093   -0.0000    0.0000   -0.0000
       95 CR     6f1-      -0.0000   -0.0023    0.0000   -0.0000   -0.0048   -0.0000    0.0086   -0.0000    0.0000   -0.0000
       96 CR     7f1-      -0.0000   -0.0014    0.0000   -0.0000   -0.0026   -0.0000    0.0054   -0.0000    0.0000    0.0000
       97 CR     8f1-      -0.0000   -0.0003    0.0000   -0.0000   -0.0011   -0.0000    0.0025   -0.0000    0.0000    0.0000
       98 CR     9f1-       0.0000    0.0000    0.0000   -0.0000   -0.0005   -0.0000    0.0015   -0.0000    0.0000    0.0000
       99 CR     4f0        0.0000   -0.0000   -0.0002    0.0000   -0.0000    0.0000    0.0000    0.0003   -0.0049   -0.0000
      100 CR     5f0       -0.0000    0.0000   -0.0023   -0.0000    0.0000    0.0000    0.0000    0.0125    0.0037   -0.0000
      101 CR     6f0        0.0000   -0.0000   -0.0018   -0.0000    0.0000    0.0000    0.0000    0.0094   -0.0010   -0.0000
      102 CR     7f0       -0.0000   -0.0000   -0.0009   -0.0000    0.0000    0.0000    0.0000    0.0073    0.0013   -0.0000
      103 CR     8f0        0.0000   -0.0000   -0.0002   -0.0000    0.0000    0.0000    0.0000    0.0031    0.0002   -0.0000
      104 CR     9f0        0.0000   -0.0000   -0.0000   -0.0000   -0.0000    0.0000    0.0000    0.0017   -0.0000   -0.0000
      105 CR     4f1+      -0.0003    0.0000   -0.0000    0.0078   -0.0000    0.0079    0.0000   -0.0000   -0.0000   -0.0000
      106 CR     5f1+      -0.0044    0.0000    0.0000    0.0055   -0.0000    0.0093    0.0000   -0.0000   -0.0000    0.0018
      107 CR     6f1+      -0.0023    0.0000    0.0000    0.0048   -0.0000    0.0086    0.0000   -0.0000   -0.0000    0.0000
      108 CR     7f1+      -0.0014    0.0000    0.0000    0.0026   -0.0000    0.0054    0.0000   -0.0000   -0.0000   -0.0006
      109 CR     8f1+      -0.0003    0.0000   -0.0000    0.0011   -0.0000    0.0025    0.0000   -0.0000   -0.0000   -0.0007
      110 CR     9f1+       0.0000   -0.0000    0.0000    0.0005   -0.0000    0.0015    0.0000   -0.0000   -0.0000   -0.0007
      111 CR     4f2+       0.0030   -0.0000   -0.0000    0.0170   -0.0000   -0.0159   -0.0000    0.0000   -0.0000   -0.0022
      112 CR     5f2+       0.0017   -0.0000    0.0000    0.0071   -0.0000   -0.0038   -0.0000    0.0000    0.0000   -0.0007
      113 CR     6f2+       0.0005   -0.0000    0.0000    0.0075   -0.0000   -0.0062   -0.0000    0.0000   -0.0000    0.0001
      114 CR     7f2+       0.0003   -0.0000    0.0000    0.0034   -0.0000   -0.0024   -0.0000    0.0000   -0.0000    0.0004
      115 CR     8f2+       0.0001   -0.0000    0.0000    0.0017   -0.0000   -0.0014   -0.0000    0.0000    0.0000    0.0003
      116 CR     9f2+      -0.0001    0.0000   -0.0000    0.0009   -0.0000   -0.0010   -0.0000    0.0000   -0.0000    0.0004
      117 CR     4f3+       0.0000   -0.0000   -0.0024    0.0000   -0.0000    0.0000    0.0000    0.0067   -0.0040   -0.0000
      118 CR     5f3+       0.0000   -0.0000    0.0015    0.0000   -0.0000   -0.0000   -0.0000   -0.0001    0.0017   -0.0000
      119 CR     6f3+       0.0000   -0.0000   -0.0007    0.0000   -0.0000    0.0000    0.0000    0.0011   -0.0014   -0.0000
      120 CR     7f3+       0.0000   -0.0000    0.0003    0.0000   -0.0000   -0.0000   -0.0000   -0.0000    0.0004   -0.0000
      121 CR     8f3+       0.0000   -0.0000   -0.0000   -0.0000   -0.0000    0.0000    0.0000    0.0001   -0.0001    0.0000
      122 CR     9f3+      -0.0000    0.0000   -0.0002    0.0000   -0.0000    0.0000    0.0000    0.0001   -0.0002    0.0000
      123 CR     5g4-       0.0000    0.0012   -0.0000   -0.0000   -0.0006   -0.0000    0.0023   -0.0000    0.0000    0.0000
      124 CR     6g4-      -0.0000   -0.0008    0.0000   -0.0000   -0.0000    0.0000   -0.0005    0.0000   -0.0000   -0.0000
      125 CR     7g4-       0.0000    0.0005   -0.0000   -0.0000   -0.0001   -0.0000    0.0006   -0.0000    0.0000    0.0000
      126 CR     8g4-      -0.0000   -0.0001    0.0000   -0.0000   -0.0000    0.0000   -0.0002    0.0000    0.0000   -0.0000
      127 CR     5g3-       0.0000    0.0000   -0.0000   -0.0000   -0.0000   -0.0000    0.0000   -0.0000   -0.0000   -0.0000
      128 CR     6g3-      -0.0000   -0.0000   -0.0000   -0.0000   -0.0000   -0.0000    0.0000   -0.0000   -0.0000   -0.0000
      129 CR     7g3-       0.0000    0.0000    0.0000   -0.0000   -0.0000   -0.0000    0.0000   -0.0000    0.0000    0.0000
      130 CR     8g3-       0.0000   -0.0000   -0.0000   -0.0000   -0.0000    0.0000    0.0000   -0.0000   -0.0000    0.0000
      131 CR     5g2-       0.0000    0.0007   -0.0000   -0.0000   -0.0014    0.0000   -0.0022    0.0000   -0.0000    0.0000
      132 CR     6g2-       0.0000    0.0001   -0.0000   -0.0000   -0.0009    0.0000   -0.0001    0.0000    0.0000   -0.0000
      133 CR     7g2-       0.0000    0.0002   -0.0000   -0.0000   -0.0008    0.0000   -0.0009    0.0000   -0.0000    0.0000
      134 CR     8g2-       0.0000    0.0000   -0.0000   -0.0000   -0.0003    0.0000   -0.0001    0.0000    0.0000   -0.0000
      135 CR     5g1-       0.0000    0.0022   -0.0000    0.0000    0.0034    0.0000   -0.0004    0.0000    0.0000    0.0000
      136 CR     6g1-      -0.0000   -0.0009    0.0000    0.0000    0.0004    0.0000   -0.0018    0.0000   -0.0000   -0.0000
      137 CR     7g1-       0.0000    0.0008   -0.0000    0.0000    0.0012    0.0000   -0.0007    0.0000    0.0000    0.0000
      138 CR     8g1-      -0.0000   -0.0001    0.0000    0.0000    0.0001    0.0000   -0.0007    0.0000   -0.0000   -0.0000
      139 CR     5g0        0.0000   -0.0000    0.0027    0.0000   -0.0000   -0.0000   -0.0000   -0.0053    0.0000   -0.0000
      140 CR     6g0       -0.0000   -0.0000   -0.0021    0.0000   -0.0000   -0.0000   -0.0000   -0.0006    0.0000    0.0000
      141 CR     7g0        0.0000    0.0000    0.0009    0.0000   -0.0000   -0.0000   -0.0000   -0.0023   -0.0001   -0.0000
      142 CR     8g0       -0.0000    0.0000   -0.0005    0.0000   -0.0000   -0.0000   -0.0000   -0.0003   -0.0000    0.0000
      143 CR     5g1+       0.0022   -0.0000   -0.0000   -0.0034    0.0000   -0.0004   -0.0000    0.0000   -0.0000   -0.0013
      144 CR     6g1+      -0.0009    0.0000   -0.0000   -0.0004    0.0000   -0.0018   -0.0000    0.0000   -0.0000    0.0006
      145 CR     7g1+       0.0008   -0.0000   -0.0000   -0.0012    0.0000   -0.0007   -0.0000    0.0000    0.0000   -0.0004
      146 CR     8g1+      -0.0001    0.0000   -0.0000   -0.0001    0.0000   -0.0007   -0.0000    0.0000    0.0000    0.0001
      147 CR     5g2+      -0.0007    0.0000    0.0000   -0.0014    0.0000    0.0022    0.0000   -0.0000   -0.0000    0.0005
      148 CR     6g2+      -0.0001    0.0000   -0.0000   -0.0009    0.0000    0.0001    0.0000   -0.0000    0.0000   -0.0000
      149 CR     7g2+      -0.0002    0.0000    0.0000   -0.0008    0.0000    0.0009    0.0000   -0.0000    0.0000    0.0001
      150 CR     8g2+      -0.0000    0.0000    0.0000   -0.0003    0.0000    0.0001    0.0000   -0.0000    0.0000   -0.0000
      151 CR     5g3+      -0.0000    0.0000    0.0025    0.0000   -0.0000   -0.0000   -0.0000   -0.0012    0.0013    0.0000
      152 CR     6g3+      -0.0000   -0.0000   -0.0014    0.0000   -0.0000    0.0000    0.0000    0.0004   -0.0012    0.0000
      153 CR     7g3+      -0.0000    0.0000    0.0009    0.0000   -0.0000   -0.0000   -0.0000   -0.0004    0.0006   -0.0000
      154 CR     8g3+       0.0000   -0.0000   -0.0004    0.0000   -0.0000    0.0000    0.0000    0.0001   -0.0003   -0.0000
      155 CR     5g4+       0.0012   -0.0000    0.0000    0.0006   -0.0000    0.0023    0.0000   -0.0000   -0.0000   -0.0006
      156 CR     6g4+      -0.0008    0.0000    0.0000    0.0000   -0.0000   -0.0005   -0.0000    0.0000    0.0000    0.0004
      157 CR     7g4+       0.0005   -0.0000   -0.0000    0.0001   -0.0000    0.0006    0.0000   -0.0000   -0.0000   -0.0003
      158 CR     8g4+      -0.0001    0.0000    0.0000    0.0000   -0.0000   -0.0002   -0.0000    0.0000    0.0000    0.0001
      159 CR     6h5-       0.0000    0.0003    0.0000   -0.0000   -0.0018    0.0000   -0.0008    0.0000    0.0000    0.0000
      160 CR     7h5-      -0.0000   -0.0001    0.0000    0.0000    0.0006   -0.0000    0.0003   -0.0000   -0.0000   -0.0000
      161 CR     6h4-      -0.0000   -0.0002    0.0000    0.0000    0.0007    0.0000   -0.0015    0.0000   -0.0000   -0.0000
      162 CR     7h4-       0.0000    0.0004   -0.0000   -0.0000   -0.0002   -0.0000    0.0006   -0.0000    0.0000    0.0000
      163 CR     6h3-      -0.0000    0.0000   -0.0000    0.0000    0.0000   -0.0000   -0.0000   -0.0000    0.0000   -0.0000
      164 CR     7h3-       0.0000    0.0000    0.0000    0.0000    0.0000   -0.0000    0.0000    0.0000    0.0000   -0.0000
      165 CR     6h2-       0.0000    0.0002   -0.0000   -0.0000   -0.0014    0.0000   -0.0008    0.0000   -0.0000    0.0000
      166 CR     7h2-       0.0000    0.0001   -0.0000    0.0000    0.0005   -0.0000    0.0003   -0.0000   -0.0000    0.0000
      167 CR     6h1-       0.0000    0.0005   -0.0000    0.0000    0.0013    0.0000   -0.0020    0.0000    0.0000    0.0000
      168 CR     7h1-      -0.0000   -0.0001   -0.0000   -0.0000   -0.0004   -0.0000    0.0007   -0.0000   -0.0000   -0.0000
      169 CR     6h0        0.0000   -0.0000   -0.0005    0.0000   -0.0000   -0.0000   -0.0000   -0.0027   -0.0000   -0.0000
      170 CR     7h0       -0.0000    0.0000    0.0000   -0.0000    0.0000    0.0000    0.0000    0.0010    0.0001    0.0000
      171 CR     6h1+       0.0005   -0.0000   -0.0000   -0.0013    0.0000   -0.0020   -0.0000    0.0000   -0.0000   -0.0003
      172 CR     7h1+      -0.0001    0.0000    0.0000    0.0004   -0.0000    0.0007    0.0000   -0.0000    0.0000    0.0001
      173 CR     6h2+      -0.0002    0.0000   -0.0000   -0.0014    0.0000    0.0008    0.0000   -0.0000    0.0000    0.0001
      174 CR     7h2+      -0.0001    0.0000   -0.0000    0.0005   -0.0000   -0.0003   -0.0000    0.0000   -0.0000    0.0000
      175 CR     6h3+       0.0000   -0.0000   -0.0011    0.0000    0.0000   -0.0000   -0.0000   -0.0005   -0.0002   -0.0000
      176 CR     7h3+       0.0000    0.0000    0.0007   -0.0000    0.0000    0.0000    0.0000    0.0001    0.0002   -0.0000
      177 CR     6h4+      -0.0002    0.0000   -0.0000   -0.0007    0.0000   -0.0015   -0.0000    0.0000    0.0000    0.0001
      178 CR     7h4+       0.0004   -0.0000   -0.0000    0.0002   -0.0000    0.0006    0.0000   -0.0000   -0.0000   -0.0002
      179 CR     6h5+      -0.0003    0.0000   -0.0000   -0.0018    0.0000    0.0008    0.0000   -0.0000    0.0000    0.0002
      180 CR     7h5+       0.0001   -0.0000   -0.0000    0.0006   -0.0000   -0.0003   -0.0000    0.0000   -0.0000   -0.0001

          Orbital           21        22        23        24        25        26        27        28        29        30    
          Energy           -0.1658   -0.1607   -0.1411   -0.1411   -0.1205   -0.1191   -0.1191   -0.0950   -0.0643   -0.0643
          Occ. No.          0.0000    0.0000    0.0000    0.0000    0.0000    0.0000    0.0000    0.0000    0.0000    0.0000

        1 CR     1s        -0.0000    0.0000    0.0000   -0.0000   -0.0000    0.0000   -0.0000    0.0000   -0.0000   -0.0000
        2 CR     2s         0.0000   -0.0003    0.0000   -0.0000   -0.0004    0.0000    0.0000   -0.0005    0.0000    0.0000
        3 CR     3s         0.0000   -0.0102    0.0000   -0.0000   -0.0075    0.0000    0.0000   -0.0300    0.0000    0.0009
        4 CR     4s        -0.0000    0.0185   -0.0000    0.0000    0.0077   -0.0000   -0.0000    0.0062   -0.0000   -0.0004
        5 CR     5s         0.0000   -0.0384   -0.0000    0.0000    0.0316   -0.0000   -0.0000   -0.3702    0.0000    0.0011
        6 CR     6s         0.0000   -0.0721    0.0000    0.0000   -0.0121    0.0000    0.0000   -0.0852    0.0000    0.0007
        7 CR     7s         0.0000   -0.0712    0.0000   -0.0000   -0.0709    0.0000    0.0000    0.5718   -0.0000   -0.0012
        8 CR     8s         0.0000   -0.0557    0.0000   -0.0000   -0.0748    0.0000    0.0000    0.6905   -0.0000   -0.0017
        9 CR     9s         0.0000   -0.0098    0.0000   -0.0000   -0.0166    0.0000    0.0000    0.1638   -0.0000   -0.0004
       10 CR    10s         0.0000   -0.0008    0.0000   -0.0000   -0.0016    0.0000    0.0000    0.0170   -0.0000   -0.0000
       11 CR     2px       -0.0000   -0.0000   -0.0001    0.0000    0.0000    0.0013    0.0000   -0.0000   -0.0000   -0.0000
       12 CR     3px        0.0000   -0.0000   -0.0041    0.0000    0.0000    0.0490    0.0000   -0.0000   -0.0000   -0.0000
       13 CR     4px       -0.0001    0.0000    0.0115   -0.0000   -0.0000   -0.0439   -0.0000    0.0000   -0.0000   -0.0000
       14 CR     5px        0.0001   -0.0000   -0.0048    0.0000   -0.0000   -0.0443   -0.0000    0.0000    0.0000   -0.0000
       15 CR     6px        0.0004   -0.0000   -0.0442    0.0000    0.0000    0.0899    0.0000   -0.0000    0.0000    0.0000
       16 CR     7px        0.0002   -0.0000   -0.0334    0.0000    0.0000    0.1211    0.0000   -0.0000   -0.0000    0.0000
       17 CR     8px        0.0001   -0.0000   -0.0236    0.0000    0.0000    0.1044    0.0000   -0.0000   -0.0000    0.0000
       18 CR     9px        0.0000   -0.0000   -0.0083    0.0000    0.0000    0.0432    0.0000   -0.0000   -0.0000    0.0000
       19 CR    10px        0.0000   -0.0000   -0.0016    0.0000    0.0000    0.0099    0.0000   -0.0000   -0.0000    0.0000
       20 CR    11px       -0.0000   -0.0000   -0.0001    0.0000    0.0000    0.0010    0.0000   -0.0000   -0.0000    0.0000
       21 CR     2py       -0.0000    0.0000    0.0000    0.0001    0.0000   -0.0000    0.0013   -0.0000   -0.0000   -0.0000
       22 CR     3py        0.0161    0.0000    0.0000    0.0041    0.0000   -0.0000    0.0490   -0.0000   -0.0000   -0.0000
       23 CR     4py       -0.1391   -0.0000   -0.0000   -0.0115    0.0000    0.0000   -0.0439    0.0000   -0.0000   -0.0000
       24 CR     5py        0.2616    0.0000    0.0000    0.0048   -0.0000    0.0000   -0.0443    0.0000   -0.0000    0.0000
       25 CR     6py        0.8064    0.0000    0.0000    0.0442    0.0000   -0.0000    0.0899   -0.0000    0.0000   -0.0000
       26 CR     7py        0.4196    0.0000    0.0000    0.0334    0.0000   -0.0000    0.1211   -0.0000    0.0000   -0.0000
       27 CR     8py        0.2192    0.0000    0.0000    0.0236    0.0000   -0.0000    0.1044   -0.0000    0.0000   -0.0000
       28 CR     9py        0.0504    0.0000    0.0000    0.0083    0.0000   -0.0000    0.0432   -0.0000    0.0000   -0.0000
       29 CR    10py        0.0021   -0.0000    0.0000    0.0016    0.0000   -0.0000    0.0099   -0.0000    0.0000   -0.0000
       30 CR    11py       -0.0008   -0.0000    0.0000    0.0001    0.0000   -0.0000    0.0010   -0.0000    0.0000   -0.0000
       31 CR     2pz       -0.0000    0.0005   -0.0000    0.0000   -0.0008    0.0000    0.0000    0.0001   -0.0000   -0.0000
       32 CR     3pz       -0.0000    0.0350   -0.0000   -0.0000   -0.0334    0.0000    0.0000    0.0055   -0.0000   -0.0005
       33 CR     4pz        0.0000   -0.1683    0.0000    0.0000    0.0481   -0.0000   -0.0000   -0.0025   -0.0000   -0.0003
       34 CR     5pz       -0.0000    0.2116   -0.0000   -0.0000    0.0299   -0.0000   -0.0000   -0.0267    0.0000    0.0008
       35 CR     6pz       -0.0000    0.7796   -0.0000   -0.0000   -0.1166    0.0000    0.0000    0.0114    0.0000    0.0000
       36 CR     7pz       -0.0000    0.4427   -0.0000   -0.0000   -0.1353    0.0000    0.0000    0.0473   -0.0000   -0.0012
       37 CR     8pz       -0.0000    0.2499   -0.0000   -0.0000   -0.1149    0.0000    0.0000    0.0522   -0.0000   -0.0015
       38 CR     9pz       -0.0000    0.0656   -0.0000   -0.0000   -0.0478    0.0000    0.0000    0.0257   -0.0000   -0.0008
       39 CR    10pz       -0.0000    0.0061   -0.0000   -0.0000   -0.0112    0.0000    0.0000    0.0072   -0.0000   -0.0002
       40 CR    11pz        0.0000   -0.0003   -0.0000    0.0000   -0.0011    0.0000    0.0000    0.0009   -0.0000   -0.0000
       41 CR     3d2-       0.0451   -0.0000   -0.0000   -0.3645   -0.0000    0.0000   -0.2110   -0.0000   -0.0000    0.0000
       42 CR     4d2-      -0.0355    0.0000    0.0000    0.0089   -0.0000    0.0000   -0.0859    0.0000   -0.0000    0.0000
       43 CR     5d2-      -0.0751    0.0000    0.0000    0.3555    0.0000   -0.0000    0.1408    0.0000   -0.0000    0.0000
       44 CR     6d2-      -0.0669    0.0000    0.0000    0.3963    0.0000   -0.0000    0.2106    0.0000   -0.0000   -0.0000
       45 CR     7d2-      -0.0747    0.0000    0.0000    0.4961    0.0000   -0.0000    0.2940   -0.0000   -0.0000   -0.0000
       46 CR     8d2-      -0.0324    0.0000    0.0000    0.2629    0.0000   -0.0000    0.1805   -0.0000   -0.0000   -0.0000
       47 CR     9d2-      -0.0068    0.0000    0.0000    0.0723    0.0000   -0.0000    0.0576   -0.0000   -0.0000   -0.0000
       48 CR    10d2-      -0.0010    0.0000    0.0000    0.0126    0.0000   -0.0000    0.0109   -0.0000   -0.0000   -0.0000
       49 CR     3d1-       0.0424    0.0000    0.0000    0.2176   -0.0000    0.0000   -0.3699   -0.0000    0.0000    0.0000
       50 CR     4d1-      -0.0401   -0.0000   -0.0000   -0.0083   -0.0000    0.0000   -0.1447   -0.0000    0.0000    0.0000
       51 CR     5d1-      -0.0675   -0.0000   -0.0000   -0.2111    0.0000   -0.0000    0.2445    0.0000    0.0000   -0.0000
       52 CR     6d1-      -0.0552   -0.0000   -0.0000   -0.2346    0.0000   -0.0000    0.3652    0.0000   -0.0000   -0.0000
       53 CR     7d1-      -0.0590   -0.0000   -0.0000   -0.2932    0.0000   -0.0000    0.5097    0.0000   -0.0000   -0.0000
       54 CR     8d1-      -0.0232   -0.0000   -0.0000   -0.1549    0.0000   -0.0000    0.3126    0.0000   -0.0000   -0.0000
       55 CR     9d1-      -0.0042   -0.0000   -0.0000   -0.0427    0.0000   -0.0000    0.1001    0.0000   -0.0000   -0.0000
       56 CR    10d1-      -0.0005    0.0000   -0.0000   -0.0075    0.0000   -0.0000    0.0191    0.0000   -0.0000   -0.0000
       57 CR     3d0        0.0000   -0.0630    0.0000    0.0000   -0.4285    0.0000    0.0000   -0.0449   -0.0000   -0.0011
       58 CR     4d0       -0.0000    0.0320   -0.0000    0.0000   -0.1530    0.0000    0.0000   -0.0480   -0.0000   -0.0025
       59 CR     5d0       -0.0000    0.0975   -0.0000    0.0000    0.2887   -0.0000   -0.0000    0.0192   -0.0000   -0.0001
       60 CR     6d0       -0.0000    0.0964   -0.0000    0.0000    0.4185   -0.0000   -0.0000    0.0506    0.0000    0.0023
       61 CR     7d0       -0.0000    0.1132   -0.0000    0.0000    0.5785   -0.0000   -0.0000    0.0799    0.0000    0.0043
       62 CR     8d0       -0.0000    0.0540   -0.0000    0.0000    0.3505   -0.0000   -0.0000    0.0562    0.0000    0.0035
       63 CR     9d0       -0.0000    0.0131   -0.0000    0.0000    0.1110   -0.0000   -0.0000    0.0199    0.0000    0.0014
       64 CR    10d0       -0.0000    0.0021   -0.0000    0.0000    0.0211   -0.0000   -0.0000    0.0040    0.0000    0.0003
       65 CR     3d1+       0.0000   -0.0000   -0.2176    0.0000   -0.0000   -0.3699   -0.0000    0.0000    0.0000    0.0000
       66 CR     4d1+      -0.0000    0.0000    0.0083   -0.0000   -0.0000   -0.1447   -0.0000    0.0000    0.0000    0.0000
       67 CR     5d1+      -0.0000    0.0000    0.2111   -0.0000    0.0000    0.2445    0.0000   -0.0000    0.0000    0.0000
       68 CR     6d1+      -0.0000    0.0000    0.2346   -0.0000    0.0000    0.3652    0.0000   -0.0000    0.0000   -0.0000
       69 CR     7d1+      -0.0000    0.0000    0.2932   -0.0000    0.0000    0.5097    0.0000   -0.0000    0.0000   -0.0000
       70 CR     8d1+      -0.0000    0.0000    0.1549   -0.0000    0.0000    0.3126    0.0000   -0.0000    0.0000   -0.0000
       71 CR     9d1+      -0.0000    0.0000    0.0427   -0.0000    0.0000    0.1001    0.0000   -0.0000    0.0000   -0.0000
       72 CR    10d1+      -0.0000    0.0000    0.0075   -0.0000    0.0000    0.0191    0.0000   -0.0000    0.0000   -0.0000
       73 CR     3d2+      -0.0000   -0.0000   -0.3645    0.0000    0.0000    0.2110    0.0000    0.0000    0.0000   -0.0000
       74 CR     4d2+       0.0000    0.0000    0.0089   -0.0000    0.0000    0.0859    0.0000    0.0000    0.0000   -0.0000
       75 CR     5d2+       0.0000    0.0000    0.3555   -0.0000   -0.0000   -0.1408   -0.0000   -0.0000    0.0000   -0.0000
       76 CR     6d2+       0.0000    0.0000    0.3963   -0.0000   -0.0000   -0.2106   -0.0000   -0.0000   -0.0000    0.0000
       77 CR     7d2+       0.0000    0.0000    0.4961   -0.0000   -0.0000   -0.2940   -0.0000   -0.0000   -0.0000    0.0000
       78 CR     8d2+       0.0000    0.0000    0.2629   -0.0000   -0.0000   -0.1805   -0.0000   -0.0000   -0.0000    0.0000
       79 CR     9d2+       0.0000    0.0000    0.0723   -0.0000   -0.0000   -0.0576   -0.0000   -0.0000   -0.0000    0.0000
       80 CR    10d2+       0.0000    0.0000    0.0126   -0.0000   -0.0000   -0.0109   -0.0000   -0.0000   -0.0000    0.0000
       81 CR     4f3-      -0.0000    0.0000   -0.0000   -0.0000    0.0000    0.0000    0.0000    0.0000    0.1584   -0.0000
       82 CR     5f3-      -0.0000    0.0000    0.0000   -0.0000    0.0000    0.0000   -0.0000    0.0000    0.4160   -0.0000
       83 CR     6f3-      -0.0000    0.0000    0.0000   -0.0000    0.0000    0.0000    0.0000    0.0000    0.5651   -0.0000
       84 CR     7f3-      -0.0000   -0.0000    0.0000   -0.0000    0.0000    0.0000    0.0000    0.0000    0.5393   -0.0000
       85 CR     8f3-      -0.0000   -0.0000    0.0000    0.0000    0.0000    0.0000    0.0000    0.0000    0.3447   -0.0000
       86 CR     9f3-       0.0000   -0.0000    0.0000    0.0000    0.0000    0.0000    0.0000    0.0000    0.2699   -0.0000
       87 CR     4f2-       0.0022   -0.0000   -0.0000   -0.0141   -0.0000    0.0000   -0.0193   -0.0000   -0.0000   -0.0000
       88 CR     5f2-       0.0007    0.0000   -0.0000   -0.0036   -0.0000    0.0000   -0.0070   -0.0000   -0.0000   -0.0000
       89 CR     6f2-      -0.0001    0.0000   -0.0000   -0.0028   -0.0000    0.0000   -0.0097   -0.0000   -0.0000   -0.0000
       90 CR     7f2-      -0.0004    0.0000    0.0000    0.0008   -0.0000    0.0000   -0.0048   -0.0000   -0.0000   -0.0000
       91 CR     8f2-      -0.0003    0.0000    0.0000    0.0010   -0.0000    0.0000   -0.0027   -0.0000   -0.0000   -0.0000
       92 CR     9f2-      -0.0004    0.0000    0.0000    0.0012   -0.0000    0.0000   -0.0018   -0.0000   -0.0000   -0.0000
       93 CR     4f1-      -0.0000    0.0000    0.0000    0.0060   -0.0000    0.0000   -0.0073   -0.0000   -0.0000    0.0000
       94 CR     5f1-       0.0018    0.0000    0.0000    0.0021   -0.0000    0.0000   -0.0064   -0.0000   -0.0000    0.0000
       95 CR     6f1-       0.0000    0.0000    0.0000    0.0004   -0.0000    0.0000   -0.0040   -0.0000   -0.0000    0.0000
       96 CR     7f1-      -0.0006    0.0000   -0.0000   -0.0013   -0.0000    0.0000   -0.0007   -0.0000   -0.0000    0.0000
       97 CR     8f1-      -0.0007    0.0000   -0.0000   -0.0013   -0.0000   -0.0000    0.0007   -0.0000   -0.0000    0.0000
       98 CR     9f1-      -0.0007    0.0000   -0.0000   -0.0013   -0.0000   -0.0000    0.0011   -0.0000   -0.0000    0.0000
       99 CR     4f0       -0.0000    0.0011   -0.0000    0.0000    0.0023   -0.0000   -0.0000    0.0061   -0.0000   -0.0075
      100 CR     5f0       -0.0000    0.0033   -0.0000    0.0000   -0.0064    0.0000    0.0000   -0.0045   -0.0000   -0.0187
      101 CR     6f0       -0.0000    0.0034   -0.0000    0.0000   -0.0009    0.0000    0.0000    0.0015   -0.0000   -0.0253
      102 CR     7f0       -0.0000    0.0024   -0.0000    0.0000    0.0008    0.0000    0.0000   -0.0010   -0.0000   -0.0241
      103 CR     8f0       -0.0000    0.0012   -0.0000   -0.0000    0.0021   -0.0000    0.0000    0.0002   -0.0000   -0.0154
      104 CR     9f0       -0.0000    0.0008   -0.0000   -0.0000    0.0025   -0.0000   -0.0000    0.0005   -0.0000   -0.0120
      105 CR     4f1+      -0.0000    0.0000   -0.0060    0.0000   -0.0000   -0.0073   -0.0000    0.0000   -0.0000   -0.0000
      106 CR     5f1+       0.0000   -0.0000   -0.0021    0.0000   -0.0000   -0.0064   -0.0000    0.0000   -0.0000   -0.0000
      107 CR     6f1+       0.0000    0.0000   -0.0004    0.0000   -0.0000   -0.0040   -0.0000    0.0000   -0.0000   -0.0000
      108 CR     7f1+      -0.0000    0.0000    0.0013   -0.0000   -0.0000   -0.0007   -0.0000    0.0000   -0.0000   -0.0000
      109 CR     8f1+      -0.0000    0.0000    0.0013   -0.0000    0.0000    0.0007    0.0000    0.0000   -0.0000   -0.0000
      110 CR     9f1+      -0.0000    0.0000    0.0013   -0.0000    0.0000    0.0011    0.0000    0.0000   -0.0000   -0.0000
      111 CR     4f2+      -0.0000    0.0000   -0.0141    0.0000    0.0000    0.0193    0.0000    0.0000   -0.0000   -0.0000
      112 CR     5f2+      -0.0000   -0.0000   -0.0036    0.0000    0.0000    0.0070    0.0000   -0.0000   -0.0000   -0.0000
      113 CR     6f2+       0.0000   -0.0000   -0.0028    0.0000    0.0000    0.0097    0.0000    0.0000   -0.0000   -0.0000
      114 CR     7f2+       0.0000   -0.0000    0.0008   -0.0000    0.0000    0.0048    0.0000   -0.0000   -0.0000   -0.0000
      115 CR     8f2+       0.0000    0.0000    0.0010   -0.0000    0.0000    0.0027    0.0000   -0.0000   -0.0000   -0.0000
      116 CR     9f2+       0.0000    0.0000    0.0012   -0.0000    0.0000    0.0018    0.0000    0.0000   -0.0000   -0.0000
      117 CR     4f3+      -0.0000    0.0014   -0.0000   -0.0000   -0.0084    0.0000    0.0000    0.0044    0.0000    0.1581
      118 CR     5f3+      -0.0000   -0.0010   -0.0000   -0.0000   -0.0021    0.0000    0.0000   -0.0015    0.0000    0.4156
      119 CR     6f3+      -0.0000    0.0005    0.0000   -0.0000   -0.0038    0.0000    0.0000    0.0022    0.0000    0.5645
      120 CR     7f3+      -0.0000   -0.0002    0.0000   -0.0000   -0.0022    0.0000    0.0000    0.0002    0.0000    0.5387
      121 CR     8f3+       0.0000    0.0000    0.0000   -0.0000   -0.0014    0.0000    0.0000    0.0005    0.0000    0.3444
      122 CR     9f3+       0.0000    0.0001    0.0000   -0.0000   -0.0011    0.0000    0.0000    0.0005    0.0000    0.2696
      123 CR     5g4-      -0.0006   -0.0000    0.0000    0.0005   -0.0000    0.0000   -0.0025    0.0000    0.0000    0.0000
      124 CR     6g4-       0.0004    0.0000    0.0000    0.0000    0.0000   -0.0000    0.0006   -0.0000    0.0000    0.0000
      125 CR     7g4-      -0.0003   -0.0000    0.0000    0.0001   -0.0000    0.0000   -0.0007    0.0000    0.0000   -0.0000
      126 CR     8g4-       0.0001   -0.0000   -0.0000   -0.0000    0.0000   -0.0000    0.0002   -0.0000    0.0000   -0.0000
      127 CR     5g3-       0.0000    0.0000    0.0000    0.0000   -0.0000    0.0000   -0.0000   -0.0000    0.0008   -0.0000
      128 CR     6g3-       0.0000   -0.0000    0.0000    0.0000   -0.0000    0.0000   -0.0000   -0.0000    0.0013   -0.0000
      129 CR     7g3-      -0.0000   -0.0000    0.0000    0.0000   -0.0000    0.0000   -0.0000   -0.0000    0.0014   -0.0000
      130 CR     8g3-      -0.0000   -0.0000    0.0000    0.0000   -0.0000    0.0000   -0.0000   -0.0000    0.0011   -0.0000
      131 CR     5g2-      -0.0005   -0.0000    0.0000    0.0010    0.0000   -0.0000    0.0023    0.0000   -0.0000   -0.0000
      132 CR     6g2-       0.0000   -0.0000    0.0000    0.0005   -0.0000    0.0000   -0.0000   -0.0000   -0.0000   -0.0000
      133 CR     7g2-      -0.0001    0.0000    0.0000    0.0004    0.0000   -0.0000    0.0008    0.0000   -0.0000   -0.0000
      134 CR     8g2-       0.0000   -0.0000    0.0000    0.0000   -0.0000    0.0000   -0.0001   -0.0000   -0.0000   -0.0000
      135 CR     5g1-      -0.0013   -0.0000   -0.0000   -0.0028    0.0000   -0.0000    0.0003    0.0000   -0.0000    0.0000
      136 CR     6g1-       0.0006    0.0000   -0.0000   -0.0001    0.0000   -0.0000    0.0016    0.0000   -0.0000    0.0000
      137 CR     7g1-      -0.0004   -0.0000   -0.0000   -0.0008    0.0000   -0.0000    0.0004   -0.0000   -0.0000    0.0000
      138 CR     8g1-       0.0001    0.0000    0.0000    0.0001    0.0000   -0.0000    0.0005   -0.0000   -0.0000    0.0000
      139 CR     5g0       -0.0000   -0.0016   -0.0000    0.0000    0.0055   -0.0000   -0.0000    0.0004   -0.0000   -0.0000
      140 CR     6g0       -0.0000    0.0012   -0.0000    0.0000    0.0004   -0.0000   -0.0000    0.0000   -0.0000   -0.0001
      141 CR     7g0       -0.0000   -0.0007   -0.0000    0.0000    0.0021   -0.0000   -0.0000    0.0003   -0.0000   -0.0001
      142 CR     8g0       -0.0000    0.0002   -0.0000   -0.0000   -0.0000   -0.0000   -0.0000    0.0000   -0.0000   -0.0001
      143 CR     5g1+      -0.0000    0.0000    0.0028   -0.0000    0.0000    0.0003    0.0000   -0.0000   -0.0000   -0.0000
      144 CR     6g1+       0.0000    0.0000    0.0001   -0.0000    0.0000    0.0016    0.0000    0.0000   -0.0000   -0.0000
      145 CR     7g1+      -0.0000   -0.0000    0.0008   -0.0000    0.0000    0.0004    0.0000   -0.0000   -0.0000   -0.0000
      146 CR     8g1+       0.0000   -0.0000   -0.0001    0.0000    0.0000    0.0005    0.0000   -0.0000   -0.0000   -0.0000
      147 CR     5g2+       0.0000   -0.0000    0.0010   -0.0000   -0.0000   -0.0023   -0.0000   -0.0000   -0.0000   -0.0000
      148 CR     6g2+      -0.0000    0.0000    0.0005   -0.0000   -0.0000    0.0000    0.0000   -0.0000   -0.0000   -0.0000
      149 CR     7g2+       0.0000   -0.0000    0.0004   -0.0000   -0.0000   -0.0008   -0.0000   -0.0000   -0.0000   -0.0000
      150 CR     8g2+      -0.0000   -0.0000    0.0000   -0.0000   -0.0000    0.0001    0.0000   -0.0000   -0.0000   -0.0000
      151 CR     5g3+       0.0000   -0.0015   -0.0000    0.0000    0.0012   -0.0000   -0.0000   -0.0015    0.0000    0.0008
[...]
         2   18       4.23426235E-03  1.22705888E-05  1.38702967E-11  6.04007151E+06  6.04007151E+06
         3    7       2.38000847E-03  2.75445202E-02  1.47351014E+04  3.03544250E-21  1.47351289E+04
         3    9       1.02454822E-01  9.62326531E+06  2.75728007E+00  3.18225599E+06  1.28055241E+07
         3   11       7.69942541E-02  2.75728012E+00  9.62326509E+06  1.53906506E+01  9.62328323E+06
         3   13       1.75132994E-01  1.02212583E+07  5.23305829E+01  3.24572854E+07  4.26785961E+07
         3   15       4.19434359E-02  5.23307147E+01  1.02212409E+07  7.22374473E+00  1.02213005E+07
         3   17       6.84481112E-02  3.12490885E+01  1.67169031E+07  8.65073118E-11  1.67169344E+07
         4    8       2.38000847E-03  2.75445202E-02  1.47351014E+04  3.03544250E-21  1.47351289E+04
         4   10       1.02454822E-01  9.62326531E+06  2.75728007E+00  3.18225599E+06  1.28055241E+07
         4   12       7.69942541E-02  2.75728012E+00  9.62326509E+06  1.53906506E+01  9.62328323E+06
         4   14       1.75132994E-01  1.02212583E+07  5.23305829E+01  3.24572854E+07  4.26785961E+07
         4   16       4.19434359E-02  5.23307147E+01  1.02212409E+07  7.22374473E+00  1.02213005E+07
         4   18       6.84481112E-02  3.12490885E+01  1.67169031E+07  8.65073118E-11  1.67169344E+07
         5    7       2.38000844E-03  1.47351012E+04  2.75445212E-02  4.80361343E-13  1.47351287E+04
         5    9       7.69942557E-02  2.75728006E+00  9.62326529E+06  1.53906505E+01  9.62328344E+06
         5   11       1.02454823E-01  9.62326537E+06  2.75727988E+00  3.18225607E+06  1.28055242E+07
         5   13       4.19435075E-02  5.23307385E+01  1.02212584E+07  7.22374501E+00  1.02213179E+07
         5   15       1.75133066E-01  1.02212762E+07  5.23306061E+01  3.24572851E+07  4.26786136E+07
         5   17       6.84479638E-02  1.67168672E+07  3.12491034E+01  1.47439549E-05  1.67168984E+07
         6    8       2.38000844E-03  1.47351012E+04  2.75445212E-02  4.80361343E-13  1.47351287E+04
         6   10       7.69942557E-02  2.75728006E+00  9.62326529E+06  1.53906505E+01  9.62328344E+06
         6   12       1.02454823E-01  9.62326537E+06  2.75727988E+00  3.18225607E+06  1.28055242E+07
         6   14       4.19435075E-02  5.23307385E+01  1.02212584E+07  7.22374501E+00  1.02213179E+07
         6   16       1.75133066E-01  1.02212762E+07  5.23306061E+01  3.24572851E+07  4.26786136E+07
         6   18       6.84479638E-02  1.67168672E+07  3.12491034E+01  1.47439549E-05  1.67168984E+07
         7    9       2.10561632E-02  1.10094947E+00  1.59064402E+06  2.99211800E-16  1.59064512E+06
         7   11       2.10561635E-02  1.59064405E+06  1.10094948E+00  9.31099130E-11  1.59064515E+06
         7   13       1.07992023E-01  1.49113227E+01  1.85960401E+07  5.42586451E-11  1.85960550E+07
         7   15       1.07992023E-01  1.85960400E+07  1.49113229E+01  1.42223227E-05  1.85960549E+07
         7   17       1.80709941E-01  8.47679732E-06  9.45609249E-12  3.11992960E+07  3.11992960E+07
         8   10       2.10561632E-02  1.10094947E+00  1.59064402E+06  2.99211800E-16  1.59064512E+06
         8   12       2.10561635E-02  1.59064405E+06  1.10094948E+00  9.31099130E-11  1.59064515E+06
         8   14       1.07992023E-01  1.49113227E+01  1.85960401E+07  5.42586451E-11  1.85960550E+07
         8   16       1.07992023E-01  1.85960400E+07  1.49113229E+01  1.42223227E-05  1.85960549E+07
         8   18       1.80709941E-01  8.47679732E-06  9.45609249E-12  3.11992960E+07  3.11992960E+07
         9   13       1.01052889E-03  1.98272160E+04  7.99829384E-05  1.23115155E+01  1.98395276E+04
         9   15       1.00990222E-03  7.99825632E-05  1.98272240E+04  3.67370476E-05  1.98272241E+04
         9   17       8.53043948E-05  1.16817427E-03  1.68774438E+03  2.63963490E-17  1.68774555E+03
        10   14       1.01052889E-03  1.98272160E+04  7.99829384E-05  1.23115155E+01  1.98395276E+04
        10   16       1.00990222E-03  7.99825632E-05  1.98272240E+04  3.67370476E-05  1.98272241E+04
        10   18       8.53043948E-05  1.16817427E-03  1.68774438E+03  2.63963490E-17  1.68774555E+03
        11   13       1.00990180E-03  7.99810976E-05  1.98272158E+04  3.67370744E-05  1.98272159E+04
        11   15       1.01052849E-03  1.98272080E+04  7.99816839E-05  1.23115208E+01  1.98395196E+04
        11   17       8.53051958E-05  1.68776023E+03  1.16814956E-03  8.51940753E-12  1.68776140E+03
        12   14       1.00990180E-03  7.99810976E-05  1.98272158E+04  3.67370744E-05  1.98272159E+04
        12   16       1.01052849E-03  1.98272080E+04  7.99816839E-05  1.23115208E+01  1.98395196E+04
        12   18       8.53051958E-05  1.68776023E+03  1.16814956E-03  8.51940753E-12  1.68776140E+03
        13   17       1.67196784E-05  3.93744741E-09  4.91042799E-03  5.44173903E-20  4.91043192E-03
        14   18       1.67196784E-05  3.93744741E-09  4.91042799E-03  5.44173903E-20  4.91043192E-03
        15   17       1.67196525E-05  4.91042037E-03  3.93744638E-09  1.42918432E-14  4.91042431E-03
        16   18       1.67196525E-05  4.91042037E-03  3.93744638E-09  1.42918432E-14  4.91042431E-03
     -----------------------------------------------------------------------------------------------
--

++ Velocity transition strengths (SO states):
   ------------------------------------------
    for osc. strength at least    1.0000000000000001E-005

      From   To        Osc. strength     Einstein coefficients Ax, Ay, Az (sec-1)    Total A (sec-1)
     -----------------------------------------------------------------------------------------------
         1    3       3.13720119E-01  2.87485861E+02  1.53792229E+08  6.05710424E-15  1.53792517E+08
         1    5       3.13720118E-01  1.53792229E+08  2.87485861E+02  1.73333467E-10  1.53792516E+08
         1    7       3.47259088E-01  1.93012425E-10  3.05701150E-15  2.10646093E+08  2.10646093E+08
         1    9       1.38631033E-04  1.06532962E-01  1.53917987E+05  5.52905352E-15  1.53918094E+05
         1   11       1.38631035E-04  1.53917990E+05  1.06532916E-01  8.23141938E-10  1.53918096E+05
         1   13       1.83549300E-02  2.09758561E+01  2.61591725E+07  9.36611890E-12  2.61591935E+07
         1   15       1.83549300E-02  2.61591725E+07  2.09758567E+01  2.53970045E-06  2.61591935E+07
         1   17       3.73520570E-03  1.18980931E-05  1.34912077E-11  5.32819794E+06  5.32819794E+06
         2    4       3.13720119E-01  2.87485861E+02  1.53792229E+08  6.05710424E-15  1.53792517E+08
         2    6       3.13720118E-01  1.53792229E+08  2.87485861E+02  1.73333467E-10  1.53792516E+08
         2    8       3.47259088E-01  1.93012425E-10  3.05701150E-15  2.10646093E+08  2.10646093E+08
         2   10       1.38631033E-04  1.06532962E-01  1.53917987E+05  5.52905352E-15  1.53918094E+05
         2   12       1.38631035E-04  1.53917990E+05  1.06532916E-01  8.23141938E-10  1.53918096E+05
         2   14       1.83549300E-02  2.09758561E+01  2.61591725E+07  9.36611890E-12  2.61591935E+07
         2   16       1.83549300E-02  2.61591725E+07  2.09758567E+01  2.53970045E-06  2.61591935E+07
         2   18       3.73520570E-03  1.18980931E-05  1.34912077E-11  5.32819794E+06  5.32819794E+06
         3    7       1.40077428E-03  1.62116202E-02  8.67249975E+03  1.91174377E-17  8.67251596E+03
         3    9       1.31567577E-01  1.23090781E+07  3.52682529E+00  4.13521642E+06  1.64442980E+07
         3   11       9.84826858E-02  3.52682536E+00  1.23090778E+07  1.99995446E+01  1.23091013E+07
         3   13       1.95151444E-01  1.13334765E+07  5.80248952E+01  3.62235730E+07  4.75571075E+07
         3   15       4.65073175E-02  5.80250393E+01  1.13334575E+07  8.06197564E+00  1.13335236E+07
         3   17       7.32685346E-02  3.34499051E+01  1.78942448E+07  9.66060028E-11  1.78942782E+07
         4    8       1.40077428E-03  1.62116202E-02  8.67249975E+03  1.91174377E-17  8.67251596E+03
         4   10       1.31567577E-01  1.23090781E+07  3.52682529E+00  4.13521642E+06  1.64442980E+07
         4   12       9.84826858E-02  3.52682536E+00  1.23090778E+07  1.99995446E+01  1.23091013E+07
         4   14       1.95151444E-01  1.13334765E+07  5.80248952E+01  3.62235730E+07  4.75571075E+07
         4   16       4.65073175E-02  5.80250393E+01  1.13334575E+07  8.06197564E+00  1.13335236E+07
         4   18       7.32685346E-02  3.34499051E+01  1.78942448E+07  9.66060028E-11  1.78942782E+07
         5    7       1.40077429E-03  8.67249977E+03  1.62116197E-02  2.79868971E-12  8.67251598E+03
         5    9       9.84826884E-02  3.52682532E+00  1.23090781E+07  1.99995445E+01  1.23091016E+07
         5   11       1.31567579E-01  1.23090782E+07  3.52682505E+00  4.13521652E+06  1.64442982E+07
         5   13       4.65073957E-02  5.80250652E+01  1.13334766E+07  8.06197601E+00  1.13335427E+07
         5   15       1.95151523E-01  1.13334959E+07  5.80249209E+01  3.62235727E+07  4.75571266E+07
         5   17       7.32683744E-02  1.78942056E+07  3.34499216E+01  1.64464352E-05  1.78942391E+07
         6    8       1.40077429E-03  8.67249977E+03  1.62116197E-02  2.79868971E-12  8.67251598E+03
         6   10       9.84826884E-02  3.52682532E+00  1.23090781E+07  1.99995445E+01  1.23091016E+07
         6   12       1.31567579E-01  1.23090782E+07  3.52682505E+00  4.13521652E+06  1.64442982E+07
         6   14       4.65073957E-02  5.80250652E+01  1.13334766E+07  8.06197601E+00  1.13335427E+07
         6   16       1.95151523E-01  1.13334959E+07  5.80249209E+01  3.62235727E+07  4.75571266E+07
         6   18       7.32683744E-02  1.78942056E+07  3.34499216E+01  1.64464352E-05  1.78942391E+07
         7    9       2.93390794E-02  1.53403804E+00  2.21636739E+06  7.21889876E-16  2.21636893E+06
         7   11       2.93390798E-02  2.21636742E+06  1.53403809E+00  2.00059744E-10  2.21636896E+06
         7   13       1.24729947E-01  1.72225215E+01  2.14783564E+07  6.38895104E-11  2.14783736E+07
         7   15       1.24729946E-01  2.14783561E+07  1.72225219E+01  1.67614387E-05  2.14783734E+07
         7   17       2.12885627E-01  9.78608694E-06  1.09126712E-11  3.67545069E+07  3.67545069E+07
         8   10       2.93390794E-02  1.53403804E+00  2.21636739E+06  7.21889876E-16  2.21636893E+06
         8   12       2.93390798E-02  2.21636742E+06  1.53403809E+00  2.00059744E-10  2.21636896E+06
         8   14       1.24729947E-01  1.72225215E+01  2.14783564E+07  6.38895104E-11  2.14783736E+07
         8   16       1.24729946E-01  2.14783561E+07  1.72225219E+01  1.67614387E-05  2.14783734E+07
         8   18       2.12885627E-01  9.78608694E-06  1.09126712E-11  3.67545069E+07  3.67545069E+07
         9   13       8.77479329E-04  1.72084684E+04  6.94191629E-05  1.89813558E+01  1.72274499E+04
         9   15       8.76512965E-04  6.94185596E-05  1.72084772E+04  5.66394160E-05  1.72084773E+04
         9   17       1.26972956E-04  1.73879085E-03  2.51216411E+03  5.28041992E-17  2.51216585E+03
        10   14       8.77479329E-04  1.72084684E+04  6.94191629E-05  1.89813558E+01  1.72274499E+04
        10   16       8.76512965E-04  6.94185596E-05  1.72084772E+04  5.66394160E-05  1.72084773E+04
        10   18       1.26972956E-04  1.73879085E-03  2.51216411E+03  5.28041992E-17  2.51216585E+03
        11   13       8.76512521E-04  6.94171072E-05  1.72084685E+04  5.66397009E-05  1.72084686E+04
        11   15       8.77478858E-04  1.72084592E+04  6.94176483E-05  1.89813595E+01  1.72274406E+04
        11   17       1.26973870E-04  2.51218218E+03  1.73876319E-03  1.55022826E-11  2.51218392E+03
        12   14       8.76512521E-04  6.94171072E-05  1.72084685E+04  5.66397009E-05  1.72084686E+04
        12   16       8.77478858E-04  1.72084592E+04  6.94176483E-05  1.89813595E+01  1.72274406E+04
        12   18       1.26973870E-04  2.51218218E+03  1.73876319E-03  1.55022826E-11  2.51218392E+03
        13   17       7.80834467E-04  1.83885477E-07  2.29325269E-01  9.20430132E-22  2.29325453E-01
        14   18       7.80834467E-04  1.83885477E-07  2.29325269E-01  9.20430132E-22  2.29325453E-01
        15   17       7.80834702E-04  2.29325338E-01  1.83885885E-07  2.01742258E-14  2.29325522E-01
        16   18       7.80834702E-04  2.29325338E-01  1.83885885E-07  2.01742258E-14  2.29325522E-01
     -----------------------------------------------------------------------------------------------
--

++ Length and velocity gauge comparison (SO states):

 --------------------------------------------------
 A comparison between the dipole oscillator strengths in 
 length and velocity gauge will be performed

 All dipole oscillator differences above the tolerance of   0.10000000000000001       will be printed 

 Due to basis set deficiency these oscillator may be problematic 

 The tolerance is defined as ABS(1-O_l/O_v) 
 O_l : dipole oscillator strength in length gauge
 O_p : dipole oscillator strength in velocity gauge
 --------------------------------------------------

  Problematic transitions have been found

      From   To       Difference (%) Osc. st. (len.) Osc. st. (vel.)
     ---------------------------------------------------------------
         1    9            27.413640  1.76634845E-04  1.38631033E-04
         1   11            27.413640  1.76634848E-04  1.38631035E-04
         1   17            13.360888  4.23426235E-03  3.73520570E-03
         2   10            27.413640  1.76634845E-04  1.38631033E-04
         2   12            27.413640  1.76634848E-04  1.38631035E-04
         2   18            13.360888  4.23426235E-03  3.73520570E-03
         3    7            69.906636  2.38000847E-03  1.40077428E-03
         3    9            22.127606  1.02454822E-01  1.31567577E-01
         3   11            21.819502  7.69942541E-02  9.84826858E-02
         3   13            10.257905  1.75132994E-01  1.95151444E-01
         4    8            69.906636  2.38000847E-03  1.40077428E-03
         4   10            22.127606  1.02454822E-01  1.31567577E-01
         4   12            21.819502  7.69942541E-02  9.84826858E-02
         4   14            10.257905  1.75132994E-01  1.95151444E-01
         5    7            69.906633  2.38000844E-03  1.40077429E-03
         5    9            21.819502  7.69942557E-02  9.84826884E-02
         5   11            22.127606  1.02454823E-01  1.31567579E-01
         5   15            10.257905  1.75133066E-01  1.95151523E-01
         6    8            69.906633  2.38000844E-03  1.40077429E-03
         6   10            21.819502  7.69942557E-02  9.84826884E-02
         6   12            22.127606  1.02454823E-01  1.31567579E-01
         6   16            10.257905  1.75133066E-01  1.95151523E-01
         7    9            28.231684  2.10561632E-02  2.93390794E-02
         7   11            28.231684  2.10561635E-02  2.93390798E-02
         7   13            13.419330  1.07992023E-01  1.24729947E-01
         7   15            13.419330  1.07992023E-01  1.24729946E-01
         7   17            15.114071  1.80709941E-01  2.12885627E-01
         8   10            28.231684  2.10561632E-02  2.93390794E-02
         8   12            28.231684  2.10561635E-02  2.93390798E-02
         8   14            13.419330  1.07992023E-01  1.24729947E-01
         8   16            13.419330  1.07992023E-01  1.24729946E-01
         8   18            15.114071  1.80709941E-01  2.12885627E-01
         9   13            15.162701  1.01052889E-03  8.77479329E-04
         9   15            15.218172  1.00990222E-03  8.76512965E-04
         9   17            32.816879  8.53043948E-05  1.26972956E-04
        10   14            15.162701  1.01052889E-03  8.77479329E-04
        10   16            15.218172  1.00990222E-03  8.76512965E-04
        10   18            32.816879  8.53043948E-05  1.26972956E-04
        11   13            15.218183  1.00990180E-03  8.76512521E-04
        11   15            15.162717  1.01052849E-03  8.77478858E-04
        11   17            32.816732  8.53051958E-05  1.26973870E-04
        12   14            15.218183  1.00990180E-03  8.76512521E-04
        12   16            15.162717  1.01052849E-03  8.77478858E-04
        12   18            32.816732  8.53051958E-05  1.26973870E-04
        13   17            97.858742  1.67196784E-05  7.80834467E-04
        14   18            97.858742  1.67196784E-05  7.80834467E-04
        15   17            97.858746  1.67196525E-05  7.80834702E-04
        16   18            97.858746  1.67196525E-05  7.80834702E-04
     ---------------------------------------------------------------

 Number of problematic transitions =                    48

--

 Electric-dipole - electric-octupole not included
++ I/O STATISTICS
 
  I. General I/O information
  - - - - - - - - - - - - - - - - - - - - - - - - - - - - - - - - - - - - - - - - - - -
  Unit  Name          Flsize      Write/Read            MBytes           Write/Read
                      (MBytes)       Calls              In/Out           Time, sec.
  - - - - - - - - - - - - - - - - - - - - - - - - - - - - - - - - - - - - - - - - - - -
   1  SCRATCH           0.00 .       9/      45 .      0.0/      0.0 .       0/       0
   2  ANNI              0.00 .       0/       0 .      0.0/      0.0 .       0/       0
   3  RUNFILE          14.85 .     322/    9923 .      2.3/     72.0 .       0/       0
   4  ONEINT            5.58 .       0/   23543 .      0.0/   3739.9 .       0/       0
   5  JOBIPH            6.48 .       0/      92 .      0.0/      0.8 .       0/       0
   6  ORDINT          506.53 .       1/    4053 .      0.0/   1013.0 .       0/       0
  - - - - - - - - - - - - - - - - - - - - - - - - - - - - - - - - - - - - - - - - - - -
   *  TOTAL           533.45 .     332/   37656 .      2.3/   4825.7 .       0/       0
  - - - - - - - - - - - - - - - - - - - - - - - - - - - - - - - - - - - - - - - - - - -
 
  II. I/O Access Patterns
  - - - - - - - - - - - - - - - - - - - -
  Unit  Name               % of random
                         Write/Read calls
  - - - - - - - - - - - - - - - - - - - -
   1  SCRATCH             88.9/ 100.0
   2  ANNI                 0.0/   0.0
   3  RUNFILE             28.6/  10.8
   4  ONEINT               0.0/  16.4
   5  JOBIPH               0.0/  76.1
   6  ORDINT             100.0/   0.0
  - - - - - - - - - - - - - - - - - - - -
--
--- Stop Module: rassi at Thu Jan  9 20:10:02 2025 /rc=_RC_ALL_IS_WELL_ ---
*** files: xmldump
    saved to directory /home4/s4752295/Internship/Initial_simulations/Point_charge_model/1_electron/active_space_9_non_rel/Cr/varying_bond_length
--- Module rassi spent 4 seconds ---

.##################.
.# Happy landing! #.
.##################.

    Timing: Wall=57.30 User=43.98 System=8.29

###############################################################################
Hbrk Cluster
Job 14548072 for user s4752295
Finished at: Thu Jan  9 20:10:03 CET 2025

Job details:
============

Job ID                         : 14548072
Name                           : Cr_no_c_light
User                           : s4752295
Partition                      : regularmedium
Nodes                          : node101
Number of Nodes                : 1
Cores                          : 1
Number of Tasks                : 1
State                          : RUNNING  
Submit                         : 2025-01-09T20:08:57
Start                          : 2025-01-09T20:08:58
End                            : --
Reserved walltime              : 15:00:00
Used walltime                  : 00:01:05
Used CPU time                  : -- 
% User (Computation)           : --
% System (I/O)                 : --
Total memory reserved          : 25000M
Maximum memory used            : --

Acknowledgements:
=================

Please see this page for information about acknowledging Hbrk in your publications:

https://wiki.hpc.rug.nl/habrok/introduction/scientific_output

################################################################################
