   This run of MOLCAS is using the pymolcas driver

                             OPE
                             OPE          NMOL  CASOP  ENMOLC A   SO
                 OPE        NMOLC        AS  OP EN  MO LC     AS  OP
                OPENM       OL CA        SO  PE NM  OL CA     SOP EN
                OP EN      MO   LC       AS  OP ENMOL  CASO   PENMOL
                OP  EN     MO   LC       AS  OP EN     MO     LC ASO
               OP   E  NMOL  C  AS       OP  EN MO     LC     AS  OP
               OP  E   NMO   LC AS        OPEN  MO     LCASOP EN   M
               O  PEN   MO  LCA  SO
            OPE   NMO   L   CAS    OP
        OPENMOL  CASOP     ENMOL   CASOPE
     OPENMOLCA   SOPENMOLCASOPEN   MOLCASOPE
    OPENMOLCAS   OP           EN   MOL    CAS
    OPENMOLCAS       OP  ENM        O     LCA
    OPENMOLCAS    OPEN  MOLCASO     P  E  NMO
    OPENMOLCAS     OP               E  N  MOL
    OPENMOLCA   SO           PENM   O  L  CAS    OPEN    MO    LCAS
    OPENMOLCA   SOP           ENM   O  L  CAS   OP  EN  MOLC  AS   O
    OPENMOLCA   SOPE           NM      O  LCA   S      OP  EN MO
    OPENMOLC                AS         O  PEN   M      OL  CA  SOPE
    OPENMO        LCASOPE  NMOL        C  ASO   P      ENMOLC     AS
    OPE     NMO      LCA  SO     P     E   NM   OL  CA SO  PE N   MO
          OPENMOLCA            SOPE   NMO        LCAS  O    P  ENMO
     OPENMOLCASOPENMOLCASOPENMOLCASOPENMOLCA
        OPENMOLCASOPENMOLCASOPENMOLCASOPE
            OPENMOLCASOPENMOLCASOPENM
               OPENMOLCASOPENMOLCA        version: o91e1abe7de707b ?
                   OPENMOLCASO
                       OPE                tag:

 OpenMolcas is free software; you can redistribute it and/or modify it
 under the terms of the GNU Lesser General Public License version 2.1.
 OpenMolcas is distributed in the hope that it will be useful, but it
 is provided "as is" and without any express or implied warranties.
 For more details see the full text of the license in the file
 LICENSE or in <http://www.gnu.org/licenses/>.

                 Copyright (C) The OpenMolcas Authors
           For the author list and the recommended citation,
                   consult the file CONTRIBUTORS.md

           *************************************************
           * pymolcas version py2.10                       *
           *   build 3068ae8b88c9345ec6cfef6fef7f1169      *
           *   (after the EMIL interpreter by V. Veryazov) *
           *************************************************

configuration info
------------------
Host name: login1 (Linux)
C Compiler ID: GNU
C flags: -std=gnu99
Fortran Compiler ID: GNU
Fortran flags: -fno-aggressive-loop-optimizations -cpp -fdefault-integer-8 -fmax-stack-var-size=1048576
Definitions: _MOLCAS_;_I8_;_LINUX_;_MKL_
Parallel: OFF (GA=OFF)


   ----------------------------------------------------------------------------------------------------------------------------------------------
  |
  |           Project: chromium_so_cf
  |    Submitted from: /home4/s4752295/Internship/Initial_simulations/Point_charge_model/1_electron/active_space_9_non_rel/Cr/varying_bond_length
  |      Scratch area: /tmp/chromium_so_cf
  |   Save outputs to: /home4/s4752295/Internship/Initial_simulations/Point_charge_model/1_electron/active_space_9_non_rel/Cr/varying_bond_length
  |            Molcas: /home4/s4752295/Internship/Molcas/recomp_try/OpenMolcas-master/build
  |
  | Scratch area is empty
  |
  |    MOLCAS_DRIVER = /home4/s4752295/Internship/Molcas/bin/pymolcas
  |    MOLCAS_NPROCS = 1
  |    MOLCAS_SOURCE = /home4/s4752295/Internship/Molcas/recomp_try/OpenMolcas-master
  | MOLCAS_STRUCTURE = 0
  |
   ----------------------------------------------------------------------------------------------------------------------------------------------

++ ---------   Input file   ---------

&SEWARD
AMFi

CLIG
$R

Basis Set
Cr.ANO-rcc.Roos.21s15p10d6f4g2h.10s10p8d6f4g2h.
Spherical d
Cr            0.0       0.0     0.0
End of Basis

Xfield

4
0.000000,  0.00000,  1.7010     -1.0
1.473109,  0.00000, -0.8505     -1.0
-0.736555,  1.27575, -0.8505    -1.0
-0.736555, -1.27575, -0.8505    -1.0

End of input

&SCF
Occupied
9
Iterations
   50  100
End of Input

&RASSCF
LumOrb
Symmetry
1
Spin
2
Nactel
1 0 0
CIRoot
9 9 1
inactive
9
ras2
9
End of Input

>>> COPY chromium_so_cf.JobIph $SLURM_SUBMIT_DIR/chromium_so_cf.doublet.JobIph

>>> COPY $SLURM_SUBMIT_DIR/chromium_so_cf.doublet.JobIph ./JOB002

&RASSI
NROFJobIph
1 All
SpinOrbit
End of Input

EOF

-- ----------------------------------

--- Start Module: seward at Fri Jan 10 02:17:36 2025 ---

()()()()()()()()()()()()()()()()()()()()()()()()()()()()()()()()()()()()()()()()()()()()()()()()()()

                                              &SEWARD

                                   only a single process is used
                       available to each process: 4.1 GB of memory, 1 thread?
                                            pid: 1089011
()()()()()()()()()()()()()()()()()()()()()()()()()()()()()()()()()()()()()()()()()()()()()()()()()()

 The speed of LIGHT in this CALCULATION =   137.03599917700001     
               SEWARD will generate:
                  Multipole Moment integrals up to order  2
                  Kinetic Energy integrals
                  Nuclear Attraction integrals (point charge)
                  One-Electron Hamiltonian integrals
                  Velocity integrals
                  Relativistic Douglas-Kroll-Hess integrals:
                    - Parametrization         : EXP
                    - DKH order of Hamiltonian: 2
                    - DKH order of Properties : 0
                         - multipole moment operators
                         - electric potential operators
                         - contact operators
                  External field from     4 point(s) added to the one-electron Hamiltonian
                  Orbital angular momentum around ( 0.0000  0.0000  0.0000 )
                  Velocity quadrupole around ( 0.0000  0.0000  0.0000 )
                  Atomic mean-field integrals
                  Two-Electron Repulsion integrals

                   Integrals are discarded if absolute value <: 0.10E-13
                   Integral cutoff threshold is set to       <: 0.10E-15

++    Symmetry information:
      ---------------------

                    Character Table for C1 

                             E  
                    a        1  x, y, xy, Rz, z, xz, Ry, yz, Rx, I
--


++    Basis set information:
      ----------------------


      Basis set label: CR.ANO-RCC.ROOS.21S15P10D6F4G2H.10S10P8D6F4G2H......

      Electronic valence basis set:
      ------------------
      Associated Effective Charge  24.000000 au
      Associated Actual Charge     24.000000 au
      Nuclear Model: Point charge

      Shell  nPrim  nBasis  Cartesian Spherical Contaminant
         s      21      10        X                  
         p      15      10        X                  
         d      10       8                 X         
         f       6       6                 X         
         g       4       4                 X         
         h       2       2                 X         
--


++    Molecular structure info:
      -------------------------

                    ************************************************ 
                    **** Cartesian Coordinates / Bohr, Angstrom **** 
                    ************************************************ 

     Center  Label                x              y              z                     x              y              z
        1      CR               0.000000       0.000000       0.000000              0.000000       0.000000       0.000000
--


++    Operator info:
      --------------


  Net charge from external field:   -4.0000000000000000     
--


            Nuclear Potential Energy              0.00000000 au

                    Nuclear-External Field Potential Energy     -56.43738846 au
                    External Field Potential Energy               2.19403334 au 


            Total Nuclear Potential Energy            -56.43738846 au


      Basis set specifications :
      Symmetry species         a  
      Basis functions          180

 Sorry, Molden does not know how to handle
 functions with angular momentum larger than g
Note: The following floating-point exceptions are signalling: IEEE_UNDERFLOW_FLAG IEEE_DENORMAL
--- Stop Module: seward at Fri Jan 10 02:17:45 2025 /rc=_RC_ALL_IS_WELL_ ---
*** files: chromium_so_cf.GssOrb xmldump
    saved to directory /home4/s4752295/Internship/Initial_simulations/Point_charge_model/1_electron/active_space_9_non_rel/Cr/varying_bond_length
--- Module seward spent 8 seconds ---

*** symbolic link created: INPORB -> chromium_so_cf.GssOrb
--- Start Module: scf at Fri Jan 10 02:17:45 2025 ---

()()()()()()()()()()()()()()()()()()()()()()()()()()()()()()()()()()()()()()()()()()()()()()()()()()

                                                &SCF

                                   only a single process is used
                       available to each process: 4.1 GB of memory, 1 thread?
                                            pid: 1089295
()()()()()()()()()()()()()()()()()()()()()()()()()()()()()()()()()()()()()()()()()()()()()()()()()()

++    Input section:
      --------------

      Header of the integral files:
      
       Integrals generated by seward 4.2.0  , Fri Jan 10 02:17:37 2025


      Cartesian coordinates in Angstrom:
      -----------------------------------------------------
      No.  Label        X            Y            Z        
      -----------------------------------------------------
       1   CR         0.00000000   0.00000000   0.00000000
      -----------------------------------------------------
      Nuclear repulsion energy =  -56.43738846
--

++    Orbital specifications:
      -----------------------

      Symmetry species               1
                                     a
      Frozen orbitals                0
      Occupied orbitals              9
      Secondary orbitals           171
      Deleted orbitals               0
      Total number of orbitals     180
      Number of basis functions    180
--

      Molecular charge                           6.000

++    Optimization specifications:
      ----------------------------

      SCF Algorithm: Conventional
      Minimized density differences are used
      Number of density matrices in core                5
      Maximum number of NDDO SCF iterations            50
      Maximum number of HF SCF iterations             100
      Threshold for SCF energy change            0.10E-08
      Threshold for density matrix               0.10E-03
      Threshold for Fock matrix                  0.15E-03
      Threshold for linear dependence            0.10E-08
      Threshold at which DIIS is turned on       0.15E+00
      Threshold at which QNR/C2DIIS is turned on 0.75E-01
      Threshold for Norm(delta) (QNR/C2DIIS)     0.20E-04
      DIIS extrapolation of the SCF procedure
      All orbitals punched on: SCFORB
--

      Detected guessorb starting orbitals                                             


++ Convergence information
                                   SCF        iterations: Energy and convergence statistics

Iter     Tot. SCF        One-elec.       Two-elec.     Energy      Max Dij or  Max Fij      DNorm      TNorm      AccCon     Time
         Energy          Energy          Energy        Change      Delta Norm                                                in Sec.

 The total and one-electron energies are shifted by a value of      1000. a.u.

   1   -53.827431570  -302.766706187   305.376663078   0.00E+00    0.14E+00*   0.42E+00*    0.60E+01   0.25E+03   None         1.
   2   -54.404895722  -314.747326465   316.779819204  -0.58E+00*   0.32E-01*   0.73E-01*    0.10E+01   0.25E+03   EDIIS        1.
   3   -54.415737136  -313.272862950   315.294514276  -0.11E-01*   0.79E-02*   0.12E-01*    0.11E+00   0.25E+03   EDIIS        1.
   4   -54.416254287  -313.512281915   315.533416090  -0.52E-03*   0.39E-02*   0.42E-02*    0.20E-01   0.25E+03   c2DIIS       1.
   5   -54.416301758  -313.477817752   315.498904456  -0.47E-04*   0.11E-02*   0.18E-02*    0.26E-02   0.25E+03   QNRc2DIIS    1.
   6   -54.416311177  -313.477822609   315.498899894  -0.94E-05*   0.69E-03*   0.72E-03*    0.29E-03   0.25E+03   QNRc2DIIS    1.
   7   -54.416312792  -313.477158306   315.498233975  -0.16E-05*   0.98E-05    0.21E-04     0.43E-04   0.25E+03   QNRc2DIIS    1.
   8   -54.416312793  -313.477232065   315.498307734  -0.88E-09    0.95E-06    0.10E-05     0.48E-04   0.25E+03   QNRc2DIIS    1.

       Convergence after  8 Macro Iterations
--

 *****************************************************************************************************************************
 *                                                                                                                           *
 *                                             SCF/KS-DFT Program, Final results                                             *
 *                                                                                                                           *
 *                                                                                                                           *
 *                                                                                                                           *
 *                                                       Final Results                                                       *
 *                                                                                                                           *
 *****************************************************************************************************************************

::    Total SCF energy                              -1054.4163127932
      One-electron energy                           -1313.4772320652
      Two-electron energy                             315.4983077336
      Nuclear repulsion energy                        -56.4373884616
      Kinetic energy (interpolated)                  1077.9017064007
      Virial theorem                                    0.9782119339
      Total spin, S(S+1)                                0.0000000000
      Total spin, S                                     0.0000000000
      Max non-diagonal density matrix element           0.0000005958
      Max non-diagonal Fock matrix element              0.0000001836


      All orbitals with orbital energies smaller than  E(LUMO)+0.5 are printed

++    Molecular orbitals:
      -------------------

      Title: SCF orbitals

      Molecular orbitals for symmetry species 1: a  

          Orbital            1         2         3         4         5         6         7         8         9        10    
          Energy         -223.9952  -28.6680  -24.2934  -24.2934  -24.2906   -4.9593   -3.6020   -3.6020   -3.5364   -1.0137
          Occ. No.          2.0000    2.0000    2.0000    2.0000    2.0000    2.0000    2.0000    2.0000    2.0000    0.0000

        1 CR     1s         1.0000   -0.0001   -0.0000   -0.0000   -0.0000    0.0001   -0.0000    0.0000    0.0000    0.0000
        2 CR     2s         0.0001    1.0000   -0.0000   -0.0000   -0.0013    0.0022   -0.0000   -0.0000   -0.0003    0.0000
        3 CR     3s        -0.0001   -0.0022    0.0000    0.0000    0.0003    0.9948   -0.0000   -0.0000   -0.0377    0.0000
        4 CR     4s         0.0000    0.0001   -0.0000   -0.0000   -0.0000   -0.0457   -0.0000    0.0000    0.0067   -0.0000
        5 CR     5s        -0.0000   -0.0005    0.0000    0.0000    0.0001    0.0699   -0.0000   -0.0000   -0.0112    0.0000
        6 CR     6s         0.0000    0.0003   -0.0000   -0.0000   -0.0001   -0.0309    0.0000    0.0000    0.0052   -0.0000
        7 CR     7s        -0.0000   -0.0001    0.0000    0.0000    0.0000   -0.0069    0.0000    0.0000    0.0012   -0.0000
        8 CR     8s         0.0000   -0.0000    0.0000   -0.0000   -0.0000    0.0062    0.0000   -0.0000   -0.0012    0.0000
        9 CR     9s        -0.0001    0.0002    0.0000    0.0000   -0.0000    0.0013    0.0000   -0.0000   -0.0002    0.0000
       10 CR    10s         0.0001   -0.0003   -0.0000   -0.0000    0.0000    0.0002    0.0000   -0.0000   -0.0000    0.0000
       11 CR     2px        0.0000    0.0000    0.0000    1.0000   -0.0000   -0.0000    0.0000    0.0032   -0.0000   -0.0000
       12 CR     3px       -0.0000    0.0000   -0.0000   -0.0031    0.0000    0.0000    0.0000    0.9908   -0.0000    0.0015
       13 CR     4px        0.0000   -0.0000    0.0000    0.0005   -0.0000    0.0000   -0.0000   -0.0788    0.0000   -0.0034
       14 CR     5px       -0.0000    0.0000   -0.0000   -0.0008    0.0000   -0.0000    0.0000    0.0886   -0.0000    0.0039
       15 CR     6px        0.0000   -0.0000    0.0000    0.0002   -0.0000   -0.0000   -0.0000   -0.0048    0.0000    0.0000
       16 CR     7px       -0.0000    0.0000   -0.0000   -0.0000    0.0000    0.0000   -0.0000   -0.0112    0.0000   -0.0011
       17 CR     8px        0.0000   -0.0000   -0.0000   -0.0002    0.0000   -0.0000    0.0000    0.0033   -0.0000    0.0005
       18 CR     9px       -0.0000    0.0000    0.0000    0.0003   -0.0000   -0.0000    0.0000    0.0019    0.0000    0.0003
       19 CR    10px        0.0000   -0.0000   -0.0000   -0.0003    0.0000    0.0000   -0.0000   -0.0010    0.0000   -0.0002
       20 CR    11px       -0.0000    0.0000    0.0000    0.0002   -0.0000    0.0000   -0.0000   -0.0006    0.0000   -0.0001
       21 CR     2py       -0.0000   -0.0000    1.0000   -0.0000   -0.0000   -0.0000    0.0032   -0.0000   -0.0000    0.0000
       22 CR     3py        0.0000    0.0000   -0.0031    0.0000    0.0000   -0.0000    0.9908   -0.0000   -0.0000   -0.0000
       23 CR     4py       -0.0000   -0.0000    0.0005   -0.0000   -0.0000    0.0000   -0.0788    0.0000    0.0000    0.0000
       24 CR     5py        0.0000    0.0000   -0.0008    0.0000    0.0000   -0.0000    0.0886   -0.0000   -0.0000   -0.0000
       25 CR     6py       -0.0000   -0.0000    0.0002   -0.0000   -0.0000    0.0000   -0.0048    0.0000    0.0000   -0.0000
       26 CR     7py        0.0000    0.0000   -0.0000    0.0000    0.0000   -0.0000   -0.0112    0.0000    0.0000    0.0000
       27 CR     8py       -0.0000   -0.0000   -0.0002    0.0000    0.0000    0.0000    0.0033   -0.0000   -0.0000   -0.0000
       28 CR     9py        0.0000    0.0000    0.0003   -0.0000   -0.0000   -0.0000    0.0019   -0.0000    0.0000   -0.0000
       29 CR    10py       -0.0000   -0.0000   -0.0003    0.0000    0.0000    0.0000   -0.0010    0.0000    0.0000    0.0000
       30 CR    11py        0.0000    0.0000    0.0002   -0.0000   -0.0000   -0.0000   -0.0006    0.0000    0.0000    0.0000
       31 CR     2pz        0.0000    0.0013    0.0000    0.0000    1.0000   -0.0002    0.0000    0.0000    0.0035   -0.0000
       32 CR     3pz       -0.0000    0.0002   -0.0000   -0.0000   -0.0034    0.0387    0.0000    0.0000    0.9899   -0.0000
       33 CR     4pz        0.0000   -0.0000    0.0000    0.0000    0.0006   -0.0011   -0.0000   -0.0000   -0.0847    0.0000
       34 CR     5pz       -0.0000    0.0001   -0.0000   -0.0000   -0.0010   -0.0006    0.0000    0.0000    0.0984   -0.0000
       35 CR     6pz        0.0000   -0.0000    0.0000    0.0000    0.0003    0.0012   -0.0000   -0.0000   -0.0070   -0.0000
       36 CR     7pz       -0.0000    0.0000    0.0000   -0.0000   -0.0001   -0.0010   -0.0000   -0.0000   -0.0115    0.0000
       37 CR     8pz        0.0000   -0.0000   -0.0000   -0.0000   -0.0002   -0.0003    0.0000    0.0000    0.0046    0.0000
       38 CR     9pz       -0.0000    0.0000    0.0000    0.0000    0.0003    0.0004    0.0000    0.0000    0.0016    0.0000
       39 CR    10pz        0.0000   -0.0000   -0.0000   -0.0000   -0.0003    0.0002    0.0000   -0.0000   -0.0017    0.0000
       40 CR    11pz       -0.0000    0.0000    0.0000    0.0000    0.0002    0.0000    0.0000   -0.0000   -0.0008    0.0000
       41 CR     3d2-       0.0000    0.0000    0.0001   -0.0000   -0.0000   -0.0000    0.0305   -0.0000   -0.0000    0.0000
       42 CR     4d2-      -0.0000   -0.0000   -0.0001    0.0000    0.0000    0.0000   -0.0064    0.0000    0.0000   -0.0000
       43 CR     5d2-       0.0000    0.0000   -0.0000    0.0000    0.0000   -0.0000   -0.0053    0.0000    0.0000   -0.0000
       44 CR     6d2-      -0.0000   -0.0000    0.0001   -0.0000   -0.0000    0.0000    0.0024   -0.0000   -0.0000    0.0000
       45 CR     7d2-       0.0000    0.0000   -0.0000    0.0000    0.0000   -0.0000    0.0020   -0.0000   -0.0000    0.0000
       46 CR     8d2-      -0.0000   -0.0000    0.0000   -0.0000   -0.0000    0.0000   -0.0007    0.0000   -0.0000    0.0000
       47 CR     9d2-       0.0000    0.0000   -0.0000    0.0000    0.0000   -0.0000   -0.0013    0.0000    0.0000    0.0000
       48 CR    10d2-      -0.0000    0.0000    0.0000   -0.0000   -0.0000   -0.0000   -0.0002    0.0000    0.0000    0.0000
       49 CR     3d1-      -0.0000    0.0000    0.0002   -0.0000   -0.0000   -0.0000    0.0505   -0.0000   -0.0000   -0.0000
       50 CR     4d1-       0.0000   -0.0000   -0.0002    0.0000    0.0000    0.0000   -0.0116    0.0000    0.0000    0.0000
       51 CR     5d1-      -0.0000    0.0000    0.0001   -0.0000   -0.0000   -0.0000   -0.0077    0.0000    0.0000    0.0000
       52 CR     6d1-      -0.0000   -0.0000    0.0000   -0.0000   -0.0000    0.0000    0.0040   -0.0000   -0.0000   -0.0000
       53 CR     7d1-       0.0000    0.0000   -0.0000    0.0000    0.0000    0.0000    0.0027   -0.0000   -0.0000   -0.0000
       54 CR     8d1-      -0.0000   -0.0000    0.0000   -0.0000   -0.0000   -0.0000   -0.0011    0.0000   -0.0000   -0.0000
       55 CR     9d1-       0.0000    0.0000   -0.0000    0.0000    0.0000   -0.0000   -0.0017    0.0000    0.0000   -0.0000
       56 CR    10d1-       0.0000   -0.0000   -0.0000    0.0000    0.0000    0.0000   -0.0002    0.0000    0.0000   -0.0000
       57 CR     3d0       -0.0000   -0.0001   -0.0000   -0.0000   -0.0000   -0.0140   -0.0000   -0.0000   -0.0255    0.0000
       58 CR     4d0        0.0000    0.0001    0.0000    0.0000   -0.0000    0.0033   -0.0000    0.0000    0.0039   -0.0000
       59 CR     5d0       -0.0000   -0.0001   -0.0000    0.0000    0.0001    0.0027    0.0000    0.0000    0.0057    0.0000
       60 CR     6d0        0.0000    0.0000    0.0000   -0.0000   -0.0001   -0.0019   -0.0000   -0.0000   -0.0018    0.0000
       61 CR     7d0       -0.0000   -0.0000    0.0000    0.0000    0.0001   -0.0007   -0.0000   -0.0000   -0.0024    0.0000
       62 CR     8d0        0.0000    0.0000   -0.0000   -0.0000   -0.0001    0.0006    0.0000    0.0000    0.0006   -0.0000
       63 CR     9d0       -0.0000   -0.0000    0.0000    0.0000    0.0000    0.0004    0.0000    0.0000    0.0016    0.0000
       64 CR    10d0        0.0000   -0.0000    0.0000   -0.0000   -0.0000    0.0000    0.0000    0.0000    0.0003    0.0000
       65 CR     3d1+      -0.0000    0.0000    0.0000    0.0002   -0.0000    0.0000    0.0000    0.0505   -0.0000    0.4661
       66 CR     4d1+      -0.0000   -0.0000   -0.0000   -0.0002    0.0000   -0.0000   -0.0000   -0.0116    0.0000   -0.1107
       67 CR     5d1+       0.0000    0.0000    0.0000    0.0001   -0.0000   -0.0000   -0.0000   -0.0077    0.0000   -0.0041
       68 CR     6d1+      -0.0000   -0.0000    0.0000    0.0000   -0.0000    0.0000    0.0000    0.0040   -0.0000    0.0013
       69 CR     7d1+       0.0000    0.0000   -0.0000   -0.0000    0.0000   -0.0000    0.0000    0.0027   -0.0000    0.0041
       70 CR     8d1+      -0.0000    0.0000    0.0000    0.0000   -0.0000   -0.0000   -0.0000   -0.0011    0.0000    0.0009
       71 CR     9d1+       0.0000    0.0000   -0.0000   -0.0000    0.0000    0.0000   -0.0000   -0.0017   -0.0000    0.0000
       72 CR    10d1+      -0.0000    0.0000   -0.0000   -0.0000   -0.0000    0.0000   -0.0000   -0.0002   -0.0000    0.0001
       73 CR     3d2+      -0.0000   -0.0000   -0.0000   -0.0001    0.0000   -0.0000   -0.0000   -0.0305    0.0000    0.8525
       74 CR     4d2+       0.0000    0.0000    0.0000    0.0001   -0.0000    0.0000    0.0000    0.0064   -0.0000   -0.2046
       75 CR     5d2+      -0.0000   -0.0000    0.0000    0.0000   -0.0000    0.0000    0.0000    0.0053   -0.0000   -0.0042
       76 CR     6d2+       0.0000    0.0000   -0.0000   -0.0001    0.0000   -0.0000   -0.0000   -0.0024    0.0000    0.0024
       77 CR     7d2+      -0.0000   -0.0000    0.0000    0.0000   -0.0000   -0.0000   -0.0000   -0.0020    0.0000    0.0061
       78 CR     8d2+       0.0000    0.0000   -0.0000   -0.0000    0.0000    0.0000    0.0000    0.0007   -0.0000    0.0016
       79 CR     9d2+      -0.0000   -0.0000    0.0000    0.0000   -0.0000    0.0000    0.0000    0.0013   -0.0000    0.0015
       80 CR    10d2+       0.0000   -0.0000   -0.0000   -0.0000    0.0000   -0.0000    0.0000    0.0002    0.0000    0.0007
       81 CR     4f3-      -0.0000   -0.0000   -0.0000    0.0000    0.0000    0.0000   -0.0000    0.0000   -0.0000    0.0000
       82 CR     5f3-       0.0000    0.0000    0.0000   -0.0000    0.0000   -0.0000   -0.0000    0.0000   -0.0000    0.0000
       83 CR     6f3-      -0.0000   -0.0000   -0.0000    0.0000   -0.0000    0.0000    0.0000   -0.0000   -0.0000   -0.0000
       84 CR     7f3-       0.0000    0.0000    0.0000   -0.0000    0.0000   -0.0000   -0.0000    0.0000    0.0000   -0.0000
       85 CR     8f3-      -0.0000   -0.0000   -0.0000    0.0000   -0.0000    0.0000   -0.0000    0.0000   -0.0000   -0.0000
       86 CR     9f3-       0.0000    0.0000    0.0000   -0.0000    0.0000   -0.0000   -0.0000    0.0000   -0.0000    0.0000
       87 CR     4f2-      -0.0000   -0.0000   -0.0000    0.0000    0.0000   -0.0000   -0.0087    0.0000    0.0000    0.0000
       88 CR     5f2-       0.0000    0.0000    0.0000   -0.0000   -0.0000    0.0000   -0.0014    0.0000    0.0000    0.0000
       89 CR     6f2-      -0.0000   -0.0000   -0.0000    0.0000    0.0000   -0.0000    0.0032   -0.0000   -0.0000   -0.0000
       90 CR     7f2-       0.0000   -0.0000   -0.0000    0.0000   -0.0000   -0.0000   -0.0004    0.0000    0.0000   -0.0000
       91 CR     8f2-      -0.0000    0.0000    0.0000   -0.0000   -0.0000    0.0000   -0.0008    0.0000    0.0000    0.0000
       92 CR     9f2-       0.0000   -0.0000   -0.0000    0.0000   -0.0000   -0.0000   -0.0002    0.0000   -0.0000    0.0000
       93 CR     4f1-      -0.0000   -0.0000   -0.0001    0.0000    0.0000    0.0000   -0.0067    0.0000    0.0000   -0.0000
       94 CR     5f1-       0.0000    0.0000    0.0000   -0.0000   -0.0000   -0.0000   -0.0002    0.0000    0.0000   -0.0000
       95 CR     6f1-      -0.0000   -0.0000   -0.0000    0.0000    0.0000    0.0000    0.0017   -0.0000   -0.0000    0.0000
       96 CR     7f1-       0.0000    0.0000    0.0000   -0.0000   -0.0000   -0.0000   -0.0004    0.0000   -0.0000    0.0000
       97 CR     8f1-      -0.0000   -0.0000   -0.0000    0.0000    0.0000    0.0000   -0.0003    0.0000    0.0000    0.0000
       98 CR     9f1-      -0.0000    0.0000    0.0000   -0.0000   -0.0000   -0.0000   -0.0001    0.0000   -0.0000   -0.0000
       99 CR     4f0        0.0000   -0.0002   -0.0000   -0.0000   -0.0001   -0.0183   -0.0000   -0.0000   -0.0094   -0.0000
      100 CR     5f0       -0.0000    0.0001    0.0000    0.0000    0.0001   -0.0002    0.0000    0.0000   -0.0006   -0.0000
      101 CR     6f0        0.0000   -0.0000   -0.0000   -0.0000   -0.0000    0.0056    0.0000    0.0000    0.0025    0.0000
      102 CR     7f0       -0.0000   -0.0000    0.0000    0.0000    0.0000   -0.0017   -0.0000   -0.0000   -0.0004    0.0000
      103 CR     8f0        0.0000    0.0000   -0.0000   -0.0000   -0.0000   -0.0013   -0.0000   -0.0000   -0.0005   -0.0000
      104 CR     9f0       -0.0000   -0.0000    0.0000    0.0000    0.0000    0.0001    0.0000    0.0000   -0.0002   -0.0000
      105 CR     4f1+       0.0000   -0.0000   -0.0000   -0.0001    0.0000   -0.0000   -0.0000   -0.0067    0.0000    0.0123
      106 CR     5f1+      -0.0000    0.0000    0.0000    0.0000   -0.0000    0.0000   -0.0000   -0.0002   -0.0000    0.0048
      107 CR     6f1+       0.0000   -0.0000   -0.0000   -0.0000    0.0000    0.0000    0.0000    0.0017   -0.0000   -0.0014
      108 CR     7f1+      -0.0000   -0.0000    0.0000    0.0000   -0.0000   -0.0000   -0.0000   -0.0004    0.0000   -0.0009
      109 CR     8f1+       0.0000    0.0000   -0.0000   -0.0000    0.0000   -0.0000   -0.0000   -0.0003    0.0000   -0.0001
      110 CR     9f1+      -0.0000   -0.0000    0.0000    0.0000   -0.0000    0.0000   -0.0000   -0.0001   -0.0000    0.0003
      111 CR     4f2+      -0.0000    0.0000    0.0000    0.0000   -0.0000    0.0000    0.0000    0.0087   -0.0000    0.0338
      112 CR     5f2+       0.0000   -0.0000   -0.0000   -0.0000    0.0000   -0.0000    0.0000    0.0014    0.0000    0.0136
      113 CR     6f2+      -0.0000    0.0000    0.0000    0.0000   -0.0000   -0.0000   -0.0000   -0.0032    0.0000   -0.0051
      114 CR     7f2+       0.0000    0.0000    0.0000    0.0000    0.0000    0.0000    0.0000    0.0004   -0.0000   -0.0026
      115 CR     8f2+      -0.0000   -0.0000   -0.0000   -0.0000   -0.0000    0.0000    0.0000    0.0008   -0.0000    0.0003
      116 CR     9f2+       0.0000    0.0000    0.0000    0.0000    0.0000   -0.0000    0.0000    0.0002    0.0000    0.0012
      117 CR     4f3+       0.0000   -0.0001   -0.0000   -0.0000    0.0000   -0.0119    0.0000   -0.0000    0.0086    0.0000
      118 CR     5f3+      -0.0000    0.0001    0.0000    0.0000   -0.0000   -0.0001    0.0000    0.0000    0.0013    0.0000
      119 CR     6f3+       0.0000   -0.0000   -0.0000   -0.0000    0.0000    0.0036   -0.0000    0.0000   -0.0030   -0.0000
      120 CR     7f3+      -0.0000   -0.0000    0.0000    0.0000    0.0000   -0.0011   -0.0000   -0.0000    0.0004   -0.0000
      121 CR     8f3+       0.0000    0.0000   -0.0000   -0.0000   -0.0000   -0.0008    0.0000    0.0000    0.0008   -0.0000
      122 CR     9f3+      -0.0000   -0.0000    0.0000    0.0000    0.0000    0.0001   -0.0000    0.0000    0.0002    0.0000
      123 CR     5g4-      -0.0000   -0.0000   -0.0001    0.0000    0.0000    0.0000   -0.0078    0.0000    0.0000   -0.0000
      124 CR     6g4-       0.0000    0.0000    0.0000   -0.0000   -0.0000    0.0000   -0.0032    0.0000    0.0000   -0.0000
      125 CR     7g4-      -0.0000   -0.0000   -0.0000    0.0000    0.0000   -0.0000    0.0017   -0.0000   -0.0000   -0.0000
      126 CR     8g4-       0.0000    0.0000   -0.0000    0.0000   -0.0000    0.0000    0.0011   -0.0000   -0.0000    0.0000
      127 CR     5g3-       0.0000    0.0000    0.0000   -0.0000    0.0000    0.0000    0.0000   -0.0000   -0.0000    0.0000
      128 CR     6g3-      -0.0000   -0.0000   -0.0000    0.0000    0.0000   -0.0000    0.0000   -0.0000    0.0000    0.0000
      129 CR     7g3-       0.0000    0.0000    0.0000   -0.0000    0.0000    0.0000   -0.0000    0.0000   -0.0000   -0.0000
      130 CR     8g3-      -0.0000   -0.0000    0.0000    0.0000    0.0000   -0.0000   -0.0000    0.0000    0.0000    0.0000
      131 CR     5g2-      -0.0000   -0.0000   -0.0000    0.0000    0.0000   -0.0000    0.0006   -0.0000   -0.0000   -0.0000
      132 CR     6g2-       0.0000    0.0000    0.0000   -0.0000   -0.0000   -0.0000    0.0005   -0.0000   -0.0000   -0.0000
      133 CR     7g2-      -0.0000   -0.0000   -0.0000    0.0000    0.0000    0.0000   -0.0002    0.0000    0.0000   -0.0000
      134 CR     8g2-       0.0000    0.0000    0.0000   -0.0000   -0.0000   -0.0000   -0.0003    0.0000    0.0000    0.0000
      135 CR     5g1-       0.0000    0.0000   -0.0001    0.0000    0.0000    0.0000   -0.0096    0.0000    0.0000    0.0000
      136 CR     6g1-       0.0000   -0.0000    0.0000   -0.0000   -0.0000   -0.0000   -0.0039    0.0000    0.0000    0.0000
      137 CR     7g1-      -0.0000   -0.0000   -0.0000    0.0000    0.0000    0.0000    0.0020   -0.0000   -0.0000    0.0000
      138 CR     8g1-       0.0000    0.0000   -0.0000    0.0000    0.0000   -0.0000    0.0014   -0.0000   -0.0000   -0.0000
      139 CR     5g0        0.0000   -0.0000   -0.0000   -0.0000   -0.0001   -0.0009   -0.0000   -0.0000   -0.0157   -0.0000
      140 CR     6g0       -0.0000    0.0000   -0.0000    0.0000    0.0000   -0.0004   -0.0000   -0.0000   -0.0069   -0.0000
      141 CR     7g0       -0.0000   -0.0000   -0.0000   -0.0000   -0.0000    0.0002    0.0000    0.0000    0.0034    0.0000
      142 CR     8g0       -0.0000    0.0000    0.0000   -0.0000   -0.0000    0.0001    0.0000    0.0000    0.0026    0.0000
      143 CR     5g1+      -0.0000   -0.0000   -0.0000   -0.0001    0.0000    0.0000   -0.0000   -0.0096    0.0000   -0.0084
      144 CR     6g1+      -0.0000    0.0000    0.0000    0.0000   -0.0000    0.0000   -0.0000   -0.0039   -0.0000   -0.0060
      145 CR     7g1+       0.0000   -0.0000   -0.0000   -0.0000    0.0000    0.0000    0.0000    0.0020   -0.0000   -0.0002
      146 CR     8g1+       0.0000   -0.0000   -0.0000   -0.0000    0.0000   -0.0000    0.0000    0.0014    0.0000    0.0015
      147 CR     5g2+       0.0000   -0.0000    0.0000    0.0000    0.0000   -0.0000   -0.0000   -0.0006    0.0000   -0.0027
      148 CR     6g2+      -0.0000    0.0000   -0.0000   -0.0000   -0.0000   -0.0000   -0.0000   -0.0005    0.0000   -0.0017
      149 CR     7g2+      -0.0000   -0.0000    0.0000    0.0000    0.0000    0.0000    0.0000    0.0002   -0.0000   -0.0001
      150 CR     8g2+       0.0000    0.0000   -0.0000   -0.0000    0.0000    0.0000    0.0000    0.0003   -0.0000    0.0003
      151 CR     5g3+      -0.0000    0.0001    0.0000    0.0000   -0.0001    0.0068   -0.0000    0.0000   -0.0092   -0.0000
      152 CR     6g3+       0.0000   -0.0000   -0.0000   -0.0000    0.0000    0.0026   -0.0000   -0.0000   -0.0042   -0.0000
      153 CR     7g3+       0.0000    0.0000    0.0000    0.0000   -0.0000   -0.0018    0.0000   -0.0000    0.0021   -0.0000
      154 CR     8g3+       0.0000   -0.0000    0.0000    0.0000   -0.0000   -0.0009    0.0000    0.0000    0.0016    0.0000
      155 CR     5g4+      -0.0000    0.0000   -0.0000   -0.0001    0.0000    0.0000   -0.0000   -0.0078    0.0000    0.0015
      156 CR     6g4+      -0.0000   -0.0000    0.0000    0.0000   -0.0000    0.0000   -0.0000   -0.0032   -0.0000    0.0011
      157 CR     7g4+       0.0000    0.0000   -0.0000   -0.0000    0.0000   -0.0000    0.0000    0.0017   -0.0000    0.0002
      158 CR     8g4+       0.0000   -0.0000   -0.0000   -0.0000    0.0000   -0.0000    0.0000    0.0011    0.0000   -0.0001
      159 CR     6h5-      -0.0000   -0.0000    0.0000   -0.0000    0.0000    0.0000    0.0010   -0.0000   -0.0000   -0.0000
      160 CR     7h5-       0.0000    0.0000   -0.0000    0.0000   -0.0000   -0.0000    0.0008   -0.0000   -0.0000   -0.0000
      161 CR     6h4-      -0.0000    0.0000    0.0000   -0.0000   -0.0000   -0.0000    0.0050   -0.0000   -0.0000    0.0000
      162 CR     7h4-      -0.0000    0.0000   -0.0000    0.0000    0.0000   -0.0000    0.0028   -0.0000   -0.0000    0.0000
      163 CR     6h3-      -0.0000   -0.0000   -0.0000    0.0000    0.0000    0.0000   -0.0000    0.0000    0.0000   -0.0000
      164 CR     7h3-       0.0000    0.0000    0.0000    0.0000   -0.0000   -0.0000   -0.0000    0.0000    0.0000   -0.0000
      165 CR     6h2-      -0.0000   -0.0000    0.0000   -0.0000   -0.0000   -0.0000    0.0016   -0.0000   -0.0000   -0.0000
      166 CR     7h2-      -0.0000   -0.0000   -0.0000    0.0000    0.0000   -0.0000    0.0009   -0.0000   -0.0000   -0.0000
      167 CR     6h1-      -0.0000   -0.0000    0.0000   -0.0000   -0.0000    0.0000    0.0011   -0.0000   -0.0000    0.0000
      168 CR     7h1-       0.0000    0.0000   -0.0000    0.0000   -0.0000   -0.0000    0.0009   -0.0000   -0.0000    0.0000
      169 CR     6h0        0.0000   -0.0000   -0.0000   -0.0000   -0.0000   -0.0013   -0.0000   -0.0000   -0.0032   -0.0000
      170 CR     7h0        0.0000    0.0000    0.0000    0.0000    0.0000   -0.0007   -0.0000   -0.0000   -0.0023   -0.0000
      171 CR     6h1+      -0.0000    0.0000    0.0000    0.0000   -0.0000    0.0000    0.0000    0.0011   -0.0000   -0.0049
      172 CR     7h1+       0.0000   -0.0000   -0.0000   -0.0000    0.0000   -0.0000    0.0000    0.0009    0.0000   -0.0036
      173 CR     6h2+       0.0000   -0.0000   -0.0000   -0.0000   -0.0000   -0.0000   -0.0000   -0.0016   -0.0000   -0.0061
      174 CR     7h2+      -0.0000    0.0000    0.0000    0.0000    0.0000    0.0000   -0.0000   -0.0009   -0.0000   -0.0048
      175 CR     6h3+       0.0000   -0.0000    0.0000   -0.0000    0.0000   -0.0022    0.0000   -0.0000    0.0048   -0.0000
      176 CR     7h3+       0.0000    0.0000    0.0000    0.0000   -0.0000   -0.0011    0.0000    0.0000    0.0026   -0.0000
      177 CR     6h4+       0.0000   -0.0000    0.0000    0.0000   -0.0000   -0.0000    0.0000    0.0050    0.0000   -0.0026
      178 CR     7h4+       0.0000   -0.0000   -0.0000   -0.0000    0.0000   -0.0000    0.0000    0.0028    0.0000   -0.0019
      179 CR     6h5+       0.0000   -0.0000   -0.0000   -0.0000    0.0000   -0.0000   -0.0000   -0.0010    0.0000   -0.0078
      180 CR     7h5+      -0.0000    0.0000    0.0000    0.0000   -0.0000   -0.0000   -0.0000   -0.0008    0.0000   -0.0061

          Orbital           11        12        13        14        15    
          Energy           -1.0137   -0.9211   -0.9209   -0.9209   -0.5474
          Occ. No.          0.0000    0.0000    0.0000    0.0000    0.0000

        1 CR     1s         0.0000    0.0000    0.0000    0.0000    0.0000
        2 CR     2s         0.0000    0.0002    0.0000    0.0000    0.0000
        3 CR     3s        -0.0000    0.0076    0.0000    0.0000   -0.0538
        4 CR     4s         0.0000   -0.0621   -0.0000   -0.0000   -0.9295
        5 CR     5s        -0.0000    0.0435    0.0000    0.0000    0.2113
        6 CR     6s         0.0000    0.0005    0.0000    0.0000    0.0865
        7 CR     7s         0.0000   -0.0092   -0.0000   -0.0000   -0.0093
        8 CR     8s        -0.0000    0.0001   -0.0000    0.0000   -0.0204
        9 CR     9s        -0.0000    0.0014    0.0000    0.0000   -0.0064
       10 CR    10s        -0.0000    0.0001    0.0000    0.0000   -0.0007
       11 CR     2px        0.0000    0.0000   -0.0000   -0.0005    0.0000
       12 CR     3px       -0.0000    0.0000   -0.0000   -0.0476   -0.0000
       13 CR     4px        0.0000   -0.0000    0.0000    0.0830   -0.0000
       14 CR     5px       -0.0000    0.0000   -0.0000   -0.0565    0.0000
       15 CR     6px       -0.0000    0.0000   -0.0000   -0.0101    0.0000
       16 CR     7px        0.0000   -0.0000    0.0000    0.0147   -0.0000
       17 CR     8px       -0.0000   -0.0000    0.0000    0.0011   -0.0000
       18 CR     9px       -0.0000    0.0000   -0.0000   -0.0025   -0.0000
       19 CR    10px        0.0000   -0.0000    0.0000    0.0003    0.0000
       20 CR    11px        0.0000   -0.0000    0.0000    0.0002    0.0000
       21 CR     2py        0.0000    0.0000   -0.0005    0.0000   -0.0000
       22 CR     3py       -0.0015    0.0000   -0.0476    0.0000   -0.0000
       23 CR     4py        0.0034   -0.0000    0.0830   -0.0000   -0.0000
       24 CR     5py       -0.0039    0.0000   -0.0565    0.0000   -0.0000
       25 CR     6py       -0.0000    0.0000   -0.0101    0.0000   -0.0000
       26 CR     7py        0.0011   -0.0000    0.0147   -0.0000    0.0000
       27 CR     8py       -0.0005   -0.0000    0.0011   -0.0000    0.0000
       28 CR     9py       -0.0003    0.0000   -0.0025    0.0000   -0.0000
       29 CR    10py        0.0002    0.0000    0.0003   -0.0000   -0.0000
       30 CR    11py        0.0001    0.0000    0.0002   -0.0000   -0.0000
       31 CR     2pz       -0.0000    0.0001    0.0000    0.0000    0.0000
       32 CR     3pz        0.0000    0.0190    0.0000    0.0000   -0.0158
       33 CR     4pz       -0.0000   -0.0423   -0.0000   -0.0000   -0.2293
       34 CR     5pz       -0.0000    0.0323    0.0000    0.0000    0.0113
       35 CR     6pz       -0.0000    0.0044    0.0000    0.0000    0.0320
       36 CR     7pz       -0.0000   -0.0088   -0.0000   -0.0000   -0.0027
       37 CR     8pz       -0.0000    0.0007    0.0000    0.0000   -0.0081
       38 CR     9pz        0.0000    0.0017    0.0000    0.0000   -0.0026
       39 CR    10pz        0.0000   -0.0007   -0.0000   -0.0000   -0.0003
       40 CR    11pz        0.0000   -0.0003   -0.0000   -0.0000   -0.0000
       41 CR     3d2-       0.8525   -0.0000    0.4579   -0.0000    0.0000
       42 CR     4d2-      -0.2046    0.0000   -0.1188    0.0000   -0.0000
       43 CR     5d2-      -0.0042   -0.0000    0.0092   -0.0000   -0.0000
       44 CR     6d2-       0.0024   -0.0000    0.0006   -0.0000    0.0000
       45 CR     7d2-       0.0061    0.0000   -0.0002    0.0000    0.0000
       46 CR     8d2-       0.0016   -0.0000    0.0002   -0.0000    0.0000
       47 CR     9d2-       0.0015   -0.0000    0.0035   -0.0000    0.0000
       48 CR    10d2-       0.0007   -0.0000    0.0012   -0.0000    0.0000
       49 CR     3d1-      -0.4661   -0.0000    0.8439   -0.0000    0.0000
       50 CR     4d1-       0.1107    0.0000   -0.2159    0.0000   -0.0000
       51 CR     5d1-       0.0041   -0.0000    0.0133   -0.0000   -0.0000
       52 CR     6d1-      -0.0013   -0.0000    0.0011   -0.0000    0.0000
       53 CR     7d1-      -0.0041   -0.0000    0.0013   -0.0000    0.0000
       54 CR     8d1-      -0.0009   -0.0000    0.0004   -0.0000    0.0000
       55 CR     9d1-      -0.0000   -0.0000    0.0049   -0.0000   -0.0000
       56 CR    10d1-      -0.0001   -0.0000    0.0018   -0.0000   -0.0000
       57 CR     3d0       -0.0000    0.9622    0.0000    0.0000   -0.0567
       58 CR     4d0        0.0000   -0.2500   -0.0000   -0.0000    0.0870
       59 CR     5d0       -0.0000    0.0142    0.0000    0.0000    0.0025
       60 CR     6d0       -0.0000    0.0021    0.0000    0.0000   -0.0068
       61 CR     7d0       -0.0000    0.0023    0.0000    0.0000   -0.0038
       62 CR     8d0       -0.0000    0.0002    0.0000    0.0000    0.0016
       63 CR     9d0       -0.0000    0.0049    0.0000    0.0000    0.0001
       64 CR    10d0       -0.0000    0.0019    0.0000    0.0000   -0.0004
       65 CR     3d1+      -0.0000   -0.0000    0.0000    0.8439    0.0000
       66 CR     4d1+       0.0000    0.0000   -0.0000   -0.2159   -0.0000
       67 CR     5d1+       0.0000   -0.0000    0.0000    0.0133   -0.0000
       68 CR     6d1+      -0.0000   -0.0000    0.0000    0.0011   -0.0000
       69 CR     7d1+      -0.0000   -0.0000    0.0000    0.0013   -0.0000
       70 CR     8d1+      -0.0000   -0.0000    0.0000    0.0004    0.0000
       71 CR     9d1+      -0.0000   -0.0000    0.0000    0.0049    0.0000
       72 CR    10d1+      -0.0000   -0.0000    0.0000    0.0018    0.0000
       73 CR     3d2+      -0.0000    0.0000   -0.0000   -0.4579   -0.0000
       74 CR     4d2+       0.0000   -0.0000    0.0000    0.1188    0.0000
       75 CR     5d2+       0.0000    0.0000   -0.0000   -0.0092    0.0000
       76 CR     6d2+      -0.0000    0.0000   -0.0000   -0.0006   -0.0000
       77 CR     7d2+      -0.0000   -0.0000    0.0000    0.0002   -0.0000
       78 CR     8d2+      -0.0000    0.0000   -0.0000   -0.0002    0.0000
       79 CR     9d2+      -0.0000    0.0000   -0.0000   -0.0035   -0.0000
       80 CR    10d2+      -0.0000    0.0000   -0.0000   -0.0012   -0.0000
       81 CR     4f3-       0.0000   -0.0000    0.0000   -0.0000    0.0000
       82 CR     5f3-       0.0000   -0.0000    0.0000   -0.0000   -0.0000
       83 CR     6f3-      -0.0000   -0.0000   -0.0000    0.0000    0.0000
       84 CR     7f3-      -0.0000   -0.0000   -0.0000   -0.0000    0.0000
       85 CR     8f3-      -0.0000   -0.0000    0.0000   -0.0000    0.0000
       86 CR     9f3-       0.0000   -0.0000    0.0000   -0.0000    0.0000
       87 CR     4f2-       0.0338   -0.0000    0.0534   -0.0000    0.0000
       88 CR     5f2-       0.0136   -0.0000    0.0221   -0.0000    0.0000
       89 CR     6f2-      -0.0051    0.0000   -0.0098    0.0000    0.0000
       90 CR     7f2-      -0.0026    0.0000   -0.0042    0.0000   -0.0000
       91 CR     8f2-       0.0003   -0.0000    0.0013   -0.0000   -0.0000
       92 CR     9f2-       0.0012   -0.0000    0.0026   -0.0000   -0.0000
       93 CR     4f1-      -0.0123   -0.0000    0.0104   -0.0000    0.0000
       94 CR     5f1-      -0.0048   -0.0000    0.0035   -0.0000    0.0000
       95 CR     6f1-       0.0014    0.0000   -0.0011    0.0000    0.0000
       96 CR     7f1-       0.0009    0.0000   -0.0004    0.0000   -0.0000
       97 CR     8f1-       0.0001    0.0000    0.0000   -0.0000   -0.0000
       98 CR     9f1-      -0.0003   -0.0000    0.0002   -0.0000   -0.0000
       99 CR     4f0        0.0000   -0.0148   -0.0000   -0.0000    0.0736
      100 CR     5f0        0.0000   -0.0045   -0.0000   -0.0000    0.0755
      101 CR     6f0       -0.0000    0.0060    0.0000    0.0000    0.0180
      102 CR     7f0       -0.0000    0.0010    0.0000    0.0000   -0.0081
      103 CR     8f0        0.0000   -0.0016   -0.0000   -0.0000   -0.0044
      104 CR     9f0        0.0000   -0.0017   -0.0000   -0.0000    0.0002
      105 CR     4f1+      -0.0000   -0.0000    0.0000    0.0104    0.0000
      106 CR     5f1+      -0.0000   -0.0000    0.0000    0.0035    0.0000
      107 CR     6f1+       0.0000    0.0000   -0.0000   -0.0011    0.0000
      108 CR     7f1+       0.0000    0.0000   -0.0000   -0.0004   -0.0000
      109 CR     8f1+       0.0000   -0.0000    0.0000    0.0000   -0.0000
      110 CR     9f1+      -0.0000   -0.0000    0.0000    0.0002   -0.0000
      111 CR     4f2+      -0.0000    0.0000   -0.0000   -0.0534   -0.0000
      112 CR     5f2+      -0.0000    0.0000   -0.0000   -0.0221   -0.0000
      113 CR     6f2+       0.0000   -0.0000    0.0000    0.0098    0.0000
      114 CR     7f2+       0.0000   -0.0000    0.0000    0.0042    0.0000
      115 CR     8f2+      -0.0000    0.0000   -0.0000   -0.0013    0.0000
      116 CR     9f2+      -0.0000    0.0000   -0.0000   -0.0026   -0.0000
      117 CR     4f3+      -0.0000    0.0257    0.0000    0.0000    0.0387
      118 CR     5f3+      -0.0000    0.0118    0.0000    0.0000    0.0410
      119 CR     6f3+       0.0000   -0.0039   -0.0000   -0.0000    0.0103
      120 CR     7f3+       0.0000   -0.0024   -0.0000   -0.0000   -0.0045
      121 CR     8f3+      -0.0000    0.0002    0.0000    0.0000   -0.0026
      122 CR     9f3+      -0.0000    0.0011    0.0000    0.0000   -0.0000
      123 CR     5g4-      -0.0015   -0.0000    0.0093   -0.0000    0.0000
      124 CR     6g4-      -0.0011   -0.0000    0.0064   -0.0000    0.0000
      125 CR     7g4-      -0.0002    0.0000   -0.0009    0.0000    0.0000
      126 CR     8g4-       0.0001    0.0000   -0.0025    0.0000    0.0000
      127 CR     5g3-       0.0000    0.0000   -0.0000    0.0000    0.0000
      128 CR     6g3-      -0.0000   -0.0000   -0.0000    0.0000   -0.0000
      129 CR     7g3-      -0.0000   -0.0000    0.0000   -0.0000    0.0000
      130 CR     8g3-       0.0000   -0.0000    0.0000   -0.0000   -0.0000
      131 CR     5g2-      -0.0027    0.0000   -0.0097    0.0000   -0.0000
      132 CR     6g2-      -0.0017    0.0000   -0.0071    0.0000    0.0000
      133 CR     7g2-      -0.0001   -0.0000    0.0002   -0.0000    0.0000
      134 CR     8g2-       0.0003   -0.0000    0.0022   -0.0000    0.0000
      135 CR     5g1-       0.0084    0.0000   -0.0011    0.0000    0.0000
      136 CR     6g1-       0.0060    0.0000   -0.0012    0.0000    0.0000
      137 CR     7g1-       0.0002    0.0000   -0.0018    0.0000    0.0000
      138 CR     8g1-      -0.0015    0.0000   -0.0013    0.0000    0.0000
      139 CR     5g0        0.0000   -0.0184   -0.0000   -0.0000    0.0081
      140 CR     6g0        0.0000   -0.0131   -0.0000   -0.0000    0.0112
      141 CR     7g0       -0.0000    0.0004    0.0000    0.0000    0.0054
      142 CR     8g0       -0.0000    0.0042    0.0000    0.0000    0.0003
      143 CR     5g1+       0.0000    0.0000   -0.0000   -0.0011    0.0000
      144 CR     6g1+       0.0000    0.0000   -0.0000   -0.0012    0.0000
      145 CR     7g1+       0.0000    0.0000   -0.0000   -0.0018    0.0000
      146 CR     8g1+      -0.0000    0.0000   -0.0000   -0.0013    0.0000
      147 CR     5g2+       0.0000   -0.0000    0.0000    0.0097    0.0000
      148 CR     6g2+       0.0000   -0.0000    0.0000    0.0071    0.0000
      149 CR     7g2+       0.0000    0.0000   -0.0000   -0.0002   -0.0000
      150 CR     8g2+      -0.0000    0.0000   -0.0000   -0.0022   -0.0000
      151 CR     5g3+       0.0000   -0.0045   -0.0000   -0.0000   -0.0113
      152 CR     6g3+       0.0000   -0.0036   -0.0000   -0.0000   -0.0154
      153 CR     7g3+       0.0000    0.0002    0.0000    0.0000   -0.0057
      154 CR     8g3+      -0.0000    0.0013    0.0000    0.0000    0.0022
      155 CR     5g4+      -0.0000   -0.0000    0.0000    0.0093   -0.0000
      156 CR     6g4+      -0.0000   -0.0000    0.0000    0.0064   -0.0000
      157 CR     7g4+      -0.0000    0.0000   -0.0000   -0.0009   -0.0000
      158 CR     8g4+       0.0000    0.0000   -0.0000   -0.0025    0.0000
      159 CR     6h5-      -0.0078    0.0000   -0.0061    0.0000   -0.0000
      160 CR     7h5-      -0.0061    0.0000   -0.0052    0.0000   -0.0000
      161 CR     6h4-       0.0026    0.0000   -0.0101    0.0000   -0.0000
      162 CR     7h4-       0.0019    0.0000   -0.0084    0.0000   -0.0000
      163 CR     6h3-      -0.0000    0.0000    0.0000   -0.0000   -0.0000
      164 CR     7h3-      -0.0000   -0.0000    0.0000    0.0000    0.0000
      165 CR     6h2-      -0.0061    0.0000   -0.0055    0.0000   -0.0000
      166 CR     7h2-      -0.0048    0.0000   -0.0045    0.0000   -0.0000
      167 CR     6h1-       0.0049    0.0000   -0.0141    0.0000   -0.0000
      168 CR     7h1-       0.0036    0.0000   -0.0116    0.0000    0.0000
      169 CR     6h0        0.0000   -0.0186   -0.0000   -0.0000    0.0041
      170 CR     7h0        0.0000   -0.0153   -0.0000   -0.0000    0.0049
      171 CR     6h1+       0.0000    0.0000   -0.0000   -0.0141   -0.0000
      172 CR     7h1+       0.0000    0.0000   -0.0000   -0.0116   -0.0000
      173 CR     6h2+       0.0000   -0.0000    0.0000    0.0055    0.0000
      174 CR     7h2+       0.0000   -0.0000    0.0000    0.0045    0.0000
      175 CR     6h3+       0.0000   -0.0042   -0.0000   -0.0000    0.0030
      176 CR     7h3+       0.0000   -0.0032   -0.0000   -0.0000    0.0038
      177 CR     6h4+       0.0000    0.0000   -0.0000   -0.0101    0.0000
      178 CR     7h4+       0.0000    0.0000   -0.0000   -0.0084    0.0000
      179 CR     6h5+       0.0000   -0.0000    0.0000    0.0061    0.0000
      180 CR     7h5+       0.0000   -0.0000    0.0000    0.0052    0.0000
--


++    Molecular charges:
      ------------------

      Mulliken charges per centre and basis function type
      ---------------------------------------------------

                CR    
      1s       2.0000
      2s       2.0000
      2px      2.0000
      2pz      2.0000
      2py      2.0000
      3s       1.9822
      3px      1.9633
      3pz      1.9629
      3py      1.9633
      4s       0.0043
      3d2+     0.0019
      3d1+     0.0051
      3d0      0.0017
      3d1-     0.0051
      3d2-     0.0019
      4px      0.0124
      4pz      0.0143
      4py      0.0124
      5s       0.0100
      4d2+     0.0001
      4d1+     0.0003
      4d0      0.0001
      4d1-     0.0003
      4d2-     0.0001
      5px      0.0157
      5pz      0.0194
      5py      0.0157
      6s       0.0020
      4f3+     0.0004
      4f2+     0.0002
      4f1+     0.0001
      4f0      0.0008
      4f1-     0.0001
      4f2-     0.0002
      4f3-     0.0000
      5d2+     0.0001
      5d1+     0.0001
      5d0      0.0001
      5d1-     0.0001
      5d2-     0.0001
      6px      0.0000
      6pz      0.0001
      6py      0.0000
      7s       0.0001
      5f3+     0.0000
      5f2+     0.0000
      5f1+     0.0000
      5f0      0.0000
      5f1-     0.0000
      5f2-     0.0000
      5f3-     0.0000
      6d2+     0.0000
      6d1+     0.0000
      6d0      0.0000
      6d1-     0.0000
      6d2-     0.0000
      7px      0.0003
      7pz      0.0003
      7py      0.0003
      5g4+     0.0001
      5g3+     0.0003
      5g2+     0.0000
      5g1+     0.0002
      5g0      0.0005
      5g1-     0.0002
      5g2-     0.0000
      5g3-     0.0000
      5g4-     0.0001
      6f3+     0.0000
      6f2+     0.0000
      6f1+     0.0000
      6f0      0.0001
      6f1-     0.0000
      6f2-     0.0000
      6f3-     0.0000
      6g4+     0.0000
      6g3+     0.0000
      6g2+     0.0000
      6g1+     0.0000
      6g0      0.0001
      6g1-     0.0000
      6g2-     0.0000
      6g3-     0.0000
      6g4-     0.0000
      6h5+     0.0000
      6h4+     0.0001
      6h3+     0.0001
      6h2+     0.0000
      6h1+     0.0000
      6h0      0.0000
      6h1-     0.0000
      6h2-     0.0000
      6h3-     0.0000
      6h4-     0.0001
      6h5-     0.0000
      7d2+     0.0000
      7d1+     0.0000
      7d0      0.0000
      7d1-     0.0000
      7d2-     0.0000
      7f3+     0.0000
      7f2+     0.0000
      7f1+     0.0000
      7f0      0.0000
      7f1-     0.0000
      7f2-     0.0000
      7f3-     0.0000
      7g4+     0.0000
      7g3+     0.0000
      7g2+     0.0000
      7g1+     0.0000
      7g0      0.0000
      7g1-     0.0000
      7g2-     0.0000
      7g3-     0.0000
      7g4-     0.0000
      7h5+     0.0000
      7h4+     0.0000
      7h3+     0.0000
      7h2+     0.0000
      7h1+     0.0000
      7h0      0.0000
      7h1-     0.0000
      7h2-     0.0000
      7h3-     0.0000
      7h4-     0.0000
      7h5-     0.0000
      8s       0.0001
      8px      0.0000
      8pz      0.0000
      8py      0.0000
      8d2+     0.0000
      8d1+     0.0000
      8d0      0.0000
      8d1-     0.0000
      8d2-     0.0000
      8f3+     0.0000
      8f2+     0.0000
      8f1+     0.0000
      8f0      0.0000
      8f1-     0.0000
      8f2-     0.0000
      8f3-     0.0000
      8g4+     0.0000
      8g3+     0.0000
      8g2+     0.0000
      8g1+     0.0000
      8g0      0.0000
      8g1-     0.0000
      8g2-     0.0000
      8g3-     0.0000
      8g4-     0.0000
      9s       0.0000
      9px      0.0000
      9pz      0.0000
      9py      0.0000
      9d2+     0.0000
      9d1+     0.0000
      9d0      0.0000
      9d1-     0.0000
      9d2-     0.0000
      9f3+     0.0000
      9f2+     0.0000
      9f1+     0.0000
      9f0      0.0000
      9f1-     0.0000
      9f2-     0.0000
      9f3-     0.0000
     10s       0.0000
     10px      0.0000
     10pz      0.0000
     10py      0.0000
     10d2+     0.0000
     10d1+     0.0000
     10d0      0.0000
     10d1-     0.0000
     10d2-     0.0000
     11px      0.0000
     11pz      0.0000
     11py      0.0000
      Total   18.0000

      N-E      6.0000

      Total electronic charge=   18.000000

      Total            charge=    6.000000
--

 Sorry, Molden does not know how to handle
 functions with angular momentum larger than g

++    Static properties:
      ------------------


      LoProp Charges per center


                   CR    
      Nuclear     24.0000
      Electronic -18.0000

      Total        6.0000
--


++    Molecular properties:
      ---------------------

      Charge (e):
                      =    6.0000
      Dipole Moment (Debye):
      Origin of the operator (Ang)=    0.0000    0.0000    0.0000
                   X= -8.4693E-08               Y=  2.0696E-14               Z= -3.3979E-01           Total=  3.3979E-01
      Center of Charge (Ang)
                     X=   -0.00000000               Y=    0.00000000               Z=   -0.01179043
      Quadrupole Moment (Debye*Ang):
      Origin of the operator (Ang)=    0.0000    0.0000    0.0000
                  XX= -3.5208E+00              XY= -1.5061E-14              XZ= -1.0045E-08              YY= -3.5208E+00
                  YZ=  4.6843E-15              ZZ= -3.4201E+00
      In traceless form (Debye*Ang)
                  XX= -5.0332E-02              XY= -2.2592E-14              XZ= -1.5067E-08              YY= -5.0332E-02
                  YZ=  7.0264E-15              ZZ=  1.0066E-01
--

 Sorry, Molden does not know how to handle
 functions with angular momentum larger than g
 ###############################################################################
 ###############################################################################
 ###                                                                         ###
 ###                                                                         ###
 ###    WARNING: RunFile label nBas                                          ###
 ###    was used       62 times                                              ###
 ###                                                                         ###
 ###                                                                         ###
 ###############################################################################
 ###############################################################################
Note: The following floating-point exceptions are signalling: IEEE_UNDERFLOW_FLAG IEEE_DENORMAL
--- Stop Module: scf at Fri Jan 10 02:17:53 2025 /rc=_RC_ALL_IS_WELL_ ---
*** files: chromium_so_cf.LprOrb chromium_so_cf.ScfOrb xmldump
    saved to directory /home4/s4752295/Internship/Initial_simulations/Point_charge_model/1_electron/active_space_9_non_rel/Cr/varying_bond_length
--- Module scf spent 7 seconds ---

*** symbolic link created: INPORB -> chromium_so_cf.ScfOrb
--- Start Module: rasscf at Fri Jan 10 02:17:53 2025 ---

()()()()()()()()()()()()()()()()()()()()()()()()()()()()()()()()()()()()()()()()()()()()()()()()()()

                                              &RASSCF

                                   only a single process is used
                       available to each process: 4.1 GB of memory, 1 thread?
                                            pid: 1089478
()()()()()()()()()()()()()()()()()()()()()()()()()()()()()()()()()()()()()()()()()()()()()()()()()()


      Header of the ONEINT file:
      --------------------------
      
      Integrals generated by seward 4.2.0  , Fri Jan 10 02:17:37 2025


      OrdInt status: non-squared


      Cartesian coordinates in Angstrom:
      -----------------------------------------------------
      No.  Label        X            Y            Z        
      -----------------------------------------------------
       1   CR         0.00000000   0.00000000   0.00000000
      -----------------------------------------------------
      Nuclear repulsion energy =  -56.43738846

++    Wave function specifications:
      -----------------------------

      Number of closed shell electrons          18
      Number of electrons in active shells       1
      Max number of holes in RAS1 space          0
      Max nr of electrons in RAS3 space          0
      Number of inactive orbitals                9
      Number of active orbitals                  9
      Number of secondary orbitals             162
      Spin quantum number                      0.5
      State symmetry                             1
--

++    Orbital specifications:
      -----------------------

      Symmetry species                           1
                                                 a
      Frozen orbitals                            0
      Inactive orbitals                          9
      Active orbitals                            9
      RAS1 orbitals                              0
      RAS2 orbitals                              9
      RAS3 orbitals                              0
      Secondary orbitals                       162
      Deleted orbitals                           0
      Number of basis functions                180
--

++    CI expansion specifications:
      ----------------------------

      Number of CSFs                             9
      Number of determinants                     9
      Number of root(s) required                 9
      Root chosen for geometry opt.              9
      CI roots used                              1     2     3     4     5     6     7     8     9
      weights                                0.111 0.111 0.111 0.111 0.111 0.111 0.111 0.111 0.111
      highest root included in the CI            9
      max. size of the explicit Hamiltonian      9
--

++    Optimization specifications:
      ----------------------------

      RASSCF algorithm: Conventional
      Maximum number of macro iterations       200
      Maximum number of SX iterations          100
      Threshold for RASSCF energy            0.100E-07
      Threshold for max MO rotation          0.100E+00
      Threshold for max BLB element          0.100E-03
      Level shift parameter                  0.500E+00
      Make Quasi-Newton update
--

      The MO-coefficients are taken from the file:
      INPORB                                                                                                                          
      Title: SCF orbitals                                                                  

      Total molecular charge    5.00

      ************************************************************************************************************************
      *                                                                                                                      *
      *                                            Wave function control section                                             *
      *                                                                                                                      *
      ************************************************************************************************************************


                                         RASSCF iterations: Energy and convergence statistics
                                         ----------------------------------------------------

      Iter CI   SX   CI       RASSCF       Energy    max ROT     max BLB   max BLB  Level Ln srch  Step   QN   Walltime
          iter iter root      energy       change     param      element    value   shift minimum  type update hh:mm:ss
 Nr of preliminary CI iterations:   1
      Total energies have been shifted. Add                -1000.00 au
        1   1    6    0   -55.13511524    0.00E+00   0.11E-01    9  83 1  0.11E+00*  0.29   0.00    SX    NO    0:00:03
        2   1    6    0   -55.14753278   -0.12E-01* -0.85E-02    7 126 1 -0.19E-01*  0.26   0.00    SX    NO    0:00:01
        3   1    5    0   -55.14787669   -0.34E-03* -0.29E-02    3 169 1  0.29E-02*  0.27   0.00    SX    NO    0:00:01
        4   1    5    0   -55.14789246   -0.16E-04* -0.16E-02    7 126 1 -0.65E-03*  0.27   0.00    SX    NO    0:00:01
        5   1    5    0   -55.14789418   -0.17E-05*  0.10E-02    6  15 1  0.12E-03*  0.27   1.11    QN   YES    0:00:01
        6   1    5    0   -55.14789472   -0.54E-06*  0.73E-03    5 180 1 -0.16E-03*  0.27   1.34    QN   YES    0:00:01
        7   1    4    0   -55.14789483   -0.12E-06*  0.23E-03    6  15 1 -0.47E-04   0.27   1.03    QN   YES    0:00:01
        8   1    4    0   -55.14789485   -0.16E-07*  0.13E-03    9  12 1 -0.12E-04   0.27   1.16    QN   YES    0:00:01
        9   1    4    0   -55.14789485   -0.36E-08   0.66E-04    6  15 1  0.65E-05   0.27   1.23    QN   YES    0:00:01
      Convergence after  9 iterations
       10   1    4    0   -55.14789485   -0.65E-09   0.66E-04    7  16 1 -0.34E-05   0.27   1.23    QN   YES    0:00:01

      ************************************************************************************************************************
                                                      Wave function printout:
                       occupation of active orbitals, and spin coupling of open shells (u,d: Spin up or down)
      ************************************************************************************************************************

      Note: transformation to natural orbitals
      has been made, which may change the order of the CSFs.

      printout of CI-coefficients larger than  0.05 for root  1
      energy=   -1055.460979
      conf/sym  111111111     Coeff  Weight
             1  u00000000   0.68615 0.47080
             2  0u0000000   0.61015 0.37228
             3  00u000000  -0.08193 0.00671
             4  000u00000   0.06895 0.00475
             6  00000u000  -0.32524 0.10578
             7  000000u00  -0.07477 0.00559
             8  0000000u0   0.18415 0.03391

      printout of CI-coefficients larger than  0.05 for root  2
      energy=   -1055.460979
      conf/sym  111111111     Coeff  Weight
             1  u00000000  -0.36285 0.13166
             2  0u0000000   0.63639 0.40499
             3  00u000000  -0.19606 0.03844
             4  000u00000   0.23147 0.05358
             5  0000u0000  -0.28366 0.08046
             6  00000u000   0.53602 0.28732
             7  000000u00  -0.05389 0.00290

      printout of CI-coefficients larger than  0.05 for root  3
      energy=   -1055.369674
      conf/sym  111111111     Coeff  Weight
             1  u00000000  -0.16015 0.02565
             2  0u0000000   0.13907 0.01934
             3  00u000000   0.76369 0.58322
             4  000u00000  -0.15493 0.02400
             5  0000u0000  -0.13789 0.01901
             8  0000000u0   0.57275 0.32804

      printout of CI-coefficients larger than  0.05 for root  4
      energy=   -1055.369280
      conf/sym  111111111     Coeff  Weight
             1  u00000000   0.40849 0.16687
             2  0u0000000  -0.28017 0.07849
             3  00u000000   0.18858 0.03556
             4  000u00000   0.62173 0.38655
             5  0000u0000  -0.18882 0.03565
             6  00000u000   0.35298 0.12460
             7  000000u00   0.41355 0.17103

      printout of CI-coefficients larger than  0.05 for root  5
      energy=   -1055.369280
      conf/sym  111111111     Coeff  Weight
             1  u00000000  -0.33910 0.11499
             2  0u0000000   0.08624 0.00744
             3  00u000000   0.08192 0.00671
             4  000u00000   0.68911 0.47487
             5  0000u0000   0.48326 0.23354
             6  00000u000  -0.35577 0.12657
             7  000000u00  -0.16382 0.02684
             8  0000000u0   0.09514 0.00905

      printout of CI-coefficients larger than  0.05 for root  6
      energy=   -1054.954341
      conf/sym  111111111     Coeff  Weight
             1  u00000000   0.28895 0.08349
             2  0u0000000  -0.08508 0.00724
             3  00u000000   0.06800 0.00462
             4  000u00000  -0.06437 0.00414
             5  0000u0000   0.52072 0.27114
             6  00000u000   0.57513 0.33077
             7  000000u00  -0.53842 0.28989
             8  0000000u0   0.09323 0.00869

      printout of CI-coefficients larger than  0.05 for root  7
      energy=   -1054.801215
      conf/sym  111111111     Coeff  Weight
             2  0u0000000   0.25731 0.06621
             4  000u00000  -0.22827 0.05211
             5  0000u0000   0.59985 0.35983
             6  00000u000   0.15198 0.02310
             7  000000u00   0.70482 0.49678

      printout of CI-coefficients larger than  0.05 for root  8
      energy=   -1054.801215
      conf/sym  111111111     Coeff  Weight
             1  u00000000  -0.06769 0.00458
             2  0u0000000  -0.20980 0.04402
             3  00u000000  -0.56985 0.32473
             7  000000u00   0.08347 0.00697
             8  0000000u0   0.78637 0.61838

      printout of CI-coefficients larger than  0.05 for root  9
      energy=   -1054.744090
      conf/sym  111111111     Coeff  Weight
             9  00000000u   1.00000 1.00000

      Natural orbitals and occupation numbers for root  1
      sym 1:   1.000000  -0.000000   0.000000  -0.000000  -0.000000   0.000000  -0.000000  -0.000000   0.000000

      Natural orbitals and occupation numbers for root  2
      sym 1:  -0.000000   1.000000   0.000000   0.000000  -0.000000  -0.000000   0.000000   0.000000   0.000000

      Natural orbitals and occupation numbers for root  3
      sym 1:  -0.000000   0.000000   1.000000   0.000000  -0.000000   0.000000   0.000000  -0.000000  -0.000000

      Natural orbitals and occupation numbers for root  4
      sym 1:   0.000000  -0.000000  -0.000000   1.000000   0.000000   0.000000  -0.000000  -0.000000  -0.000000

      Natural orbitals and occupation numbers for root  5
      sym 1:   0.000000   0.000000   0.000000   1.000000  -0.000000   0.000000  -0.000000  -0.000000   0.000000

      Natural orbitals and occupation numbers for root  6
      sym 1:  -0.000000   0.000000  -0.000000   0.000000   1.000000  -0.000000  -0.000000  -0.000000  -0.000000

      Natural orbitals and occupation numbers for root  7
      sym 1:  -0.000000   0.000000   0.000000   0.000000   1.000000  -0.000000  -0.000000   0.000000   0.000000

      Natural orbitals and occupation numbers for root  8
      sym 1:   0.000000   0.000000  -0.000000  -0.000000  -0.000000   0.000000   0.000000   1.000000  -0.000000

      Natural orbitals and occupation numbers for root  9
      sym 1:   0.000000  -0.000000  -0.000000  -0.000000  -0.000000   0.000000   0.000000  -0.000000   1.000000

      ************************************************************************************************************************
      *                                                                                                                      *
      *                                                    Final results                                                     *
      *                                                                                                                      *
      ************************************************************************************************************************


++    Wave function specifications:
      -----------------------------

      Number of closed shell electrons          18
      Number of electrons in active shells       1
      Max number of holes in RAS1 space          0
      Max nr of electrons in RAS3 space          0
      Number of inactive orbitals                9
      Number of active orbitals                  9
      Number of secondary orbitals             162
      Spin quantum number                      0.5
      State symmetry                             1
--

++    Orbital specifications:
      -----------------------

      Symmetry species                           1
                                                 a
      Frozen orbitals                            0
      Inactive orbitals                          9
      Active orbitals                            9
      RAS1 orbitals                              0
      RAS2 orbitals                              9
      RAS3 orbitals                              0
      Secondary orbitals                       162
      Deleted orbitals                           0
      Number of basis functions                180
--

++    CI expansion specifications:
      ----------------------------

      Number of CSFs                             9
      Number of determinants                     9
      Number of root(s) required                 9
      CI roots used                              1     2     3     4     5     6     7     8     9
      weights                                0.111 0.111 0.111 0.111 0.111 0.111 0.111 0.111 0.111
      highest root included in the CI            9
      Root passed to geometry opt.               9
--

++    Final optimization conditions:
      ------------------------------

      Average CI energy                           -1055.14789485
      RASSCF energy for state  9                  -1054.74409020
      Super-CI energy                                -0.00000000
      RASSCF energy change                           -0.00000000
      Max change in MO coefficients              -0.586E-04
      Max non-diagonal density matrix element     0.656E-04
      Maximum BLB matrix element                 -0.337E-05
      (orbital pair   7,  16 in symmetry   1)
      Norm of electronic gradient            0.376E+00
--


      Final state energy(ies):
      ------------------------

::    RASSCF root number  1 Total energy:  -1055.46097941
::    RASSCF root number  2 Total energy:  -1055.46097940
::    RASSCF root number  3 Total energy:  -1055.36967402
::    RASSCF root number  4 Total energy:  -1055.36927995
::    RASSCF root number  5 Total energy:  -1055.36927987
::    RASSCF root number  6 Total energy:  -1054.95434065
::    RASSCF root number  7 Total energy:  -1054.80121510
::    RASSCF root number  8 Total energy:  -1054.80121507
::    RASSCF root number  9 Total energy:  -1054.74409020

++    Molecular orbitals:
      -------------------

      Pseudonatural active orbitals and approximate occupation numbers




      Molecular orbitals for symmetry species 1: a  


      Orbital                 1         2         3         4         5         6         7         8         9        10
      Energy          -223.3004  -27.9545  -23.5819  -23.5819  -23.5789   -4.3369   -2.9940   -2.9940   -2.9281    0.0000
      Occ. No.           2.0000    2.0000    2.0000    2.0000    2.0000    2.0000    2.0000    2.0000    2.0000    0.1111

     1 CR     1s         1.0000   -0.0001   -0.0000   -0.0000   -0.0000    0.0001    0.0000    0.0000    0.0000    0.0000
     2 CR     2s         0.0001    1.0000   -0.0000   -0.0000   -0.0014    0.0018   -0.0000   -0.0000   -0.0003   -0.0000
     3 CR     3s        -0.0001   -0.0018    0.0000    0.0000    0.0003    0.9960   -0.0000   -0.0000   -0.0373   -0.0145
     4 CR     4s         0.0000    0.0000    0.0000   -0.0000   -0.0000   -0.0383   -0.0000    0.0000    0.0069   -0.2595
     5 CR     5s        -0.0000   -0.0003    0.0000    0.0000    0.0001    0.0585   -0.0000   -0.0000   -0.0111    0.0572
     6 CR     6s         0.0000    0.0002   -0.0000   -0.0000   -0.0001   -0.0257    0.0000    0.0000    0.0048    0.0248
     7 CR     7s        -0.0000   -0.0001    0.0000    0.0000    0.0000   -0.0063    0.0000    0.0000    0.0014   -0.0018
     8 CR     8s         0.0000   -0.0000    0.0000   -0.0000   -0.0000    0.0055   -0.0000   -0.0000   -0.0012   -0.0061
     9 CR     9s        -0.0001    0.0002    0.0000    0.0000    0.0000    0.0012   -0.0000   -0.0000   -0.0003   -0.0020
    10 CR    10s         0.0001   -0.0002    0.0000   -0.0000   -0.0000    0.0002   -0.0000   -0.0000   -0.0000   -0.0002
    11 CR     2px        0.0000    0.0000    0.0000    1.0000   -0.0000   -0.0000    0.0000    0.0025   -0.0000    0.0002
    12 CR     3px       -0.0000    0.0000   -0.0000   -0.0025    0.0000    0.0000    0.0000    0.9929   -0.0000    0.0146
    13 CR     4px        0.0000   -0.0000    0.0000    0.0004   -0.0000    0.0000   -0.0000   -0.0652    0.0000   -0.0937
    14 CR     5px       -0.0000    0.0000   -0.0000   -0.0006    0.0000   -0.0000    0.0000    0.0734   -0.0000    0.0146
    15 CR     6px        0.0000   -0.0000    0.0000    0.0001   -0.0000   -0.0000   -0.0000   -0.0036    0.0000    0.0041
    16 CR     7px       -0.0000    0.0000    0.0000    0.0000   -0.0000    0.0000   -0.0000   -0.0098    0.0000   -0.0034
    17 CR     8px        0.0000   -0.0000   -0.0000   -0.0002    0.0000   -0.0000    0.0000    0.0030   -0.0000    0.0010
    18 CR     9px       -0.0000    0.0000    0.0000    0.0002   -0.0000   -0.0000    0.0000    0.0016    0.0000    0.0010
    19 CR    10px        0.0000   -0.0000   -0.0000   -0.0002    0.0000    0.0000   -0.0000   -0.0010    0.0000   -0.0004
    20 CR    11px       -0.0000    0.0000    0.0000    0.0002   -0.0000    0.0000   -0.0000   -0.0005    0.0000   -0.0002
    21 CR     2py        0.0000   -0.0000    1.0000   -0.0000   -0.0000   -0.0000    0.0025   -0.0000   -0.0000   -0.0002
    22 CR     3py       -0.0000    0.0000   -0.0025    0.0000    0.0000   -0.0000    0.9929   -0.0000   -0.0000   -0.0225
    23 CR     4py        0.0000   -0.0000    0.0004   -0.0000   -0.0000    0.0000   -0.0652    0.0000    0.0000   -0.0127
    24 CR     5py       -0.0000    0.0000   -0.0006    0.0000    0.0000   -0.0000    0.0734   -0.0000   -0.0000   -0.0258
    25 CR     6py        0.0000   -0.0000    0.0001   -0.0000   -0.0000    0.0000   -0.0036    0.0000    0.0000   -0.0027
    26 CR     7py       -0.0000    0.0000    0.0000   -0.0000    0.0000    0.0000   -0.0098    0.0000    0.0000    0.0066
    27 CR     8py        0.0000   -0.0000   -0.0002    0.0000    0.0000   -0.0000    0.0030   -0.0000   -0.0000    0.0010
    28 CR     9py       -0.0000   -0.0000    0.0002   -0.0000   -0.0000   -0.0000    0.0016   -0.0000    0.0000   -0.0009
    29 CR    10py       -0.0000   -0.0000   -0.0002    0.0000    0.0000   -0.0000   -0.0010    0.0000    0.0000    0.0000
    30 CR    11py       -0.0000    0.0000    0.0002   -0.0000   -0.0000   -0.0000   -0.0005    0.0000    0.0000    0.0001
    31 CR     2pz        0.0000    0.0014    0.0000    0.0000    1.0000   -0.0002    0.0000    0.0000    0.0029   -0.0000
    32 CR     3pz       -0.0000    0.0002   -0.0000   -0.0000   -0.0028    0.0381    0.0000    0.0000    0.9922   -0.0070
    33 CR     4pz        0.0000   -0.0000    0.0000    0.0000    0.0004   -0.0006   -0.0000   -0.0000   -0.0717   -0.0600
    34 CR     5pz       -0.0000    0.0001   -0.0000   -0.0000   -0.0007   -0.0012    0.0000    0.0000    0.0837   -0.0010
    35 CR     6pz        0.0000   -0.0000    0.0000    0.0000    0.0002    0.0011    0.0000   -0.0000   -0.0056    0.0088
    36 CR     7pz       -0.0000    0.0000    0.0000   -0.0000   -0.0000   -0.0008    0.0000   -0.0000   -0.0103    0.0004
    37 CR     8pz        0.0000   -0.0000   -0.0000   -0.0000   -0.0001   -0.0003   -0.0000    0.0000    0.0043   -0.0025
    38 CR     9pz       -0.0000    0.0000    0.0000    0.0000    0.0002    0.0004   -0.0000    0.0000    0.0013   -0.0010
    39 CR    10pz        0.0000   -0.0000   -0.0000   -0.0000   -0.0002    0.0003   -0.0000   -0.0000   -0.0017    0.0000
    40 CR    11pz       -0.0000    0.0000    0.0000    0.0000    0.0002    0.0000   -0.0000   -0.0000   -0.0007    0.0000
    41 CR     3d2-       0.0000    0.0000    0.0001   -0.0000   -0.0000    0.0000    0.0315   -0.0000    0.0000   -0.1215
    42 CR     4d2-      -0.0000   -0.0000   -0.0001    0.0000    0.0000   -0.0000   -0.0054    0.0000    0.0000    0.0232
    43 CR     5d2-      -0.0000    0.0000   -0.0000    0.0000    0.0000    0.0000   -0.0060    0.0000    0.0000    0.0038
    44 CR     6d2-      -0.0000   -0.0000    0.0001   -0.0000   -0.0000    0.0000    0.0023   -0.0000   -0.0000   -0.0006
    45 CR     7d2-      -0.0000    0.0000   -0.0000    0.0000    0.0000    0.0000    0.0021   -0.0000   -0.0000   -0.0023
    46 CR     8d2-      -0.0000   -0.0000    0.0000   -0.0000   -0.0000   -0.0000   -0.0006    0.0000   -0.0000   -0.0003
    47 CR     9d2-       0.0000   -0.0000   -0.0000    0.0000   -0.0000   -0.0000   -0.0014    0.0000    0.0000    0.0009
[...]
     -----------------------------------------------------------------------------------------------
         1    5       2.21991313E-05  5.94618187E+03  1.35945355E-05  1.33047427E-06  5.94618189E+03
         1    9       1.89603513E-05  2.68970259E+02  6.88543056E-07  4.85362574E+03  5.12259600E+03
         1   11       1.21105668E-04  9.98781933E+05  2.28341480E-03  5.09238883E-06  9.98781935E+05
         1   13       2.00716224E-02  4.53881079E-01  2.80717503E+08  2.47163494E-01  2.80717503E+08
         1   15       2.58257383E-02  2.80716860E+08  4.53881215E-01  8.04765311E+07  3.61193392E+08
         1   17       6.73482644E-03  1.11208984E+08  2.54249051E-01  1.13453526E-05  1.11208984E+08
         2    6       2.21991313E-05  5.94618187E+03  1.35945355E-05  1.33047427E-06  5.94618189E+03
         2   10       1.89603513E-05  2.68970259E+02  6.88543056E-07  4.85362574E+03  5.12259600E+03
         2   12       1.21105668E-04  9.98781933E+05  2.28341480E-03  5.09238883E-06  9.98781935E+05
         2   14       2.00716224E-02  4.53881079E-01  2.80717503E+08  2.47163494E-01  2.80717503E+08
         2   16       2.58257383E-02  2.80716860E+08  4.53881215E-01  8.04765311E+07  3.61193392E+08
         2   18       6.73482644E-03  1.11208984E+08  2.54249051E-01  1.13453526E-05  1.11208984E+08
         3    5       2.21995310E-05  1.35943641E-05  5.94628775E+03  5.59075012E-15  5.94628777E+03
         3    7       1.89601880E-05  2.68923828E+02  6.88613388E-07  4.85361800E+03  5.12254183E+03
         3   11       1.21103724E-04  2.28344599E-03  9.98765871E+05  1.11888484E-14  9.98765873E+05
         3   13       2.58257646E-02  2.80717067E+08  4.53881772E-01  8.04766517E+07  3.61193719E+08
         3   15       2.00716032E-02  4.53880555E-01  2.80717249E+08  2.47163203E-01  2.80717250E+08
         3   17       6.73482314E-03  2.54249169E-01  1.11208926E+08  2.01527151E-14  1.11208927E+08
         4    6       2.21995310E-05  1.35943641E-05  5.94628775E+03  5.59075012E-15  5.94628777E+03
         4    8       1.89601880E-05  2.68923828E+02  6.88613388E-07  4.85361800E+03  5.12254183E+03
         4   12       1.21103724E-04  2.28344599E-03  9.98765871E+05  1.11888484E-14  9.98765873E+05
         4   14       2.58257646E-02  2.80717067E+08  4.53881772E-01  8.04766517E+07  3.61193719E+08
         4   16       2.00716032E-02  4.53880555E-01  2.80717249E+08  2.47163203E-01  2.80717250E+08
         4   18       6.73482314E-03  2.54249169E-01  1.11208926E+08  2.01527151E-14  1.11208927E+08
         5   11       5.17113026E-04  1.80152207E-02  4.43414381E-12  2.86608136E+06  2.86608138E+06
         5   13       1.89267709E-02  1.13624004E-02  1.96509736E+08  3.40703460E-12  1.96509736E+08
         5   15       1.89261186E-02  1.96502983E+08  1.13636436E-02  5.34948924E-02  1.96502983E+08
         5   17       1.11281217E-02  4.31611767E-02  9.90868138E-12  1.39927238E+08  1.39927238E+08
         6   12       5.17113026E-04  1.80152207E-02  4.43414381E-12  2.86608136E+06  2.86608138E+06
         6   14       1.89267709E-02  1.13624004E-02  1.96509736E+08  3.40703460E-12  1.96509736E+08
         6   16       1.89261186E-02  1.96502983E+08  1.13636436E-02  5.34948924E-02  1.96502983E+08
         6   18       1.11281217E-02  4.31611767E-02  9.90868138E-12  1.39927238E+08  1.39927238E+08
         7   11       9.31877593E-03  4.01220452E-04  5.15510353E+07  3.04329568E-13  5.15510353E+07
         7   13       1.98653738E-02  4.77852066E+07  1.10793825E-03  1.58183836E+08  2.05969042E+08
         7   15       4.60879325E-03  1.10731827E-03  4.77850973E+07  1.70897227E-02  4.77850973E+07
         7   17       9.86533269E-03  9.64252022E-04  1.23892440E+08  1.58954895E-11  1.23892440E+08
         8   12       9.31877593E-03  4.01220452E-04  5.15510353E+07  3.04329568E-13  5.15510353E+07
         8   14       1.98653738E-02  4.77852066E+07  1.10793825E-03  1.58183836E+08  2.05969042E+08
         8   16       4.60879325E-03  1.10731827E-03  4.77850973E+07  1.70897227E-02  4.77850973E+07
         8   18       9.86533269E-03  9.64252022E-04  1.23892440E+08  1.58954895E-11  1.23892440E+08
         9   11       9.31876769E-03  5.15509696E+07  4.01222101E-04  7.30558102E-04  5.15509696E+07
         9   13       4.60846167E-03  1.10775640E-03  4.77816412E+07  1.70897243E-02  4.77816412E+07
         9   15       1.98657173E-02  4.77886766E+07  1.10750141E-03  1.58183888E+08  2.05972564E+08
         9   17       9.86532924E-03  1.23892365E+08  9.64251358E-04  4.77135942E-02  1.23892365E+08
        10   12       9.31876769E-03  5.15509696E+07  4.01222101E-04  7.30558102E-04  5.15509696E+07
        10   14       4.60846167E-03  1.10775640E-03  4.77816412E+07  1.70897243E-02  4.77816412E+07
        10   16       1.98657173E-02  4.77886766E+07  1.10750141E-03  1.58183888E+08  2.05972564E+08
        10   18       9.86532924E-03  1.23892365E+08  9.64251358E-04  4.77135942E-02  1.23892365E+08
        11   13       3.20994509E-01  1.39836143E-02  2.41825599E+08  1.66482978E-15  2.41825599E+08
        11   15       3.20994520E-01  2.41825694E+08  1.39836241E-02  3.73984115E-05  2.41825694E+08
        11   17       3.05331721E-01  5.84151126E-05  9.88687005E-17  4.33665776E+08  4.33665776E+08
        12   14       3.20994509E-01  1.39836143E-02  2.41825599E+08  1.66482978E-15  2.41825599E+08
        12   16       3.20994520E-01  2.41825694E+08  1.39836241E-02  3.73984115E-05  2.41825694E+08
        12   18       3.05331721E-01  5.84151126E-05  9.88687005E-17  4.33665776E+08  4.33665776E+08
        13   17       1.45535165E-03  8.82359433E-06  1.52590760E+05  2.54709924E-19  1.52590760E+05
        14   18       1.45535165E-03  8.82359433E-06  1.52590760E+05  2.54709924E-19  1.52590760E+05
        15   17       1.45535049E-03  1.52590493E+05  8.82357897E-06  6.67488871E-08  1.52590493E+05
        16   18       1.45535049E-03  1.52590493E+05  8.82357897E-06  6.67488871E-08  1.52590493E+05
     -----------------------------------------------------------------------------------------------
--

++ Velocity transition strengths (SO states):
   ------------------------------------------
    for osc. strength at least    1.0000000000000001E-005

      From   To        Osc. strength     Einstein coefficients Ax, Ay, Az (sec-1)    Total A (sec-1)
     -----------------------------------------------------------------------------------------------
         1   11       9.48411668E-05  7.82176218E+05  1.78820293E-03  3.99397313E-06  7.82176220E+05
         1   13       1.73260418E-02  3.91796410E-01  2.42319231E+08  2.12746810E-01  2.42319232E+08
         1   15       2.22788994E-02  2.42318669E+08  3.91796548E-01  6.92704554E+07  3.11589125E+08
         1   17       5.92245604E-03  9.77950381E+07  2.23581723E-01  9.00073504E-06  9.77950383E+07
         2   12       9.48411668E-05  7.82176218E+05  1.78820293E-03  3.99397313E-06  7.82176220E+05
         2   14       1.73260418E-02  3.91796410E-01  2.42319231E+08  2.12746810E-01  2.42319232E+08
         2   16       2.22788994E-02  2.42318669E+08  3.91796548E-01  6.92704554E+07  3.11589125E+08
         2   18       5.92245604E-03  9.77950381E+07  2.23581723E-01  9.00073504E-06  9.77950383E+07
         3   11       9.48395883E-05  1.78823421E-03  7.82163172E+05  9.76181440E-15  7.82163174E+05
         3   13       2.22789221E-02  2.42318850E+08  3.91797024E-01  6.92705585E+07  3.11589409E+08
         3   15       1.73260251E-02  3.91795990E-01  2.42319009E+08  2.12746586E-01  2.42319010E+08
         3   17       5.92245318E-03  2.23581827E-01  9.77949883E+07  1.91382898E-14  9.77949885E+07
         4   12       9.48395883E-05  1.78823421E-03  7.82163172E+05  9.76181440E-15  7.82163174E+05
         4   14       2.22789221E-02  2.42318850E+08  3.91797024E-01  6.92705585E+07  3.11589409E+08
         4   16       1.73260251E-02  3.91795990E-01  2.42319009E+08  2.12746586E-01  2.42319010E+08
         4   18       5.92245318E-03  2.23581827E-01  9.77949883E+07  1.91382898E-14  9.77949885E+07
         5    7       9.62254717E-03  3.73686511E-10  4.80124156E+01  2.52322025E-20  4.80124156E+01
         5    9       9.62058143E-03  4.80223060E+01  3.73741626E-10  1.03522964E-10  4.80223060E+01
         5   11       5.49070913E-04  1.52677041E-02  3.44384872E-12  3.04321745E+06  3.04321746E+06
         5   13       1.66665536E-02  1.00055659E-02  1.73043329E+08  2.82397864E-12  1.73043329E+08
         5   15       1.66659896E-02  1.73037490E+08  1.00066319E-02  4.53074282E-02  1.73037490E+08
         5   17       9.37788393E-03  3.73403904E-02  8.68866957E-12  1.17919806E+08  1.17919806E+08
         6    8       9.62254717E-03  3.73686511E-10  4.80124156E+01  2.52322025E-20  4.80124156E+01
         6   10       9.62058143E-03  4.80223060E+01  3.73741626E-10  1.03522964E-10  4.80223060E+01
         6   12       5.49070913E-04  1.52677041E-02  3.44384872E-12  3.04321745E+06  3.04321746E+06
         6   14       1.66665536E-02  1.00055659E-02  1.73043329E+08  2.82397864E-12  1.73043329E+08
         6   16       1.66659896E-02  1.73037490E+08  1.00066319E-02  4.53074282E-02  1.73037490E+08
         6   18       9.37788393E-03  3.73403904E-02  8.68866957E-12  1.17919806E+08  1.17919806E+08
         7   11       7.89350175E-03  3.39856028E-04  4.36666366E+07  3.26892669E-13  4.36666366E+07
         7   13       1.68556035E-02  4.05982304E+07  9.41308128E-04  1.34165386E+08  1.74763616E+08
         7   15       3.91560928E-03  9.40770866E-04  4.05981373E+07  1.44948364E-02  4.05981373E+07
         7   17       8.52579442E-03  8.33326337E-04  1.07070403E+08  1.33683217E-11  1.07070403E+08
         8   12       7.89350175E-03  3.39856028E-04  4.36666366E+07  3.26892669E-13  4.36666366E+07
         8   14       1.68556035E-02  4.05982304E+07  9.41308128E-04  1.34165386E+08  1.74763616E+08
         8   16       3.91560928E-03  9.40770866E-04  4.05981373E+07  1.44948364E-02  4.05981373E+07
         8   18       8.52579442E-03  8.33326337E-04  1.07070403E+08  1.33683217E-11  1.07070403E+08
         9   11       7.89349487E-03  4.36665815E+07  3.39855711E-04  7.98106463E-04  4.36665815E+07
         9   13       3.91532246E-03  9.41150674E-04  4.05951480E+07  1.44948388E-02  4.05951480E+07
         9   15       1.68559004E-02  4.06012315E+07  9.40929821E-04  1.34165431E+08  1.74766662E+08
         9   17       8.52579138E-03  1.07070337E+08  8.33326780E-04  4.02668633E-02  1.07070337E+08
        10   12       7.89349487E-03  4.36665815E+07  3.39855711E-04  7.98106463E-04  4.36665815E+07
        10   14       3.91532246E-03  9.41150674E-04  4.05951480E+07  1.44948388E-02  4.05951480E+07
        10   16       1.68559004E-02  4.06012315E+07  9.40929821E-04  1.34165431E+08  1.74766662E+08
        10   18       8.52579138E-03  1.07070337E+08  8.33326780E-04  4.02668633E-02  1.07070337E+08
        11   13       3.09041239E-01  1.34629419E-02  2.32821249E+08  1.51463041E-15  2.32821249E+08
        11   15       3.09041249E-01  2.32821340E+08  1.34629404E-02  3.58513472E-05  2.32821340E+08
        11   17       2.95081694E-01  5.65670307E-05  4.33219678E-17  4.19109015E+08  4.19109015E+08
        12   14       3.09041239E-01  1.34629419E-02  2.32821249E+08  1.51463041E-15  2.32821249E+08
        12   16       3.09041249E-01  2.32821340E+08  1.34629404E-02  3.58513472E-05  2.32821340E+08
        12   18       2.95081694E-01  5.65670307E-05  4.33219678E-17  4.19109015E+08  4.19109015E+08
        13   17       1.23675102E-03  7.49828372E-06  1.29671364E+05  6.51379564E-18  1.29671364E+05
        14   18       1.23675102E-03  7.49828372E-06  1.29671364E+05  6.51379564E-18  1.29671364E+05
        15   17       1.23674990E-03  1.29671123E+05  7.49827586E-06  5.58999325E-08  1.29671123E+05
        16   18       1.23674990E-03  1.29671123E+05  7.49827586E-06  5.58999325E-08  1.29671123E+05
     -----------------------------------------------------------------------------------------------
--

++ Length and velocity gauge comparison (SO states):

 --------------------------------------------------
 A comparison between the dipole oscillator strengths in 
 length and velocity gauge will be performed

 All dipole oscillator differences above the tolerance of   0.10000000000000001       will be printed 

 Due to basis set deficiency these oscillator may be problematic 

 The tolerance is defined as ABS(1-O_l/O_v) 
 O_l : dipole oscillator strength in length gauge
 O_p : dipole oscillator strength in velocity gauge
 --------------------------------------------------

  Problematic transitions have been found

      From   To       Difference (%) Osc. st. (len.) Osc. st. (vel.)
     ---------------------------------------------------------------
         1    5      ---------------  2.21991313E-05 below threshold
         1    9      ---------------  1.89603513E-05 below threshold
         1   11            27.693144  1.21105668E-04  9.48411668E-05
         1   13            15.846554  2.00716224E-02  1.73260418E-02
         1   15            15.920171  2.58257383E-02  2.22788994E-02
         1   17            13.716782  6.73482644E-03  5.92245604E-03
         2    6      ---------------  2.21991313E-05 below threshold
         2   10      ---------------  1.89603513E-05 below threshold
         2   12            27.693144  1.21105668E-04  9.48411668E-05
         2   14            15.846554  2.00716224E-02  1.73260418E-02
         2   16            15.920171  2.58257383E-02  2.22788994E-02
         2   18            13.716782  6.73482644E-03  5.92245604E-03
         3    5      ---------------  2.21995310E-05 below threshold
         3    7      ---------------  1.89601880E-05 below threshold
         3   11            27.693220  1.21103724E-04  9.48395883E-05
         3   13            15.920171  2.58257646E-02  2.22789221E-02
         3   15            15.846555  2.00716032E-02  1.73260251E-02
         3   17            13.716781  6.73482314E-03  5.92245318E-03
         4    6      ---------------  2.21995310E-05 below threshold
         4    8      ---------------  1.89601880E-05 below threshold
         4   12            27.693220  1.21103724E-04  9.48395883E-05
         4   14            15.920171  2.58257646E-02  2.22789221E-02
         4   16            15.846555  2.00716032E-02  1.73260251E-02
         4   18            13.716781  6.73482314E-03  5.92245318E-03
         5    7      --------------- below threshold  9.62254717E-03
         5    9      --------------- below threshold  9.62058143E-03
         5   13            13.561396  1.89267709E-02  1.66665536E-02
         5   15            13.561325  1.89261186E-02  1.66659896E-02
         5   17            18.663462  1.11281217E-02  9.37788393E-03
         6    8      --------------- below threshold  9.62254717E-03
         6   10      --------------- below threshold  9.62058143E-03
         6   14            13.561396  1.89267709E-02  1.66665536E-02
         6   16            13.561325  1.89261186E-02  1.66659896E-02
         6   18            18.663462  1.11281217E-02  9.37788393E-03
         7   11            18.056298  9.31877593E-03  7.89350175E-03
         7   13            17.856201  1.98653738E-02  1.68556035E-02
         7   15            17.703093  4.60879325E-03  3.91560928E-03
         7   17            15.711595  9.86533269E-03  8.52579442E-03
         8   12            18.056298  9.31877593E-03  7.89350175E-03
         8   14            17.856201  1.98653738E-02  1.68556035E-02
         8   16            17.703093  4.60879325E-03  3.91560928E-03
         8   18            15.711595  9.86533269E-03  8.52579442E-03
         9   11            18.056296  9.31876769E-03  7.89349487E-03
         9   13            17.703247  4.60846167E-03  3.91532246E-03
         9   15            17.856162  1.98657173E-02  1.68559004E-02
         9   17            15.711596  9.86532924E-03  8.52579138E-03
        10   12            18.056296  9.31876769E-03  7.89349487E-03
        10   14            17.703247  4.60846167E-03  3.91532246E-03
        10   16            17.856162  1.98657173E-02  1.68559004E-02
        10   18            15.711596  9.86532924E-03  8.52579138E-03
        13   17            17.675395  1.45535165E-03  1.23675102E-03
        14   18            17.675395  1.45535165E-03  1.23675102E-03
        15   17            17.675408  1.45535049E-03  1.23674990E-03
        16   18            17.675408  1.45535049E-03  1.23674990E-03
     ---------------------------------------------------------------

 Number of problematic transitions =                    54

--

 Electric-dipole - electric-octupole not included
++ I/O STATISTICS
 
  I. General I/O information
  - - - - - - - - - - - - - - - - - - - - - - - - - - - - - - - - - - - - - - - - - - -
  Unit  Name          Flsize      Write/Read            MBytes           Write/Read
                      (MBytes)       Calls              In/Out           Time, sec.
  - - - - - - - - - - - - - - - - - - - - - - - - - - - - - - - - - - - - - - - - - - -
   1  SCRATCH           0.00 .       9/      45 .      0.0/      0.0 .       0/       0
   2  ANNI              0.00 .       0/       0 .      0.0/      0.0 .       0/       0
   3  RUNFILE          14.85 .     322/   10517 .      2.3/     76.3 .       0/       0
   4  ONEINT            5.58 .       0/   23543 .      0.0/   3739.9 .       0/       0
   5  JOBIPH            6.48 .       0/      92 .      0.0/      0.8 .       0/       0
   6  ORDINT          506.53 .       1/    4053 .      0.0/   1013.0 .       0/       0
  - - - - - - - - - - - - - - - - - - - - - - - - - - - - - - - - - - - - - - - - - - -
   *  TOTAL           533.45 .     332/   38250 .      2.3/   4830.0 .       0/       0
  - - - - - - - - - - - - - - - - - - - - - - - - - - - - - - - - - - - - - - - - - - -
 
  II. I/O Access Patterns
  - - - - - - - - - - - - - - - - - - - -
  Unit  Name               % of random
                         Write/Read calls
  - - - - - - - - - - - - - - - - - - - -
   1  SCRATCH             88.9/ 100.0
   2  ANNI                 0.0/   0.0
   3  RUNFILE             28.6/  10.8
   4  ONEINT               0.0/  16.4
   5  JOBIPH               0.0/  76.1
   6  ORDINT             100.0/   0.0
  - - - - - - - - - - - - - - - - - - - -
--
--- Stop Module: rassi at Fri Jan 10 02:18:27 2025 /rc=_RC_ALL_IS_WELL_ ---
*** files: xmldump
    saved to directory /home4/s4752295/Internship/Initial_simulations/Point_charge_model/1_electron/active_space_9_non_rel/Cr/varying_bond_length
--- Module rassi spent 3 seconds ---

.##################.
.# Happy landing! #.
.##################.

    Timing: Wall=49.84 User=37.16 System=7.90

###############################################################################
Hbrk Cluster
Job 14556670 for user s4752295
Finished at: Fri Jan 10 02:18:27 CET 2025

Job details:
============

Job ID                         : 14556670
Name                           : Cr_no_c_light
User                           : s4752295
Partition                      : regularmedium
Nodes                          : node101
Number of Nodes                : 1
Cores                          : 1
Number of Tasks                : 1
State                          : RUNNING  
Submit                         : 2025-01-10T02:17:32
Start                          : 2025-01-10T02:17:33
End                            : --
Reserved walltime              : 15:00:00
Used walltime                  : 00:00:55
Used CPU time                  : -- 
% User (Computation)           : --
% System (I/O)                 : --
Total memory reserved          : 25000M
Maximum memory used            : --

Acknowledgements:
=================

Please see this page for information about acknowledging Hbrk in your publications:

https://wiki.hpc.rug.nl/habrok/introduction/scientific_output

################################################################################
