   This run of MOLCAS is using the pymolcas driver

                             OPE
                             OPE          NMOL  CASOP  ENMOLC A   SO
                 OPE        NMOLC        AS  OP EN  MO LC     AS  OP
                OPENM       OL CA        SO  PE NM  OL CA     SOP EN
                OP EN      MO   LC       AS  OP ENMOL  CASO   PENMOL
                OP  EN     MO   LC       AS  OP EN     MO     LC ASO
               OP   E  NMOL  C  AS       OP  EN MO     LC     AS  OP
               OP  E   NMO   LC AS        OPEN  MO     LCASOP EN   M
               O  PEN   MO  LCA  SO
            OPE   NMO   L   CAS    OP
        OPENMOL  CASOP     ENMOL   CASOPE
     OPENMOLCA   SOPENMOLCASOPEN   MOLCASOPE
    OPENMOLCAS   OP           EN   MOL    CAS
    OPENMOLCAS       OP  ENM        O     LCA
    OPENMOLCAS    OPEN  MOLCASO     P  E  NMO
    OPENMOLCAS     OP               E  N  MOL
    OPENMOLCA   SO           PENM   O  L  CAS    OPEN    MO    LCAS
    OPENMOLCA   SOP           ENM   O  L  CAS   OP  EN  MOLC  AS   O
    OPENMOLCA   SOPE           NM      O  LCA   S      OP  EN MO
    OPENMOLC                AS         O  PEN   M      OL  CA  SOPE
    OPENMO        LCASOPE  NMOL        C  ASO   P      ENMOLC     AS
    OPE     NMO      LCA  SO     P     E   NM   OL  CA SO  PE N   MO
          OPENMOLCA            SOPE   NMO        LCAS  O    P  ENMO
     OPENMOLCASOPENMOLCASOPENMOLCASOPENMOLCA
        OPENMOLCASOPENMOLCASOPENMOLCASOPE
            OPENMOLCASOPENMOLCASOPENM
               OPENMOLCASOPENMOLCA        version: o91e1abe7de707b ?
                   OPENMOLCASO
                       OPE                tag:

 OpenMolcas is free software; you can redistribute it and/or modify it
 under the terms of the GNU Lesser General Public License version 2.1.
 OpenMolcas is distributed in the hope that it will be useful, but it
 is provided "as is" and without any express or implied warranties.
 For more details see the full text of the license in the file
 LICENSE or in <http://www.gnu.org/licenses/>.

                 Copyright (C) The OpenMolcas Authors
           For the author list and the recommended citation,
                   consult the file CONTRIBUTORS.md

           *************************************************
           * pymolcas version py2.10                       *
           *   build 3068ae8b88c9345ec6cfef6fef7f1169      *
           *   (after the EMIL interpreter by V. Veryazov) *
           *************************************************

configuration info
------------------
Host name: login1 (Linux)
C Compiler ID: GNU
C flags: -std=gnu99
Fortran Compiler ID: GNU
Fortran flags: -fno-aggressive-loop-optimizations -cpp -fdefault-integer-8 -fmax-stack-var-size=1048576
Definitions: _MOLCAS_;_I8_;_LINUX_;_MKL_
Parallel: OFF (GA=OFF)


   ----------------------------------------------------------------------------------------------------------------------------------------------
  |
  |           Project: chromium_so_cf
  |    Submitted from: /home4/s4752295/Internship/Initial_simulations/Point_charge_model/1_electron/active_space_9_non_rel/Cr/varying_bond_length
  |      Scratch area: /tmp/chromium_so_cf
  |   Save outputs to: /home4/s4752295/Internship/Initial_simulations/Point_charge_model/1_electron/active_space_9_non_rel/Cr/varying_bond_length
  |            Molcas: /home4/s4752295/Internship/Molcas/recomp_try/OpenMolcas-master/build
  |
  | Scratch area is empty
  |
  |    MOLCAS_DRIVER = /home4/s4752295/Internship/Molcas/bin/pymolcas
  |    MOLCAS_NPROCS = 1
  |    MOLCAS_SOURCE = /home4/s4752295/Internship/Molcas/recomp_try/OpenMolcas-master
  | MOLCAS_STRUCTURE = 0
  |
   ----------------------------------------------------------------------------------------------------------------------------------------------

++ ---------   Input file   ---------

&SEWARD
AMFi

CLIG
$R

Basis Set
Cr.ANO-rcc.Roos.21s15p10d6f4g2h.10s10p8d6f4g2h.
Spherical d
Cr            0.0       0.0     0.0
End of Basis

Xfield

4
0.000000,  0.0000,  1.134       -1.0
0.982073,  0.0000, -0.567       -1.0
-0.491036,  0.8505, -0.567      -1.0
-0.491036, -0.8505, -0.567      -1.0

End of input

&SCF
Occupied
9
Iterations
   50  100
End of Input

&RASSCF
LumOrb
Symmetry
1
Spin
2
Nactel
1 0 0
CIRoot
9 9 1
inactive
9
ras2
9
End of Input

>>> COPY chromium_so_cf.JobIph $SLURM_SUBMIT_DIR/chromium_so_cf.doublet.JobIph

>>> COPY $SLURM_SUBMIT_DIR/chromium_so_cf.doublet.JobIph ./JOB002

&RASSI
NROFJobIph
1 All
SpinOrbit
End of Input

EOF

-- ----------------------------------

--- Start Module: seward at Fri Jan 10 02:34:44 2025 ---

()()()()()()()()()()()()()()()()()()()()()()()()()()()()()()()()()()()()()()()()()()()()()()()()()()

                                              &SEWARD

                                   only a single process is used
                       available to each process: 4.1 GB of memory, 1 thread?
                                            pid: 1100668
()()()()()()()()()()()()()()()()()()()()()()()()()()()()()()()()()()()()()()()()()()()()()()()()()()

 The speed of LIGHT in this CALCULATION =   137.03599917700001     
               SEWARD will generate:
                  Multipole Moment integrals up to order  2
                  Kinetic Energy integrals
                  Nuclear Attraction integrals (point charge)
                  One-Electron Hamiltonian integrals
                  Velocity integrals
                  Relativistic Douglas-Kroll-Hess integrals:
                    - Parametrization         : EXP
                    - DKH order of Hamiltonian: 2
                    - DKH order of Properties : 0
                         - multipole moment operators
                         - electric potential operators
                         - contact operators
                  External field from     4 point(s) added to the one-electron Hamiltonian
                  Orbital angular momentum around ( 0.0000  0.0000  0.0000 )
                  Velocity quadrupole around ( 0.0000  0.0000  0.0000 )
                  Atomic mean-field integrals
                  Two-Electron Repulsion integrals

                   Integrals are discarded if absolute value <: 0.10E-13
                   Integral cutoff threshold is set to       <: 0.10E-15

++    Symmetry information:
      ---------------------

                    Character Table for C1 

                             E  
                    a        1  x, y, xy, Rz, z, xz, Ry, yz, Rx, I
--


++    Basis set information:
      ----------------------


      Basis set label: CR.ANO-RCC.ROOS.21S15P10D6F4G2H.10S10P8D6F4G2H......

      Electronic valence basis set:
      ------------------
      Associated Effective Charge  24.000000 au
      Associated Actual Charge     24.000000 au
      Nuclear Model: Point charge

      Shell  nPrim  nBasis  Cartesian Spherical Contaminant
         s      21      10        X                  
         p      15      10        X                  
         d      10       8                 X         
         f       6       6                 X         
         g       4       4                 X         
         h       2       2                 X         
--


++    Molecular structure info:
      -------------------------

                    ************************************************ 
                    **** Cartesian Coordinates / Bohr, Angstrom **** 
                    ************************************************ 

     Center  Label                x              y              z                     x              y              z
        1      CR               0.000000       0.000000       0.000000              0.000000       0.000000       0.000000
--


++    Operator info:
      --------------


  Net charge from external field:   -4.0000000000000000     
--


            Nuclear Potential Energy              0.00000000 au

                    Nuclear-External Field Potential Energy     -84.65608808 au
                    External Field Potential Energy               3.29105025 au 


            Total Nuclear Potential Energy            -84.65608808 au


      Basis set specifications :
      Symmetry species         a  
      Basis functions          180

 Sorry, Molden does not know how to handle
 functions with angular momentum larger than g
Note: The following floating-point exceptions are signalling: IEEE_UNDERFLOW_FLAG IEEE_DENORMAL
--- Stop Module: seward at Fri Jan 10 02:34:52 2025 /rc=_RC_ALL_IS_WELL_ ---
*** files: chromium_so_cf.GssOrb xmldump
    saved to directory /home4/s4752295/Internship/Initial_simulations/Point_charge_model/1_electron/active_space_9_non_rel/Cr/varying_bond_length
--- Module seward spent 8 seconds ---

*** symbolic link created: INPORB -> chromium_so_cf.GssOrb
--- Start Module: scf at Fri Jan 10 02:34:53 2025 ---

()()()()()()()()()()()()()()()()()()()()()()()()()()()()()()()()()()()()()()()()()()()()()()()()()()

                                                &SCF

                                   only a single process is used
                       available to each process: 4.1 GB of memory, 1 thread?
                                            pid: 1100758
()()()()()()()()()()()()()()()()()()()()()()()()()()()()()()()()()()()()()()()()()()()()()()()()()()

++    Input section:
      --------------

      Header of the integral files:
      
       Integrals generated by seward 4.2.0  , Fri Jan 10 02:34:45 2025


      Cartesian coordinates in Angstrom:
      -----------------------------------------------------
      No.  Label        X            Y            Z        
      -----------------------------------------------------
       1   CR         0.00000000   0.00000000   0.00000000
      -----------------------------------------------------
      Nuclear repulsion energy =  -84.65608808
--

++    Orbital specifications:
      -----------------------

      Symmetry species               1
                                     a
      Frozen orbitals                0
      Occupied orbitals              9
      Secondary orbitals           171
      Deleted orbitals               0
      Total number of orbitals     180
      Number of basis functions    180
--

      Molecular charge                           6.000

++    Optimization specifications:
      ----------------------------

      SCF Algorithm: Conventional
      Minimized density differences are used
      Number of density matrices in core                5
      Maximum number of NDDO SCF iterations            50
      Maximum number of HF SCF iterations             100
      Threshold for SCF energy change            0.10E-08
      Threshold for density matrix               0.10E-03
      Threshold for Fock matrix                  0.15E-03
      Threshold for linear dependence            0.10E-08
      Threshold at which DIIS is turned on       0.15E+00
      Threshold at which QNR/C2DIIS is turned on 0.75E-01
      Threshold for Norm(delta) (QNR/C2DIIS)     0.20E-04
      DIIS extrapolation of the SCF procedure
      All orbitals punched on: SCFORB
--

      Detected guessorb starting orbitals                                             


++ Convergence information
                                   SCF        iterations: Energy and convergence statistics

Iter     Tot. SCF        One-elec.       Two-elec.     Energy      Max Dij or  Max Fij      DNorm      TNorm      AccCon     Time
         Energy          Energy          Energy        Change      Delta Norm                                                in Sec.

 The total and one-electron energies are shifted by a value of      1000. a.u.

   1   -62.248585496  -282.969160494   305.376663078   0.00E+00    0.17E+00*   0.35E+00*    0.60E+01   0.25E+03   None         1.
   2   -62.749499543  -289.709515822   311.616104359  -0.50E+00*   0.51E-01*   0.57E-01*    0.87E+00   0.25E+03   EDIIS        1.
   3   -62.772478153  -288.590654364   310.474264290  -0.23E-01*   0.12E-01*   0.15E-01*    0.20E+00   0.25E+03   EDIIS        1.
   4   -62.774889264  -288.780700989   310.661899805  -0.24E-02*   0.58E-02*   0.71E-02*    0.29E-01   0.25E+03   c2DIIS       1.
   5   -62.775191602  -288.738599122   310.619495600  -0.30E-03*   0.22E-02*   0.20E-02*    0.28E-02   0.25E+03   QNRc2DIIS    1.
   6   -62.775228390  -288.744487124   310.625346815  -0.37E-04*   0.13E-02*   0.83E-03*    0.36E-03   0.25E+03   QNRc2DIIS    1.
   7   -62.775233944  -288.741433812   310.622287949  -0.56E-05*   0.36E-04*   0.76E-04     0.61E-04   0.25E+03   QNRc2DIIS    1.
   8   -62.775233956  -288.742296710   310.623150833  -0.13E-07*   0.22E-05    0.17E-05     0.24E-04   0.25E+03   QNRc2DIIS    1.
   9   -62.775233956  -288.742334772   310.623188896  -0.24E-10    0.53E-06    0.62E-06     0.33E-03   0.25E+03   QNRc2DIIS    1.

       Convergence after  9 Macro Iterations
--

 *****************************************************************************************************************************
 *                                                                                                                           *
 *                                             SCF/KS-DFT Program, Final results                                             *
 *                                                                                                                           *
 *                                                                                                                           *
 *                                                                                                                           *
 *                                                       Final Results                                                       *
 *                                                                                                                           *
 *****************************************************************************************************************************

::    Total SCF energy                              -1062.7752339562
      One-electron energy                           -1288.7423347719
      Two-electron energy                             310.6231888957
      Nuclear repulsion energy                        -84.6560880800
      Kinetic energy (interpolated)                  1072.0781808407
      Virial theorem                                    0.9913225108
      Total spin, S(S+1)                                0.0000000000
      Total spin, S                                     0.0000000000
      Max non-diagonal density matrix element           0.0000005736
      Max non-diagonal Fock matrix element              0.0000001396


      All orbitals with orbital energies smaller than  E(LUMO)+0.5 are printed

++    Molecular orbitals:
      -------------------

      Title: SCF orbitals

      Molecular orbitals for symmetry species 1: a  

          Orbital            1         2         3         4         5         6         7         8         9        10    
          Energy         -223.2616  -27.8397  -23.4791  -23.4791  -23.4661   -4.0552   -2.7847   -2.7847   -2.5977   -0.4882
          Occ. No.          2.0000    2.0000    2.0000    2.0000    2.0000    2.0000    2.0000    2.0000    2.0000    0.0000

        1 CR     1s         1.0000   -0.0001    0.0000   -0.0000   -0.0000   -0.0000   -0.0000   -0.0000    0.0000    0.0000
        2 CR     2s         0.0001    1.0000    0.0000   -0.0000   -0.0045   -0.0033    0.0000   -0.0000   -0.0009    0.0003
        3 CR     3s        -0.0000   -0.0033   -0.0000    0.0000    0.0007   -0.9930    0.0000    0.0000   -0.0859   -0.0193
        4 CR     4s         0.0000    0.0004    0.0000   -0.0000   -0.0001    0.0191   -0.0000   -0.0000    0.0036   -0.9786
        5 CR     5s        -0.0000   -0.0011   -0.0000    0.0000    0.0002   -0.0331    0.0000   -0.0000   -0.0089    0.0932
        6 CR     6s         0.0000    0.0008    0.0000   -0.0000   -0.0002    0.0218   -0.0000    0.0000    0.0070    0.0827
        7 CR     7s        -0.0000   -0.0003   -0.0000    0.0000    0.0001   -0.0072   -0.0000    0.0000   -0.0027    0.0171
        8 CR     8s         0.0000    0.0001    0.0000    0.0000   -0.0000    0.0027    0.0000    0.0000    0.0008   -0.0129
        9 CR     9s        -0.0000    0.0001   -0.0000    0.0000    0.0000    0.0025   -0.0000    0.0000    0.0011   -0.0062
       10 CR    10s         0.0000   -0.0002    0.0000   -0.0000   -0.0000   -0.0002   -0.0000    0.0000    0.0000   -0.0005
       11 CR     2px       -0.0000    0.0000    1.0000   -0.0000    0.0000   -0.0000    0.0038   -0.0000    0.0000   -0.0000
       12 CR     3px        0.0000   -0.0000   -0.0039    0.0000   -0.0000    0.0000    0.9874   -0.0000   -0.0000    0.0000
       13 CR     4px       -0.0000   -0.0000    0.0008   -0.0000    0.0000    0.0000   -0.0303    0.0000    0.0000    0.0000
       14 CR     5px        0.0000    0.0000   -0.0014    0.0000   -0.0000   -0.0000    0.0386   -0.0000   -0.0000    0.0000
       15 CR     6px       -0.0000   -0.0000    0.0005   -0.0000    0.0000    0.0000   -0.0082    0.0000    0.0000   -0.0000
       16 CR     7px        0.0000    0.0000   -0.0003    0.0000   -0.0000   -0.0000    0.0056   -0.0000    0.0000   -0.0000
       17 CR     8px       -0.0000    0.0000   -0.0000    0.0000   -0.0000   -0.0000   -0.0019    0.0000   -0.0000    0.0000
       18 CR     9px        0.0000   -0.0000    0.0002   -0.0000    0.0000    0.0000   -0.0015    0.0000    0.0000    0.0000
       19 CR    10px       -0.0000    0.0000   -0.0002    0.0000   -0.0000    0.0000    0.0014   -0.0000    0.0000    0.0000
       20 CR    11px        0.0000   -0.0000    0.0001   -0.0000    0.0000    0.0000    0.0002   -0.0000    0.0000    0.0000
       21 CR     2py       -0.0000   -0.0000    0.0000    1.0000   -0.0000    0.0000    0.0000    0.0038   -0.0000   -0.0000
       22 CR     3py        0.0000    0.0000   -0.0000   -0.0039    0.0000    0.0000    0.0000    0.9874   -0.0000   -0.0000
       23 CR     4py       -0.0000   -0.0000    0.0000    0.0008   -0.0000   -0.0000   -0.0000   -0.0303    0.0000   -0.0000
       24 CR     5py        0.0000    0.0000   -0.0000   -0.0014    0.0000    0.0000    0.0000    0.0386   -0.0000    0.0000
       25 CR     6py       -0.0000   -0.0000    0.0000    0.0005   -0.0000   -0.0000   -0.0000   -0.0082    0.0000    0.0000
       26 CR     7py        0.0000    0.0000   -0.0000   -0.0003    0.0000    0.0000    0.0000    0.0056    0.0000   -0.0000
       27 CR     8py       -0.0000   -0.0000   -0.0000   -0.0000   -0.0000   -0.0000   -0.0000   -0.0019    0.0000   -0.0000
       28 CR     9py        0.0000    0.0000    0.0000    0.0002    0.0000    0.0000   -0.0000   -0.0015    0.0000   -0.0000
       29 CR    10py       -0.0000   -0.0000   -0.0000   -0.0002    0.0000   -0.0000    0.0000    0.0014    0.0000   -0.0000
       30 CR    11py        0.0000    0.0000    0.0000    0.0001   -0.0000    0.0000    0.0000    0.0002    0.0000   -0.0000
       31 CR     2pz        0.0000    0.0045   -0.0000    0.0000    1.0000    0.0004    0.0000    0.0000    0.0048    0.0000
       32 CR     3pz       -0.0000    0.0005    0.0000   -0.0000   -0.0047   -0.0833    0.0000    0.0000    0.9891    0.0009
       33 CR     4pz        0.0000   -0.0001   -0.0000    0.0000    0.0010    0.0042    0.0000    0.0000   -0.0265   -0.1469
       34 CR     5pz       -0.0000    0.0003    0.0000   -0.0000   -0.0019   -0.0022   -0.0000    0.0000    0.0430   -0.0055
       35 CR     6pz        0.0000   -0.0001   -0.0000    0.0000    0.0006   -0.0016    0.0000   -0.0000   -0.0146    0.0141
       36 CR     7pz       -0.0000    0.0001    0.0000   -0.0000   -0.0005    0.0024    0.0000   -0.0000    0.0123    0.0024
       37 CR     8pz        0.0000   -0.0001   -0.0000   -0.0000    0.0000   -0.0003   -0.0000   -0.0000   -0.0022   -0.0021
       38 CR     9pz       -0.0000    0.0000   -0.0000    0.0000    0.0001   -0.0005    0.0000    0.0000   -0.0034   -0.0016
       39 CR    10pz        0.0000   -0.0000    0.0000   -0.0000   -0.0002    0.0002    0.0000    0.0000    0.0017   -0.0005
       40 CR    11pz       -0.0000    0.0000   -0.0000    0.0000    0.0001    0.0001    0.0000    0.0000    0.0004   -0.0001
       41 CR     3d2-       0.0000    0.0000    0.0000    0.0005   -0.0000    0.0000    0.0000    0.0780   -0.0000    0.0000
       42 CR     4d2-      -0.0000   -0.0000   -0.0000   -0.0003    0.0000   -0.0000   -0.0000   -0.0262    0.0000   -0.0000
       43 CR     5d2-       0.0000    0.0000    0.0000    0.0001   -0.0000    0.0000   -0.0000   -0.0052    0.0000   -0.0000
       44 CR     6d2-      -0.0000   -0.0000    0.0000    0.0001   -0.0000    0.0000    0.0000    0.0083   -0.0000    0.0000
       45 CR     7d2-       0.0000    0.0000   -0.0000   -0.0002    0.0000    0.0000    0.0000    0.0003   -0.0000    0.0000
       46 CR     8d2-      -0.0000   -0.0000    0.0000    0.0001   -0.0000   -0.0000   -0.0000   -0.0025   -0.0000    0.0000
       47 CR     9d2-       0.0000    0.0000   -0.0000   -0.0000    0.0000    0.0000    0.0000    0.0009    0.0000    0.0000
       48 CR    10d2-      -0.0000    0.0000    0.0000    0.0000   -0.0000    0.0000    0.0000    0.0007    0.0000   -0.0000
       49 CR     3d1-      -0.0000    0.0000    0.0000    0.0009   -0.0000    0.0000    0.0000    0.1135   -0.0000   -0.0000
       50 CR     4d1-       0.0000   -0.0000   -0.0000   -0.0007    0.0000   -0.0000   -0.0000   -0.0375    0.0000   -0.0000
       51 CR     5d1-      -0.0000    0.0000    0.0000    0.0004   -0.0000    0.0000   -0.0000   -0.0074    0.0000   -0.0000
       52 CR     6d1-      -0.0000   -0.0000   -0.0000   -0.0001    0.0000    0.0000    0.0000    0.0113   -0.0000    0.0000
       53 CR     7d1-       0.0000    0.0000   -0.0000   -0.0001    0.0000   -0.0000    0.0000    0.0006   -0.0000    0.0000
       54 CR     8d1-      -0.0000   -0.0000    0.0000    0.0001   -0.0000    0.0000   -0.0000   -0.0031   -0.0000    0.0000
       55 CR     9d1-       0.0000    0.0000   -0.0000   -0.0000    0.0000    0.0000    0.0000    0.0010   -0.0000   -0.0000
       56 CR    10d1-       0.0000   -0.0000   -0.0000   -0.0000    0.0000   -0.0000    0.0000    0.0008    0.0000   -0.0000
       57 CR     3d0       -0.0000   -0.0004    0.0000   -0.0000   -0.0004    0.0357    0.0000   -0.0000   -0.0879    0.0384
       58 CR     4d0        0.0000    0.0004   -0.0000    0.0000    0.0001   -0.0137   -0.0000   -0.0000    0.0297    0.0328
       59 CR     5d0       -0.0000   -0.0003   -0.0000   -0.0000    0.0001   -0.0024   -0.0000    0.0000    0.0060    0.0053
       60 CR     6d0        0.0000    0.0002    0.0000    0.0000   -0.0004    0.0057    0.0000   -0.0000   -0.0098   -0.0023
       61 CR     7d0       -0.0000   -0.0000   -0.0000    0.0000    0.0003   -0.0006    0.0000   -0.0000   -0.0004   -0.0011
       62 CR     8d0        0.0000    0.0000    0.0000   -0.0000   -0.0002   -0.0015   -0.0000    0.0000    0.0033   -0.0004
       63 CR     9d0       -0.0000   -0.0000   -0.0000    0.0000    0.0001    0.0009   -0.0000    0.0000   -0.0014   -0.0003
       64 CR    10d0        0.0000   -0.0000    0.0000    0.0000   -0.0001    0.0004    0.0000    0.0000   -0.0009   -0.0000
       65 CR     3d1+       0.0000   -0.0000    0.0009   -0.0000    0.0000    0.0000    0.1135   -0.0000   -0.0000   -0.0000
       66 CR     4d1+      -0.0000    0.0000   -0.0007    0.0000   -0.0000   -0.0000   -0.0375    0.0000   -0.0000   -0.0000
       67 CR     5d1+       0.0000   -0.0000    0.0004   -0.0000    0.0000    0.0000   -0.0074    0.0000    0.0000   -0.0000
       68 CR     6d1+       0.0000    0.0000   -0.0001    0.0000   -0.0000   -0.0000    0.0113   -0.0000   -0.0000    0.0000
       69 CR     7d1+      -0.0000   -0.0000   -0.0001    0.0000   -0.0000   -0.0000    0.0006   -0.0000   -0.0000    0.0000
       70 CR     8d1+       0.0000   -0.0000    0.0001   -0.0000    0.0000    0.0000   -0.0031    0.0000    0.0000   -0.0000
       71 CR     9d1+      -0.0000    0.0000   -0.0000    0.0000   -0.0000    0.0000    0.0010   -0.0000    0.0000   -0.0000
       72 CR    10d1+       0.0000   -0.0000   -0.0000    0.0000    0.0000   -0.0000    0.0008   -0.0000   -0.0000    0.0000
       73 CR     3d2+      -0.0000    0.0000   -0.0005    0.0000   -0.0000   -0.0000   -0.0780    0.0000   -0.0000   -0.0000
       74 CR     4d2+      -0.0000   -0.0000    0.0003   -0.0000    0.0000    0.0000    0.0262   -0.0000    0.0000   -0.0000
       75 CR     5d2+       0.0000    0.0000   -0.0001    0.0000   -0.0000   -0.0000    0.0052   -0.0000   -0.0000   -0.0000
       76 CR     6d2+      -0.0000   -0.0000   -0.0001    0.0000   -0.0000   -0.0000   -0.0083    0.0000   -0.0000    0.0000
       77 CR     7d2+       0.0000    0.0000    0.0002   -0.0000    0.0000    0.0000   -0.0003    0.0000    0.0000    0.0000
       78 CR     8d2+      -0.0000    0.0000   -0.0001    0.0000   -0.0000    0.0000    0.0025   -0.0000    0.0000    0.0000
       79 CR     9d2+       0.0000   -0.0000    0.0000   -0.0000    0.0000   -0.0000   -0.0009    0.0000   -0.0000    0.0000
       80 CR    10d2+      -0.0000    0.0000   -0.0000    0.0000   -0.0000   -0.0000   -0.0007    0.0000   -0.0000   -0.0000
       81 CR     4f3-      -0.0000   -0.0000    0.0000    0.0000    0.0000   -0.0000    0.0000    0.0000   -0.0000    0.0000
       82 CR     5f3-       0.0000    0.0000   -0.0000   -0.0000    0.0000    0.0000    0.0000   -0.0000   -0.0000   -0.0000
       83 CR     6f3-      -0.0000   -0.0000    0.0000    0.0000   -0.0000   -0.0000   -0.0000   -0.0000   -0.0000    0.0000
       84 CR     7f3-       0.0000    0.0000   -0.0000   -0.0000    0.0000    0.0000    0.0000    0.0000    0.0000   -0.0000
       85 CR     8f3-      -0.0000   -0.0000    0.0000    0.0000   -0.0000   -0.0000    0.0000   -0.0000   -0.0000    0.0000
       86 CR     9f3-       0.0000    0.0000   -0.0000   -0.0000    0.0000    0.0000    0.0000   -0.0000   -0.0000    0.0000
       87 CR     4f2-      -0.0000   -0.0000   -0.0000   -0.0002    0.0000   -0.0000   -0.0000   -0.0170    0.0000   -0.0000
       88 CR     5f2-       0.0000    0.0000    0.0000    0.0002   -0.0000   -0.0000    0.0000    0.0037   -0.0000    0.0000
       89 CR     6f2-      -0.0000   -0.0000   -0.0000   -0.0001    0.0000    0.0000    0.0000    0.0032   -0.0000   -0.0000
       90 CR     7f2-       0.0000   -0.0000    0.0000    0.0000   -0.0000   -0.0000   -0.0000   -0.0033    0.0000   -0.0000
       91 CR     8f2-      -0.0000    0.0000    0.0000    0.0000   -0.0000   -0.0000    0.0000    0.0003   -0.0000    0.0000
       92 CR     9f2-       0.0000   -0.0000   -0.0000   -0.0000   -0.0000    0.0000    0.0000    0.0010   -0.0000   -0.0000
       93 CR     4f1-      -0.0000   -0.0000   -0.0000   -0.0002    0.0000   -0.0000   -0.0000   -0.0125    0.0000    0.0000
       94 CR     5f1-       0.0000    0.0000    0.0000    0.0002   -0.0000    0.0000    0.0000    0.0023   -0.0000    0.0000
       95 CR     6f1-      -0.0000   -0.0000   -0.0000   -0.0001    0.0000   -0.0000    0.0000    0.0018   -0.0000    0.0000
       96 CR     7f1-       0.0000    0.0000    0.0000    0.0001   -0.0000    0.0000   -0.0000   -0.0015   -0.0000   -0.0000
       97 CR     8f1-      -0.0000   -0.0000   -0.0000   -0.0001    0.0000   -0.0000    0.0000    0.0001    0.0000   -0.0000
       98 CR     9f1-      -0.0000    0.0000    0.0000    0.0000   -0.0000    0.0000    0.0000    0.0003   -0.0000   -0.0000
       99 CR     4f0        0.0000   -0.0007    0.0000   -0.0000   -0.0003    0.0439   -0.0000   -0.0000   -0.0142    0.0193
      100 CR     5f0       -0.0000    0.0005   -0.0000    0.0000    0.0002   -0.0120   -0.0000    0.0000    0.0020    0.0251
      101 CR     6f0        0.0000   -0.0003    0.0000   -0.0000   -0.0002   -0.0059    0.0000    0.0000    0.0022    0.0049
      102 CR     7f0       -0.0000    0.0001   -0.0000    0.0000    0.0001    0.0074   -0.0000   -0.0000   -0.0014   -0.0013
      103 CR     8f0        0.0000    0.0000    0.0000   -0.0000   -0.0001   -0.0009   -0.0000   -0.0000   -0.0000   -0.0004
      104 CR     9f0       -0.0000   -0.0000   -0.0000    0.0000    0.0000   -0.0018    0.0000   -0.0000    0.0002   -0.0003
      105 CR     4f1+      -0.0000    0.0000   -0.0002    0.0000   -0.0000   -0.0000   -0.0125    0.0000   -0.0000   -0.0000
      106 CR     5f1+       0.0000   -0.0000    0.0002   -0.0000    0.0000    0.0000    0.0023   -0.0000    0.0000   -0.0000
      107 CR     6f1+      -0.0000    0.0000   -0.0001    0.0000   -0.0000    0.0000    0.0018   -0.0000   -0.0000   -0.0000
      108 CR     7f1+       0.0000   -0.0000    0.0001   -0.0000    0.0000   -0.0000   -0.0015    0.0000   -0.0000   -0.0000
      109 CR     8f1+      -0.0000    0.0000   -0.0001    0.0000   -0.0000    0.0000    0.0001   -0.0000    0.0000    0.0000
      110 CR     9f1+       0.0000    0.0000    0.0000   -0.0000    0.0000    0.0000    0.0003   -0.0000    0.0000    0.0000
      111 CR     4f2+       0.0000   -0.0000    0.0002   -0.0000    0.0000    0.0000    0.0170   -0.0000    0.0000    0.0000
      112 CR     5f2+      -0.0000    0.0000   -0.0002    0.0000   -0.0000   -0.0000   -0.0037    0.0000   -0.0000    0.0000
      113 CR     6f2+       0.0000   -0.0000    0.0001   -0.0000    0.0000    0.0000   -0.0032    0.0000   -0.0000   -0.0000
      114 CR     7f2+      -0.0000    0.0000   -0.0000    0.0000   -0.0000    0.0000    0.0033   -0.0000    0.0000   -0.0000
      115 CR     8f2+       0.0000   -0.0000   -0.0000    0.0000    0.0000   -0.0000   -0.0003    0.0000   -0.0000    0.0000
      116 CR     9f2+      -0.0000   -0.0000    0.0000   -0.0000   -0.0000   -0.0000   -0.0010    0.0000   -0.0000   -0.0000
      117 CR     4f3+       0.0000   -0.0005    0.0000   -0.0000    0.0002    0.0280    0.0000    0.0000    0.0220    0.0136
      118 CR     5f3+      -0.0000    0.0004   -0.0000    0.0000   -0.0001   -0.0077   -0.0000   -0.0000   -0.0044    0.0151
      119 CR     6f3+       0.0000   -0.0002    0.0000   -0.0000    0.0001   -0.0038    0.0000   -0.0000   -0.0039    0.0024
      120 CR     7f3+      -0.0000    0.0001   -0.0000    0.0000   -0.0000    0.0047   -0.0000    0.0000    0.0038   -0.0008
      121 CR     8f3+       0.0000    0.0000    0.0000   -0.0000   -0.0000   -0.0006   -0.0000    0.0000   -0.0003   -0.0003
      122 CR     9f3+      -0.0000   -0.0000   -0.0000    0.0000    0.0000   -0.0011    0.0000   -0.0000   -0.0011   -0.0002
      123 CR     5g4-      -0.0000   -0.0000   -0.0000   -0.0003    0.0000   -0.0000   -0.0000   -0.0151    0.0000    0.0000
      124 CR     6g4-       0.0000    0.0000    0.0000    0.0002   -0.0000   -0.0000   -0.0000   -0.0002    0.0000   -0.0000
      125 CR     7g4-      -0.0000   -0.0000   -0.0000   -0.0001    0.0000    0.0000    0.0000    0.0030   -0.0000    0.0000
      126 CR     8g4-       0.0000    0.0000    0.0000    0.0000   -0.0000   -0.0000   -0.0000   -0.0014    0.0000   -0.0000
      127 CR     5g3-       0.0000    0.0000   -0.0000   -0.0000    0.0000   -0.0000   -0.0000   -0.0000   -0.0000    0.0000
      128 CR     6g3-      -0.0000   -0.0000    0.0000    0.0000    0.0000    0.0000    0.0000    0.0000    0.0000   -0.0000
      129 CR     7g3-       0.0000    0.0000   -0.0000   -0.0000    0.0000   -0.0000    0.0000    0.0000   -0.0000    0.0000
      130 CR     8g3-      -0.0000   -0.0000    0.0000    0.0000    0.0000    0.0000   -0.0000   -0.0000    0.0000   -0.0000
      131 CR     5g2-      -0.0000   -0.0000    0.0000    0.0000   -0.0000    0.0000    0.0000    0.0013   -0.0000   -0.0000
      132 CR     6g2-       0.0000    0.0000   -0.0000   -0.0000    0.0000    0.0000   -0.0000   -0.0003   -0.0000    0.0000
      133 CR     7g2-      -0.0000   -0.0000   -0.0000   -0.0000    0.0000   -0.0000   -0.0000   -0.0006    0.0000   -0.0000
      134 CR     8g2-       0.0000    0.0000    0.0000    0.0000   -0.0000    0.0000    0.0000    0.0006   -0.0000    0.0000
      135 CR     5g1-      -0.0000    0.0000   -0.0000   -0.0003    0.0000   -0.0000   -0.0000   -0.0191    0.0000    0.0000
      136 CR     6g1-       0.0000   -0.0000    0.0000    0.0002   -0.0000    0.0000   -0.0000   -0.0003    0.0000    0.0000
      137 CR     7g1-      -0.0000    0.0000   -0.0000   -0.0001    0.0000   -0.0000    0.0000    0.0036   -0.0000    0.0000
      138 CR     8g1-       0.0000    0.0000    0.0000    0.0000   -0.0000    0.0000   -0.0000   -0.0016    0.0000   -0.0000
      139 CR     5g0        0.0000   -0.0000    0.0000   -0.0000   -0.0005    0.0030   -0.0000   -0.0000   -0.0326   -0.0000
      140 CR     6g0       -0.0000    0.0000   -0.0000    0.0000    0.0003   -0.0002    0.0000   -0.0000   -0.0003    0.0018
      141 CR     7g0        0.0000   -0.0000    0.0000   -0.0000   -0.0002   -0.0007    0.0000    0.0000    0.0068    0.0009
      142 CR     8g0        0.0000    0.0000   -0.0000    0.0000    0.0000    0.0004   -0.0000    0.0000   -0.0035   -0.0001
      143 CR     5g1+       0.0000   -0.0000   -0.0003    0.0000   -0.0000    0.0000   -0.0191    0.0000    0.0000    0.0000
      144 CR     6g1+      -0.0000   -0.0000    0.0002   -0.0000    0.0000    0.0000   -0.0003    0.0000    0.0000    0.0000
      145 CR     7g1+       0.0000    0.0000   -0.0001    0.0000   -0.0000   -0.0000    0.0036   -0.0000   -0.0000   -0.0000
      146 CR     8g1+       0.0000   -0.0000    0.0000   -0.0000    0.0000    0.0000   -0.0016    0.0000    0.0000   -0.0000
      147 CR     5g2+      -0.0000    0.0000   -0.0000    0.0000   -0.0000   -0.0000   -0.0013    0.0000   -0.0000   -0.0000
      148 CR     6g2+       0.0000   -0.0000    0.0000   -0.0000    0.0000    0.0000    0.0003   -0.0000    0.0000   -0.0000
      149 CR     7g2+      -0.0000    0.0000    0.0000   -0.0000   -0.0000    0.0000    0.0006   -0.0000    0.0000    0.0000
      150 CR     8g2+      -0.0000   -0.0000   -0.0000    0.0000    0.0000   -0.0000   -0.0006    0.0000   -0.0000    0.0000
      151 CR     5g3+      -0.0000    0.0003   -0.0000   -0.0000   -0.0003   -0.0166   -0.0000   -0.0000   -0.0215   -0.0038
      152 CR     6g3+       0.0000   -0.0002    0.0000    0.0000    0.0002    0.0017    0.0000   -0.0000    0.0001   -0.0053
      153 CR     7g3+      -0.0000    0.0001   -0.0000    0.0000   -0.0001    0.0039   -0.0000    0.0000    0.0047   -0.0010
      154 CR     8g3+      -0.0000   -0.0000    0.0000   -0.0000    0.0000   -0.0028   -0.0000   -0.0000   -0.0027    0.0005
      155 CR     5g4+       0.0000   -0.0000   -0.0003    0.0000   -0.0000    0.0000   -0.0151    0.0000    0.0000    0.0000
      156 CR     6g4+      -0.0000    0.0000    0.0002   -0.0000    0.0000    0.0000   -0.0002    0.0000    0.0000    0.0000
      157 CR     7g4+       0.0000   -0.0000   -0.0001    0.0000   -0.0000   -0.0000    0.0030   -0.0000   -0.0000    0.0000
      158 CR     8g4+       0.0000   -0.0000    0.0000   -0.0000    0.0000    0.0000   -0.0014    0.0000    0.0000   -0.0000
      159 CR     6h5-      -0.0000   -0.0000    0.0000    0.0000    0.0000   -0.0000    0.0000    0.0020   -0.0000   -0.0000
      160 CR     7h5-       0.0000    0.0000   -0.0000   -0.0000   -0.0000    0.0000   -0.0000   -0.0006   -0.0000   -0.0000
      161 CR     6h4-       0.0000    0.0000    0.0000    0.0002   -0.0000    0.0000    0.0000    0.0099   -0.0000    0.0000
      162 CR     7h4-      -0.0000    0.0000   -0.0000   -0.0001    0.0000   -0.0000   -0.0000   -0.0015    0.0000   -0.0000
      163 CR     6h3-      -0.0000   -0.0000    0.0000    0.0000    0.0000   -0.0000    0.0000    0.0000    0.0000   -0.0000
      164 CR     7h3-       0.0000    0.0000    0.0000   -0.0000   -0.0000    0.0000   -0.0000   -0.0000    0.0000    0.0000
      165 CR     6h2-       0.0000   -0.0000    0.0000    0.0000   -0.0000    0.0000    0.0000    0.0030   -0.0000   -0.0000
      166 CR     7h2-      -0.0000    0.0000   -0.0000   -0.0000    0.0000   -0.0000   -0.0000   -0.0005    0.0000   -0.0000
      167 CR     6h1-      -0.0000   -0.0000    0.0000    0.0000   -0.0000   -0.0000    0.0000    0.0020    0.0000    0.0000
      168 CR     7h1-       0.0000    0.0000   -0.0000   -0.0000    0.0000    0.0000   -0.0000   -0.0008    0.0000    0.0000
      169 CR     6h0        0.0000   -0.0000    0.0000   -0.0000   -0.0001    0.0034    0.0000   -0.0000   -0.0061   -0.0003
      170 CR     7h0       -0.0000    0.0000   -0.0000    0.0000    0.0001   -0.0010    0.0000   -0.0000    0.0015    0.0006
      171 CR     6h1+      -0.0000   -0.0000    0.0000   -0.0000    0.0000   -0.0000    0.0020   -0.0000   -0.0000    0.0000
      172 CR     7h1+      -0.0000    0.0000   -0.0000    0.0000   -0.0000   -0.0000   -0.0008    0.0000   -0.0000    0.0000
      173 CR     6h2+       0.0000    0.0000   -0.0000    0.0000    0.0000    0.0000   -0.0030    0.0000    0.0000    0.0000
      174 CR     7h2+      -0.0000   -0.0000    0.0000   -0.0000   -0.0000    0.0000    0.0005   -0.0000   -0.0000   -0.0000
      175 CR     6h3+       0.0000   -0.0001    0.0000    0.0000    0.0001    0.0053    0.0000    0.0000    0.0111    0.0007
      176 CR     7h3+      -0.0000    0.0000   -0.0000   -0.0000   -0.0001   -0.0014   -0.0000    0.0000   -0.0015    0.0008
      177 CR     6h4+      -0.0000    0.0000    0.0002   -0.0000    0.0000   -0.0000    0.0099   -0.0000   -0.0000   -0.0000
      178 CR     7h4+       0.0000   -0.0000   -0.0001    0.0000   -0.0000    0.0000   -0.0015    0.0000   -0.0000   -0.0000
      179 CR     6h5+      -0.0000    0.0000   -0.0000    0.0000   -0.0000   -0.0000   -0.0020    0.0000   -0.0000   -0.0000
      180 CR     7h5+       0.0000   -0.0000    0.0000   -0.0000    0.0000    0.0000    0.0006   -0.0000    0.0000   -0.0000

          Orbital           11        12        13        14        15        16        17        18        19        20    
          Energy           -0.4162   -0.4162   -0.3564   -0.3564   -0.3392   -0.2777   -0.2714   -0.2714   -0.2150   -0.1896
          Occ. No.          0.0000    0.0000    0.0000    0.0000    0.0000    0.0000    0.0000    0.0000    0.0000    0.0000

        1 CR     1s         0.0000   -0.0000   -0.0000    0.0000   -0.0000    0.0000   -0.0000    0.0000    0.0000   -0.0000
        2 CR     2s         0.0000   -0.0000    0.0000    0.0000    0.0002    0.0003    0.0000    0.0000    0.0002   -0.0000
        3 CR     3s        -0.0000   -0.0000    0.0000   -0.0000    0.0033    0.0177    0.0000    0.0000   -0.0089   -0.0000
        4 CR     4s        -0.0000   -0.0000    0.0000   -0.0000   -0.1325    0.0809   -0.0000    0.0000    0.1208    0.0000
        5 CR     5s        -0.0000   -0.0000    0.0000    0.0000   -0.0128    0.0667   -0.0000    0.0000    0.6894   -0.0000
        6 CR     6s         0.0000    0.0000    0.0000   -0.0000   -0.0064    0.0347   -0.0000    0.0000    0.6328   -0.0000
        7 CR     7s         0.0000    0.0000   -0.0000    0.0000    0.0042    0.0015   -0.0000   -0.0000    0.2599   -0.0000
        8 CR     8s         0.0000    0.0000   -0.0000   -0.0000    0.0024   -0.0055    0.0000   -0.0000    0.1057   -0.0000
        9 CR     9s         0.0000    0.0000   -0.0000   -0.0000    0.0002   -0.0024    0.0000   -0.0000    0.0012   -0.0000
       10 CR    10s         0.0000    0.0000   -0.0000   -0.0000    0.0000   -0.0003    0.0000   -0.0000   -0.0005   -0.0000
       11 CR     2px       -0.0000   -0.0000   -0.0004    0.0000    0.0000   -0.0000   -0.0009    0.0000   -0.0000   -0.0000
       12 CR     3px        0.0000    0.0082    0.0164   -0.0000    0.0000   -0.0000   -0.0855    0.0000   -0.0000    0.0000
       13 CR     4px        0.0000    0.0622    0.9608   -0.0000   -0.0000   -0.0000   -0.1014    0.0000   -0.0000    0.0000
       14 CR     5px        0.0000    0.0094    0.2189   -0.0000   -0.0000   -0.0000   -0.0639    0.0000   -0.0000   -0.0000
       15 CR     6px       -0.0000   -0.0032    0.0622   -0.0000   -0.0000   -0.0000   -0.0321    0.0000   -0.0000   -0.0000
       16 CR     7px       -0.0000   -0.0015   -0.0492    0.0000    0.0000    0.0000   -0.0010    0.0000   -0.0000   -0.0000
       17 CR     8px       -0.0000   -0.0005   -0.0395    0.0000    0.0000    0.0000    0.0089   -0.0000   -0.0000   -0.0000
       18 CR     9px       -0.0000   -0.0002   -0.0099    0.0000    0.0000    0.0000    0.0064   -0.0000    0.0000   -0.0000
       19 CR    10px        0.0000    0.0001   -0.0007    0.0000    0.0000    0.0000    0.0012   -0.0000    0.0000    0.0000
       20 CR    11px        0.0000    0.0001    0.0002   -0.0000    0.0000    0.0000    0.0000   -0.0000    0.0000    0.0000
       21 CR     2py        0.0000   -0.0000   -0.0000   -0.0004    0.0000    0.0000   -0.0000   -0.0009   -0.0000   -0.0000
       22 CR     3py       -0.0082    0.0000    0.0000    0.0164   -0.0000    0.0000   -0.0000   -0.0855    0.0000    0.0044
       23 CR     4py       -0.0622    0.0000    0.0000    0.9608   -0.0000   -0.0000   -0.0000   -0.1014    0.0000    0.0166
       24 CR     5py       -0.0094    0.0000    0.0000    0.2189   -0.0000    0.0000   -0.0000   -0.0639   -0.0000   -0.0146
       25 CR     6py        0.0032   -0.0000    0.0000    0.0622   -0.0000    0.0000   -0.0000   -0.0321   -0.0000   -0.0384
       26 CR     7py        0.0015   -0.0000   -0.0000   -0.0492    0.0000   -0.0000   -0.0000   -0.0010   -0.0000   -0.0149
       27 CR     8py        0.0005   -0.0000   -0.0000   -0.0395    0.0000   -0.0000    0.0000    0.0089   -0.0000   -0.0050
       28 CR     9py        0.0002   -0.0000   -0.0000   -0.0099    0.0000   -0.0000    0.0000    0.0064    0.0000   -0.0001
       29 CR    10py       -0.0001    0.0000   -0.0000   -0.0007    0.0000    0.0000    0.0000    0.0012    0.0000    0.0005
       30 CR    11py       -0.0001    0.0000    0.0000    0.0002    0.0000    0.0000    0.0000    0.0000    0.0000    0.0001
       31 CR     2pz        0.0000    0.0000   -0.0000    0.0000   -0.0004    0.0006   -0.0000    0.0000   -0.0000    0.0000
       32 CR     3pz        0.0000    0.0000    0.0000    0.0000    0.0287    0.0554   -0.0000    0.0000   -0.0030    0.0000
       33 CR     4pz       -0.0000   -0.0000    0.0000    0.0000    0.9302   -0.1667    0.0000   -0.0000    0.0096   -0.0000
       34 CR     5pz       -0.0000   -0.0000    0.0000    0.0000    0.2535   -0.0522    0.0000   -0.0000    0.0768   -0.0000
       35 CR     6pz       -0.0000    0.0000    0.0000   -0.0000    0.0997   -0.0535    0.0000   -0.0000    0.1299    0.0000
       36 CR     7pz       -0.0000    0.0000   -0.0000    0.0000   -0.0501    0.0085   -0.0000   -0.0000    0.0335    0.0000
       37 CR     8pz       -0.0000    0.0000   -0.0000    0.0000   -0.0486    0.0132   -0.0000    0.0000    0.0005    0.0000
       38 CR     9pz        0.0000   -0.0000   -0.0000    0.0000   -0.0150    0.0042   -0.0000    0.0000   -0.0067    0.0000
       39 CR    10pz        0.0000    0.0000   -0.0000    0.0000   -0.0020    0.0015   -0.0000    0.0000   -0.0032    0.0000
       40 CR    11pz        0.0000    0.0000    0.0000    0.0000    0.0001    0.0003   -0.0000    0.0000   -0.0005   -0.0000
       41 CR     3d2-       0.8398   -0.0000    0.0000    0.0888   -0.0000   -0.0000    0.0000    0.3896    0.0000   -0.1104
       42 CR     4d2-       0.1287   -0.0000    0.0000    0.0511   -0.0000   -0.0000    0.0000    0.2424    0.0000    0.3985
       43 CR     5d2-       0.0729   -0.0000    0.0000    0.0230   -0.0000   -0.0000    0.0000    0.1938    0.0000    0.4953
       44 CR     6d2-       0.0048   -0.0000    0.0000    0.0043   -0.0000   -0.0000    0.0000    0.0804    0.0000    0.3823
       45 CR     7d2-      -0.0012    0.0000    0.0000    0.0021   -0.0000   -0.0000    0.0000    0.0580    0.0000    0.3769
       46 CR     8d2-      -0.0071    0.0000   -0.0000   -0.0019   -0.0000    0.0000   -0.0000   -0.0005   -0.0000    0.1296
       47 CR     9d2-      -0.0023    0.0000   -0.0000   -0.0015   -0.0000    0.0000   -0.0000   -0.0092   -0.0000    0.0145
       48 CR    10d2-      -0.0005    0.0000   -0.0000   -0.0004    0.0000    0.0000   -0.0000   -0.0029   -0.0000    0.0001
       49 CR     3d1-      -0.5076    0.0000    0.0000    0.0261   -0.0000   -0.0000    0.0000    0.6734   -0.0000    0.0518
       50 CR     4d1-      -0.0759    0.0000    0.0000    0.0831   -0.0000   -0.0000    0.0000    0.3765   -0.0000   -0.2477
       51 CR     5d1-      -0.0426    0.0000    0.0000    0.0411   -0.0000   -0.0000    0.0000    0.3025   -0.0000   -0.3075
       52 CR     6d1-      -0.0040    0.0000    0.0000    0.0118   -0.0000   -0.0000    0.0000    0.1255   -0.0000   -0.2355
       53 CR     7d1-       0.0005   -0.0000    0.0000    0.0054   -0.0000   -0.0000    0.0000    0.0901   -0.0000   -0.2327
       54 CR     8d1-       0.0047   -0.0000   -0.0000   -0.0040    0.0000    0.0000   -0.0000   -0.0015   -0.0000   -0.0803
       55 CR     9d1-       0.0012   -0.0000   -0.0000   -0.0029    0.0000    0.0000   -0.0000   -0.0141   -0.0000   -0.0089
       56 CR    10d1-       0.0001   -0.0000   -0.0000   -0.0007    0.0000    0.0000   -0.0000   -0.0044    0.0000    0.0000
       57 CR     3d0       -0.0000   -0.0000    0.0000    0.0000    0.1673    0.8072   -0.0000    0.0000   -0.0394   -0.0000
       58 CR     4d0       -0.0000   -0.0000    0.0000    0.0000    0.0671    0.4103   -0.0000    0.0000   -0.0295    0.0000
       59 CR     5d0       -0.0000   -0.0000    0.0000   -0.0000    0.0567    0.3217   -0.0000    0.0000   -0.0460    0.0000
       60 CR     6d0       -0.0000   -0.0000    0.0000   -0.0000    0.0191    0.1270   -0.0000    0.0000   -0.0304    0.0000
       61 CR     7d0       -0.0000    0.0000    0.0000    0.0000    0.0093    0.0888   -0.0000    0.0000   -0.0268    0.0000
       62 CR     8d0       -0.0000    0.0000   -0.0000    0.0000   -0.0045   -0.0048    0.0000    0.0000   -0.0065    0.0000
       63 CR     9d0       -0.0000    0.0000   -0.0000   -0.0000   -0.0030   -0.0155    0.0000   -0.0000    0.0003    0.0000
       64 CR    10d0        0.0000    0.0000   -0.0000   -0.0000   -0.0008   -0.0047    0.0000   -0.0000    0.0004   -0.0000
       65 CR     3d1+       0.0000    0.5076    0.0261   -0.0000   -0.0000    0.0000    0.6734   -0.0000    0.0000    0.0000
       66 CR     4d1+       0.0000    0.0759    0.0831   -0.0000   -0.0000    0.0000    0.3765   -0.0000    0.0000   -0.0000
       67 CR     5d1+       0.0000    0.0426    0.0411   -0.0000   -0.0000    0.0000    0.3025   -0.0000    0.0000   -0.0000
       68 CR     6d1+       0.0000    0.0040    0.0118   -0.0000   -0.0000    0.0000    0.1255   -0.0000    0.0000   -0.0000
       69 CR     7d1+      -0.0000   -0.0005    0.0054   -0.0000   -0.0000    0.0000    0.0901   -0.0000    0.0000   -0.0000
       70 CR     8d1+      -0.0000   -0.0047   -0.0040    0.0000    0.0000   -0.0000   -0.0015    0.0000    0.0000   -0.0000
       71 CR     9d1+      -0.0000   -0.0012   -0.0029    0.0000    0.0000   -0.0000   -0.0141    0.0000   -0.0000   -0.0000
       72 CR    10d1+      -0.0000   -0.0001   -0.0007    0.0000    0.0000   -0.0000   -0.0044    0.0000   -0.0000    0.0000
       73 CR     3d2+       0.0000    0.8398   -0.0888    0.0000    0.0000    0.0000   -0.3896    0.0000   -0.0000    0.0000
       74 CR     4d2+       0.0000    0.1287   -0.0511    0.0000    0.0000    0.0000   -0.2424    0.0000   -0.0000   -0.0000
       75 CR     5d2+       0.0000    0.0729   -0.0230    0.0000    0.0000    0.0000   -0.1938    0.0000   -0.0000   -0.0000
       76 CR     6d2+       0.0000    0.0048   -0.0043    0.0000    0.0000    0.0000   -0.0804    0.0000   -0.0000   -0.0000
       77 CR     7d2+      -0.0000   -0.0012   -0.0021    0.0000    0.0000    0.0000   -0.0580    0.0000   -0.0000   -0.0000
       78 CR     8d2+      -0.0000   -0.0071    0.0019   -0.0000   -0.0000   -0.0000    0.0005   -0.0000   -0.0000   -0.0000
       79 CR     9d2+      -0.0000   -0.0023    0.0015   -0.0000   -0.0000   -0.0000    0.0092   -0.0000    0.0000   -0.0000
       80 CR    10d2+      -0.0000   -0.0005    0.0004   -0.0000   -0.0000   -0.0000    0.0029   -0.0000    0.0000   -0.0000
       81 CR     4f3-      -0.0000    0.0000   -0.0000   -0.0000    0.0000   -0.0000   -0.0000   -0.0000    0.0000   -0.0000
       82 CR     5f3-      -0.0000    0.0000    0.0000    0.0000   -0.0000   -0.0000   -0.0000   -0.0000    0.0000   -0.0000
       83 CR     6f3-      -0.0000    0.0000    0.0000    0.0000   -0.0000   -0.0000   -0.0000   -0.0000    0.0000   -0.0000
       84 CR     7f3-      -0.0000    0.0000   -0.0000   -0.0000   -0.0000   -0.0000   -0.0000   -0.0000    0.0000   -0.0000
       85 CR     8f3-      -0.0000   -0.0000    0.0000    0.0000   -0.0000   -0.0000   -0.0000   -0.0000    0.0000   -0.0000
       86 CR     9f3-       0.0000   -0.0000    0.0000    0.0000   -0.0000   -0.0000   -0.0000   -0.0000    0.0000   -0.0000
       87 CR     4f2-       0.0469   -0.0000    0.0000    0.0047   -0.0000   -0.0000    0.0000    0.0694    0.0000   -0.0098
       88 CR     5f2-       0.0196   -0.0000   -0.0000   -0.0014    0.0000   -0.0000    0.0000    0.0364    0.0000    0.0098
       89 CR     6f2-       0.0034   -0.0000   -0.0000   -0.0001    0.0000   -0.0000    0.0000    0.0145    0.0000    0.0181
       90 CR     7f2-       0.0027   -0.0000    0.0000    0.0011   -0.0000   -0.0000    0.0000    0.0131    0.0000    0.0150
       91 CR     8f2-      -0.0004    0.0000   -0.0000   -0.0001   -0.0000   -0.0000    0.0000    0.0031   -0.0000    0.0093
       92 CR     9f2-      -0.0009    0.0000   -0.0000   -0.0002    0.0000    0.0000    0.0000    0.0003    0.0000    0.0069
       93 CR     4f1-      -0.0180    0.0000   -0.0000   -0.0055    0.0000   -0.0000    0.0000    0.0185   -0.0000    0.0005
       94 CR     5f1-      -0.0091    0.0000   -0.0000   -0.0092    0.0000   -0.0000    0.0000    0.0193   -0.0000   -0.0096
       95 CR     6f1-      -0.0027    0.0000   -0.0000   -0.0049    0.0000   -0.0000    0.0000    0.0151    0.0000   -0.0137
       96 CR     7f1-      -0.0011    0.0000   -0.0000   -0.0014    0.0000   -0.0000    0.0000    0.0100    0.0000   -0.0118
       97 CR     8f1-       0.0001   -0.0000   -0.0000   -0.0002    0.0000   -0.0000    0.0000    0.0039    0.0000   -0.0070
       98 CR     9f1-       0.0002   -0.0000    0.0000    0.0001    0.0000   -0.0000    0.0000    0.0020    0.0000   -0.0051
       99 CR     4f0        0.0000    0.0000   -0.0000   -0.0000   -0.0099   -0.0225    0.0000   -0.0000    0.0144    0.0000
      100 CR     5f0        0.0000    0.0000   -0.0000    0.0000   -0.0093    0.0084    0.0000    0.0000    0.0147   -0.0000
      101 CR     6f0        0.0000    0.0000   -0.0000    0.0000   -0.0047    0.0155    0.0000    0.0000    0.0011   -0.0000
      102 CR     7f0        0.0000    0.0000   -0.0000   -0.0000   -0.0024    0.0055    0.0000    0.0000   -0.0022   -0.0000
      103 CR     8f0       -0.0000   -0.0000    0.0000   -0.0000   -0.0003    0.0039    0.0000    0.0000   -0.0013   -0.0000
      104 CR     9f0       -0.0000   -0.0000    0.0000   -0.0000    0.0003    0.0031    0.0000    0.0000   -0.0011   -0.0000
      105 CR     4f1+       0.0000    0.0180   -0.0055    0.0000   -0.0000   -0.0000    0.0185   -0.0000    0.0000    0.0000
      106 CR     5f1+       0.0000    0.0091   -0.0092    0.0000    0.0000   -0.0000    0.0193   -0.0000    0.0000   -0.0000
      107 CR     6f1+       0.0000    0.0027   -0.0049    0.0000    0.0000   -0.0000    0.0151   -0.0000    0.0000   -0.0000
      108 CR     7f1+       0.0000    0.0011   -0.0014    0.0000   -0.0000   -0.0000    0.0100   -0.0000    0.0000   -0.0000
      109 CR     8f1+      -0.0000   -0.0001   -0.0002    0.0000   -0.0000   -0.0000    0.0039   -0.0000    0.0000   -0.0000
      110 CR     9f1+      -0.0000   -0.0002    0.0001   -0.0000   -0.0000   -0.0000    0.0020   -0.0000    0.0000   -0.0000
      111 CR     4f2+       0.0000    0.0469   -0.0047    0.0000    0.0000   -0.0000   -0.0694    0.0000   -0.0000    0.0000
      112 CR     5f2+       0.0000    0.0196    0.0014   -0.0000    0.0000   -0.0000   -0.0364    0.0000   -0.0000   -0.0000
      113 CR     6f2+       0.0000    0.0034    0.0001   -0.0000    0.0000   -0.0000   -0.0145    0.0000   -0.0000   -0.0000
      114 CR     7f2+       0.0000    0.0027   -0.0011    0.0000    0.0000   -0.0000   -0.0131    0.0000   -0.0000   -0.0000
      115 CR     8f2+      -0.0000   -0.0004    0.0001   -0.0000    0.0000   -0.0000   -0.0031    0.0000   -0.0000   -0.0000
      116 CR     9f2+      -0.0000   -0.0009    0.0002   -0.0000   -0.0000    0.0000   -0.0003    0.0000   -0.0000   -0.0000
      117 CR     4f3+      -0.0000   -0.0000    0.0000    0.0000    0.0097    0.0296    0.0000    0.0000    0.0070    0.0000
      118 CR     5f3+      -0.0000   -0.0000    0.0000    0.0000    0.0094    0.0132    0.0000    0.0000    0.0085    0.0000
      119 CR     6f3+      -0.0000   -0.0000    0.0000   -0.0000    0.0027    0.0034    0.0000    0.0000    0.0013    0.0000
      120 CR     7f3+      -0.0000   -0.0000    0.0000   -0.0000    0.0006    0.0034    0.0000    0.0000   -0.0008    0.0000
      121 CR     8f3+      -0.0000   -0.0000    0.0000   -0.0000    0.0002    0.0005    0.0000   -0.0000   -0.0003    0.0000
      122 CR     9f3+      -0.0000    0.0000   -0.0000    0.0000    0.0000   -0.0002    0.0000   -0.0000   -0.0003    0.0000
      123 CR     5g4-      -0.0024    0.0000   -0.0000   -0.0016    0.0000   -0.0000    0.0000    0.0120   -0.0000    0.0004
      124 CR     6g4-      -0.0008    0.0000   -0.0000   -0.0052    0.0000   -0.0000    0.0000    0.0044   -0.0000   -0.0002
      125 CR     7g4-       0.0001   -0.0000   -0.0000   -0.0031    0.0000    0.0000   -0.0000   -0.0003   -0.0000   -0.0003
      126 CR     8g4-       0.0001   -0.0000   -0.0000   -0.0007    0.0000   -0.0000    0.0000    0.0013   -0.0000   -0.0002
      127 CR     5g3-      -0.0000    0.0000    0.0000    0.0000   -0.0000   -0.0000    0.0000    0.0000    0.0000    0.0000
      128 CR     6g3-       0.0000   -0.0000   -0.0000   -0.0000   -0.0000   -0.0000    0.0000    0.0000    0.0000   -0.0000
      129 CR     7g3-       0.0000   -0.0000   -0.0000   -0.0000    0.0000   -0.0000    0.0000   -0.0000    0.0000    0.0000
      130 CR     8g3-      -0.0000    0.0000    0.0000    0.0000   -0.0000   -0.0000    0.0000    0.0000    0.0000    0.0000
      131 CR     5g2-      -0.0030    0.0000   -0.0000   -0.0011    0.0000    0.0000   -0.0000   -0.0098   -0.0000    0.0008
      132 CR     6g2-      -0.0018    0.0000   -0.0000   -0.0008    0.0000    0.0000   -0.0000   -0.0040    0.0000   -0.0002
      133 CR     7g2-      -0.0007    0.0000   -0.0000   -0.0006    0.0000    0.0000   -0.0000   -0.0002   -0.0000   -0.0006
      134 CR     8g2-      -0.0003    0.0000   -0.0000   -0.0004    0.0000    0.0000   -0.0000   -0.0012    0.0000   -0.0005
      135 CR     5g1-       0.0119   -0.0000   -0.0000   -0.0018    0.0000   -0.0000    0.0000    0.0021   -0.0000   -0.0035
      136 CR     6g1-       0.0053   -0.0000   -0.0000   -0.0068    0.0000    0.0000   -0.0000   -0.0023   -0.0000   -0.0005
      137 CR     7g1-       0.0006   -0.0000   -0.0000   -0.0043    0.0000    0.0000   -0.0000   -0.0030   -0.0000    0.0009
      138 CR     8g1-       0.0007   -0.0000   -0.0000   -0.0011    0.0000    0.0000   -0.0000   -0.0001   -0.0000    0.0004
      139 CR     5g0        0.0000   -0.0000   -0.0000   -0.0000   -0.0078   -0.0227    0.0000   -0.0000    0.0017   -0.0000
      140 CR     6g0        0.0000   -0.0000   -0.0000   -0.0000   -0.0108   -0.0087   -0.0000   -0.0000    0.0018    0.0000
      141 CR     7g0       -0.0000    0.0000   -0.0000    0.0000   -0.0052   -0.0006   -0.0000   -0.0000    0.0006    0.0000
      142 CR     8g0       -0.0000    0.0000   -0.0000    0.0000   -0.0018   -0.0031    0.0000   -0.0000    0.0002    0.0000
      143 CR     5g1+      -0.0000   -0.0119   -0.0018    0.0000    0.0000    0.0000    0.0021   -0.0000   -0.0000   -0.0000
      144 CR     6g1+      -0.0000   -0.0053   -0.0068    0.0000    0.0000    0.0000   -0.0023    0.0000   -0.0000   -0.0000
      145 CR     7g1+      -0.0000   -0.0006   -0.0043    0.0000    0.0000    0.0000   -0.0030    0.0000   -0.0000    0.0000
      146 CR     8g1+      -0.0000   -0.0007   -0.0011    0.0000    0.0000    0.0000   -0.0001    0.0000   -0.0000    0.0000
      147 CR     5g2+      -0.0000   -0.0030    0.0011   -0.0000   -0.0000    0.0000    0.0098   -0.0000   -0.0000   -0.0000
      148 CR     6g2+      -0.0000   -0.0018    0.0008   -0.0000   -0.0000    0.0000    0.0040   -0.0000   -0.0000    0.0000
      149 CR     7g2+      -0.0000   -0.0007    0.0006   -0.0000   -0.0000    0.0000    0.0002   -0.0000    0.0000    0.0000
      150 CR     8g2+      -0.0000   -0.0003    0.0004   -0.0000   -0.0000    0.0000    0.0012   -0.0000    0.0000    0.0000
      151 CR     5g3+       0.0000    0.0000   -0.0000   -0.0000   -0.0029   -0.0048    0.0000   -0.0000   -0.0019    0.0000
      152 CR     6g3+       0.0000    0.0000   -0.0000   -0.0000   -0.0055   -0.0005   -0.0000   -0.0000   -0.0028    0.0000
      153 CR     7g3+       0.0000    0.0000   -0.0000   -0.0000   -0.0025    0.0011   -0.0000    0.0000   -0.0004   -0.0000
      154 CR     8g3+      -0.0000   -0.0000   -0.0000   -0.0000   -0.0005   -0.0003    0.0000   -0.0000    0.0005   -0.0000
      155 CR     5g4+       0.0000    0.0024   -0.0016    0.0000   -0.0000    0.0000    0.0120   -0.0000    0.0000    0.0000
      156 CR     6g4+       0.0000    0.0008   -0.0052    0.0000    0.0000    0.0000    0.0044   -0.0000    0.0000   -0.0000
      157 CR     7g4+      -0.0000   -0.0001   -0.0031    0.0000    0.0000   -0.0000   -0.0003    0.0000   -0.0000   -0.0000
      158 CR     8g4+      -0.0000   -0.0001   -0.0007    0.0000   -0.0000    0.0000    0.0013   -0.0000   -0.0000   -0.0000
      159 CR     6h5-      -0.0094    0.0000   -0.0000   -0.0010    0.0000    0.0000   -0.0000   -0.0060    0.0000    0.0029
      160 CR     7h5-      -0.0026    0.0000   -0.0000   -0.0000    0.0000    0.0000   -0.0000   -0.0013   -0.0000    0.0003
      161 CR     6h4-       0.0037   -0.0000    0.0000    0.0002    0.0000    0.0000   -0.0000   -0.0108    0.0000   -0.0009
      162 CR     7h4-       0.0011   -0.0000    0.0000    0.0018   -0.0000    0.0000   -0.0000   -0.0018    0.0000   -0.0000
      163 CR     6h3-       0.0000   -0.0000   -0.0000   -0.0000   -0.0000    0.0000    0.0000   -0.0000    0.0000   -0.0000
      164 CR     7h3-       0.0000   -0.0000    0.0000    0.0000    0.0000   -0.0000   -0.0000    0.0000   -0.0000    0.0000
      165 CR     6h2-      -0.0074    0.0000   -0.0000   -0.0006    0.0000    0.0000   -0.0000   -0.0057    0.0000    0.0023
      166 CR     7h2-      -0.0021    0.0000    0.0000    0.0003   -0.0000    0.0000   -0.0000   -0.0017    0.0000    0.0003
      167 CR     6h1-       0.0067   -0.0000   -0.0000   -0.0003    0.0000    0.0000   -0.0000   -0.0131    0.0000   -0.0017
      168 CR     7h1-       0.0023   -0.0000    0.0000    0.0000   -0.0000    0.0000   -0.0000   -0.0033   -0.0000   -0.0002
      169 CR     6h0        0.0000    0.0000   -0.0000   -0.0000   -0.0040   -0.0188    0.0000   -0.0000    0.0011    0.0000
      170 CR     7h0        0.0000    0.0000   -0.0000   -0.0000   -0.0016   -0.0043    0.0000   -0.0000    0.0006    0.0000
      171 CR     6h1+      -0.0000   -0.0067   -0.0003    0.0000    0.0000   -0.0000   -0.0131    0.0000   -0.0000   -0.0000
      172 CR     7h1+      -0.0000   -0.0023    0.0000   -0.0000    0.0000   -0.0000   -0.0033    0.0000   -0.0000   -0.0000
      173 CR     6h2+      -0.0000   -0.0074    0.0006   -0.0000   -0.0000   -0.0000    0.0057   -0.0000    0.0000   -0.0000
      174 CR     7h2+      -0.0000   -0.0021   -0.0003    0.0000   -0.0000    0.0000    0.0017   -0.0000    0.0000   -0.0000
      175 CR     6h3+       0.0000    0.0000   -0.0000   -0.0000   -0.0002   -0.0036   -0.0000   -0.0000    0.0006    0.0000
      176 CR     7h3+       0.0000    0.0000    0.0000   -0.0000    0.0015   -0.0021    0.0000   -0.0000    0.0006   -0.0000
      177 CR     6h4+      -0.0000   -0.0037    0.0002   -0.0000    0.0000   -0.0000   -0.0108    0.0000   -0.0000   -0.0000
      178 CR     7h4+      -0.0000   -0.0011    0.0018   -0.0000   -0.0000   -0.0000   -0.0018    0.0000   -0.0000   -0.0000
      179 CR     6h5+      -0.0000   -0.0094    0.0010   -0.0000   -0.0000   -0.0000    0.0060   -0.0000   -0.0000   -0.0000
      180 CR     7h5+      -0.0000   -0.0026    0.0000   -0.0000   -0.0000    0.0000    0.0013   -0.0000   -0.0000   -0.0000

          Orbital           21        22        23        24        25        26        27        28        29        30    
          Energy           -0.1896   -0.1725   -0.1725   -0.1686   -0.1563   -0.1527   -0.1527   -0.1061   -0.0655   -0.0654
          Occ. No.          0.0000    0.0000    0.0000    0.0000    0.0000    0.0000    0.0000    0.0000    0.0000    0.0000

        1 CR     1s         0.0000    0.0000   -0.0000   -0.0000   -0.0000    0.0000   -0.0000   -0.0000   -0.0000   -0.0000
        2 CR     2s         0.0000   -0.0000   -0.0000   -0.0002   -0.0002   -0.0000   -0.0000   -0.0002    0.0000    0.0000
        3 CR     3s         0.0000   -0.0000   -0.0000   -0.0049   -0.0121   -0.0000    0.0000    0.0092    0.0000    0.0008
        4 CR     4s        -0.0000   -0.0000   -0.0000    0.0132   -0.0121    0.0000    0.0000   -0.0302    0.0000    0.0055
        5 CR     5s         0.0000    0.0000    0.0000   -0.0678    0.0356   -0.0000   -0.0000   -0.3348   -0.0000   -0.0055
        6 CR     6s         0.0000    0.0000    0.0000   -0.0722    0.0701   -0.0000    0.0000    0.0041   -0.0000   -0.0035
        7 CR     7s         0.0000    0.0000    0.0000   -0.0514    0.0722   -0.0000    0.0000    0.6029    0.0000    0.0047
        8 CR     8s         0.0000    0.0000    0.0000   -0.0345    0.0589   -0.0000    0.0000    0.6905    0.0000    0.0071
        9 CR     9s         0.0000    0.0000    0.0000   -0.0048    0.0108   -0.0000    0.0000    0.1593    0.0000    0.0019
       10 CR    10s         0.0000    0.0000    0.0000   -0.0004    0.0010   -0.0000    0.0000    0.0160    0.0000    0.0002
       11 CR     2px        0.0000    0.0002    0.0000   -0.0000    0.0000    0.0008   -0.0000    0.0000   -0.0000   -0.0000
       12 CR     3px       -0.0044   -0.0107   -0.0000   -0.0000    0.0000    0.0670   -0.0000    0.0000   -0.0000   -0.0000
       13 CR     4px       -0.0166   -0.1031   -0.0000    0.0000   -0.0000   -0.0106    0.0000    0.0000   -0.0000   -0.0000
       14 CR     5px        0.0146    0.3279    0.0000   -0.0000   -0.0000   -0.0136    0.0000    0.0000   -0.0000   -0.0000
       15 CR     6px        0.0384    0.8285    0.0000   -0.0000   -0.0000   -0.0821    0.0000   -0.0000    0.0000    0.0000
       16 CR     7px        0.0149    0.3861    0.0000   -0.0000   -0.0000   -0.0404    0.0000   -0.0000   -0.0000    0.0000
       17 CR     8px        0.0050    0.1770    0.0000   -0.0000   -0.0000   -0.0259    0.0000   -0.0000   -0.0000    0.0000
       18 CR     9px        0.0001    0.0309    0.0000   -0.0000   -0.0000   -0.0096    0.0000   -0.0000   -0.0000    0.0000
       19 CR    10px       -0.0005   -0.0025   -0.0000   -0.0000   -0.0000   -0.0013    0.0000   -0.0000   -0.0000   -0.0000
       20 CR    11px       -0.0001   -0.0013   -0.0000    0.0000   -0.0000    0.0000   -0.0000   -0.0000   -0.0000   -0.0000
       21 CR     2py       -0.0000   -0.0000    0.0002   -0.0000   -0.0000    0.0000    0.0008   -0.0000   -0.0000   -0.0000
       22 CR     3py        0.0000    0.0000   -0.0107   -0.0000    0.0000    0.0000    0.0670   -0.0000   -0.0000   -0.0000
       23 CR     4py        0.0000    0.0000   -0.1031    0.0000    0.0000   -0.0000   -0.0106   -0.0000   -0.0000    0.0000
       24 CR     5py       -0.0000   -0.0000    0.3279    0.0000   -0.0000   -0.0000   -0.0136    0.0000   -0.0000   -0.0000
       25 CR     6py       -0.0000   -0.0000    0.8285    0.0000    0.0000   -0.0000   -0.0821   -0.0000    0.0000   -0.0000
       26 CR     7py       -0.0000   -0.0000    0.3861    0.0000    0.0000   -0.0000   -0.0404   -0.0000    0.0000    0.0000
       27 CR     8py       -0.0000   -0.0000    0.1770    0.0000    0.0000   -0.0000   -0.0259   -0.0000    0.0000    0.0000
       28 CR     9py       -0.0000   -0.0000    0.0309    0.0000    0.0000   -0.0000   -0.0096   -0.0000    0.0000    0.0000
       29 CR    10py        0.0000    0.0000   -0.0025   -0.0000    0.0000   -0.0000   -0.0013   -0.0000    0.0000    0.0000
       30 CR    11py        0.0000    0.0000   -0.0013   -0.0000   -0.0000    0.0000    0.0000   -0.0000    0.0000    0.0000
       31 CR     2pz       -0.0000    0.0000    0.0000    0.0001   -0.0004    0.0000    0.0000    0.0000   -0.0000   -0.0000
       32 CR     3pz       -0.0000   -0.0000   -0.0000   -0.0247   -0.0353    0.0000    0.0000    0.0036   -0.0000   -0.0020
       33 CR     4pz        0.0000   -0.0000   -0.0000   -0.1188    0.0680   -0.0000   -0.0000   -0.0040   -0.0000   -0.0022
       34 CR     5pz        0.0000    0.0000    0.0000    0.2656   -0.1095    0.0000   -0.0000   -0.0354   -0.0000   -0.0078
       35 CR     6pz        0.0000    0.0000    0.0000    0.7392   -0.3293    0.0000   -0.0000    0.0250    0.0000    0.0003
       36 CR     7pz       -0.0000    0.0000    0.0000    0.3658   -0.1951    0.0000   -0.0000    0.0770    0.0000    0.0104
       37 CR     8pz       -0.0000    0.0000    0.0000    0.1806   -0.1126    0.0000   -0.0000    0.0822    0.0000    0.0129
       38 CR     9pz       -0.0000    0.0000    0.0000    0.0380   -0.0305    0.0000   -0.0000    0.0395    0.0000    0.0069
       39 CR    10pz       -0.0000   -0.0000   -0.0000    0.0003   -0.0043    0.0000   -0.0000    0.0112    0.0000    0.0021
       40 CR    11pz       -0.0000   -0.0000   -0.0000   -0.0009   -0.0002    0.0000   -0.0000    0.0014    0.0000    0.0003
       41 CR     3d2-      -0.0000    0.0000   -0.0119    0.0000   -0.0000   -0.0000   -0.2294    0.0000    0.0000    0.0000
       42 CR     4d2-       0.0000   -0.0000    0.0220    0.0000    0.0000    0.0000    0.0871    0.0000   -0.0000   -0.0000
       43 CR     5d2-       0.0000   -0.0000    0.0504    0.0000    0.0000    0.0000    0.2192   -0.0000    0.0000    0.0000
       44 CR     6d2-       0.0000   -0.0000    0.0455    0.0000    0.0000    0.0000    0.2412   -0.0000    0.0000    0.0000
       45 CR     7d2-       0.0000   -0.0000    0.0482    0.0000    0.0000    0.0000    0.2775   -0.0000    0.0000    0.0000
       46 CR     8d2-       0.0000   -0.0000    0.0199   -0.0000    0.0000    0.0000    0.1334   -0.0000    0.0000    0.0000
       47 CR     9d2-       0.0000   -0.0000    0.0040   -0.0000    0.0000    0.0000    0.0336   -0.0000    0.0000    0.0000
       48 CR    10d2-       0.0000   -0.0000    0.0005   -0.0000    0.0000    0.0000    0.0058   -0.0000    0.0000    0.0000
       49 CR     3d1-       0.0000   -0.0000    0.0059   -0.0000   -0.0000   -0.0000   -0.3870    0.0000    0.0000    0.0000
       50 CR     4d1-      -0.0000    0.0000   -0.0130    0.0000   -0.0000    0.0000    0.1552    0.0000    0.0000    0.0000
       51 CR     5d1-      -0.0000   -0.0000    0.0300    0.0000   -0.0000    0.0000    0.3650   -0.0000    0.0000   -0.0000
       52 CR     6d1-      -0.0000   -0.0000    0.0391    0.0000   -0.0000    0.0000    0.3947   -0.0000   -0.0000   -0.0000
       53 CR     7d1-      -0.0000   -0.0000    0.0484    0.0000   -0.0000    0.0000    0.4535   -0.0000   -0.0000   -0.0000
       54 CR     8d1-      -0.0000   -0.0000    0.0256    0.0000   -0.0000    0.0000    0.2174   -0.0000   -0.0000   -0.0000
       55 CR     9d1-      -0.0000   -0.0000    0.0070    0.0000    0.0000    0.0000    0.0541   -0.0000   -0.0000   -0.0000
       56 CR    10d1-       0.0000   -0.0000    0.0012    0.0000    0.0000    0.0000    0.0091   -0.0000   -0.0000   -0.0000
       57 CR     3d0        0.0000   -0.0000   -0.0000   -0.1552   -0.3900    0.0000    0.0000    0.0420   -0.0000   -0.0148
       58 CR     4d0       -0.0000    0.0000    0.0000    0.1201    0.1993   -0.0000   -0.0000   -0.0066   -0.0000   -0.0078
       59 CR     5d0       -0.0000    0.0000    0.0000    0.2083    0.4082   -0.0000   -0.0000   -0.0067   -0.0000    0.0003
       60 CR     6d0       -0.0000    0.0000    0.0000    0.2037    0.4184   -0.0000   -0.0000   -0.0165    0.0000    0.0088
       61 CR     7d0       -0.0000    0.0000    0.0000    0.2264    0.4701   -0.0000   -0.0000   -0.0254    0.0000    0.0157
       62 CR     8d0       -0.0000    0.0000    0.0000    0.1012    0.2168   -0.0000   -0.0000   -0.0172    0.0000    0.0124
       63 CR     9d0       -0.0000    0.0000    0.0000    0.0220    0.0509   -0.0000    0.0000   -0.0060    0.0000    0.0051
       64 CR    10d0        0.0000    0.0000    0.0000    0.0033    0.0081   -0.0000    0.0000   -0.0013    0.0000    0.0011
       65 CR     3d1+      -0.0518    0.0059    0.0000    0.0000   -0.0000   -0.3870    0.0000   -0.0000    0.0000    0.0000
       66 CR     4d1+       0.2477   -0.0130   -0.0000   -0.0000    0.0000    0.1552   -0.0000   -0.0000   -0.0000   -0.0000
       67 CR     5d1+       0.3075    0.0300    0.0000   -0.0000    0.0000    0.3650   -0.0000    0.0000    0.0000    0.0000
       68 CR     6d1+       0.2355    0.0391    0.0000   -0.0000    0.0000    0.3947   -0.0000    0.0000    0.0000    0.0000
       69 CR     7d1+       0.2327    0.0484    0.0000   -0.0000    0.0000    0.4535   -0.0000    0.0000    0.0000    0.0000
       70 CR     8d1+       0.0803    0.0256    0.0000   -0.0000    0.0000    0.2174   -0.0000    0.0000    0.0000    0.0000
       71 CR     9d1+       0.0089    0.0070    0.0000   -0.0000    0.0000    0.0541   -0.0000    0.0000    0.0000    0.0000
       72 CR    10d1+      -0.0000    0.0012    0.0000   -0.0000    0.0000    0.0091   -0.0000    0.0000    0.0000    0.0000
       73 CR     3d2+      -0.1104    0.0119    0.0000   -0.0000    0.0000    0.2294   -0.0000    0.0000    0.0000    0.0000
       74 CR     4d2+       0.3985   -0.0220   -0.0000    0.0000   -0.0000   -0.0871    0.0000    0.0000   -0.0000   -0.0000
       75 CR     5d2+       0.4953   -0.0504   -0.0000    0.0000   -0.0000   -0.2192    0.0000   -0.0000    0.0000    0.0000
       76 CR     6d2+       0.3823   -0.0455   -0.0000    0.0000   -0.0000   -0.2412    0.0000   -0.0000    0.0000    0.0000
       77 CR     7d2+       0.3769   -0.0482   -0.0000    0.0000   -0.0000   -0.2775    0.0000   -0.0000    0.0000    0.0000
       78 CR     8d2+       0.1296   -0.0199   -0.0000    0.0000   -0.0000   -0.1334    0.0000   -0.0000    0.0000    0.0000
       79 CR     9d2+       0.0145   -0.0040   -0.0000    0.0000   -0.0000   -0.0336    0.0000   -0.0000    0.0000    0.0000
       80 CR    10d2+       0.0001   -0.0005   -0.0000    0.0000   -0.0000   -0.0058    0.0000   -0.0000    0.0000    0.0000
       81 CR     4f3-      -0.0000    0.0000   -0.0000    0.0000    0.0000    0.0000    0.0000   -0.0000    0.1590   -0.0000
       82 CR     5f3-      -0.0000    0.0000   -0.0000    0.0000    0.0000    0.0000    0.0000   -0.0000    0.4168   -0.0000
       83 CR     6f3-      -0.0000    0.0000   -0.0000    0.0000    0.0000    0.0000   -0.0000   -0.0000    0.5659   -0.0000
       84 CR     7f3-      -0.0000    0.0000   -0.0000    0.0000    0.0000    0.0000   -0.0000   -0.0000    0.5388   -0.0000
       85 CR     8f3-      -0.0000    0.0000   -0.0000    0.0000    0.0000    0.0000   -0.0000   -0.0000    0.3437   -0.0000
       86 CR     9f3-      -0.0000    0.0000   -0.0000   -0.0000    0.0000    0.0000   -0.0000   -0.0000    0.2687   -0.0000
       87 CR     4f2-      -0.0000   -0.0000    0.0017    0.0000   -0.0000   -0.0000   -0.0576    0.0000    0.0000   -0.0000
       88 CR     5f2-       0.0000   -0.0000    0.0052    0.0000   -0.0000   -0.0000   -0.0256    0.0000    0.0000   -0.0000
       89 CR     6f2-       0.0000   -0.0000    0.0037    0.0000   -0.0000   -0.0000   -0.0068    0.0000    0.0000   -0.0000
       90 CR     7f2-       0.0000   -0.0000    0.0025    0.0000   -0.0000   -0.0000   -0.0066    0.0000    0.0000   -0.0000
       91 CR     8f2-       0.0000   -0.0000    0.0017    0.0000   -0.0000    0.0000    0.0001    0.0000    0.0000   -0.0000
       92 CR     9f2-       0.0000   -0.0000    0.0013    0.0000   -0.0000    0.0000    0.0019    0.0000    0.0000   -0.0000
       93 CR     4f1-       0.0000   -0.0000    0.0044    0.0000   -0.0000   -0.0000   -0.0088    0.0000   -0.0000    0.0000
       94 CR     5f1-      -0.0000   -0.0000    0.0070    0.0000   -0.0000    0.0000    0.0007    0.0000   -0.0000    0.0000
       95 CR     6f1-      -0.0000   -0.0000    0.0041    0.0000   -0.0000    0.0000    0.0089    0.0000   -0.0000    0.0000
       96 CR     7f1-      -0.0000   -0.0000    0.0016    0.0000   -0.0000    0.0000    0.0111    0.0000   -0.0000    0.0000
       97 CR     8f1-      -0.0000   -0.0000    0.0004    0.0000   -0.0000    0.0000    0.0086    0.0000   -0.0000    0.0000
       98 CR     9f1-      -0.0000   -0.0000    0.0000    0.0000   -0.0000    0.0000    0.0073    0.0000   -0.0000    0.0000
       99 CR     4f0       -0.0000    0.0000    0.0000    0.0143    0.0238   -0.0000   -0.0000   -0.0199    0.0000   -0.0253
      100 CR     5f0        0.0000    0.0000    0.0000    0.0140    0.0136   -0.0000    0.0000   -0.0247    0.0000   -0.0642
      101 CR     6f0        0.0000    0.0000    0.0000    0.0121    0.0153    0.0000    0.0000   -0.0131    0.0000   -0.0853
      102 CR     7f0        0.0000    0.0000    0.0000    0.0108    0.0205    0.0000   -0.0000   -0.0089    0.0000   -0.0805
      103 CR     8f0        0.0000    0.0000    0.0000    0.0055    0.0122    0.0000   -0.0000   -0.0056    0.0000   -0.0512
      104 CR     9f0        0.0000    0.0000    0.0000    0.0036    0.0091    0.0000   -0.0000   -0.0043    0.0000   -0.0400
      105 CR     4f1+      -0.0005    0.0044    0.0000   -0.0000    0.0000   -0.0088    0.0000   -0.0000   -0.0000    0.0000
      106 CR     5f1+       0.0096    0.0070    0.0000   -0.0000    0.0000    0.0007   -0.0000   -0.0000   -0.0000    0.0000
      107 CR     6f1+       0.0137    0.0041    0.0000   -0.0000   -0.0000    0.0089   -0.0000   -0.0000   -0.0000    0.0000
      108 CR     7f1+       0.0118    0.0016    0.0000   -0.0000   -0.0000    0.0111   -0.0000   -0.0000   -0.0000    0.0000
      109 CR     8f1+       0.0070    0.0004    0.0000   -0.0000   -0.0000    0.0086   -0.0000   -0.0000   -0.0000    0.0000
      110 CR     9f1+       0.0051    0.0000    0.0000   -0.0000   -0.0000    0.0073   -0.0000   -0.0000   -0.0000    0.0000
      111 CR     4f2+      -0.0098   -0.0017   -0.0000   -0.0000    0.0000    0.0576   -0.0000    0.0000   -0.0000    0.0000
      112 CR     5f2+       0.0098   -0.0052   -0.0000   -0.0000    0.0000    0.0256   -0.0000    0.0000   -0.0000    0.0000
      113 CR     6f2+       0.0181   -0.0037   -0.0000    0.0000    0.0000    0.0068   -0.0000    0.0000   -0.0000    0.0000
      114 CR     7f2+       0.0150   -0.0025   -0.0000    0.0000    0.0000    0.0066   -0.0000    0.0000   -0.0000    0.0000
      115 CR     8f2+       0.0093   -0.0017   -0.0000    0.0000    0.0000   -0.0001    0.0000    0.0000   -0.0000    0.0000
      116 CR     9f2+       0.0069   -0.0013   -0.0000    0.0000   -0.0000   -0.0019    0.0000    0.0000   -0.0000    0.0000
      117 CR     4f3+      -0.0000   -0.0000   -0.0000   -0.0122   -0.0205    0.0000    0.0000   -0.0090    0.0000    0.1557
      118 CR     5f3+      -0.0000   -0.0000   -0.0000   -0.0095   -0.0082   -0.0000    0.0000   -0.0137    0.0000    0.4111
      119 CR     6f3+      -0.0000    0.0000    0.0000   -0.0038   -0.0026    0.0000    0.0000   -0.0073    0.0000    0.5592
      120 CR     7f3+      -0.0000    0.0000    0.0000   -0.0023   -0.0032    0.0000   -0.0000   -0.0045    0.0000    0.5326
      121 CR     8f3+      -0.0000    0.0000    0.0000   -0.0010   -0.0009    0.0000   -0.0000   -0.0030    0.0000    0.3399
      122 CR     9f3+      -0.0000    0.0000    0.0000   -0.0005   -0.0003    0.0000   -0.0000   -0.0023    0.0000    0.2658
      123 CR     5g4-       0.0000   -0.0000    0.0015    0.0000   -0.0000   -0.0000   -0.0098    0.0000   -0.0000    0.0000
      124 CR     6g4-      -0.0000   -0.0000    0.0033    0.0000   -0.0000   -0.0000   -0.0030    0.0000   -0.0000    0.0000
      125 CR     7g4-      -0.0000   -0.0000    0.0017    0.0000   -0.0000    0.0000    0.0007    0.0000   -0.0000    0.0000
      126 CR     8g4-      -0.0000   -0.0000    0.0003    0.0000   -0.0000   -0.0000   -0.0010   -0.0000   -0.0000    0.0000
      127 CR     5g3-       0.0000   -0.0000    0.0000    0.0000   -0.0000   -0.0000   -0.0000   -0.0000    0.0034   -0.0000
      128 CR     6g3-      -0.0000   -0.0000    0.0000   -0.0000   -0.0000    0.0000   -0.0000   -0.0000    0.0064   -0.0000
      129 CR     7g3-       0.0000   -0.0000    0.0000   -0.0000   -0.0000    0.0000    0.0000    0.0000    0.0061   -0.0000
      130 CR     8g3-       0.0000    0.0000   -0.0000   -0.0000   -0.0000    0.0000   -0.0000   -0.0000    0.0044   -0.0000
      131 CR     5g2-       0.0000   -0.0000    0.0002    0.0000    0.0000    0.0000    0.0079   -0.0000    0.0000   -0.0000
      132 CR     6g2-      -0.0000   -0.0000    0.0003    0.0000    0.0000    0.0000    0.0024   -0.0000    0.0000   -0.0000
      133 CR     7g2-      -0.0000   -0.0000    0.0002    0.0000   -0.0000   -0.0000   -0.0007    0.0000    0.0000   -0.0000
      134 CR     8g2-      -0.0000   -0.0000    0.0002    0.0000    0.0000    0.0000    0.0005   -0.0000    0.0000   -0.0000
      135 CR     5g1-      -0.0000   -0.0000    0.0016    0.0000   -0.0000   -0.0000   -0.0022    0.0000   -0.0000    0.0000
      136 CR     6g1-      -0.0000   -0.0000    0.0042    0.0000   -0.0000    0.0000    0.0010    0.0000   -0.0000    0.0000
      137 CR     7g1-       0.0000   -0.0000    0.0023    0.0000   -0.0000    0.0000    0.0014    0.0000   -0.0000    0.0000
      138 CR     8g1-       0.0000   -0.0000    0.0005    0.0000   -0.0000   -0.0000   -0.0008   -0.0000   -0.0000    0.0000
      139 CR     5g0        0.0000    0.0000    0.0000    0.0087    0.0148   -0.0000   -0.0000   -0.0021    0.0000    0.0002
      140 CR     6g0       -0.0000    0.0000    0.0000    0.0074    0.0032    0.0000   -0.0000   -0.0017   -0.0000   -0.0007
      141 CR     7g0       -0.0000    0.0000   -0.0000    0.0024   -0.0018    0.0000    0.0000   -0.0005   -0.0000   -0.0010
      142 CR     8g0       -0.0000    0.0000   -0.0000    0.0010    0.0011   -0.0000   -0.0000   -0.0002   -0.0000   -0.0007
      143 CR     5g1+       0.0035    0.0016    0.0000   -0.0000   -0.0000   -0.0022    0.0000   -0.0000   -0.0000    0.0000
      144 CR     6g1+       0.0005    0.0042    0.0000   -0.0000   -0.0000    0.0010   -0.0000    0.0000   -0.0000    0.0000
      145 CR     7g1+      -0.0009    0.0023    0.0000   -0.0000    0.0000    0.0014   -0.0000    0.0000   -0.0000    0.0000
      146 CR     8g1+      -0.0004    0.0005    0.0000   -0.0000   -0.0000   -0.0008    0.0000    0.0000   -0.0000    0.0000
      147 CR     5g2+       0.0008   -0.0002   -0.0000    0.0000   -0.0000   -0.0079    0.0000   -0.0000   -0.0000    0.0000
      148 CR     6g2+      -0.0002   -0.0003   -0.0000    0.0000   -0.0000   -0.0024    0.0000    0.0000   -0.0000    0.0000
      149 CR     7g2+      -0.0006   -0.0002   -0.0000   -0.0000    0.0000    0.0007   -0.0000   -0.0000   -0.0000    0.0000
      150 CR     8g2+      -0.0005   -0.0002   -0.0000    0.0000   -0.0000   -0.0005    0.0000   -0.0000   -0.0000    0.0000
      151 CR     5g3+      -0.0000    0.0000    0.0000    0.0028    0.0030   -0.0000   -0.0000    0.0019    0.0000    0.0036
[...]
         3   17       2.10091933E-03  1.47505123E+06  7.07619013E-10  1.54229367E+05  1.62928060E+06
         4    8       1.87028322E-02  5.56032797E-05  3.60605955E+06  2.17809123E-05  3.60605955E+06
         4   10       2.53965723E-02  3.60606661E+06  5.56036422E-05  1.29060360E+06  4.89667020E+06
         4   12       7.69170983E-03  1.81881901E-08  2.21177899E+06  1.44995399E-16  2.21177899E+06
         4   14       1.64734262E-04  9.50838182E-10  1.15677984E+05  6.53343076E-16  1.15677984E+05
         4   16       1.90205639E-03  7.06737682E-10  1.47505989E+06  3.92090850E-09  1.47505989E+06
         4   18       2.10091933E-03  1.47505123E+06  7.07619013E-10  1.54229367E+05  1.62928060E+06
         5    7       2.53965812E-02  3.60606257E+06  5.56033400E-05  1.29060549E+06  4.89666807E+06
         5    9       1.87028464E-02  5.56033702E-05  3.60606331E+06  2.17809115E-05  3.60606331E+06
         5   11       7.69170298E-03  2.21177657E+06  1.81827838E-08  5.99690327E-06  2.21177657E+06
         5   13       1.64735413E-04  1.15678777E+05  9.51230870E-10  1.10480221E-06  1.15678777E+05
         5   15       2.10092505E-03  1.47504905E+06  7.07315868E-10  1.54234863E+05  1.62928392E+06
         5   17       1.90203103E-03  7.06644008E-10  1.47504086E+06  3.92256489E-09  1.47504086E+06
         6    8       2.53965812E-02  3.60606257E+06  5.56033400E-05  1.29060549E+06  4.89666807E+06
         6   10       1.87028464E-02  5.56033702E-05  3.60606331E+06  2.17809115E-05  3.60606331E+06
         6   12       7.69170298E-03  2.21177657E+06  1.81827838E-08  5.99690327E-06  2.21177657E+06
         6   14       1.64735413E-04  1.15678777E+05  9.51230870E-10  1.10480221E-06  1.15678777E+05
         6   16       2.10092505E-03  1.47504905E+06  7.07315868E-10  1.54234863E+05  1.62928392E+06
         6   18       1.90203103E-03  7.06644008E-10  1.47504086E+06  3.92256489E-09  1.47504086E+06
         7   11       8.06243228E-04  7.60800440E+03  1.22792750E-07  3.10269094E-09  7.60800440E+03
         7   13       1.28618325E-02  2.04638692E+06  3.30282673E-05  2.17486945E-05  2.04638692E+06
         7   15       9.28272133E-02  5.20292359E+06  8.68739233E-05  1.28936239E+07  1.80965475E+07
         7   17       2.66887567E-02  8.68738373E-05  5.20294507E+06  2.01035925E-04  5.20294507E+06
         8   12       8.06243228E-04  7.60800440E+03  1.22792750E-07  3.10269094E-09  7.60800440E+03
         8   14       1.28618325E-02  2.04638692E+06  3.30282673E-05  2.17486945E-05  2.04638692E+06
         8   16       9.28272133E-02  5.20292359E+06  8.68739233E-05  1.28936239E+07  1.80965475E+07
         8   18       2.66887567E-02  8.68738373E-05  5.20294507E+06  2.01035925E-04  5.20294507E+06
         9   11       8.06252345E-04  1.22789935E-07  7.60807196E+03  8.70552029E-20  7.60807196E+03
         9   13       1.28618330E-02  3.30280143E-05  2.04638580E+06  3.33374059E-16  2.04638580E+06
         9   15       2.66886852E-02  8.68739343E-05  5.20292257E+06  2.01034879E-04  5.20292257E+06
         9   17       9.28273920E-02  5.20292811E+06  8.68739844E-05  1.28936647E+07  1.80965929E+07
        10   12       8.06252345E-04  1.22789935E-07  7.60807196E+03  8.70552029E-20  7.60807196E+03
        10   14       1.28618330E-02  3.30280143E-05  2.04638580E+06  3.33374059E-16  2.04638580E+06
        10   16       2.66886852E-02  8.68739343E-05  5.20292257E+06  2.01034879E-04  5.20292257E+06
        10   18       9.28273920E-02  5.20292811E+06  8.68739844E-05  1.28936647E+07  1.80965929E+07
        11   13       1.01215366E-01  5.30060382E-06  2.67428084E-21  9.21531098E+06  9.21531098E+06
        11   15       6.09195255E-02  7.22528796E+06  3.41785784E-08  1.70733209E-05  7.22528796E+06
        11   17       6.09195510E-02  3.41826353E-08  7.22530131E+06  1.22421135E-17  7.22530131E+06
        12   14       1.01215366E-01  5.30060382E-06  2.67428084E-21  9.21531098E+06  9.21531098E+06
        12   16       6.09195255E-02  7.22528796E+06  3.41785784E-08  1.70733209E-05  7.22528796E+06
        12   18       6.09195510E-02  3.41826353E-08  7.22530131E+06  1.22421135E-17  7.22530131E+06
        13   15       1.24554973E-04  2.26566336E+02  1.07225362E-12  8.67364000E-09  2.26566336E+02
        13   17       1.24556790E-04  1.07168425E-12  2.26572254E+02  9.94116731E-20  2.26572254E+02
        14   16       1.24554973E-04  2.26566336E+02  1.07225362E-12  8.67364000E-09  2.26566336E+02
        14   18       1.24556790E-04  1.07168425E-12  2.26572254E+02  9.94116731E-20  2.26572254E+02
     -----------------------------------------------------------------------------------------------
--

++ Velocity transition strengths (SO states):
   ------------------------------------------
    for osc. strength at least    1.0000000000000001E-005

      From   To        Osc. strength     Einstein coefficients Ax, Ay, Az (sec-1)    Total A (sec-1)
     -----------------------------------------------------------------------------------------------
         1    3       9.05697869E-04  7.33398681E-10  8.92039935E+04  1.72896880E-16  8.92039935E+04
         1    5       9.05683427E-04  8.92026023E+04  7.32988789E-10  6.05103796E-07  8.92026023E+04
         1    7       3.27861695E-01  1.85868155E+08  2.99986360E-03  1.27566327E-04  1.85868155E+08
         1    9       3.27861691E-01  2.99986297E-03  1.85868212E+08  3.90465119E-16  1.85868212E+08
         1   11       3.10116772E-01  1.30697031E-04  1.25527557E-15  2.24099196E+08  2.24099196E+08
         1   13       4.39344308E-03  9.82327136E-06  9.14722286E-16  5.82868636E+06  5.82868636E+06
         1   15       7.12842362E-04  1.01704576E+06  4.80556830E-09  7.33860987E-05  1.01704576E+06
         1   17       7.12829744E-04  4.81105219E-09  1.01702817E+06  4.66684188E-20  1.01702817E+06
         2    4       9.05697869E-04  7.33398681E-10  8.92039935E+04  1.72896880E-16  8.92039935E+04
         2    6       9.05683427E-04  8.92026023E+04  7.32988789E-10  6.05103796E-07  8.92026023E+04
         2    8       3.27861695E-01  1.85868155E+08  2.99986360E-03  1.27566327E-04  1.85868155E+08
         2   10       3.27861691E-01  2.99986297E-03  1.85868212E+08  3.90465119E-16  1.85868212E+08
         2   12       3.10116772E-01  1.30697031E-04  1.25527557E-15  2.24099196E+08  2.24099196E+08
         2   14       4.39344308E-03  9.82327136E-06  9.14722286E-16  5.82868636E+06  5.82868636E+06
         2   16       7.12842362E-04  1.01704576E+06  4.80556830E-09  7.33860987E-05  1.01704576E+06
         2   18       7.12829744E-04  4.81105219E-09  1.01702817E+06  4.66684188E-20  1.01702817E+06
         3    7       9.68005761E-03  2.87786960E-05  1.86640104E+06  1.14507392E-05  1.86640104E+06
         3    9       1.31991263E-02  1.86640509E+06  2.87788478E-05  6.78505002E+05  2.54491009E+06
         3   11       4.34132301E-03  1.02630203E-08  1.24836748E+06  7.09760243E-16  1.24836748E+06
         3   13       3.07737086E-04  1.77637805E-09  2.16096694E+05  1.10773801E-19  2.16096694E+05
         3   15       1.69080957E-03  6.28321634E-10  1.31124085E+06  1.16282861E-09  1.31124085E+06
         3   17       1.74978508E-03  1.31123287E+06  6.28404314E-10  4.57448798E+04  1.35697775E+06
         4    8       9.68005761E-03  2.87786960E-05  1.86640104E+06  1.14507392E-05  1.86640104E+06
         4   10       1.31991263E-02  1.86640509E+06  2.87788478E-05  6.78505002E+05  2.54491009E+06
         4   12       4.34132301E-03  1.02630203E-08  1.24836748E+06  7.09760243E-16  1.24836748E+06
         4   14       3.07737086E-04  1.77637805E-09  2.16096694E+05  1.10773801E-19  2.16096694E+05
         4   16       1.69080957E-03  6.28321634E-10  1.31124085E+06  1.16282861E-09  1.31124085E+06
         4   18       1.74978508E-03  1.31123287E+06  6.28404314E-10  4.57448798E+04  1.35697775E+06
         5    7       1.31991258E-02  1.86640221E+06  2.87788334E-05  6.78505778E+05  2.54490799E+06
         5    9       9.68006915E-03  2.87787650E-05  1.86640380E+06  1.14507918E-05  1.86640380E+06
         5   11       4.34132038E-03  1.24836647E+06  1.02632172E-08  4.25428144E-06  1.24836647E+06
         5   13       3.07738271E-04  2.16097498E+05  1.77650607E-09  1.15082832E-06  2.16097498E+05
         5   15       1.74978746E-03  1.31123074E+06  6.28387052E-10  4.57479273E+04  1.35697867E+06
         5   17       1.69078544E-03  6.28172622E-10  1.31122271E+06  1.16336074E-09  1.31122271E+06
         6    8       1.31991258E-02  1.86640221E+06  2.87788334E-05  6.78505778E+05  2.54490799E+06
         6   10       9.68006915E-03  2.87787650E-05  1.86640380E+06  1.14507918E-05  1.86640380E+06
         6   12       4.34132038E-03  1.24836647E+06  1.02632172E-08  4.25428144E-06  1.24836647E+06
         6   14       3.07738271E-04  2.16097498E+05  1.77650607E-09  1.15082832E-06  2.16097498E+05
         6   16       1.74978746E-03  1.31123074E+06  6.28387052E-10  4.57479273E+04  1.35697867E+06
         6   18       1.69078544E-03  6.28172622E-10  1.31122271E+06  1.16336074E-09  1.31122271E+06
         7   11       1.35608894E-03  1.27965930E+04  2.06535662E-07  2.46881653E-09  1.27965930E+04
         7   13       1.72895366E-02  2.75086809E+06  4.43982955E-05  2.68930075E-05  2.75086809E+06
         7   15       1.09109552E-01  6.06571569E+06  1.01279957E-04  1.52051270E+07  2.12708427E+07
         7   17       3.11144003E-02  1.01279955E-04  6.06574073E+06  2.37076557E-04  6.06574073E+06
         8   12       1.35608894E-03  1.27965930E+04  2.06535662E-07  2.46881653E-09  1.27965930E+04
         8   14       1.72895366E-02  2.75086809E+06  4.43982955E-05  2.68930075E-05  2.75086809E+06
         8   16       1.09109552E-01  6.06571569E+06  1.01279957E-04  1.52051270E+07  2.12708427E+07
         8   18       3.11144003E-02  1.01279955E-04  6.06574073E+06  2.37076557E-04  6.06574073E+06
         9   11       1.35610217E-03  2.06535328E-07  1.27966868E+04  1.56275580E-18  1.27966868E+04
         9   13       1.72895369E-02  4.43982529E-05  2.75086651E+06  5.24087188E-16  2.75086651E+06
         9   15       3.11143329E-02  1.01280042E-04  6.06571759E+06  2.37075691E-04  6.06571759E+06
         9   17       1.09109742E-01  6.06572103E+06  1.01280275E-04  1.52051712E+07  2.12708922E+07
        10   12       1.35610217E-03  2.06535328E-07  1.27966868E+04  1.56275580E-18  1.27966868E+04
        10   14       1.72895369E-02  4.43982529E-05  2.75086651E+06  5.24087188E-16  2.75086651E+06
        10   16       3.11143329E-02  1.01280042E-04  6.06571759E+06  2.37075691E-04  6.06571759E+06
        10   18       1.09109742E-01  6.06572103E+06  1.01280275E-04  1.52051712E+07  2.12708922E+07
        11   13       1.25874490E-01  6.68252051E-06  3.14711450E-17  1.14604793E+07  1.14604793E+07
        11   15       7.41174583E-02  8.79064366E+06  4.15847342E-08  1.90472853E-05  8.79064366E+06
        11   17       7.41174696E-02  4.15891535E-08  8.79065756E+06  7.42194537E-18  8.79065756E+06
        12   14       1.25874490E-01  6.68252051E-06  3.14711450E-17  1.14604793E+07  1.14604793E+07
        12   16       7.41174583E-02  8.79064366E+06  4.15847342E-08  1.90472853E-05  8.79064366E+06
        12   18       7.41174696E-02  4.15891535E-08  8.79065756E+06  7.42194537E-18  8.79065756E+06
        13   15       1.22184211E-04  2.22254676E+02  1.05146514E-12  3.02890727E-09  2.22254676E+02
        13   17       1.22186032E-04  1.04955995E-12  2.22260553E+02  1.14997531E-17  2.22260553E+02
        14   16       1.22184211E-04  2.22254676E+02  1.05146514E-12  3.02890727E-09  2.22254676E+02
        14   18       1.22186032E-04  1.04955995E-12  2.22260553E+02  1.14997531E-17  2.22260553E+02
     -----------------------------------------------------------------------------------------------
--

++ Length and velocity gauge comparison (SO states):

 --------------------------------------------------
 A comparison between the dipole oscillator strengths in 
 length and velocity gauge will be performed

 All dipole oscillator differences above the tolerance of   0.10000000000000001       will be printed 

 Due to basis set deficiency these oscillator may be problematic 

 The tolerance is defined as ABS(1-O_l/O_v) 
 O_l : dipole oscillator strength in length gauge
 O_p : dipole oscillator strength in velocity gauge
 --------------------------------------------------

  Problematic transitions have been found

      From   To       Difference (%) Osc. st. (len.) Osc. st. (vel.)
     ---------------------------------------------------------------
         1    3            21.218139  7.13525634E-04  9.05697869E-04
         1    5            21.218117  7.13514460E-04  9.05683427E-04
         1   13            13.790092  4.99930295E-03  4.39344308E-03
         1   15            18.582254  8.45304539E-04  7.12842362E-04
         1   17            18.582327  8.45290100E-04  7.12829744E-04
         2    4            21.218139  7.13525634E-04  9.05697869E-04
         2    6            21.218117  7.13514460E-04  9.05683427E-04
         2   14            13.790092  4.99930295E-03  4.39344308E-03
         2   16            18.582254  8.45304539E-04  7.12842362E-04
         2   18            18.582327  8.45290100E-04  7.12829744E-04
         3    7            93.209927  1.87028322E-02  9.68005761E-03
         3    9            92.411011  2.53965723E-02  1.31991263E-02
         3   11            77.174327  7.69170983E-03  4.34132301E-03
         3   13            46.469155  1.64734262E-04  3.07737086E-04
         3   15            12.493827  1.90205639E-03  1.69080957E-03
         3   17            20.067279  2.10091933E-03  1.74978508E-03
         4    8            93.209927  1.87028322E-02  9.68005761E-03
         4   10            92.411011  2.53965723E-02  1.31991263E-02
         4   12            77.174327  7.69170983E-03  4.34132301E-03
         4   14            46.469155  1.64734262E-04  3.07737086E-04
         4   16            12.493827  1.90205639E-03  1.69080957E-03
         4   18            20.067279  2.10091933E-03  1.74978508E-03
         5    7            92.411086  2.53965812E-02  1.31991258E-02
         5    9            93.209842  1.87028464E-02  9.68006915E-03
         5   11            77.174276  7.69170298E-03  4.34132038E-03
         5   13            46.468987  1.64735413E-04  3.07738271E-04
         5   15            20.067442  2.10092505E-03  1.74978746E-03
         5   17            12.493933  1.90203103E-03  1.69078544E-03
         6    8            92.411086  2.53965812E-02  1.31991258E-02
         6   10            93.209842  1.87028464E-02  9.68006915E-03
         6   12            77.174276  7.69170298E-03  4.34132038E-03
         6   14            46.468987  1.64735413E-04  3.07738271E-04
         6   16            20.067442  2.10092505E-03  1.74978746E-03
         6   18            12.493933  1.90203103E-03  1.69078544E-03
         7   11            40.546434  8.06243228E-04  1.35608894E-03
         7   13            25.609154  1.28618325E-02  1.72895366E-02
         7   15            14.922927  9.28272133E-02  1.09109552E-01
         7   17            14.223779  2.66887567E-02  3.11144003E-02
         8   12            40.546434  8.06243228E-04  1.35608894E-03
         8   14            25.609154  1.28618325E-02  1.72895366E-02
         8   16            14.922927  9.28272133E-02  1.09109552E-01
         8   18            14.223779  2.66887567E-02  3.11144003E-02
         9   11            40.546342  8.06252345E-04  1.35610217E-03
         9   13            25.609152  1.28618330E-02  1.72895369E-02
         9   15            14.223823  2.66886852E-02  3.11143329E-02
         9   17            14.922912  9.28273920E-02  1.09109742E-01
        10   12            40.546342  8.06252345E-04  1.35610217E-03
        10   14            25.609152  1.28618330E-02  1.72895369E-02
        10   16            14.223823  2.66886852E-02  3.11143329E-02
        10   18            14.922912  9.28273920E-02  1.09109742E-01
        11   13            19.590247  1.01215366E-01  1.25874490E-01
        11   15            17.806780  6.09195255E-02  7.41174583E-02
        11   17            17.806758  6.09195510E-02  7.41174696E-02
        12   14            19.590247  1.01215366E-01  1.25874490E-01
        12   16            17.806780  6.09195255E-02  7.41174583E-02
        12   18            17.806758  6.09195510E-02  7.41174696E-02
     ---------------------------------------------------------------

 Number of problematic transitions =                    56

--

 Electric-dipole - electric-octupole not included
++ I/O STATISTICS
 
  I. General I/O information
  - - - - - - - - - - - - - - - - - - - - - - - - - - - - - - - - - - - - - - - - - - -
  Unit  Name          Flsize      Write/Read            MBytes           Write/Read
                      (MBytes)       Calls              In/Out           Time, sec.
  - - - - - - - - - - - - - - - - - - - - - - - - - - - - - - - - - - - - - - - - - - -
   1  SCRATCH           0.00 .       9/      45 .      0.0/      0.0 .       0/       0
   2  ANNI              0.00 .       0/       0 .      0.0/      0.0 .       0/       0
   3  RUNFILE          14.85 .     322/   10517 .      2.3/     76.3 .       0/       0
   4  ONEINT            5.58 .       0/   23543 .      0.0/   3739.9 .       0/       0
   5  JOBIPH            6.48 .       0/      92 .      0.0/      0.8 .       0/       0
   6  ORDINT          506.53 .       1/    4053 .      0.0/   1013.0 .       0/       0
  - - - - - - - - - - - - - - - - - - - - - - - - - - - - - - - - - - - - - - - - - - -
   *  TOTAL           533.45 .     332/   38250 .      2.3/   4830.0 .       0/       0
  - - - - - - - - - - - - - - - - - - - - - - - - - - - - - - - - - - - - - - - - - - -
 
  II. I/O Access Patterns
  - - - - - - - - - - - - - - - - - - - -
  Unit  Name               % of random
                         Write/Read calls
  - - - - - - - - - - - - - - - - - - - -
   1  SCRATCH             88.9/ 100.0
   2  ANNI                 0.0/   0.0
   3  RUNFILE             28.6/  10.8
   4  ONEINT               0.0/  16.4
   5  JOBIPH               0.0/  76.1
   6  ORDINT             100.0/   0.0
  - - - - - - - - - - - - - - - - - - - -
--
--- Stop Module: rassi at Fri Jan 10 02:35:41 2025 /rc=_RC_ALL_IS_WELL_ ---
*** files: xmldump
    saved to directory /home4/s4752295/Internship/Initial_simulations/Point_charge_model/1_electron/active_space_9_non_rel/Cr/varying_bond_length
--- Module rassi spent 3 seconds ---

.##################.
.# Happy landing! #.
.##################.

    Timing: Wall=55.61 User=43.55 System=9.12

###############################################################################
Hbrk Cluster
Job 14556700 for user s4752295
Finished at: Fri Jan 10 02:35:41 CET 2025

Job details:
============

Job ID                         : 14556700
Name                           : Cr_no_c_light
User                           : s4752295
Partition                      : regularmedium
Nodes                          : node101
Number of Nodes                : 1
Cores                          : 1
Number of Tasks                : 1
State                          : COMPLETED  
Submit                         : 2025-01-10T02:34:40
Start                          : 2025-01-10T02:34:40
End                            : 2025-01-10T02:35:41
Reserved walltime              : 15:00:00
Used walltime                  : 00:01:01
Used CPU time                  : 00:00:54 (Efficiency: 87.79%)
% User (Computation)           : 82.58%
% System (I/O)                 : 17.42%
Total memory reserved          : 25000M
Maximum memory used            : 2.03G

Acknowledgements:
=================

Please see this page for information about acknowledging Hbrk in your publications:

https://wiki.hpc.rug.nl/habrok/introduction/scientific_output

################################################################################
